 Entering Gaussian System, Link 0=/share/apps/gaussian16/g16/g16
 Initial command:
 /share/apps/gaussian16/g16/l1.exe "/home/am2145//scratch/3544/Gau-26498.inp" -scrdir="/home/am2145//scratch/3544/"
 Entering Link 1 = /share/apps/gaussian16/g16/l1.exe PID=     26499.
  
 Copyright (c) 1988,1990,1992,1993,1995,1998,2003,2009,2016,
            Gaussian, Inc.  All Rights Reserved.
  
 This is part of the Gaussian(R) 16 program.  It is based on
 the Gaussian(R) 09 system (copyright 2009, Gaussian, Inc.),
 the Gaussian(R) 03 system (copyright 2003, Gaussian, Inc.),
 the Gaussian(R) 98 system (copyright 1998, Gaussian, Inc.),
 the Gaussian(R) 94 system (copyright 1995, Gaussian, Inc.),
 the Gaussian 92(TM) system (copyright 1992, Gaussian, Inc.),
 the Gaussian 90(TM) system (copyright 1990, Gaussian, Inc.),
 the Gaussian 88(TM) system (copyright 1988, Gaussian, Inc.),
 the Gaussian 86(TM) system (copyright 1986, Carnegie Mellon
 University), and the Gaussian 82(TM) system (copyright 1983,
 Carnegie Mellon University). Gaussian is a federally registered
 trademark of Gaussian, Inc.
  
 This software contains proprietary and confidential information,
 including trade secrets, belonging to Gaussian, Inc.
  
 This software is provided under written license and may be
 used, copied, transmitted, or stored only in accord with that
 written license.
  
 The following legend is applicable only to US Government
 contracts under FAR:
  
                    RESTRICTED RIGHTS LEGEND
  
 Use, reproduction and disclosure by the US Government is
 subject to restrictions as set forth in subparagraphs (a)
 and (c) of the Commercial Computer Software - Restricted
 Rights clause in FAR 52.227-19.
  
 Gaussian, Inc.
 340 Quinnipiac St., Bldg. 40, Wallingford CT 06492
  
  
 ---------------------------------------------------------------
 Warning -- This program may not be used in any manner that
 competes with the business of Gaussian, Inc. or will provide
 assistance to any competitor of Gaussian, Inc.  The licensee
 of this program is prohibited from giving any competitor of
 Gaussian, Inc. access to this program.  By using this program,
 the user acknowledges that Gaussian, Inc. is engaged in the
 business of creating and licensing software in the field of
 computational chemistry and represents and warrants to the
 licensee that it is not a competitor of Gaussian, Inc. and that
 it will not use this program in any manner prohibited above.
 ---------------------------------------------------------------
  

 Cite this work as:
 Gaussian 16, Revision A.03,
 M. J. Frisch, G. W. Trucks, H. B. Schlegel, G. E. Scuseria, 
 M. A. Robb, J. R. Cheeseman, G. Scalmani, V. Barone, 
 G. A. Petersson, H. Nakatsuji, X. Li, M. Caricato, A. V. Marenich, 
 J. Bloino, B. G. Janesko, R. Gomperts, B. Mennucci, H. P. Hratchian, 
 J. V. Ortiz, A. F. Izmaylov, J. L. Sonnenberg, D. Williams-Young, 
 F. Ding, F. Lipparini, F. Egidi, J. Goings, B. Peng, A. Petrone, 
 T. Henderson, D. Ranasinghe, V. G. Zakrzewski, J. Gao, N. Rega, 
 G. Zheng, W. Liang, M. Hada, M. Ehara, K. Toyota, R. Fukuda, 
 J. Hasegawa, M. Ishida, T. Nakajima, Y. Honda, O. Kitao, H. Nakai, 
 T. Vreven, K. Throssell, J. A. Montgomery, Jr., J. E. Peralta, 
 F. Ogliaro, M. J. Bearpark, J. J. Heyd, E. N. Brothers, K. N. Kudin, 
 V. N. Staroverov, T. A. Keith, R. Kobayashi, J. Normand, 
 K. Raghavachari, A. P. Rendell, J. C. Burant, S. S. Iyengar, 
 J. Tomasi, M. Cossi, J. M. Millam, M. Klene, C. Adamo, R. Cammi, 
 J. W. Ochterski, R. L. Martin, K. Morokuma, O. Farkas, 
 J. B. Foresman, and D. J. Fox, Gaussian, Inc., Wallingford CT, 2016.
 
 ******************************************
 Gaussian 16:  ES64L-G16RevA.03 25-Dec-2016
                25-Mar-2019 
 ******************************************
 %nprocshared=20
 Will use up to   20 processors via shared memory.
 %mem=100GB
 %chk=7-memb-5.chk
 -------------------------------------------
 # opt freq b3lyp/6-311+g(d,p) int=grid=fine
 -------------------------------------------
 1/18=20,19=15,26=3,38=1/1,3;
 2/9=110,12=2,17=6,18=5,40=1/2;
 3/5=4,6=6,7=111,11=2,25=1,30=1,71=1,74=-5,75=-4/1,2,3;
 4//1;
 5/5=2,38=5/2;
 6/7=2,8=2,9=2,10=2,28=1/1;
 7//1,2,3,16;
 1/18=20,19=15,26=3/3(2);
 2/9=110/2;
 99//99;
 2/9=110/2;
 3/5=4,6=6,7=111,11=2,25=1,30=1,71=1,74=-5,75=-4/1,2,3;
 4/5=5,16=3,69=1/1;
 5/5=2,38=5/2;
 7//1,2,3,16;
 1/18=20,19=15,26=3/3(-5);
 2/9=110/2;
 6/7=2,8=2,9=2,10=2,19=2,28=1/1;
 99/9=1/99;
 --------
 7-memb-5
 --------
 Symbolic Z-matrix:
 Charge =  0 Multiplicity = 1
 C                    -7.11615   0.90153  -0.66335 
 C                    -5.82312   1.34957  -0.9652 
 C                    -4.88116   0.39474  -1.33461 
 C                    -7.40758  -0.46068  -0.51817 
 C                    -6.40849  -1.41233  -0.73298 
 C                    -5.20807  -0.95516  -1.26014 
 C                    -3.41114   0.47962  -1.21268 
 C                    -2.96905  -0.83297  -1.07799 
 C                    -4.04884  -1.7022   -1.12047 
 C                    -1.82742  -1.17259  -0.36644 
 C                    -0.97693  -0.12514  -0.0107 
 C                    -1.37645   1.20368  -0.20964 
 C                    -2.64646   1.53095  -0.70918 
 C                    -0.49272   2.21917   0.1583 
 C                    -0.86166   3.55196  -0.00828 
 C                    -3.05623   2.86687  -0.81076 
 C                    -2.12913   3.86653  -0.49637 
 H                    -7.89294   1.62338  -0.43684 
 H                    -8.37518  -0.76605  -0.13585 
 C                    -6.45788  -2.7259   -0.25323 
 C                    -4.04169  -2.9069   -0.4285 
 C                    -1.71592  -2.47896   0.12255 
 H                    -0.05026  -0.34399   0.5076 
 H                     0.48964   1.98142   0.55127 
 H                    -2.39842   4.91354  -0.58215 
 H                    -0.16998   4.34383   0.25774 
 C                    -4.30494   3.31141  -1.2693 
 C                    -5.5516    2.71705  -1.0425 
 H                    -4.36275   4.35688  -1.55166 
 H                    -6.40533   3.38588  -1.03116 
 C                    -2.82018  -3.34224   0.0963 
 C                    -5.27945  -3.46966  -0.09887 
 H                    -7.38656  -3.11459   0.14939 
 H                    -5.31538  -4.4184    0.4248 
 H                    -2.76899  -4.2868    0.62622 
 H                    -0.82585  -2.77327   0.66734 
 

 GradGradGradGradGradGradGradGradGradGradGradGradGradGradGradGradGradGrad
 Berny optimization.
 Initialization pass.
                           ----------------------------
                           !    Initial Parameters    !
                           ! (Angstroms and Degrees)  !
 --------------------------                            --------------------------
 ! Name  Definition              Value          Derivative Info.                !
 --------------------------------------------------------------------------------
 ! R1    R(1,2)                  1.4013         estimate D2E/DX2                !
 ! R2    R(1,4)                  1.4006         estimate D2E/DX2                !
 ! R3    R(1,18)                 1.0843         estimate D2E/DX2                !
 ! R4    R(2,3)                  1.3912         estimate D2E/DX2                !
 ! R5    R(2,28)                 1.3963         estimate D2E/DX2                !
 ! R6    R(3,6)                  1.3909         estimate D2E/DX2                !
 ! R7    R(3,7)                  1.4775         estimate D2E/DX2                !
 ! R8    R(4,5)                  1.3964         estimate D2E/DX2                !
 ! R9    R(4,19)                 1.0843         estimate D2E/DX2                !
 ! R10   R(5,6)                  1.3885         estimate D2E/DX2                !
 ! R11   R(5,20)                 1.3993         estimate D2E/DX2                !
 ! R12   R(6,9)                  1.3861         estimate D2E/DX2                !
 ! R13   R(7,8)                  1.3916         estimate D2E/DX2                !
 ! R14   R(7,13)                 1.3941         estimate D2E/DX2                !
 ! R15   R(8,9)                  1.3868         estimate D2E/DX2                !
 ! R16   R(8,10)                 1.3874         estimate D2E/DX2                !
 ! R17   R(9,21)                 1.3893         estimate D2E/DX2                !
 ! R18   R(10,11)                1.3954         estimate D2E/DX2                !
 ! R19   R(10,22)                1.3993         estimate D2E/DX2                !
 ! R20   R(11,12)                1.4018         estimate D2E/DX2                !
 ! R21   R(11,23)                1.0841         estimate D2E/DX2                !
 ! R22   R(12,13)                1.4034         estimate D2E/DX2                !
 ! R23   R(12,14)                1.3956         estimate D2E/DX2                !
 ! R24   R(13,16)                1.401          estimate D2E/DX2                !
 ! R25   R(14,15)                1.3929         estimate D2E/DX2                !
 ! R26   R(14,24)                1.0844         estimate D2E/DX2                !
 ! R27   R(15,17)                1.3942         estimate D2E/DX2                !
 ! R28   R(15,26)                1.0845         estimate D2E/DX2                !
 ! R29   R(16,17)                1.3992         estimate D2E/DX2                !
 ! R30   R(16,27)                1.4026         estimate D2E/DX2                !
 ! R31   R(17,25)                1.0845         estimate D2E/DX2                !
 ! R32   R(20,32)                1.402          estimate D2E/DX2                !
 ! R33   R(20,33)                1.0843         estimate D2E/DX2                !
 ! R34   R(21,31)                1.3989         estimate D2E/DX2                !
 ! R35   R(21,32)                1.3991         estimate D2E/DX2                !
 ! R36   R(22,31)                1.4019         estimate D2E/DX2                !
 ! R37   R(22,36)                1.0843         estimate D2E/DX2                !
 ! R38   R(27,28)                1.3996         estimate D2E/DX2                !
 ! R39   R(27,29)                1.0845         estimate D2E/DX2                !
 ! R40   R(28,30)                1.0846         estimate D2E/DX2                !
 ! R41   R(31,35)                1.0843         estimate D2E/DX2                !
 ! R42   R(32,34)                1.0843         estimate D2E/DX2                !
 ! A1    A(2,1,4)              121.6873         estimate D2E/DX2                !
 ! A2    A(2,1,18)             119.5483         estimate D2E/DX2                !
 ! A3    A(4,1,18)             118.4737         estimate D2E/DX2                !
 ! A4    A(1,2,3)              117.549          estimate D2E/DX2                !
 ! A5    A(1,2,28)             120.2959         estimate D2E/DX2                !
 ! A6    A(3,2,28)             121.7219         estimate D2E/DX2                !
 ! A7    A(2,3,6)              119.5209         estimate D2E/DX2                !
 ! A8    A(2,3,7)              127.7566         estimate D2E/DX2                !
 ! A9    A(6,3,7)              106.5694         estimate D2E/DX2                !
 ! A10   A(1,4,5)              119.8683         estimate D2E/DX2                !
 ! A11   A(1,4,19)             119.7458         estimate D2E/DX2                !
 ! A12   A(5,4,19)             120.0519         estimate D2E/DX2                !
 ! A13   A(4,5,6)              116.9091         estimate D2E/DX2                !
 ! A14   A(4,5,20)             124.1767         estimate D2E/DX2                !
 ! A15   A(6,5,20)             118.019          estimate D2E/DX2                !
 ! A16   A(3,6,5)              122.893          estimate D2E/DX2                !
 ! A17   A(3,6,9)              109.3829         estimate D2E/DX2                !
 ! A18   A(5,6,9)              120.4854         estimate D2E/DX2                !
 ! A19   A(3,7,8)              105.6572         estimate D2E/DX2                !
 ! A20   A(3,7,13)             128.2326         estimate D2E/DX2                !
 ! A21   A(8,7,13)             120.1395         estimate D2E/DX2                !
 ! A22   A(7,8,9)              109.9304         estimate D2E/DX2                !
 ! A23   A(7,8,10)             122.8156         estimate D2E/DX2                !
 ! A24   A(9,8,10)             120.1952         estimate D2E/DX2                !
 ! A25   A(6,9,8)              108.4478         estimate D2E/DX2                !
 ! A26   A(6,9,21)             121.4539         estimate D2E/DX2                !
 ! A27   A(8,9,21)             121.6161         estimate D2E/DX2                !
 ! A28   A(8,10,11)            116.6493         estimate D2E/DX2                !
 ! A29   A(8,10,22)            118.2486         estimate D2E/DX2                !
 ! A30   A(11,10,22)           124.2731         estimate D2E/DX2                !
 ! A31   A(10,11,12)           120.1126         estimate D2E/DX2                !
 ! A32   A(10,11,23)           119.4296         estimate D2E/DX2                !
 ! A33   A(12,11,23)           120.1885         estimate D2E/DX2                !
 ! A34   A(11,12,13)           121.9713         estimate D2E/DX2                !
 ! A35   A(11,12,14)           118.1572         estimate D2E/DX2                !
 ! A36   A(13,12,14)           119.8156         estimate D2E/DX2                !
 ! A37   A(7,13,12)            116.6837         estimate D2E/DX2                !
 ! A38   A(7,13,16)            122.1719         estimate D2E/DX2                !
 ! A39   A(12,13,16)           120.853          estimate D2E/DX2                !
 ! A40   A(12,14,15)           119.8014         estimate D2E/DX2                !
 ! A41   A(12,14,24)           120.6407         estimate D2E/DX2                !
 ! A42   A(15,14,24)           119.5416         estimate D2E/DX2                !
 ! A43   A(14,15,17)           119.9052         estimate D2E/DX2                !
 ! A44   A(14,15,26)           120.0243         estimate D2E/DX2                !
 ! A45   A(17,15,26)           120.0618         estimate D2E/DX2                !
 ! A46   A(13,16,17)           118.1103         estimate D2E/DX2                !
 ! A47   A(13,16,27)           125.8961         estimate D2E/DX2                !
 ! A48   A(17,16,27)           115.9087         estimate D2E/DX2                !
 ! A49   A(15,17,16)           121.3225         estimate D2E/DX2                !
 ! A50   A(15,17,25)           118.1173         estimate D2E/DX2                !
 ! A51   A(16,17,25)           120.4956         estimate D2E/DX2                !
 ! A52   A(5,20,32)            120.4018         estimate D2E/DX2                !
 ! A53   A(5,20,33)            119.6077         estimate D2E/DX2                !
 ! A54   A(32,20,33)           119.2653         estimate D2E/DX2                !
 ! A55   A(9,21,31)            117.4635         estimate D2E/DX2                !
 ! A56   A(9,21,32)            117.4894         estimate D2E/DX2                !
 ! A57   A(31,21,32)           123.9822         estimate D2E/DX2                !
 ! A58   A(10,22,31)           120.3695         estimate D2E/DX2                !
 ! A59   A(10,22,36)           119.6295         estimate D2E/DX2                !
 ! A60   A(31,22,36)           119.2662         estimate D2E/DX2                !
 ! A61   A(16,27,28)           127.2613         estimate D2E/DX2                !
 ! A62   A(16,27,29)           115.9849         estimate D2E/DX2                !
 ! A63   A(28,27,29)           113.8349         estimate D2E/DX2                !
 ! A64   A(2,28,27)            126.732          estimate D2E/DX2                !
 ! A65   A(2,28,30)            116.7624         estimate D2E/DX2                !
 ! A66   A(27,28,30)           116.1648         estimate D2E/DX2                !
 ! A67   A(21,31,22)           120.2105         estimate D2E/DX2                !
 ! A68   A(21,31,35)           119.7137         estimate D2E/DX2                !
 ! A69   A(22,31,35)           119.3478         estimate D2E/DX2                !
 ! A70   A(20,32,21)           120.2837         estimate D2E/DX2                !
 ! A71   A(20,32,34)           119.3078         estimate D2E/DX2                !
 ! A72   A(21,32,34)           119.6743         estimate D2E/DX2                !
 ! D1    D(4,1,2,3)             10.3933         estimate D2E/DX2                !
 ! D2    D(4,1,2,28)          -177.0298         estimate D2E/DX2                !
 ! D3    D(18,1,2,3)          -175.8938         estimate D2E/DX2                !
 ! D4    D(18,1,2,28)           -3.3169         estimate D2E/DX2                !
 ! D5    D(2,1,4,5)             -2.8178         estimate D2E/DX2                !
 ! D6    D(2,1,4,19)           170.5515         estimate D2E/DX2                !
 ! D7    D(18,1,4,5)          -176.5961         estimate D2E/DX2                !
 ! D8    D(18,1,4,19)           -3.2268         estimate D2E/DX2                !
 ! D9    D(1,2,3,6)             -6.4775         estimate D2E/DX2                !
 ! D10   D(1,2,3,7)           -155.0238         estimate D2E/DX2                !
 ! D11   D(28,2,3,6)          -178.9419         estimate D2E/DX2                !
 ! D12   D(28,2,3,7)            32.5119         estimate D2E/DX2                !
 ! D13   D(1,2,28,27)          176.7127         estimate D2E/DX2                !
 ! D14   D(1,2,28,30)          -10.2851         estimate D2E/DX2                !
 ! D15   D(3,2,28,27)          -11.0265         estimate D2E/DX2                !
 ! D16   D(3,2,28,30)          161.9756         estimate D2E/DX2                !
 ! D17   D(2,3,6,5)             -5.0859         estimate D2E/DX2                !
 ! D18   D(2,3,6,9)           -155.3152         estimate D2E/DX2                !
 ! D19   D(7,3,6,5)            149.4195         estimate D2E/DX2                !
 ! D20   D(7,3,6,9)             -0.8098         estimate D2E/DX2                !
 ! D21   D(2,3,7,8)            151.8971         estimate D2E/DX2                !
 ! D22   D(2,3,7,13)            -0.3134         estimate D2E/DX2                !
 ! D23   D(6,3,7,8)              0.1744         estimate D2E/DX2                !
 ! D24   D(6,3,7,13)          -152.0361         estimate D2E/DX2                !
 ! D25   D(1,4,5,6)             -8.4575         estimate D2E/DX2                !
 ! D26   D(1,4,5,20)           160.4687         estimate D2E/DX2                !
 ! D27   D(19,4,5,6)           178.1937         estimate D2E/DX2                !
 ! D28   D(19,4,5,20)          -12.8801         estimate D2E/DX2                !
 ! D29   D(4,5,6,3)             12.5824         estimate D2E/DX2                !
 ! D30   D(4,5,6,9)            159.6584         estimate D2E/DX2                !
 ! D31   D(20,5,6,3)          -157.0478         estimate D2E/DX2                !
 ! D32   D(20,5,6,9)            -9.9718         estimate D2E/DX2                !
 ! D33   D(4,5,20,32)         -158.0169         estimate D2E/DX2                !
 ! D34   D(4,5,20,33)           12.1562         estimate D2E/DX2                !
 ! D35   D(6,5,20,32)           10.7959         estimate D2E/DX2                !
 ! D36   D(6,5,20,33)         -179.031          estimate D2E/DX2                !
 ! D37   D(3,6,9,8)              1.151          estimate D2E/DX2                !
 ! D38   D(3,6,9,21)           149.5659         estimate D2E/DX2                !
 ! D39   D(5,6,9,8)           -149.9143         estimate D2E/DX2                !
 ! D40   D(5,6,9,21)            -1.4994         estimate D2E/DX2                !
 ! D41   D(3,7,8,9)              0.525          estimate D2E/DX2                !
 ! D42   D(3,7,8,10)          -149.979          estimate D2E/DX2                !
 ! D43   D(13,7,8,9)           155.471          estimate D2E/DX2                !
 ! D44   D(13,7,8,10)            4.9669         estimate D2E/DX2                !
 ! D45   D(3,7,13,12)          155.4555         estimate D2E/DX2                !
 ! D46   D(3,7,13,16)          -30.6993         estimate D2E/DX2                !
 ! D47   D(8,7,13,12)            6.7277         estimate D2E/DX2                !
 ! D48   D(8,7,13,16)         -179.4271         estimate D2E/DX2                !
 ! D49   D(7,8,9,6)             -1.0411         estimate D2E/DX2                !
 ! D50   D(7,8,9,21)          -149.3946         estimate D2E/DX2                !
 ! D51   D(10,8,9,6)           150.3552         estimate D2E/DX2                !
 ! D52   D(10,8,9,21)            2.0017         estimate D2E/DX2                !
 ! D53   D(7,8,10,11)          -12.6803         estimate D2E/DX2                !
 ! D54   D(7,8,10,22)          157.3469         estimate D2E/DX2                !
 ! D55   D(9,8,10,11)         -160.3            estimate D2E/DX2                !
 ! D56   D(9,8,10,22)            9.7272         estimate D2E/DX2                !
 ! D57   D(6,9,21,31)         -156.6807         estimate D2E/DX2                !
 ! D58   D(6,9,21,32)           11.9982         estimate D2E/DX2                !
 ! D59   D(8,9,21,31)          -12.374          estimate D2E/DX2                !
 ! D60   D(8,9,21,32)          156.305          estimate D2E/DX2                !
 ! D61   D(8,10,11,12)           8.6394         estimate D2E/DX2                !
 ! D62   D(8,10,11,23)        -177.3096         estimate D2E/DX2                !
 ! D63   D(22,10,11,12)       -160.7222         estimate D2E/DX2                !
 ! D64   D(22,10,11,23)         13.3288         estimate D2E/DX2                !
 ! D65   D(8,10,22,31)         -10.9091         estimate D2E/DX2                !
 ! D66   D(8,10,22,36)         178.9823         estimate D2E/DX2                !
 ! D67   D(11,10,22,31)        158.2952         estimate D2E/DX2                !
 ! D68   D(11,10,22,36)        -11.8134         estimate D2E/DX2                !
 ! D69   D(10,11,12,13)          2.8528         estimate D2E/DX2                !
 ! D70   D(10,11,12,14)       -179.8731         estimate D2E/DX2                !
 ! D71   D(23,11,12,13)       -171.1527         estimate D2E/DX2                !
 ! D72   D(23,11,12,14)          6.1214         estimate D2E/DX2                !
 ! D73   D(11,12,13,7)         -10.5855         estimate D2E/DX2                !
 ! D74   D(11,12,13,16)        175.4827         estimate D2E/DX2                !
 ! D75   D(14,12,13,7)         172.1845         estimate D2E/DX2                !
 ! D76   D(14,12,13,16)         -1.7473         estimate D2E/DX2                !
 ! D77   D(11,12,14,15)       -179.1723         estimate D2E/DX2                !
 ! D78   D(11,12,14,24)          2.3045         estimate D2E/DX2                !
 ! D79   D(13,12,14,15)         -1.8374         estimate D2E/DX2                !
 ! D80   D(13,12,14,24)        179.6393         estimate D2E/DX2                !
 ! D81   D(7,13,16,17)        -168.8489         estimate D2E/DX2                !
 ! D82   D(7,13,16,27)           7.6522         estimate D2E/DX2                !
 ! D83   D(12,13,16,17)          4.7442         estimate D2E/DX2                !
 ! D84   D(12,13,16,27)       -178.7547         estimate D2E/DX2                !
 ! D85   D(12,14,15,17)          2.3            estimate D2E/DX2                !
 ! D86   D(12,14,15,26)       -178.7655         estimate D2E/DX2                !
 ! D87   D(24,14,15,17)       -179.1604         estimate D2E/DX2                !
 ! D88   D(24,14,15,26)         -0.2259         estimate D2E/DX2                !
 ! D89   D(14,15,17,16)          0.822          estimate D2E/DX2                !
 ! D90   D(14,15,17,25)        177.913          estimate D2E/DX2                !
 ! D91   D(26,15,17,16)       -178.1121         estimate D2E/DX2                !
 ! D92   D(26,15,17,25)         -1.0211         estimate D2E/DX2                !
 ! D93   D(13,16,17,15)         -4.2975         estimate D2E/DX2                !
 ! D94   D(13,16,17,25)        178.6802         estimate D2E/DX2                !
 ! D95   D(27,16,17,15)        178.8533         estimate D2E/DX2                !
 ! D96   D(27,16,17,25)          1.831          estimate D2E/DX2                !
 ! D97   D(13,16,27,28)         37.5512         estimate D2E/DX2                !
 ! D98   D(13,16,27,29)       -163.1189         estimate D2E/DX2                !
 ! D99   D(17,16,27,28)       -145.8797         estimate D2E/DX2                !
 ! D100  D(17,16,27,29)         13.4502         estimate D2E/DX2                !
 ! D101  D(5,20,32,21)          -0.2586         estimate D2E/DX2                !
 ! D102  D(5,20,32,34)         169.8946         estimate D2E/DX2                !
 ! D103  D(33,20,32,21)       -170.4651         estimate D2E/DX2                !
 ! D104  D(33,20,32,34)         -0.3119         estimate D2E/DX2                !
 ! D105  D(9,21,31,22)          11.0238         estimate D2E/DX2                !
 ! D106  D(9,21,31,35)        -178.8134         estimate D2E/DX2                !
 ! D107  D(32,21,31,22)       -156.8533         estimate D2E/DX2                !
 ! D108  D(32,21,31,35)         13.3096         estimate D2E/DX2                !
 ! D109  D(9,21,32,20)         -11.0164         estimate D2E/DX2                !
 ! D110  D(9,21,32,34)         178.8665         estimate D2E/DX2                !
 ! D111  D(31,21,32,20)        156.8578         estimate D2E/DX2                !
 ! D112  D(31,21,32,34)        -13.2594         estimate D2E/DX2                !
 ! D113  D(10,22,31,21)          0.455          estimate D2E/DX2                !
 ! D114  D(10,22,31,35)       -169.7437         estimate D2E/DX2                !
 ! D115  D(36,22,31,21)        170.5993         estimate D2E/DX2                !
 ! D116  D(36,22,31,35)          0.4006         estimate D2E/DX2                !
 ! D117  D(16,27,28,2)         -35.7779         estimate D2E/DX2                !
 ! D118  D(16,27,28,30)        151.1835         estimate D2E/DX2                !
 ! D119  D(29,27,28,2)         164.5192         estimate D2E/DX2                !
 ! D120  D(29,27,28,30)         -8.5194         estimate D2E/DX2                !
 --------------------------------------------------------------------------------
 Trust Radius=3.00D-01 FncErr=1.00D-07 GrdErr=1.00D-06 EigMax=2.50D+02 EigMin=1.00D-04
 Number of steps in this run=    216 maximum allowed number of steps=    216.
 GradGradGradGradGradGradGradGradGradGradGradGradGradGradGradGradGradGrad

                          Input orientation:                          
 ---------------------------------------------------------------------
 Center     Atomic      Atomic             Coordinates (Angstroms)
 Number     Number       Type             X           Y           Z
 ---------------------------------------------------------------------
      1          6           0       -7.116150    0.901530   -0.663350
      2          6           0       -5.823120    1.349570   -0.965200
      3          6           0       -4.881160    0.394740   -1.334610
      4          6           0       -7.407580   -0.460680   -0.518170
      5          6           0       -6.408490   -1.412330   -0.732980
      6          6           0       -5.208070   -0.955160   -1.260140
      7          6           0       -3.411140    0.479620   -1.212680
      8          6           0       -2.969050   -0.832970   -1.077990
      9          6           0       -4.048840   -1.702200   -1.120470
     10          6           0       -1.827420   -1.172590   -0.366440
     11          6           0       -0.976930   -0.125140   -0.010700
     12          6           0       -1.376450    1.203680   -0.209640
     13          6           0       -2.646460    1.530950   -0.709180
     14          6           0       -0.492720    2.219170    0.158300
     15          6           0       -0.861660    3.551960   -0.008280
     16          6           0       -3.056230    2.866870   -0.810760
     17          6           0       -2.129130    3.866530   -0.496370
     18          1           0       -7.892940    1.623380   -0.436840
     19          1           0       -8.375180   -0.766050   -0.135850
     20          6           0       -6.457880   -2.725900   -0.253230
     21          6           0       -4.041690   -2.906900   -0.428500
     22          6           0       -1.715920   -2.478960    0.122550
     23          1           0       -0.050260   -0.343990    0.507600
     24          1           0        0.489640    1.981420    0.551270
     25          1           0       -2.398420    4.913540   -0.582150
     26          1           0       -0.169980    4.343830    0.257740
     27          6           0       -4.304940    3.311410   -1.269300
     28          6           0       -5.551600    2.717050   -1.042500
     29          1           0       -4.362750    4.356880   -1.551660
     30          1           0       -6.405330    3.385880   -1.031160
     31          6           0       -2.820180   -3.342240    0.096300
     32          6           0       -5.279450   -3.469660   -0.098870
     33          1           0       -7.386560   -3.114590    0.149390
     34          1           0       -5.315380   -4.418400    0.424800
     35          1           0       -2.768990   -4.286800    0.626220
     36          1           0       -0.825850   -2.773270    0.667340
 ---------------------------------------------------------------------
                    Distance matrix (angstroms):
                    1          2          3          4          5
     1  C    0.000000
     2  C    1.401349   0.000000
     3  C    2.388013   1.391205   0.000000
     4  C    1.400580   2.446907   2.789465   0.000000
     5  C    2.420657   2.832786   2.441352   1.396410   0.000000
     6  C    2.728411   2.403551   1.390916   2.373368   1.388492
     7  C    3.769200   2.575987   1.477508   4.163897   3.576827
     8  C    4.514295   3.594707   2.286764   4.489159   3.504916
     9  C    4.049291   3.533480   2.266224   3.631153   2.408759
    10  C    5.688655   4.762922   3.566399   5.627435   4.601959
    11  C    6.258596   5.154745   4.155241   6.459363   5.628534
    12  C    5.765527   4.512763   3.768678   6.264169   5.695509
    13  C    4.514022   3.192117   2.583800   5.164430   4.776645
    14  C    6.803022   5.516486   4.981539   7.446778   6.998465
    15  C    6.824408   5.512014   5.280490   7.694825   7.479083
    16  C    4.513008   3.159388   3.117084   5.485658   5.436474
    17  C    5.804264   4.494491   4.508840   6.825486   6.799652
    18  H    1.084332   2.153669   3.374369   2.141377   3.392171
    19  H    2.155049   3.417116   3.872032   1.084283   2.154556
    20  C    3.709416   4.185604   3.659757   2.470495   1.399309
    21  C    4.900163   4.645328   3.525134   4.161880   2.815704
    22  C    6.419333   5.719260   4.516659   6.072806   4.887724
    23  H    7.269749   6.193803   5.222744   7.429400   6.565629
    24  H    7.777500   6.523025   5.909280   8.335085   7.794295
    25  H    6.193528   4.957538   5.210542   7.346973   7.491331
    26  H    7.806863   6.513000   6.350284   8.721709   8.545988
    27  C    3.752013   2.499233   2.973762   4.941582   5.198681
    28  C    2.426455   1.396317   2.434736   3.717197   4.228693
    29  H    4.506634   3.394191   4.001801   5.792061   6.175684
    30  H    2.610085   2.118933   3.370771   4.007953   4.807467
    31  C    6.086215   5.670759   4.501129   5.452082   4.157911
    32  C    4.774872   4.926569   4.076675   3.709274   2.430933
    33  H    4.106445   4.859566   4.560119   2.736662   2.152414
    34  H    5.720883   5.954778   5.142994   4.574936   3.401735
    35  H    6.890541   6.605225   5.497539   6.120894   4.832801
    36  H    7.405590   6.680996   5.521742   7.076205   5.914298
                    6          7          8          9         10
     6  C    0.000000
     7  C    2.299957   0.000000
     8  C    2.249738   1.391574   0.000000
     9  C    1.386142   2.274973   1.386835   0.000000
    10  C    3.503537   2.440100   1.387431   2.404944   0.000000
    11  C    4.489162   2.781343   2.368264   3.627029   1.395362
    12  C    4.521665   2.381242   2.727334   4.051595   2.423761
    13  C    3.611945   1.394110   2.414167   3.548110   2.845598
    14  C    5.858572   3.663713   4.120216   5.445951   3.682501
    15  C    6.385340   4.170096   4.981263   6.245100   4.835529
    16  C    4.409112   2.446725   3.710502   4.685893   4.245543
    17  C    5.771647   3.691586   4.809267   5.923305   5.049816
    18  H    3.812508   4.690058   5.539803   5.128736   6.679292
    19  H    3.366062   5.230005   5.488019   4.534652   6.564420
    20  C    2.389856   4.525321   4.054053   2.757452   4.885361
    21  C    2.421024   3.532853   2.423547   1.389308   2.813303
    22  C    4.053259   3.661940   2.391843   2.755172   1.399338
    23  H    5.486478   3.864351   3.357459   4.525924   2.146817
    24  H    6.660976   4.536850   4.747401   6.079603   4.019793
    25  H    6.541823   4.591603   5.796020   6.839714   6.116662
    26  H    7.467637   5.253510   6.034752   7.314335   5.793755
    27  C    4.361118   2.970037   4.358565   5.022352   5.201876
    28  C    3.694659   3.101068   4.390156   4.668419   5.427327
    29  H    5.386773   4.006696   5.394563   6.082509   6.197393
    30  H    4.508935   4.176658   5.441407   5.607992   6.494518
    31  C    3.638695   4.082802   2.774447   2.383247   2.430449
    32  C    2.770623   4.508655   3.639884   2.383691   4.155073
    33  H    3.375756   5.529697   5.121196   3.840282   5.911132
    34  H    3.852865   5.504368   4.540809   3.371902   4.829825
    35  H    4.539525   5.149045   3.856591   3.371809   3.401504
    36  H    5.120992   4.560646   3.377017   3.838114   2.152677
                   11         12         13         14         15
    11  C    0.000000
    12  C    1.401769   0.000000
    13  C    2.453128   1.403414   0.000000
    14  C    2.399752   1.395557   2.421728   0.000000
    15  C    3.678907   2.412462   2.785903   1.392909   0.000000
    16  C    3.730376   2.439100   1.401040   2.816057   2.435048
    17  C    4.182926   2.781998   2.401635   2.412514   1.394154
    18  H    7.146336   6.533943   5.254357   7.447980   7.303560
    19  H    7.427014   7.271004   6.198641   8.433934   8.666860
    20  C    6.071539   6.423740   5.731979   7.759266   8.413632
    21  C    4.159988   4.903904   4.660468   6.262277   7.211522
    22  C    2.470694   3.713143   4.199650   4.854886   6.092526
    23  H    1.084088   2.160670   3.425815   2.624418   4.012845
    24  H    2.627591   2.160129   3.409807   1.084427   2.146090
    25  H    5.266449   3.866038   3.394050   3.382246   2.131867
    26  H    4.549167   3.396256   3.870424   2.151332   1.084549
    27  C    4.946676   3.760513   2.496864   4.214742   3.674808
    28  C    5.483636   4.518387   3.155594   5.223224   4.874651
    29  H    5.824675   4.545512   3.411936   4.740348   3.909930
    30  H    6.544931   5.543151   4.203991   6.142881   5.639694
    31  C    3.709279   4.779471   4.942364   6.029112   7.167756
    32  C    5.450254   6.089810   5.684295   7.439201   8.296278
    33  H    7.074305   7.409304   6.692289   8.716313   9.329634
    34  H    6.119141   6.893872   6.618445   8.208922   9.140559
    35  H    4.575649   5.725662   5.970303   6.908545   8.092383
    36  H    2.737728   4.109548   4.871934   5.029369   6.361311
                   16         17         18         19         20
    16  C    0.000000
    17  C    1.399170   0.000000
    18  H    5.007978   6.185206   0.000000
    19  H    6.476484   7.784851   2.456120   0.000000
    20  C    6.569714   7.890331   4.583595   2.744236   0.000000
    21  C    5.869725   7.038597   5.946060   4.842315   2.429291
    22  C    5.589758   6.388979   7.436241   6.880885   4.763232
    23  H    4.591683   4.801889   8.140647   8.360410   6.878223
    24  H    3.900300   3.392513   8.448207   9.306222   8.430547
    25  H    2.161905   1.084484   6.405936   8.257033   8.657277
    26  H    3.413728   2.152851   8.217506   9.674249   9.475223
    27  C    1.402552   2.374811   4.051688   5.871733   6.489735
    28  C    2.510582   3.651419   2.654206   4.574561   5.574047
    29  H    2.115669   2.518559   4.601857   6.659469   7.499417
    30  H    3.396236   4.336232   2.381723   4.681924   6.161314
    31  C    6.279453   7.266029   7.118603   6.127697   3.706064
    32  C    6.752859   7.993886   5.734423   4.110282   1.402035
    33  H    7.446577   8.763196   4.800880   2.564054   1.084264
    34  H    7.726935   8.924170   6.624903   4.797537   2.151648
    35  H    7.302220   8.255084   7.893997   6.663768   4.100945
    36  H    6.242640   6.865836   8.396041   7.852798   5.706965
                   21         22         23         24         25
    21  C    0.000000
    22  C    2.428167   0.000000
    23  H    4.834905   2.735102   0.000000
    24  H    6.737104   4.994325   2.387662   0.000000
    25  H    7.992698   7.457309   5.860293   4.268824   0.000000
    26  H    8.248282   6.997047   4.696000   2.470271   2.448659
    27  C    6.280416   6.493740   5.884014   5.298240   2.583373
    28  C    5.855394   6.562644   6.483635   6.291092   3.870276
    29  H    7.357110   7.519135   6.703454   5.797483   2.260180
    30  H    6.749005   7.597234   7.527724   7.212295   4.311691
    31  C    1.398936   1.401903   4.102576   6.285162   8.294340
    32  C    1.399073   3.705302   6.122258   7.963627   8.877609
    33  H    3.400772   5.706216   7.850213   9.389641   9.479850
    34  H    2.152914   4.099865   6.658015   8.641293   9.828922
    35  H    2.153212   2.151958   4.790753   7.065046   9.286751
    36  H    3.400051   1.084269   2.555085   4.934680   7.944888
                   26         27         28         29         30
    26  H    0.000000
    27  C    4.527211   0.000000
    28  C    5.770517   1.399594   0.000000
    29  H    4.566554   1.084471   2.088457   0.000000
    30  H    6.438829   2.115158   1.084582   2.320753   0.000000
    31  C    8.131746   6.952729   6.743331   8.023200   7.706625
    32  C    9.342616   6.949999   6.264175   8.012844   7.009650
    33  H   10.378767   7.266536   6.228620   8.237710   6.679268
    34  H   10.162663   7.977526   7.288581   9.045410   8.013401
    35  H    9.020998   7.980284   7.718903   9.055188   8.651005
    36  H    7.158984   7.271724   7.443110   8.262727   8.482372
                   31         32         33         34         35
    31  C    0.000000
    32  C    2.470291   0.000000
    33  H    4.572359   2.151190   0.000000
    34  H    2.737162   1.084264   2.462835   0.000000
    35  H    1.084264   2.737861   4.787838   2.557732   0.000000
    36  H    2.151085   4.572372   6.589969   4.787605   2.463383
                   36
    36  H    0.000000
 Stoichiometry    C24H12
 Framework group  C1[X(C24H12)]
 Deg. of freedom   102
 Full point group                 C1      NOp   1
 Largest Abelian subgroup         C1      NOp   1
 Largest concise Abelian subgroup C1      NOp   1
                         Standard orientation:                         
 ---------------------------------------------------------------------
 Center     Atomic      Atomic             Coordinates (Angstroms)
 Number     Number       Type             X           Y           Z
 ---------------------------------------------------------------------
      1          6           0        1.269281    3.147647   -0.420375
      2          6           0        0.164992    2.401350    0.012481
      3          6           0        0.414054    1.164074    0.597774
      4          6           0        2.555318    2.595444   -0.473338
      5          6           0        2.769298    1.287706   -0.032889
      6          6           0        1.710138    0.659399    0.608454
      7          6           0       -0.492203   -0.000496    0.671979
      8          6           0        0.335630   -1.117764    0.725669
      9          6           0        1.664836   -0.722846    0.701935
     10          6           0       -0.034530   -2.353123    0.213973
     11          6           0       -1.379724   -2.514722   -0.119755
     12          6           0       -2.245144   -1.412085   -0.105793
     13          6           0       -1.791719   -0.115136    0.180391
     14          6           0       -3.582969   -1.620604   -0.443911
     15          6           0       -4.469046   -0.545959   -0.458017
     16          6           0       -2.657119    0.983463    0.096281
     17          6           0       -4.006619    0.739886   -0.181556
     18          1           0        1.117776    4.144303   -0.819750
     19          1           0        3.357129    3.144450   -0.954338
     20          6           0        3.877699    0.510451   -0.386989
     21          6           0        2.651596   -1.520463    0.135996
     22          6           0        0.976401   -3.258321   -0.127759
     23          1           0       -1.726928   -3.475658   -0.482108
     24          1           0       -3.946354   -2.616268   -0.673229
     25          1           0       -4.714378    1.559890   -0.234250
     26          1           0       -5.513729   -0.707127   -0.700726
     27          6           0       -2.312235    2.322048    0.333763
     28          6           0       -1.114031    2.961265   -0.004721
     29          1           0       -3.139120    3.002715    0.504147
     30          1           0       -1.178214    4.026645   -0.197502
     31          6           0        2.314643   -2.842950   -0.171434
     32          6           0        3.818778   -0.887983   -0.305658
     33          1           0        4.725884    0.977762   -0.874668
     34          1           0        4.619527   -1.478871   -0.736102
     35          1           0        3.062382   -3.503169   -0.596436
     36          1           0        0.712083   -4.236357   -0.514051
 ---------------------------------------------------------------------
 Rotational constants (GHZ):           0.4425247           0.2732213           0.1744984
 Standard basis: 6-311+G(d,p) (5D, 7F)
 There are   624 symmetry adapted cartesian basis functions of A   symmetry.
 There are   600 symmetry adapted basis functions of A   symmetry.
   600 basis functions,   960 primitive gaussians,   624 cartesian basis functions
    78 alpha electrons       78 beta electrons
       nuclear repulsion energy      1859.2110913295 Hartrees.
 NAtoms=   36 NActive=   36 NUniq=   36 SFac= 1.00D+00 NAtFMM=   60 NAOKFM=F Big=F
 Integral buffers will be    131072 words long.
 Raffenetti 2 integral format.
 Two-electron integral symmetry is turned on.
 One-electron integrals computed using PRISM.
 NBasis=   600 RedAO= T EigKep=  1.03D-06  NBF=   600
 NBsUse=   587 1.00D-06 EigRej=  8.58D-07 NBFU=   587
 ExpMin= 4.38D-02 ExpMax= 4.56D+03 ExpMxC= 6.82D+02 IAcc=2 IRadAn=         4 AccDes= 0.00D+00
 Harris functional with IExCor=  402 and IRadAn=       4 diagonalized for initial guess.
 HarFok:  IExCor=  402 AccDes= 0.00D+00 IRadAn=         4 IDoV= 1 UseB2=F ITyADJ=14
 ICtDFT=  3500011 ScaDFX=  1.000000  1.000000  1.000000  1.000000
 FoFCou: FMM=F IPFlag=           0 FMFlag=      100000 FMFlg1=           0
         NFxFlg=           0 DoJE=T BraDBF=F KetDBF=T FulRan=T
         wScrn=  0.000000 ICntrl=       500 IOpCl=  0 I1Cent=   200000004 NGrid=           0
         NMat0=    1 NMatS0=      1 NMatT0=    0 NMatD0=    1 NMtDS0=    0 NMtDT0=    0
 Petite list used in FoFCou.
 Requested convergence on RMS density matrix=1.00D-08 within 128 cycles.
 Requested convergence on MAX density matrix=1.00D-06.
 Requested convergence on             energy=1.00D-06.
 No special actions if energy rises.
 SCF Done:  E(RB3LYP) =  -921.961883326     A.U. after   17 cycles
            NFock= 17  Conv=0.52D-08     -V/T= 2.0031

 **********************************************************************

            Population analysis using the SCF density.

 **********************************************************************

 Orbital symmetries:
       Occupied  (A) (A) (A) (A) (A) (A) (A) (A) (A) (A) (A) (A)
                 (A) (A) (A) (A) (A) (A) (A) (A) (A) (A) (A) (A)
                 (A) (A) (A) (A) (A) (A) (A) (A) (A) (A) (A) (A)
                 (A) (A) (A) (A) (A) (A) (A) (A) (A) (A) (A) (A)
                 (A) (A) (A) (A) (A) (A) (A) (A) (A) (A) (A) (A)
                 (A) (A) (A) (A) (A) (A) (A) (A) (A) (A) (A) (A)
                 (A) (A) (A) (A) (A) (A)
       Virtual   (A) (A) (A) (A) (A) (A) (A) (A) (A) (A) (A) (A)
                 (A) (A) (A) (A) (A) (A) (A) (A) (A) (A) (A) (A)
                 (A) (A) (A) (A) (A) (A) (A) (A) (A) (A) (A) (A)
                 (A) (A) (A) (A) (A) (A) (A) (A) (A) (A) (A) (A)
                 (A) (A) (A) (A) (A) (A) (A) (A) (A) (A) (A) (A)
                 (A) (A) (A) (A) (A) (A) (A) (A) (A) (A) (A) (A)
                 (A) (A) (A) (A) (A) (A) (A) (A) (A) (A) (A) (A)
                 (A) (A) (A) (A) (A) (A) (A) (A) (A) (A) (A) (A)
                 (A) (A) (A) (A) (A) (A) (A) (A) (A) (A) (A) (A)
                 (A) (A) (A) (A) (A) (A) (A) (A) (A) (A) (A) (A)
                 (A) (A) (A) (A) (A) (A) (A) (A) (A) (A) (A) (A)
                 (A) (A) (A) (A) (A) (A) (A) (A) (A) (A) (A) (A)
                 (A) (A) (A) (A) (A) (A) (A) (A) (A) (A) (A) (A)
                 (A) (A) (A) (A) (A) (A) (A) (A) (A) (A) (A) (A)
                 (A) (A) (A) (A) (A) (A) (A) (A) (A) (A) (A) (A)
                 (A) (A) (A) (A) (A) (A) (A) (A) (A) (A) (A) (A)
                 (A) (A) (A) (A) (A) (A) (A) (A) (A) (A) (A) (A)
                 (A) (A) (A) (A) (A) (A) (A) (A) (A) (A) (A) (A)
                 (A) (A) (A) (A) (A) (A) (A) (A) (A) (A) (A) (A)
                 (A) (A) (A) (A) (A) (A) (A) (A) (A) (A) (A) (A)
                 (A) (A) (A) (A) (A) (A) (A) (A) (A) (A) (A) (A)
                 (A) (A) (A) (A) (A) (A) (A) (A) (A) (A) (A) (A)
                 (A) (A) (A) (A) (A) (A) (A) (A) (A) (A) (A) (A)
                 (A) (A) (A) (A) (A) (A) (A) (A) (A) (A) (A) (A)
                 (A) (A) (A) (A) (A) (A) (A) (A) (A) (A) (A) (A)
                 (A) (A) (A) (A) (A) (A) (A) (A) (A) (A) (A) (A)
                 (A) (A) (A) (A) (A) (A) (A) (A) (A) (A) (A) (A)
                 (A) (A) (A) (A) (A) (A) (A) (A) (A) (A) (A) (A)
                 (A) (A) (A) (A) (A) (A) (A) (A) (A) (A) (A) (A)
                 (A) (A) (A) (A) (A) (A) (A) (A) (A) (A) (A) (A)
                 (A) (A) (A) (A) (A) (A) (A) (A) (A) (A) (A) (A)
                 (A) (A) (A) (A) (A) (A) (A) (A) (A) (A) (A) (A)
                 (A) (A) (A) (A) (A) (A) (A) (A) (A) (A) (A) (A)
                 (A) (A) (A) (A) (A) (A) (A) (A) (A) (A) (A) (A)
                 (A) (A) (A) (A) (A) (A) (A) (A) (A) (A) (A) (A)
                 (A) (A) (A) (A) (A) (A) (A) (A) (A) (A) (A) (A)
                 (A) (A) (A) (A) (A) (A) (A) (A) (A) (A) (A) (A)
                 (A) (A) (A) (A) (A) (A) (A) (A) (A) (A) (A) (A)
                 (A) (A) (A) (A) (A) (A) (A) (A) (A) (A) (A) (A)
                 (A) (A) (A) (A) (A) (A) (A) (A) (A) (A) (A) (A)
                 (A) (A) (A) (A) (A) (A) (A) (A) (A) (A) (A) (A)
                 (A) (A) (A) (A) (A) (A) (A) (A) (A) (A) (A) (A)
                 (A) (A) (A) (A) (A)
 The electronic state is 1-A.
 Alpha  occ. eigenvalues --  -10.19592 -10.19453 -10.19216 -10.19163 -10.18932
 Alpha  occ. eigenvalues --  -10.18880 -10.18835 -10.18750 -10.18696 -10.18663
 Alpha  occ. eigenvalues --  -10.18651 -10.18645 -10.18614 -10.18591 -10.18590
 Alpha  occ. eigenvalues --  -10.18566 -10.18315 -10.17887 -10.17824 -10.17650
 Alpha  occ. eigenvalues --  -10.17621 -10.17087 -10.16831 -10.16499  -0.93497
 Alpha  occ. eigenvalues --   -0.89267  -0.87689  -0.84827  -0.82897  -0.82515
 Alpha  occ. eigenvalues --   -0.79082  -0.77963  -0.75919  -0.73145  -0.72966
 Alpha  occ. eigenvalues --   -0.70747  -0.67651  -0.65682  -0.63747  -0.62928
 Alpha  occ. eigenvalues --   -0.60746  -0.59792  -0.57595  -0.56461  -0.53585
 Alpha  occ. eigenvalues --   -0.51971  -0.51617  -0.50218  -0.49476  -0.47591
 Alpha  occ. eigenvalues --   -0.46900  -0.45583  -0.45113  -0.44658  -0.43926
 Alpha  occ. eigenvalues --   -0.43516  -0.42591  -0.41854  -0.41072  -0.40502
 Alpha  occ. eigenvalues --   -0.40303  -0.39690  -0.39065  -0.37954  -0.36688
 Alpha  occ. eigenvalues --   -0.35907  -0.35626  -0.34668  -0.34198  -0.33879
 Alpha  occ. eigenvalues --   -0.32318  -0.32220  -0.28793  -0.27543  -0.25327
 Alpha  occ. eigenvalues --   -0.23172  -0.22752  -0.18628
 Alpha virt. eigenvalues --   -0.09337  -0.07773  -0.03906  -0.02327  -0.00222
 Alpha virt. eigenvalues --    0.00075   0.00325   0.00566   0.00727   0.01933
 Alpha virt. eigenvalues --    0.02005   0.02875   0.03084   0.03483   0.03574
 Alpha virt. eigenvalues --    0.03796   0.04494   0.04938   0.05751   0.05892
 Alpha virt. eigenvalues --    0.05972   0.06644   0.06867   0.07172   0.07835
 Alpha virt. eigenvalues --    0.08335   0.08593   0.08746   0.09524   0.09942
 Alpha virt. eigenvalues --    0.10462   0.10657   0.10704   0.11495   0.11703
 Alpha virt. eigenvalues --    0.12014   0.12347   0.12656   0.12822   0.13777
 Alpha virt. eigenvalues --    0.14279   0.14769   0.14997   0.15234   0.15862
 Alpha virt. eigenvalues --    0.16062   0.16368   0.16765   0.16938   0.17098
 Alpha virt. eigenvalues --    0.17328   0.17541   0.17663   0.18025   0.18199
 Alpha virt. eigenvalues --    0.18586   0.18819   0.18832   0.19182   0.19661
 Alpha virt. eigenvalues --    0.19741   0.20203   0.20474   0.20585   0.20826
 Alpha virt. eigenvalues --    0.21130   0.21608   0.21886   0.22057   0.22537
 Alpha virt. eigenvalues --    0.22988   0.23119   0.23597   0.23674   0.23816
 Alpha virt. eigenvalues --    0.24286   0.24385   0.24662   0.24921   0.25341
 Alpha virt. eigenvalues --    0.25398   0.25684   0.26139   0.26354   0.26536
 Alpha virt. eigenvalues --    0.26696   0.27046   0.27462   0.27597   0.27672
 Alpha virt. eigenvalues --    0.28166   0.28380   0.28767   0.29122   0.29171
 Alpha virt. eigenvalues --    0.29578   0.30080   0.30185   0.30714   0.31063
 Alpha virt. eigenvalues --    0.31179   0.31468   0.31835   0.32206   0.32572
 Alpha virt. eigenvalues --    0.32854   0.33126   0.33406   0.33591   0.33768
 Alpha virt. eigenvalues --    0.34523   0.34575   0.35070   0.35745   0.36510
 Alpha virt. eigenvalues --    0.36763   0.37282   0.37539   0.37858   0.38244
 Alpha virt. eigenvalues --    0.39001   0.40090   0.41344   0.41986   0.44045
 Alpha virt. eigenvalues --    0.44847   0.46022   0.46814   0.47746   0.48116
 Alpha virt. eigenvalues --    0.48943   0.49625   0.50501   0.51715   0.52066
 Alpha virt. eigenvalues --    0.52591   0.52921   0.53935   0.54118   0.54890
 Alpha virt. eigenvalues --    0.55531   0.55960   0.56048   0.56848   0.57455
 Alpha virt. eigenvalues --    0.58101   0.58400   0.58454   0.59031   0.59347
 Alpha virt. eigenvalues --    0.59686   0.60054   0.60514   0.60656   0.61081
 Alpha virt. eigenvalues --    0.61671   0.62144   0.62613   0.63082   0.63559
 Alpha virt. eigenvalues --    0.64118   0.64693   0.64970   0.65796   0.66814
 Alpha virt. eigenvalues --    0.67662   0.68289   0.68642   0.69058   0.69228
 Alpha virt. eigenvalues --    0.70172   0.70504   0.71077   0.71609   0.71922
 Alpha virt. eigenvalues --    0.72404   0.72680   0.72824   0.73047   0.73168
 Alpha virt. eigenvalues --    0.73829   0.74429   0.74628   0.75322   0.75589
 Alpha virt. eigenvalues --    0.75798   0.76064   0.76430   0.77052   0.77424
 Alpha virt. eigenvalues --    0.77694   0.78312   0.78878   0.79488   0.80795
 Alpha virt. eigenvalues --    0.81055   0.81584   0.82295   0.83025   0.83775
 Alpha virt. eigenvalues --    0.84049   0.84842   0.85027   0.85302   0.86702
 Alpha virt. eigenvalues --    0.87224   0.87911   0.88059   0.88596   0.89122
 Alpha virt. eigenvalues --    0.90270   0.90960   0.91331   0.91942   0.92235
 Alpha virt. eigenvalues --    0.92650   0.92725   0.93525   0.94364   0.94619
 Alpha virt. eigenvalues --    0.94993   0.95608   0.96497   0.97152   0.98404
 Alpha virt. eigenvalues --    0.99262   0.99875   1.00828   1.01906   1.02457
 Alpha virt. eigenvalues --    1.03645   1.04423   1.04681   1.05375   1.06512
 Alpha virt. eigenvalues --    1.07584   1.09166   1.09752   1.10903   1.11205
 Alpha virt. eigenvalues --    1.11999   1.12688   1.13148   1.14442   1.15537
 Alpha virt. eigenvalues --    1.16802   1.18171   1.19781   1.21034   1.22126
 Alpha virt. eigenvalues --    1.23865   1.25652   1.27850   1.28744   1.29520
 Alpha virt. eigenvalues --    1.30962   1.32355   1.33345   1.35704   1.38571
 Alpha virt. eigenvalues --    1.38914   1.40658   1.42191   1.42775   1.45431
 Alpha virt. eigenvalues --    1.45806   1.46388   1.47629   1.48299   1.48617
 Alpha virt. eigenvalues --    1.48924   1.50108   1.50262   1.52426   1.52759
 Alpha virt. eigenvalues --    1.53368   1.54037   1.55006   1.55448   1.56530
 Alpha virt. eigenvalues --    1.56767   1.57516   1.58072   1.59673   1.60069
 Alpha virt. eigenvalues --    1.60683   1.61250   1.62516   1.63577   1.64102
 Alpha virt. eigenvalues --    1.64530   1.66295   1.67028   1.67923   1.69627
 Alpha virt. eigenvalues --    1.70226   1.70366   1.71627   1.71766   1.73259
 Alpha virt. eigenvalues --    1.73721   1.74808   1.75157   1.75726   1.76439
 Alpha virt. eigenvalues --    1.77292   1.78121   1.79857   1.80922   1.81603
 Alpha virt. eigenvalues --    1.82615   1.83148   1.83389   1.84762   1.85113
 Alpha virt. eigenvalues --    1.86128   1.86346   1.87529   1.87818   1.88665
 Alpha virt. eigenvalues --    1.90354   1.91295   1.91963   1.92896   1.93166
 Alpha virt. eigenvalues --    1.94244   1.95247   1.95428   1.97056   1.97460
 Alpha virt. eigenvalues --    1.97842   1.98302   1.99515   2.00841   2.02714
 Alpha virt. eigenvalues --    2.03232   2.04025   2.05268   2.05594   2.07500
 Alpha virt. eigenvalues --    2.08037   2.09078   2.09873   2.11700   2.12854
 Alpha virt. eigenvalues --    2.13368   2.14867   2.15910   2.16410   2.17448
 Alpha virt. eigenvalues --    2.19132   2.19752   2.21149   2.21803   2.23602
 Alpha virt. eigenvalues --    2.23831   2.24675   2.25500   2.27422   2.29519
 Alpha virt. eigenvalues --    2.30831   2.32900   2.34732   2.37278   2.38112
 Alpha virt. eigenvalues --    2.38672   2.39759   2.41931   2.42526   2.44225
 Alpha virt. eigenvalues --    2.46146   2.48854   2.49529   2.51459   2.51955
 Alpha virt. eigenvalues --    2.53149   2.55431   2.55687   2.56685   2.58409
 Alpha virt. eigenvalues --    2.60470   2.61861   2.63391   2.64381   2.68291
 Alpha virt. eigenvalues --    2.69645   2.70353   2.70454   2.70992   2.71880
 Alpha virt. eigenvalues --    2.72157   2.72921   2.73812   2.74177   2.74650
 Alpha virt. eigenvalues --    2.75288   2.75759   2.76302   2.77059   2.77403
 Alpha virt. eigenvalues --    2.77694   2.78669   2.79275   2.79685   2.80431
 Alpha virt. eigenvalues --    2.81111   2.81943   2.83246   2.84176   2.86730
 Alpha virt. eigenvalues --    2.87037   2.87533   2.88851   2.90914   2.91373
 Alpha virt. eigenvalues --    2.92471   2.92738   2.94718   2.95096   2.95464
 Alpha virt. eigenvalues --    2.96606   3.02821   3.03938   3.05368   3.06820
 Alpha virt. eigenvalues --    3.07325   3.08488   3.10605   3.14020   3.17589
 Alpha virt. eigenvalues --    3.18923   3.21268   3.21970   3.22688   3.23152
 Alpha virt. eigenvalues --    3.24259   3.26206   3.26673   3.29778   3.30464
 Alpha virt. eigenvalues --    3.32785   3.35478   3.38230   3.39161   3.40532
 Alpha virt. eigenvalues --    3.41629   3.42629   3.42792   3.46401   3.47739
 Alpha virt. eigenvalues --    3.48593   3.50400   3.51501   3.53914   3.54798
 Alpha virt. eigenvalues --    3.57574   3.60686   3.63517   3.65034   3.67033
 Alpha virt. eigenvalues --    3.69744   3.73362   3.82907   3.86297   3.88696
 Alpha virt. eigenvalues --    3.94609   4.01206   4.06787   4.08609   4.09509
 Alpha virt. eigenvalues --    4.10411   4.11919   4.13318   4.22270   4.25327
 Alpha virt. eigenvalues --    4.26543   4.33759   4.41317   4.60212   4.62739
 Alpha virt. eigenvalues --    4.71553   4.78964   4.85589   4.91178   4.96277
 Alpha virt. eigenvalues --   23.41596  23.66084  23.73140  23.86778  23.90995
 Alpha virt. eigenvalues --   23.93580  23.97785  23.99268  24.03087  24.03984
 Alpha virt. eigenvalues --   24.04669  24.05451  24.07954  24.08787  24.09411
 Alpha virt. eigenvalues --   24.10650  24.11586  24.12210  24.13637  24.14311
 Alpha virt. eigenvalues --   24.16361  24.18594  24.20173  24.22890
          Condensed to atoms (all electrons):
               1          2          3          4          5          6
     1  C    9.128204  -0.302614  -1.898048   2.034699  -1.587372   0.124490
     2  C   -0.302614  11.704760  -0.878063  -1.398842   1.001935  -1.341499
     3  C   -1.898048  -0.878063  13.779835  -0.025163  -0.318965   2.939295
     4  C    2.034699  -1.398842  -0.025163   9.706835  -0.774779  -1.659139
     5  C   -1.587372   1.001935  -0.318965  -0.774779  12.721151  -1.471785
     6  C    0.124490  -1.341499   2.939295  -1.659139  -1.471785  11.919627
     7  C   -0.026479  -0.278152   0.964699  -0.484203  -1.772558   1.017046
     8  C   -0.367613  -1.419217   2.068712   0.120598  -0.269103   0.157084
     9  C   -0.398617  -0.503539   0.792909  -1.052954  -1.827159   2.892556
    10  C    0.287877   0.072915  -3.139944   0.297424  -0.002934  -1.129580
    11  C    0.009959   0.043518  -0.886054   0.035611   0.035668  -0.286060
    12  C    0.252749   0.429112  -0.839410  -0.036797  -0.228056  -0.184967
    13  C   -0.008867   0.103968   0.592247   0.133592   0.057452  -0.611895
    14  C    0.110285   0.357359  -0.574993  -0.027450  -0.162033   0.005057
    15  C   -0.106904  -0.370952   0.727991  -0.004140   0.023675   0.069308
    16  C   -0.093060   0.022066   0.602110  -0.106079  -0.022360  -0.084794
    17  C    0.244079   0.112917  -1.195055  -0.002208   0.013231  -0.168175
    18  H    0.384791  -0.108267   0.027552  -0.040636  -0.027778  -0.014464
    19  H   -0.023223   0.005783  -0.019531   0.392846  -0.113803  -0.004409
    20  C   -0.507331   0.203640  -0.747448  -0.557562  -1.088164  -1.865668
    21  C   -0.106058  -0.355107  -1.834978   1.056205   2.119881  -2.707256
    22  C    0.122900   0.490490  -0.619318  -0.178754  -0.541821   0.423441
    23  H    0.000314   0.001587  -0.003090   0.000018  -0.000455  -0.000074
    24  H   -0.000071  -0.000386  -0.001121   0.000016  -0.000027  -0.000226
    25  H   -0.002349  -0.008299   0.005288  -0.000181  -0.000200   0.000301
    26  H    0.000072   0.000725  -0.002706  -0.000006  -0.000030  -0.000200
    27  C   -0.900333  -1.042048  -0.592023  -0.304828  -0.538669   0.491745
    28  C   -0.401595  -0.545620  -2.420571  -0.464782   0.648226  -1.978324
    29  H    0.010974   0.011656  -0.010856   0.000302   0.001355   0.001437
    30  H    0.078634   0.004821  -0.019557   0.034806   0.004461  -0.004940
    31  C   -0.097640   0.086211   0.179533   0.286915   1.284666  -1.785033
    32  C   -0.016303  -0.028720  -0.545864  -0.727345  -1.301718   1.235051
    33  H    0.013714   0.001956   0.002184   0.037472  -0.064164   0.021328
    34  H    0.000350  -0.002367  -0.003521   0.004290  -0.010426  -0.025368
    35  H    0.000064   0.000511   0.001106  -0.000441   0.004069   0.005474
    36  H   -0.000078   0.000007   0.001526  -0.000010  -0.001207  -0.001821
               7          8          9         10         11         12
     1  C   -0.026479  -0.367613  -0.398617   0.287877   0.009959   0.252749
     2  C   -0.278152  -1.419217  -0.503539   0.072915   0.043518   0.429112
     3  C    0.964699   2.068712   0.792909  -3.139944  -0.886054  -0.839410
     4  C   -0.484203   0.120598  -1.052954   0.297424   0.035611  -0.036797
     5  C   -1.772558  -0.269103  -1.827159  -0.002934   0.035668  -0.228056
     6  C    1.017046   0.157084   2.892556  -1.129580  -0.286060  -0.184967
     7  C    9.224230   2.117432   0.296909  -0.611172  -0.115747   0.666222
     8  C    2.117432  11.742042   2.242896  -0.989368  -0.949676  -0.106771
     9  C    0.296909   2.242896  11.434236  -2.582368  -1.343376  -0.498102
    10  C   -0.611172  -0.989368  -2.582368  13.260039   2.212422  -0.625989
    11  C   -0.115747  -0.949676  -1.343376   2.212422   8.529673   1.527440
    12  C    0.666222  -0.106771  -0.498102  -0.625989   1.527440  12.387034
    13  C    1.235614  -0.015060  -0.618904  -0.547189   0.020294   1.852562
    14  C   -1.161001  -2.240515  -0.067711  -0.305607  -1.513514  -3.431619
    15  C    0.277319   0.224697  -0.021311  -0.695330  -0.927783  -1.096796
    16  C   -1.134449  -1.456402  -0.338176  -0.589314  -0.807648  -1.650052
    17  C   -0.548037  -0.072656  -0.053161   0.243084   0.169382   1.175089
    18  H    0.007989   0.002921   0.000843   0.000378  -0.000008   0.000773
    19  H   -0.002978   0.000630   0.005710  -0.000158  -0.000057  -0.000076
    20  C   -0.366264   0.064989   0.800368  -0.062864  -0.022843  -0.034120
    21  C   -1.980599  -1.467040  -1.188454   2.394309   0.829376  -0.135084
    22  C   -1.082813  -2.034115   1.770147  -1.930092  -1.130395  -0.933888
    23  H   -0.024961  -0.018302   0.007516  -0.102955   0.342131  -0.072294
    24  H   -0.004599   0.012989   0.001347   0.050049   0.122887  -0.085091
    25  H    0.008238   0.002183   0.000009  -0.000446  -0.001040  -0.020007
    26  H   -0.003843  -0.000360   0.000075   0.003505   0.007582   0.033996
    27  C    0.497600  -0.267813   0.102336   0.481215  -0.159473  -2.403750
    28  C   -0.237182  -0.229304  -0.172531   0.000164  -0.055659  -0.101162
    29  H    0.000892   0.000930   0.001427   0.001865  -0.000611  -0.000722
    30  H   -0.012059  -0.004183  -0.003115  -0.000110   0.000697   0.006669
    31  C   -0.534275   0.836836  -1.977354  -0.962167  -0.144203  -0.201363
    32  C    0.310817  -1.554069  -1.263592   0.856777   0.327319   0.042479
    33  H    0.001537  -0.001687  -0.027941  -0.000473   0.000118  -0.000042
    34  H    0.000883   0.003333   0.000399   0.010844   0.002236   0.000543
    35  H    0.001571  -0.018283   0.011458  -0.010205   0.003276   0.002014
    36  H    0.007371   0.022087  -0.031757  -0.061379   0.064022   0.017964
              13         14         15         16         17         18
     1  C   -0.008867   0.110285  -0.106904  -0.093060   0.244079   0.384791
     2  C    0.103968   0.357359  -0.370952   0.022066   0.112917  -0.108267
     3  C    0.592247  -0.574993   0.727991   0.602110  -1.195055   0.027552
     4  C    0.133592  -0.027450  -0.004140  -0.106079  -0.002208  -0.040636
     5  C    0.057452  -0.162033   0.023675  -0.022360   0.013231  -0.027778
     6  C   -0.611895   0.005057   0.069308  -0.084794  -0.168175  -0.014464
     7  C    1.235614  -1.161001   0.277319  -1.134449  -0.548037   0.007989
     8  C   -0.015060  -2.240515   0.224697  -1.456402  -0.072656   0.002921
     9  C   -0.618904  -0.067711  -0.021311  -0.338176  -0.053161   0.000843
    10  C   -0.547189  -0.305607  -0.695330  -0.589314   0.243084   0.000378
    11  C    0.020294  -1.513514  -0.927783  -0.807648   0.169382  -0.000008
    12  C    1.852562  -3.431619  -1.096796  -1.650052   1.175089   0.000773
    13  C   10.744749  -2.358527   1.854671   0.576188  -1.559059   0.002299
    14  C   -2.358527  13.052379   0.429905   2.954878  -0.861369   0.000033
    15  C    1.854671   0.429905   7.935146  -0.049254  -0.476884   0.000114
    16  C    0.576188   2.954878  -0.049254  13.909312  -1.633354   0.007234
    17  C   -1.559059  -0.861369  -0.476884  -1.633354   9.487458   0.000407
    18  H    0.002299   0.000033   0.000114   0.007234   0.000407   0.549335
    19  H   -0.001530  -0.000012   0.000008   0.001176   0.000098  -0.008362
    20  C   -0.000778  -0.029246   0.003758   0.036350   0.002098   0.004617
    21  C   -0.038968   0.021466   0.003888  -0.127324  -0.054031  -0.002403
    22  C   -0.582963   0.621046  -0.322794   0.331377   0.171727   0.000006
    23  H   -0.016622   0.093645   0.013064   0.010153   0.008940  -0.000000
    24  H    0.012588   0.346202  -0.043142  -0.038979  -0.032579   0.000000
    25  H    0.006210  -0.012485   0.016024  -0.144035   0.351293   0.000000
    26  H   -0.030758  -0.035975   0.352012   0.008945  -0.007047   0.000000
    27  C   -4.248839   1.188272  -0.927354  -3.000350  -0.245778   0.024597
    28  C   -0.032315  -0.261174  -0.240320  -1.646808   0.540642   0.067272
    29  H   -0.007626   0.006094   0.032163  -0.126347   0.061367  -0.000011
    30  H    0.013224  -0.000225   0.000752   0.055843   0.006797   0.001832
    31  C    0.010003  -0.250190  -0.008745  -0.162897  -0.004119  -0.000170
    32  C    0.122363   0.048832  -0.005685   0.007928  -0.007872  -0.000065
    33  H    0.000240  -0.000005   0.000001  -0.000037  -0.000002  -0.000011
    34  H    0.000065   0.000063   0.000006   0.000014  -0.000005  -0.000001
    35  H   -0.000991   0.000028  -0.000010   0.000305   0.000018  -0.000000
    36  H    0.006673   0.000025   0.000395   0.000653  -0.000088  -0.000000
              19         20         21         22         23         24
     1  C   -0.023223  -0.507331  -0.106058   0.122900   0.000314  -0.000071
     2  C    0.005783   0.203640  -0.355107   0.490490   0.001587  -0.000386
     3  C   -0.019531  -0.747448  -1.834978  -0.619318  -0.003090  -0.001121
     4  C    0.392846  -0.557562   1.056205  -0.178754   0.000018   0.000016
     5  C   -0.113803  -1.088164   2.119881  -0.541821  -0.000455  -0.000027
     6  C   -0.004409  -1.865668  -2.707256   0.423441  -0.000074  -0.000226
     7  C   -0.002978  -0.366264  -1.980599  -1.082813  -0.024961  -0.004599
     8  C    0.000630   0.064989  -1.467040  -2.034115  -0.018302   0.012989
     9  C    0.005710   0.800368  -1.188454   1.770147   0.007516   0.001347
    10  C   -0.000158  -0.062864   2.394309  -1.930092  -0.102955   0.050049
    11  C   -0.000057  -0.022843   0.829376  -1.130395   0.342131   0.122887
    12  C   -0.000076  -0.034120  -0.135084  -0.933888  -0.072294  -0.085091
    13  C   -0.001530  -0.000778  -0.038968  -0.582963  -0.016622   0.012588
    14  C   -0.000012  -0.029246   0.021466   0.621046   0.093645   0.346202
    15  C    0.000008   0.003758   0.003888  -0.322794   0.013064  -0.043142
    16  C    0.001176   0.036350  -0.127324   0.331377   0.010153  -0.038979
    17  C    0.000098   0.002098  -0.054031   0.171727   0.008940  -0.032579
    18  H   -0.008362   0.004617  -0.002403   0.000006  -0.000000   0.000000
    19  H    0.544478   0.077435   0.005040  -0.000042  -0.000000  -0.000000
    20  C    0.077435   9.764939  -0.372904  -0.367990  -0.000215  -0.000011
    21  C    0.005040  -0.372904  13.625507  -1.603232  -0.001810   0.000567
    22  C   -0.000042  -0.367990  -1.603232  12.202806   0.081223   0.005138
    23  H   -0.000000  -0.000215  -0.001810   0.081223   0.557506   0.001391
    24  H   -0.000000  -0.000011   0.000567   0.005138   0.001391   0.556224
    25  H    0.000000  -0.000008   0.000033   0.000104  -0.000000  -0.000353
    26  H   -0.000000  -0.000003   0.000035   0.000590  -0.000017  -0.007814
    27  C   -0.000372  -0.124042   0.282875   0.128147   0.000479  -0.009679
    28  C    0.007461   0.492578  -0.152886   0.110758  -0.000193  -0.001121
    29  H   -0.000000   0.000141   0.000099   0.000190  -0.000000  -0.000002
    30  H   -0.000035  -0.001051  -0.000180  -0.000005   0.000000   0.000000
    31  C   -0.000320  -0.349342  -0.713501   0.847251   0.006964   0.000417
    32  C    0.007868   0.884510  -1.340092  -0.168016  -0.000342   0.000077
    33  H    0.002523   0.362056  -0.023233   0.000265  -0.000000   0.000000
    34  H   -0.000013  -0.013182  -0.113076   0.014810  -0.000000  -0.000000
    35  H   -0.000000   0.013733  -0.132710  -0.009737  -0.000007  -0.000000
    36  H   -0.000000  -0.000348  -0.026327   0.347271   0.002485   0.000004
              25         26         27         28         29         30
     1  C   -0.002349   0.000072  -0.900333  -0.401595   0.010974   0.078634
     2  C   -0.008299   0.000725  -1.042048  -0.545620   0.011656   0.004821
     3  C    0.005288  -0.002706  -0.592023  -2.420571  -0.010856  -0.019557
     4  C   -0.000181  -0.000006  -0.304828  -0.464782   0.000302   0.034806
     5  C   -0.000200  -0.000030  -0.538669   0.648226   0.001355   0.004461
     6  C    0.000301  -0.000200   0.491745  -1.978324   0.001437  -0.004940
     7  C    0.008238  -0.003843   0.497600  -0.237182   0.000892  -0.012059
     8  C    0.002183  -0.000360  -0.267813  -0.229304   0.000930  -0.004183
     9  C    0.000009   0.000075   0.102336  -0.172531   0.001427  -0.003115
    10  C   -0.000446   0.003505   0.481215   0.000164   0.001865  -0.000110
    11  C   -0.001040   0.007582  -0.159473  -0.055659  -0.000611   0.000697
    12  C   -0.020007   0.033996  -2.403750  -0.101162  -0.000722   0.006669
    13  C    0.006210  -0.030758  -4.248839  -0.032315  -0.007626   0.013224
    14  C   -0.012485  -0.035975   1.188272  -0.261174   0.006094  -0.000225
    15  C    0.016024   0.352012  -0.927354  -0.240320   0.032163   0.000752
    16  C   -0.144035   0.008945  -3.000350  -1.646808  -0.126347   0.055843
    17  C    0.351293  -0.007047  -0.245778   0.540642   0.061367   0.006797
    18  H    0.000000   0.000000   0.024597   0.067272  -0.000011   0.001832
    19  H    0.000000  -0.000000  -0.000372   0.007461  -0.000000  -0.000035
    20  C   -0.000008  -0.000003  -0.124042   0.492578   0.000141  -0.001051
    21  C    0.000033   0.000035   0.282875  -0.152886   0.000099  -0.000180
    22  C    0.000104   0.000590   0.128147   0.110758   0.000190  -0.000005
    23  H   -0.000000  -0.000017   0.000479  -0.000193  -0.000000   0.000000
    24  H   -0.000353  -0.007814  -0.009679  -0.001121  -0.000002   0.000000
    25  H    0.554633  -0.008167   0.109244   0.025092   0.002141  -0.000055
    26  H   -0.008167   0.547386   0.017382   0.000523  -0.000043  -0.000001
    27  C    0.109244   0.017382  16.581063   0.732513   0.344734  -0.120999
    28  C    0.025092   0.000523   0.732513  12.624226   0.002048   0.292412
    29  H    0.002141  -0.000043   0.344734   0.002048   0.556470  -0.011104
    30  H   -0.000055  -0.000001  -0.120999   0.292412  -0.011104   0.547676
    31  C    0.000014  -0.000027  -0.067524   0.019474  -0.000004   0.000073
    32  C    0.000002   0.000005   0.049288  -0.151386  -0.000052   0.000257
    33  H   -0.000000  -0.000000  -0.000019  -0.000659   0.000000   0.000000
    34  H    0.000000  -0.000000  -0.000017  -0.000200   0.000000  -0.000000
    35  H    0.000000  -0.000000   0.000025  -0.000020   0.000000  -0.000000
    36  H    0.000000  -0.000000   0.000106  -0.000167   0.000000  -0.000000
              31         32         33         34         35         36
     1  C   -0.097640  -0.016303   0.013714   0.000350   0.000064  -0.000078
     2  C    0.086211  -0.028720   0.001956  -0.002367   0.000511   0.000007
     3  C    0.179533  -0.545864   0.002184  -0.003521   0.001106   0.001526
     4  C    0.286915  -0.727345   0.037472   0.004290  -0.000441  -0.000010
     5  C    1.284666  -1.301718  -0.064164  -0.010426   0.004069  -0.001207
     6  C   -1.785033   1.235051   0.021328  -0.025368   0.005474  -0.001821
     7  C   -0.534275   0.310817   0.001537   0.000883   0.001571   0.007371
     8  C    0.836836  -1.554069  -0.001687   0.003333  -0.018283   0.022087
     9  C   -1.977354  -1.263592  -0.027941   0.000399   0.011458  -0.031757
    10  C   -0.962167   0.856777  -0.000473   0.010844  -0.010205  -0.061379
    11  C   -0.144203   0.327319   0.000118   0.002236   0.003276   0.064022
    12  C   -0.201363   0.042479  -0.000042   0.000543   0.002014   0.017964
    13  C    0.010003   0.122363   0.000240   0.000065  -0.000991   0.006673
    14  C   -0.250190   0.048832  -0.000005   0.000063   0.000028   0.000025
    15  C   -0.008745  -0.005685   0.000001   0.000006  -0.000010   0.000395
    16  C   -0.162897   0.007928  -0.000037   0.000014   0.000305   0.000653
    17  C   -0.004119  -0.007872  -0.000002  -0.000005   0.000018  -0.000088
    18  H   -0.000170  -0.000065  -0.000011  -0.000001  -0.000000  -0.000000
    19  H   -0.000320   0.007868   0.002523  -0.000013  -0.000000  -0.000000
    20  C   -0.349342   0.884510   0.362056  -0.013182   0.013733  -0.000348
    21  C   -0.713501  -1.340092  -0.023233  -0.113076  -0.132710  -0.026327
    22  C    0.847251  -0.168016   0.000265   0.014810  -0.009737   0.347271
    23  H    0.006964  -0.000342  -0.000000  -0.000000  -0.000007   0.002485
    24  H    0.000417   0.000077   0.000000  -0.000000  -0.000000   0.000004
    25  H    0.000014   0.000002  -0.000000   0.000000   0.000000   0.000000
    26  H   -0.000027   0.000005  -0.000000  -0.000000  -0.000000  -0.000000
    27  C   -0.067524   0.049288  -0.000019  -0.000017   0.000025   0.000106
    28  C    0.019474  -0.151386  -0.000659  -0.000200  -0.000020  -0.000167
    29  H   -0.000004  -0.000052   0.000000   0.000000   0.000000   0.000000
    30  H    0.000073   0.000257   0.000000  -0.000000  -0.000000  -0.000000
    31  C    9.936701  -0.707471   0.011459   0.066305   0.403494  -0.014000
    32  C   -0.707471   9.408898   0.005882   0.403848   0.064786   0.008875
    33  H    0.011459   0.005882   0.544316  -0.008292  -0.000010  -0.000001
    34  H    0.066305   0.403848  -0.008292   0.543989   0.002551  -0.000007
    35  H    0.403494   0.064786  -0.000010   0.002551   0.543913  -0.008328
    36  H   -0.014000   0.008875  -0.000001  -0.000007  -0.008328   0.545792
 Mulliken charges:
               1
     1  C    0.040401
     2  C   -0.072245
     3  C   -0.108708
     4  C   -0.295328
     5  C    0.209797
     6  C    0.022438
     7  C   -0.254998
     8  C   -0.138820
     9  C   -0.391020
    10  C    0.176776
    11  C    0.060534
    12  C    0.291509
    13  C   -0.664111
    14  C    0.058079
    15  C   -0.667494
    16  C    0.687187
    17  C    0.332853
    18  H    0.119180
    19  H    0.123865
    20  C   -0.199830
    21  C    0.137974
    22  C   -0.163714
    23  H    0.113922
    24  H    0.115304
    25  H    0.116818
    26  H    0.124165
    27  C   -0.077711
    28  C   -0.469413
    29  H    0.121093
    30  H    0.128665
    31  C    0.004028
    32  C    0.032730
    33  H    0.121523
    34  H    0.121946
    35  H    0.122345
    36  H    0.120260
 Sum of Mulliken charges =  -0.00000
 Mulliken charges with hydrogens summed into heavy atoms:
               1
     1  C    0.159581
     2  C   -0.072245
     3  C   -0.108708
     4  C   -0.171463
     5  C    0.209797
     6  C    0.022438
     7  C   -0.254998
     8  C   -0.138820
     9  C   -0.391020
    10  C    0.176776
    11  C    0.174456
    12  C    0.291509
    13  C   -0.664111
    14  C    0.173384
    15  C   -0.543329
    16  C    0.687187
    17  C    0.449671
    20  C   -0.078308
    21  C    0.137974
    22  C   -0.043454
    27  C    0.043382
    28  C   -0.340749
    31  C    0.126373
    32  C    0.154675
 Electronic spatial extent (au):  <R**2>=           6008.2373
 Charge=             -0.0000 electrons
 Dipole moment (field-independent basis, Debye):
    X=             -0.0331    Y=              0.4503    Z=             -2.0419  Tot=              2.0912
 Quadrupole moment (field-independent basis, Debye-Ang):
   XX=           -123.4050   YY=           -121.8117   ZZ=           -143.4366
   XY=             -1.1443   XZ=             -3.7861   YZ=              1.1959
 Traceless Quadrupole moment (field-independent basis, Debye-Ang):
   XX=              6.1461   YY=              7.7394   ZZ=            -13.8854
   XY=             -1.1443   XZ=             -3.7861   YZ=              1.1959
 Octapole moment (field-independent basis, Debye-Ang**2):
  XXX=             -7.0261  YYY=              4.9978  ZZZ=             -1.6020  XYY=             -5.9097
  XXY=              2.9114  XXZ=            -32.5386  XZZ=              4.3654  YZZ=              0.9051
  YYZ=            -27.0002  XYZ=             -6.7267
 Hexadecapole moment (field-independent basis, Debye-Ang**3):
 XXXX=          -4756.6377 YYYY=          -2959.8506 ZZZZ=           -317.7529 XXXY=            -21.8783
 XXXZ=            -55.1864 YYYX=             -6.3044 YYYZ=             13.1908 ZZZX=             -8.2717
 ZZZY=             -0.7887 XXYY=          -1277.1619 XXZZ=           -959.8179 YYZZ=           -618.4054
 XXYZ=             19.3466 YYXZ=            -33.7259 ZZXY=              5.8730
 N-N= 1.859211091329D+03 E-N=-5.858254676925D+03  KE= 9.191223751681D+02
 Calling FoFJK, ICntrl=      2127 FMM=F ISym2X=0 I1Cent= 0 IOpClX= 0 NMat=1 NMatS=1 NMatT=0.
 ***** Axes restored to original set *****
 -------------------------------------------------------------------
 Center     Atomic                   Forces (Hartrees/Bohr)
 Number     Number              X              Y              Z
 -------------------------------------------------------------------
      1        6          -0.022140786   -0.025245156    0.009382700
      2        6          -0.001621021   -0.016682839   -0.014511444
      3        6           0.010120130    0.011819126    0.009471921
      4        6          -0.010346691    0.027433420    0.001578642
      5        6          -0.012621835   -0.001556547   -0.009543768
      6        6          -0.012542826    0.003563086    0.000239214
      7        6          -0.016941943    0.004311170    0.002297078
      8        6           0.008346776    0.006995611   -0.002109406
      9        6           0.000767181   -0.020953848    0.007034964
     10        6           0.026550588    0.019014664   -0.002980943
     11        6          -0.002251445   -0.013657963   -0.000110623
     12        6           0.031158142   -0.011013282    0.012634906
     13        6          -0.014692289   -0.014499021   -0.023097539
     14        6           0.006937295    0.034705874    0.001582791
     15        6           0.010315168   -0.014471303    0.006133562
     16        6           0.031080960    0.027068976   -0.005325234
     17        6          -0.000415238    0.001780182    0.001793869
     18        1           0.000434948    0.001243095   -0.000444027
     19        1          -0.001216377    0.000339598   -0.001125017
     20        6           0.013846217   -0.029392338    0.009889537
     21        6          -0.005077325    0.000415384   -0.016202580
     22        6          -0.017974832   -0.043240937    0.010128958
     23        1           0.000893330    0.002368788    0.000236750
     24        1          -0.000762216   -0.001762846   -0.000439513
     25        1          -0.002587640   -0.001090601   -0.002282495
     26        1          -0.000287490   -0.000008859   -0.000288226
     27        6          -0.067359183    0.002072343    0.015270392
     28        6           0.035801462    0.043562948   -0.018797050
     29        1           0.002003639    0.002622914    0.004143669
     30        1          -0.001362942    0.000934896   -0.004746436
     31        6           0.046359828    0.006685978    0.011543273
     32        6          -0.035222428    0.001288935    0.003059165
     33        1          -0.000688604   -0.001011980   -0.001099843
     34        1          -0.000672131   -0.001226898   -0.000940147
     35        1           0.001179000   -0.001290721   -0.001137032
     36        1           0.000990577   -0.001121852   -0.001240071
 -------------------------------------------------------------------
 Cartesian Forces:  Max     0.067359183 RMS     0.015748830

 GradGradGradGradGradGradGradGradGradGradGradGradGradGradGradGradGradGrad
 Berny optimization.
 FormGI is forming the generalized inverse of G from B-inverse, IUseBI=4.
[...]
 0.00020339,-0.00001195,0.00000113,0.00000319,-0.00001420,-0.00000735,-
 0.00000473,-0.00000396,0.00001125,0.00005005,0.00009832,-0.00001164,-0
 .00006556,-0.00010625,0.00001839,0.00011811,0.00000300,-0.00000121,0.0
 0000457,0.00000456,0.00001078,-0.00001944,0.06537967,-0.10986660,0.166
 54905,0.01256219,0.01532961,-0.00120293,-0.01651777,-0.00353833,-0.000
 70072,0.00139610,-0.00620713,0.00066283,0.00918352,-0.02289514,0.00330
 429,0.01008537,0.06120277,-0.01197511,-0.03399686,0.01011958,-0.002996
 75,-0.00264302,-0.00191119,0.00002904,0.00273639,0.00103611,-0.0011707
 6,0.01621178,-0.05546546,0.01297710,-0.00388424,-0.01171352,0.00127964
 ,0.00263426,0.00763057,-0.00027835,-0.00245516,-0.00645815,0.00021633,
 0.00098285,0.00129680,0.00026892,0.00258715,0.00659159,0.00000590,0.00
 438394,-0.00473378,0.00114840,0.00515736,0.00057868,0.00077184,-0.0053
 9633,-0.00185634,-0.00078929,0.00013306,0.00002782,0.00002373,-0.00011
 700,-0.00043605,0.00028232,-0.26304568,0.05864931,-0.02666178,-0.20206
 161,-0.03813792,-0.00581698,0.00798239,0.01498329,-0.00198621,0.000031
 66,0.00006892,-0.00011110,-0.00001720,0.00008500,-0.00004421,-0.000087
 95,-0.00004585,-0.00001383,0.00011755,-0.00008638,0.00001173,-0.006858
 90,-0.00015612,-0.00093926,0.00440663,0.00465603,0.00004674,-0.0000194
 8,-0.00001998,0.00001920,0.00009181,0.00003681,-0.00008408,-0.03793794
 ,-0.01256802,-0.00147038,0.57208940,-0.00022048,-0.00187955,0.00013546
 ,0.00062523,0.00038941,0.00013955,0.00144647,0.00019933,-0.00029290,-0
 .00488330,-0.00088205,0.00117715,0.02607238,-0.02913778,0.00807442,0.0
 0474712,-0.00121186,0.00071722,-0.00185489,-0.00081879,-0.00028030,0.0
 0123385,-0.00432455,0.00332250,-0.03768655,-0.02762401,0.00281083,0.00
 066563,-0.00144267,0.00015981,-0.00040499,0.00041098,-0.00037461,-0.00
 040009,-0.00016789,0.00006504,0.00063786,-0.00021243,-0.00009494,-0.00
 020185,0.00044705,-0.00007937,0.00041958,0.00007549,0.00005778,0.00039
 667,-0.00014918,-0.00004323,-0.00029977,-0.00002345,0.00000496,-0.0000
 5873,-0.00050856,-0.00009016,0.00025612,-0.00004490,-0.00002193,0.1138
 6060,-0.17583646,0.03389101,-0.06898219,-0.14511474,0.01373576,0.00475
 840,-0.00068946,0.00191891,-0.00001622,-0.00004075,0.00002137,0.000015
 70,0.00000573,0.00000026,-0.00000018,0.00003554,0.00000173,-0.00001873
 ,0.00000397,-0.00000481,0.00050044,-0.00029048,0.00014531,-0.00068886,
 -0.00015444,-0.00006428,-0.00004447,0.00001725,-0.00000415,-0.00000538
 ,-0.00004170,0.00000709,0.00682060,0.01425203,-0.00297782,-0.00794157,
 0.68023111,0.00087203,0.00159643,-0.00000609,-0.00146477,-0.00025924,-
 0.00004907,-0.00014666,-0.00074870,-0.00082514,0.00169242,-0.00060176,
 0.00484884,-0.00515324,0.01052129,0.00166284,-0.00338360,0.00093576,-0
 .00246393,0.00037971,0.00029894,-0.00008468,-0.00160482,0.00201320,0.0
 0595413,0.01023230,0.00362256,0.00618283,-0.00040539,-0.00091514,-0.00
 056410,0.00058083,0.00056606,-0.00055280,-0.00009266,-0.00058151,0.000
 33000,-0.00016310,0.00003126,-0.00050945,0.00028391,0.00043229,-0.0000
 3157,0.00027366,-0.00039635,0.00006414,0.00027866,0.00013122,-0.000076
 46,-0.00039062,-0.00014927,0.00000640,0.00005073,0.00005309,-0.0005789
 1,-0.00004747,-0.00005032,-0.00014655,-0.03955646,0.03082198,-0.068793
 61,0.00234644,0.01569781,-0.06387056,-0.00100909,0.00273945,0.00274009
 ,0.00000557,0.00003517,0.00005636,-0.00000357,0.00000757,-0.00000386,-
 0.00000400,-0.00001126,-0.00000522,0.00001382,-0.00000948,-0.00000069,
 -0.00055871,0.00008753,-0.00000372,0.00045138,0.00032139,0.00015345,0.
 00001070,-0.00000306,0.00000166,0.00000809,0.00000524,-0.00002216,-0.0
 0661412,-0.00543431,-0.00012348,0.03805025,-0.12109459,0.16310156,-0.0
 0016572,-0.00040526,0.00005375,0.00031282,-0.00001928,0.00002998,0.000
 09252,0.00040526,-0.00003897,0.00074797,0.00015761,0.00018229,0.003102
 28,0.00098105,-0.00016085,0.00132024,0.00021024,-0.00032471,-0.0000125
 2,-0.00002618,-0.00001232,-0.00001779,-0.00004154,0.00005930,0.0003444
 6,0.00069924,-0.00005268,0.00002241,0.00009152,-0.00002805,0.00002075,
 -0.00003773,0.00001310,0.00000535,0.00003126,-0.00000421,-0.00001277,-
 0.00001991,0.00001415,-0.00001263,-0.00004081,-0.00000215,-0.00002222,
 0.00002914,-0.00000569,-0.00004255,0.00000351,-0.00001135,0.00003139,-
 0.00000352,0.00000618,-0.00000068,-0.00004476,-0.00000414,-0.00004350,
 -0.00061273,0.00004606,-0.26541450,-0.11668729,0.00993837,-0.00230610,
 0.00352158,-0.00152465,-0.00036741,0.00026169,-0.00009455,-0.00000836,
 0.00000068,-0.00000242,-0.00000485,0.00000221,-0.00000104,0.00000339,-
 0.00000469,0.00000076,-0.00000619,-0.00000573,-0.00000023,0.00006979,-
 0.00001892,0.00001719,-0.00005838,-0.00002841,-0.00001890,-0.00000434,
 -0.00000811,0.00000159,0.00000587,-0.00001207,0.00000094,-0.00027903,-
 0.00107413,0.00020433,-0.01953805,-0.01414058,0.00155522,0.28151901,0.
 00036081,0.00006680,-0.00001334,-0.00020430,-0.00004812,-0.00003841,-0
 .00126391,0.00050958,0.00017197,-0.00035637,0.00151803,-0.00070177,-0.
 02787623,-0.00927457,0.00104203,0.00107835,-0.00615270,0.00189204,-0.0
 0019532,-0.00058568,0.00003903,-0.00023685,0.00004111,-0.00012406,0.00
 072189,-0.00059901,-0.00006372,0.00003723,-0.00015377,0.00005425,-0.00
 004295,0.00003010,-0.00001499,-0.00011596,-0.00007287,-0.00002318,-0.0
 0002904,0.00019431,-0.00009180,-0.00000817,0.00011677,0.00000834,0.000
 08386,-0.00005096,0.00001588,0.00016107,-0.00001082,0.00002703,-0.0000
 9067,-0.00003891,-0.00001004,0.00001697,-0.00003678,0.00003306,0.00090
 005,-0.00032442,0.00011109,-0.11904976,-0.12324108,0.01093680,0.003118
 35,-0.00095943,0.00228218,0.00026953,-0.00005258,-0.00002925,-0.000007
 11,-0.00000425,-0.00000100,-0.00000664,-0.00000176,-0.00000167,-0.0000
 0029,-0.00000217,0.00000123,-0.00000271,-0.00000456,-0.00000138,-0.000
 14584,-0.00003938,-0.00002297,0.00016957,0.00016979,0.00000387,-0.0000
 0561,-0.00000492,-0.00000011,0.00000725,-0.00003702,0.00000807,0.00025
 337,0.00072729,-0.00002693,0.01589381,0.00997786,-0.00039964,0.1264832
 1,0.12761317,0.00006957,0.00008835,-0.00016361,-0.00008813,-0.00010228
 ,-0.00008641,0.00039456,0.00003912,0.00079582,0.00017816,-0.00089265,-
 0.00223901,0.00585879,0.00335317,0.00189304,-0.00079828,0.00207631,0.0
 0404012,-0.00006488,0.00013097,0.00019556,0.00019811,-0.00009681,-0.00
 051815,-0.00003898,-0.00028517,-0.00092003,-0.00003865,0.00005930,0.00
 012959,0.00000959,-0.00001353,0.00001247,-0.00001870,0.00000586,-0.000
 01669,0.00012431,-0.00000392,-0.00030655,0.00000832,0.00001890,0.00005
 772,0.00000600,-0.00002288,-0.00000024,0.00001824,-0.00001810,0.000020
 83,-0.00001361,-0.00000403,-0.00000362,-0.00000861,0.00001993,0.000122
 99,-0.00021642,0.00007228,0.00028465,0.01093160,0.01050788,-0.03556084
 ,-0.00138997,0.00224558,0.00758665,0.00002884,-0.00009649,-0.00042701,
 -0.00000099,0.00000019,-0.00000331,-0.00000029,0.00000025,0.00000302,-
 0.00000107,-0.00000110,0.00000346,0.00000197,-0.00000040,-0.00000301,-
 0.00006075,0.00000445,-0.00004546,0.00002905,0.00003430,0.00005267,0.0
 0000161,0.00000025,-0.00000128,-0.00000387,0.00001014,0.00002672,-0.00
 006929,0.00000853,0.00052313,-0.00532743,-0.00205960,0.00330654,-0.010
 13218,-0.01372258,0.02627641,-0.00016659,0.00039676,0.00001638,-0.0003
 0640,-0.00002311,-0.00004448,0.00019745,-0.00020023,0.00009905,0.00086
 120,0.00069324,-0.00011330,-0.00433130,0.00214543,-0.00133651,-0.00080
 613,0.00028603,-0.00006922,-0.00056826,-0.00023160,-0.00005267,0.00084
 936,-0.00118051,0.00042017,-0.00572138,-0.00245170,-0.00059839,0.00016
 199,-0.00003655,0.00005577,-0.00003010,0.00006593,-0.00002094,-0.00002
 178,-0.00002628,-0.00000389,0.00018145,-0.00005567,0.00002958,0.000040
 42,0.00004974,0.00000326,-0.00000436,-0.00005425,0.00000529,-0.0000195
 0,-0.00003632,-0.00000216,-0.00000191,-0.00001386,0.00000079,0.0000342
 2,0.00013151,-0.00000431,-0.00002839,-0.00001297,-0.00001306,0.0042342
 0,0.02677917,-0.00594240,0.00292918,-0.02738658,0.00648871,-0.00008882
 ,0.00019969,-0.00005132,-0.00002463,-0.00001669,-0.00000458,-0.0000058
 0,-0.00000229,-0.00000183,-0.00000463,-0.00001014,-0.00000172,0.000001
 63,-0.00000141,-0.00000016,-0.00008272,0.00001464,-0.00001813,0.000068
 17,0.00000260,0.00000129,0.00000617,-0.00000252,0.00000206,-0.00000039
 ,-0.00000617,0.00000080,0.00179526,0.00010404,0.00043447,-0.05964305,-
 0.02571260,0.00350844,0.00084537,0.00002224,0.00042989,0.06009292,0.00
 028903,-0.00013762,-0.00013191,0.00000124,0.00005930,0.00003009,-0.000
 00661,-0.00008014,-0.00011759,-0.00049706,-0.00039004,0.00016404,0.002
 54748,0.00103378,0.00185276,-0.00002354,0.00062148,-0.00028607,-0.0002
 3732,-0.00022903,-0.00003447,0.00064213,-0.00016645,0.00034507,-0.0030
 5973,0.00036513,0.00051418,0.00000426,0.00013283,-0.00005075,-0.000048
 98,-0.00005485,-0.00000882,-0.00002775,0.00005471,-0.00002534,0.000109
 90,0.00000422,-0.00000485,0.00000836,-0.00002712,0.00000576,-0.0000388
 6,-0.00000083,-0.00001127,-0.00004292,-0.00002812,-0.00000889,0.000034
 69,-0.00000637,0.00000880,-0.00001459,-0.00007326,-0.00000962,0.000044
 98,-0.00000112,0.00004184,-0.00312857,-0.01261835,0.00330993,0.0011818
 5,-0.00889681,0.00284116,-0.00031955,-0.00012208,-0.00005255,-0.000025
 57,-0.00001219,0.00000028,-0.00001053,0.00000042,0.00000117,-0.0000000
 3,-0.00001002,0.00000721,-0.00000547,-0.00000625,-0.00000024,-0.000004
 96,-0.00000387,-0.00000668,-0.00000837,0.00001006,0.00002100,-0.000002
 25,-0.00001189,-0.00000058,0.00000915,-0.00000919,0.00000095,0.0005856
 2,0.00055109,-0.00048096,-0.02340406,-0.31682047,0.06133190,0.00038955
 ,0.00068079,-0.00135339,0.02587298,0.33620039,-0.00003604,0.00006358,-
 0.00068161,-0.00012881,-0.00006071,0.00018603,0.00008414,-0.00001692,-
 0.00060141,0.00026720,0.00025387,0.00042774,-0.00157975,0.00182982,0.0
 0792263,-0.00028723,-0.00035293,-0.00071979,0.00002817,-0.00003385,-0.
 00008783,-0.00013064,0.00017536,0.00039030,-0.00010187,0.00025300,0.00
 480498,-0.00003429,-0.00018014,-0.00008815,0.00002896,0.00011192,0.000
 01082,-0.00004600,-0.00010468,-0.00003210,0.00004127,0.00003358,-0.000
 07750,0.00003519,0.00011157,-0.00000608,0.00007776,-0.00007237,0.00000
 206,0.00008731,0.00000753,0.00000994,-0.00008923,-0.00002252,-0.000006
 15,0.00001326,0.00003034,-0.00006612,-0.00001838,0.00001876,0.00017022
 ,0.00137946,0.00520148,0.00210604,0.00063511,0.00093598,0.00252864,0.0
 0012630,0.00013847,-0.00012271,0.00000018,0.00000347,0.00001517,-0.000
 00052,0.00000205,0.00001103,-0.00000606,0.00000293,0.00002598,0.000002
 18,0.00000049,0.00000251,-0.00008967,0.00000334,-0.00002604,0.00005219
 ,0.00006385,0.00009232,0.00000029,0.00000177,-0.00000502,0.00000246,-0
 .00000125,-0.00000623,0.00019909,-0.00069129,-0.00198141,0.00197383,0.
 06136351,-0.04869740,0.00032136,-0.00135240,-0.00505560,-0.00293979,-0
 .06783009,0.03924977,-0.00004526,0.00004072,-0.00000369,0.00011858,0.0
 0013719,0.00003037,-0.00048729,0.00015435,-0.00005615,-0.00000086,-0.0
 0005254,0.00000936,0.00012575,0.00003098,0.00001588,0.00083447,0.00123
 656,-0.00034644,0.00011179,0.00036292,0.00006661,-0.00067182,-0.000518
 04,0.00008658,-0.00597921,0.00142988,-0.00168606,-0.00378351,-0.002789
 30,-0.00179629,0.00096165,-0.00060765,0.00022946,-0.00023071,-0.000333
 54,0.00013506,-0.00020003,-0.00014608,-0.00005683,0.00013357,-0.000022
 16,0.00004217,0.00002457,-0.00008658,-0.00000562,-0.00002750,0.0001035
 6,-0.00000995,-0.00006600,-0.00002554,-0.00000841,-0.00000481,0.000001
 03,-0.00000089,-0.00002731,0.00001493,-0.00000351,-0.00010899,-0.00020
 265,0.00004581,0.00136864,0.02744765,-0.00639454,0.00562246,-0.0254747
 7,0.00573224,-0.00002006,0.00000815,-0.00005333,-0.00000131,0.00000803
 ,0.00000146,0.00000002,-0.00000374,0.00000257,0.00000559,-0.00001641,-
 0.00000104,0.00001242,0.00002434,-0.00000297,-0.00004486,-0.00003771,-
 0.00000017,0.00000894,0.00000038,0.00000111,0.00000300,0.00002336,-0.0
 0000405,-0.06329968,0.04122251,-0.01325906,0.00178290,0.00018303,0.000
 38307,-0.00003019,-0.00000753,-0.00001512,-0.00042116,-0.00075764,0.00
 014842,0.06365355,0.00002488,-0.00000115,-0.00000490,-0.00005437,0.000
 01181,-0.00002507,0.00020515,-0.00015327,0.00002723,0.00002167,0.00000
 587,-0.00000037,0.00010237,0.00014216,-0.00003813,-0.00062198,-0.00012
 137,0.00013088,0.00001601,-0.00003722,-0.00009228,-0.00009336,0.000517
 61,-0.00025214,0.00215076,0.00081293,0.00077819,-0.00336844,0.00059555
 ,0.00128515,0.00055902,-0.00051980,0.00029290,-0.00023466,-0.00012467,
 -0.00026918,0.00000794,0.00002698,0.00004492,0.00007976,-0.00006388,0.
 00000182,-0.00006094,-0.00003405,0.00000973,-0.00002089,0.00000188,0.0
 0000735,-0.00000140,0.00001077,-0.00000006,0.00001005,-0.00000768,0.00
 000328,0.00002230,-0.00000581,0.00000217,0.00031163,-0.00012706,0.0000
 3242,-0.00074377,-0.00554791,0.00174766,0.00431627,-0.01557648,0.00482
 104,-0.00006431,-0.00000172,0.00005075,-0.00001160,0.00000346,-0.00000
 660,0.00000411,-0.00001023,-0.00000290,-0.00000315,-0.00001524,0.00000
 587,0.00002454,-0.00000678,0.00000004,-0.00001370,-0.00001120,-0.00000
 143,-0.00000081,-0.00001112,0.00000008,0.00000651,-0.00001554,0.000006
 04,0.03855341,-0.31034164,0.06503113,-0.00023607,0.00053042,-0.0004395
 4,0.00004899,-0.00000831,0.00002078,0.00069310,0.00000471,0.00008195,-
 0.04158022,0.32937333,0.00000051,-0.00002003,-0.00002122,0.00002822,0.
 00003085,-0.00007403,-0.00015386,0.00002918,-0.00001798,-0.00001761,0.
 00003104,0.00004482,0.00003682,-0.00013775,-0.00004853,0.00022323,0.00
 041513,0.00023494,0.00011277,-0.00001980,-0.00055348,0.00024596,-0.000
 32894,-0.00053045,-0.00218015,0.00044410,0.00346456,-0.00154682,0.0013
 1477,0.00880377,-0.00013699,0.00012745,0.00034073,0.00022595,-0.000063
 12,-0.00091260,-0.00001133,0.00001930,0.00018068,0.00000628,-0.0000029
 3,-0.00008496,-0.00000385,0.00001638,0.00008175,-0.00001870,-0.0000067
 0,0.00008082,0.00001175,-0.00000983,-0.00000850,-0.00000318,0.00000259
 ,-0.00000230,-0.00000956,0.00000427,0.00000237,-0.00013398,0.00007594,
 -0.00017293,-0.00095066,0.00680686,0.00089363,-0.00110834,-0.00080133,
 0.00357219,-0.00005470,0.00002996,0.00026770,0.00000510,-0.00000184,-0
 .00001643,0.00000211,0.00000027,-0.00001862,-0.00000306,0.00000351,0.0
 0002009,-0.00000854,0.00000959,-0.00000866,-0.00000190,0.00000376,0.00
 001311,0.00000233,0.00000200,-0.00000449,-0.00000214,0.00000910,0.0000
 1114,-0.01178380,0.06575681,-0.05097617,0.00066242,-0.00049697,-0.0014
 1410,-0.00002067,0.00001897,0.00007876,-0.00026203,-0.00008491,0.00017
 421,0.01559362,-0.07180225,0.04212735,0.00000053,0.00000612,0.00000774
 ,-0.00000175,-0.00001879,0.00005321,-0.00007554,0.00005927,-0.00005434
 ,0.00000769,0.00000490,-0.00000595,0.00001614,-0.00005364,-0.00001285,
 -0.00001179,0.00006823,0.00008099,0.00012823,-0.00046739,-0.00009812,0
 .00121383,0.00022596,-0.00034124,0.00041784,-0.00043178,0.00033409,0.0
 0128059,-0.00074605,-0.00013380,0.00065404,0.00001083,0.00043330,-0.00
 000192,0.00031008,-0.00000693,0.00014592,0.00013194,0.00003147,-0.0000
 8580,-0.00005827,-0.00001110,-0.00003802,0.00007161,-0.00001588,0.0000
 1832,-0.00004911,0.00000017,0.00005452,0.00003800,0.00001119,-0.000008
 19,0.00000584,-0.00001790,-0.00000997,-0.00000307,0.00000032,-0.000307
 51,-0.00025817,0.00015042,-0.00136670,-0.00407353,-0.00102694,-0.27421
 516,0.09301676,-0.06318618,-0.00001631,0.00063404,-0.00010436,0.000014
 80,-0.00000786,0.00000123,-0.00000077,0.00000880,-0.00000044,0.0000038
 1,0.00001389,-0.00000106,-0.00000952,0.00000949,-0.00000009,0.00001670
 ,-0.00000270,0.00000335,0.00000024,0.00000899,-0.00000219,-0.00000711,
 0.00000853,-0.00000215,-0.01912201,0.01070759,-0.00643762,-0.00033605,
 0.00092173,-0.00037893,-0.00009585,0.00006773,-0.00000136,-0.00002169,
 -0.00005689,-0.00001586,0.00068266,-0.00004883,0.00125482,0.29107579,0
 .00008070,0.00005147,-0.00001323,-0.00000740,0.00014511,-0.00006930,0.
 00022861,-0.00053206,0.00010280,0.00009091,-0.00006290,0.00001561,-0.0
 0014177,-0.00014189,0.00003008,0.00036459,0.00002494,-0.00005321,0.001
 17049,0.00049909,0.00041432,-0.00074265,-0.00622028,0.00140213,-0.0006
 4830,-0.00060375,-0.00020118,0.02788014,-0.00617181,0.00729516,0.00040
 594,0.00161722,-0.00042490,-0.00037760,0.00000853,-0.00009321,0.000152
 43,0.00018228,-0.00000381,0.00005957,-0.00003657,0.00002207,-0.0000109
 2,-0.00000104,-0.00000166,-0.00009080,-0.00001903,-0.00002013,0.000046
 58,-0.00007316,0.00001380,0.00002335,0.00001046,0.00001771,0.00000491,
 -0.00000305,0.00000239,-0.00027148,-0.00009822,-0.00010263,-0.00351251
 ,-0.00192356,0.00169886,0.09563808,-0.09777533,0.03008305,-0.00088207,
 -0.00032223,-0.00013247,-0.00002495,-0.00001331,-0.00000017,-0.0000061
 3,-0.00000822,0.00000003,-0.00000383,-0.00000884,-0.00000004,-0.000028
 80,0.00001463,-0.00000394,0.00000918,0.00000683,-0.00000100,-0.0000001
 5,-0.00000593,0.00000113,0.00000501,-0.00000725,0.00000118,-0.01913306
 ,0.00930365,-0.00467437,-0.00037564,0.00084000,-0.00015597,-0.00008509
 ,0.00005847,-0.00002360,0.00000435,-0.00001281,0.00003053,0.00023253,0
 .00070468,-0.00137546,-0.10005425,0.10057389,0.00002581,0.00000605,-0.
 00003393,-0.00002408,-0.00004478,-0.00026428,-0.00004905,0.00015236,0.
 00022470,-0.00000762,-0.00002328,0.00003008,0.00000438,0.00007035,0.00
 014373,-0.00006100,-0.00009903,-0.00060240,-0.00044953,-0.00014470,0.0
 0046547,-0.00000894,0.00188662,0.00328514,0.00037596,-0.00035567,-0.00
 078776,-0.00566421,0.00246427,0.00088845,0.00042583,-0.00078929,-0.001
 61336,0.00003039,0.00016410,-0.00020748,0.00010121,-0.00000406,-0.0000
 2763,-0.00005698,-0.00005014,0.00001764,-0.00003676,0.00005113,0.00000
 452,0.00001766,-0.00003304,0.00006387,0.00003824,0.00002097,-0.0000169
 0,-0.00000907,0.00000809,0.00008165,0.00000033,-0.00000077,0.00000081,
 0.00002073,-0.00021828,-0.00054116,-0.00113793,0.00149563,0.00856436,-
 0.06422259,0.02896695,-0.05216694,0.00011330,0.00021845,0.00029927,0.0
 0000649,0.00000250,0.00001123,0.00000184,0.00000494,-0.00000131,0.0000
 0099,0.00000555,0.00000043,-0.00000022,-0.00000517,-0.00000557,0.00000
 525,0.00001117,0.00000336,-0.00000214,0.00000388,0.00000298,-0.0000031
 0,0.00000190,0.00000041,0.00007671,0.00121412,0.00351293,-0.00016533,0
 .00023000,0.00041470,-0.00000480,-0.00000662,-0.00005932,-0.00001507,0
 .00002285,0.00013077,0.00118030,-0.00144651,-0.00552715,0.06949299,-0.
 03378056,0.04370867\\0.00000406,0.00000419,-0.00000136,-0.00000451,-0.
 00000055,-0.00000113,0.00000270,0.00000103,0.00000240,0.00000221,-0.00
 000286,-0.00000355,-0.00000484,0.00000133,0.00000046,0.00000132,0.0000
 0124,0.00000189,-0.00000036,-0.00000370,-0.00000618,-0.00000144,0.0000
 0116,-0.00000222,-0.00000228,0.00000149,0.00000288,0.00000163,-0.00000
 219,0.00000272,-0.00000140,-0.00000128,0.00000149,-0.00000248,-0.00000
 097,-0.00000062,0.00000417,0.00000182,0.00000068,0.00000139,-0.0000019
 8,0.00000035,0.00000025,-0.00000114,-0.00000148,0.00000045,-0.00000254
 ,-0.00000004,0.00000226,-0.00000031,-0.00000204,0.00000038,0.00000109,
 -0.00000270,-0.00000048,0.00000281,-0.00000041,-0.00000057,0.00000216,
 0.00000112,-0.00000061,-0.00000296,0.00000334,-0.00000112,0.00000255,0
 .00000401,-0.00000025,-0.00000098,0.00000186,0.00000069,-0.00000132,-0
 .00000013,0.00000220,-0.00000086,-0.00000314,0.00000192,-0.00000149,-0
 .00000205,0.00000134,-0.00000109,-0.00000544,0.00000177,0.00000105,0.0
 0000036,0.00000229,-0.00000023,-0.00000464,0.00000182,0.00000064,-0.00
 000423,-0.00000468,0.00000080,0.00000333,0.00000012,0.00000198,0.00000
 212,-0.00000142,0.00000138,0.00000188,-0.00000296,0.00000103,0.0000030
 2,-0.00000172,0.00000013,0.00000421,-0.00000184,-0.00000140,0.00000323
 \\\@


 MORNING PEOPLE ARE USUALLY ADMIRED AS EARLY BIRDS.
 RECALL BEN FRANKLIN'S APHORISM THAT THE EARLY BIRD GETS THE WORM.
 I IDENTIFY WITH THE WORM. --  CRAIG JAGGER, MINNEAPOLIS, KS.
 Job cpu time:       0 days  9 hours 54 minutes 24.5 seconds.
 Elapsed time:       0 days  0 hours 29 minutes 43.5 seconds.
 File lengths (MBytes):  RWF=   1193 Int=      0 D2E=      0 Chk=     30 Scr=      1
 Normal termination of Gaussian 16 at Mon Mar 25 18:08:51 2019.
