 Entering Gaussian System, Link 0=/share/apps/gaussian16/g16/g16
 Initial command:
 /share/apps/gaussian16/g16/l1.exe "/home/am2145//scratch/3533/Gau-35113.inp" -scrdir="/home/am2145//scratch/3533/"
 Entering Link 1 = /share/apps/gaussian16/g16/l1.exe PID=     35114.
  
 Copyright (c) 1988,1990,1992,1993,1995,1998,2003,2009,2016,
            Gaussian, Inc.  All Rights Reserved.
  
 This is part of the Gaussian(R) 16 program.  It is based on
 the Gaussian(R) 09 system (copyright 2009, Gaussian, Inc.),
 the Gaussian(R) 03 system (copyright 2003, Gaussian, Inc.),
 the Gaussian(R) 98 system (copyright 1998, Gaussian, Inc.),
 the Gaussian(R) 94 system (copyright 1995, Gaussian, Inc.),
 the Gaussian 92(TM) system (copyright 1992, Gaussian, Inc.),
 the Gaussian 90(TM) system (copyright 1990, Gaussian, Inc.),
 the Gaussian 88(TM) system (copyright 1988, Gaussian, Inc.),
 the Gaussian 86(TM) system (copyright 1986, Carnegie Mellon
 University), and the Gaussian 82(TM) system (copyright 1983,
 Carnegie Mellon University). Gaussian is a federally registered
 trademark of Gaussian, Inc.
  
 This software contains proprietary and confidential information,
 including trade secrets, belonging to Gaussian, Inc.
  
 This software is provided under written license and may be
 used, copied, transmitted, or stored only in accord with that
 written license.
  
 The following legend is applicable only to US Government
 contracts under FAR:
  
                    RESTRICTED RIGHTS LEGEND
  
 Use, reproduction and disclosure by the US Government is
 subject to restrictions as set forth in subparagraphs (a)
 and (c) of the Commercial Computer Software - Restricted
 Rights clause in FAR 52.227-19.
  
 Gaussian, Inc.
 340 Quinnipiac St., Bldg. 40, Wallingford CT 06492
  
  
 ---------------------------------------------------------------
 Warning -- This program may not be used in any manner that
 competes with the business of Gaussian, Inc. or will provide
 assistance to any competitor of Gaussian, Inc.  The licensee
 of this program is prohibited from giving any competitor of
 Gaussian, Inc. access to this program.  By using this program,
 the user acknowledges that Gaussian, Inc. is engaged in the
 business of creating and licensing software in the field of
 computational chemistry and represents and warrants to the
 licensee that it is not a competitor of Gaussian, Inc. and that
 it will not use this program in any manner prohibited above.
 ---------------------------------------------------------------
  

 Cite this work as:
 Gaussian 16, Revision A.03,
 M. J. Frisch, G. W. Trucks, H. B. Schlegel, G. E. Scuseria, 
 M. A. Robb, J. R. Cheeseman, G. Scalmani, V. Barone, 
 G. A. Petersson, H. Nakatsuji, X. Li, M. Caricato, A. V. Marenich, 
 J. Bloino, B. G. Janesko, R. Gomperts, B. Mennucci, H. P. Hratchian, 
 J. V. Ortiz, A. F. Izmaylov, J. L. Sonnenberg, D. Williams-Young, 
 F. Ding, F. Lipparini, F. Egidi, J. Goings, B. Peng, A. Petrone, 
 T. Henderson, D. Ranasinghe, V. G. Zakrzewski, J. Gao, N. Rega, 
 G. Zheng, W. Liang, M. Hada, M. Ehara, K. Toyota, R. Fukuda, 
 J. Hasegawa, M. Ishida, T. Nakajima, Y. Honda, O. Kitao, H. Nakai, 
 T. Vreven, K. Throssell, J. A. Montgomery, Jr., J. E. Peralta, 
 F. Ogliaro, M. J. Bearpark, J. J. Heyd, E. N. Brothers, K. N. Kudin, 
 V. N. Staroverov, T. A. Keith, R. Kobayashi, J. Normand, 
 K. Raghavachari, A. P. Rendell, J. C. Burant, S. S. Iyengar, 
 J. Tomasi, M. Cossi, J. M. Millam, M. Klene, C. Adamo, R. Cammi, 
 J. W. Ochterski, R. L. Martin, K. Morokuma, O. Farkas, 
 J. B. Foresman, and D. J. Fox, Gaussian, Inc., Wallingford CT, 2016.
 
 ******************************************
 Gaussian 16:  ES64L-G16RevA.03 25-Dec-2016
                25-Mar-2019 
 ******************************************
 %nprocshared=20
 Will use up to   20 processors via shared memory.
 %mem=100GB
 %chk=7-memb-1.chk
 -------------------------------------------
 # opt freq b3lyp/6-311+g(d,p) int=grid=fine
 -------------------------------------------
 1/18=20,19=15,26=3,38=1/1,3;
 2/9=110,12=2,17=6,18=5,40=1/2;
 3/5=4,6=6,7=111,11=2,25=1,30=1,71=1,74=-5,75=-4/1,2,3;
 4//1;
 5/5=2,38=5/2;
 6/7=2,8=2,9=2,10=2,28=1/1;
 7//1,2,3,16;
 1/18=20,19=15,26=3/3(2);
 2/9=110/2;
 99//99;
 2/9=110/2;
 3/5=4,6=6,7=111,11=2,25=1,30=1,71=1,74=-5,75=-4/1,2,3;
 4/5=5,16=3,69=1/1;
 5/5=2,38=5/2;
 7//1,2,3,16;
 1/18=20,19=15,26=3/3(-5);
 2/9=110/2;
 6/7=2,8=2,9=2,10=2,19=2,28=1/1;
 99/9=1/99;
 --------
 7-memb-1
 --------
 Symbolic Z-matrix:
 Charge =  0 Multiplicity = 1
 C                    -6.9983    0.27248   0.08323 
 C                    -5.6708    0.79383  -0.04532 
 C                    -4.64848  -0.08019  -0.46106 
 C                    -7.38018  -1.13968   0. 
 C                    -6.31151  -2.0217    0. 
 C                    -5.06383  -1.41802   0. 
 C                    -3.267     0.08564   0. 
 C                    -2.74859  -1.28168   0. 
 C                    -3.84313  -2.18583   0. 
 C                    -1.46357  -1.67259   0. 
 C                    -0.47144  -0.59095   0. 
 C                    -0.81891   0.72504   0. 
 C                    -2.27135   1.14271   0. 
 C                     0.19079   1.77664   0. 
 C                    -0.15706   3.03446  -0.22242 
 C                    -2.44022   2.65136  -0.3545 
 C                    -1.43944   3.37521  -0.31449 
 H                    -5.53301   1.80647   0.27591 
 H                    -7.99939   0.9381    0. 
 H                    -8.40222  -1.50806   0. 
 C                    -6.3195   -3.50974   0. 
 C                    -3.76143  -3.61929   0. 
 C                    -1.25221  -3.14347   0. 
 H                     0.57083  -0.89403   0. 
 H                     1.2455    1.52961   0. 
 H                    -3.51171   3.13845   0.04601 
 H                    -2.00815   4.49735  -0.1847 
 H                     0.56405   3.93296   0. 
 C                    -5.06036  -4.29785   0. 
 C                    -2.38141  -4.11553   0. 
 H                    -7.26856  -4.0311    0. 
 H                    -5.10826  -5.37925   0. 
 H                    -2.17783  -5.17806   0. 
 H                    -0.23922  -3.52829   0. 
 

 GradGradGradGradGradGradGradGradGradGradGradGradGradGradGradGradGradGrad
 Berny optimization.
 Initialization pass.
                           ----------------------------
                           !    Initial Parameters    !
                           ! (Angstroms and Degrees)  !
 --------------------------                            --------------------------
 ! Name  Definition              Value          Derivative Info.                !
 --------------------------------------------------------------------------------
 ! R1    R(1,2)                  1.432          estimate D2E/DX2                !
 ! R2    R(1,4)                  1.4652         estimate D2E/DX2                !
 ! R3    R(1,19)                 1.2051         estimate D2E/DX2                !
 ! R4    R(2,3)                  1.4078         estimate D2E/DX2                !
 ! R5    R(2,18)                 1.0713         estimate D2E/DX2                !
 ! R6    R(3,6)                  1.4747         estimate D2E/DX2                !
 ! R7    R(3,7)                  1.4658         estimate D2E/DX2                !
 ! R8    R(4,5)                  1.3856         estimate D2E/DX2                !
 ! R9    R(4,20)                 1.0864         estimate D2E/DX2                !
 ! R10   R(5,6)                  1.3861         estimate D2E/DX2                !
 ! R11   R(5,21)                 1.4881         estimate D2E/DX2                !
 ! R12   R(6,9)                  1.4421         estimate D2E/DX2                !
 ! R13   R(7,8)                  1.4623         estimate D2E/DX2                !
 ! R14   R(7,13)                 1.4521         estimate D2E/DX2                !
 ! R15   R(8,9)                  1.4197         estimate D2E/DX2                !
 ! R16   R(8,10)                 1.3432         estimate D2E/DX2                !
 ! R17   R(9,22)                 1.4358         estimate D2E/DX2                !
 ! R18   R(10,11)                1.4677         estimate D2E/DX2                !
 ! R19   R(10,23)                1.486          estimate D2E/DX2                !
 ! R20   R(11,12)                1.3611         estimate D2E/DX2                !
 ! R21   R(11,24)                1.0854         estimate D2E/DX2                !
 ! R22   R(12,13)                1.5113         estimate D2E/DX2                !
 ! R23   R(12,14)                1.4579         estimate D2E/DX2                !
 ! R24   R(13,16)                1.5589         estimate D2E/DX2                !
 ! R25   R(14,15)                1.3239         estimate D2E/DX2                !
 ! R26   R(14,25)                1.0833         estimate D2E/DX2                !
 ! R27   R(15,17)                1.3301         estimate D2E/DX2                !
 ! R28   R(15,28)                1.1734         estimate D2E/DX2                !
 ! R29   R(16,17)                1.2358         estimate D2E/DX2                !
 ! R30   R(16,26)                1.2433         estimate D2E/DX2                !
 ! R31   R(17,27)                1.2647         estimate D2E/DX2                !
 ! R32   R(21,29)                1.4854         estimate D2E/DX2                !
 ! R33   R(21,31)                1.0828         estimate D2E/DX2                !
 ! R34   R(22,29)                1.4655         estimate D2E/DX2                !
 ! R35   R(22,30)                1.4665         estimate D2E/DX2                !
 ! R36   R(23,30)                1.49           estimate D2E/DX2                !
 ! R37   R(23,34)                1.0836         estimate D2E/DX2                !
 ! R38   R(29,32)                1.0825         estimate D2E/DX2                !
 ! R39   R(30,33)                1.0819         estimate D2E/DX2                !
 ! A1    A(2,1,4)              125.9721         estimate D2E/DX2                !
 ! A2    A(2,1,19)             124.2515         estimate D2E/DX2                !
 ! A3    A(4,1,19)             108.1743         estimate D2E/DX2                !
 ! A4    A(1,2,3)              118.2731         estimate D2E/DX2                !
 ! A5    A(1,2,18)             115.8788         estimate D2E/DX2                !
 ! A6    A(3,2,18)             125.5923         estimate D2E/DX2                !
 ! A7    A(2,3,6)              105.4474         estimate D2E/DX2                !
 ! A8    A(2,3,7)              121.4185         estimate D2E/DX2                !
 ! A9    A(6,3,7)              105.6483         estimate D2E/DX2                !
 ! A10   A(1,4,5)              114.3602         estimate D2E/DX2                !
 ! A11   A(1,4,20)             124.8885         estimate D2E/DX2                !
 ! A12   A(5,4,20)             120.6447         estimate D2E/DX2                !
 ! A13   A(4,5,6)              114.646          estimate D2E/DX2                !
 ! A14   A(4,5,21)             129.2267         estimate D2E/DX2                !
 ! A15   A(6,5,21)             116.1273         estimate D2E/DX2                !
 ! A16   A(3,6,5)              130.4383         estimate D2E/DX2                !
 ! A17   A(3,6,9)              104.1577         estimate D2E/DX2                !
 ! A18   A(5,6,9)              122.0108         estimate D2E/DX2                !
 ! A19   A(3,7,8)              103.1993         estimate D2E/DX2                !
 ! A20   A(3,7,13)             136.7655         estimate D2E/DX2                !
 ! A21   A(8,7,13)             115.95           estimate D2E/DX2                !
 ! A22   A(7,8,9)              108.7947         estimate D2E/DX2                !
 ! A23   A(7,8,10)             127.6839         estimate D2E/DX2                !
 ! A24   A(9,8,10)             123.5214         estimate D2E/DX2                !
 ! A25   A(6,9,8)              108.2719         estimate D2E/DX2                !
 ! A26   A(6,9,22)             125.4316         estimate D2E/DX2                !
 ! A27   A(8,9,22)             126.2965         estimate D2E/DX2                !
 ! A28   A(8,10,11)            115.6084         estimate D2E/DX2                !
 ! A29   A(8,10,23)            115.0973         estimate D2E/DX2                !
 ! A30   A(11,10,23)           129.2943         estimate D2E/DX2                !
 ! A31   A(10,11,12)           122.6809         estimate D2E/DX2                !
 ! A32   A(10,11,24)           116.3147         estimate D2E/DX2                !
 ! A33   A(12,11,24)           121.0045         estimate D2E/DX2                !
 ! A34   A(11,12,13)           120.834          estimate D2E/DX2                !
 ! A35   A(11,12,14)           121.3738         estimate D2E/DX2                !
 ! A36   A(13,12,14)           117.7922         estimate D2E/DX2                !
 ! A37   A(7,13,12)            117.2428         estimate D2E/DX2                !
 ! A38   A(7,13,16)            129.0645         estimate D2E/DX2                !
 ! A39   A(12,13,16)           111.8119         estimate D2E/DX2                !
 ! A40   A(12,14,15)           120.2232         estimate D2E/DX2                !
 ! A41   A(12,14,25)           120.6535         estimate D2E/DX2                !
 ! A42   A(15,14,25)           118.1969         estimate D2E/DX2                !
 ! A43   A(14,15,17)           120.5557         estimate D2E/DX2                !
 ! A44   A(14,15,28)           122.2915         estimate D2E/DX2                !
 ! A45   A(17,15,28)           114.172          estimate D2E/DX2                !
 ! A46   A(13,16,17)           118.1495         estimate D2E/DX2                !
 ! A47   A(13,16,26)           113.5311         estimate D2E/DX2                !
 ! A48   A(17,16,26)           117.26           estimate D2E/DX2                !
 ! A49   A(15,17,16)           129.2708         estimate D2E/DX2                !
 ! A50   A(15,17,27)           130.8258         estimate D2E/DX2                !
 ! A51   A(16,17,27)            99.1415         estimate D2E/DX2                !
 ! A52   A(5,21,29)            121.7353         estimate D2E/DX2                !
 ! A53   A(5,21,31)            119.0896         estimate D2E/DX2                !
 ! A54   A(29,21,31)           119.1752         estimate D2E/DX2                !
 ! A55   A(9,22,29)            114.3205         estimate D2E/DX2                !
 ! A56   A(9,22,30)            113.0401         estimate D2E/DX2                !
 ! A57   A(29,22,30)           132.6394         estimate D2E/DX2                !
 ! A58   A(10,23,30)           122.546          estimate D2E/DX2                !
 ! A59   A(10,23,34)           118.9783         estimate D2E/DX2                !
 ! A60   A(30,23,34)           118.4758         estimate D2E/DX2                !
 ! A61   A(21,29,22)           120.3746         estimate D2E/DX2                !
 ! A62   A(21,29,32)           119.5067         estimate D2E/DX2                !
 ! A63   A(22,29,32)           120.1188         estimate D2E/DX2                !
 ! A64   A(22,30,23)           119.4988         estimate D2E/DX2                !
 ! A65   A(22,30,33)           120.6244         estimate D2E/DX2                !
 ! A66   A(23,30,33)           119.8768         estimate D2E/DX2                !
 ! D1    D(4,1,2,3)              8.9399         estimate D2E/DX2                !
 ! D2    D(4,1,2,18)          -165.5781         estimate D2E/DX2                !
 ! D3    D(19,1,2,3)          -154.897          estimate D2E/DX2                !
 ! D4    D(19,1,2,18)           30.585          estimate D2E/DX2                !
 ! D5    D(2,1,4,5)             10.242          estimate D2E/DX2                !
 ! D6    D(2,1,4,20)          -173.5079         estimate D2E/DX2                !
 ! D7    D(19,1,4,5)           176.2269         estimate D2E/DX2                !
 ! D8    D(19,1,4,20)           -7.523          estimate D2E/DX2                !
 ! D9    D(1,2,3,6)            -28.5593         estimate D2E/DX2                !
 ! D10   D(1,2,3,7)           -148.3424         estimate D2E/DX2                !
 ! D11   D(18,2,3,6)           145.3733         estimate D2E/DX2                !
 ! D12   D(18,2,3,7)            25.5902         estimate D2E/DX2                !
 ! D13   D(2,3,6,5)             40.7147         estimate D2E/DX2                !
 ! D14   D(2,3,6,9)           -160.3376         estimate D2E/DX2                !
 ! D15   D(7,3,6,5)            170.4353         estimate D2E/DX2                !
 ! D16   D(7,3,6,9)            -30.6169         estimate D2E/DX2                !
 ! D17   D(2,3,7,8)            149.9184         estimate D2E/DX2                !
 ! D18   D(2,3,7,13)           -55.1757         estimate D2E/DX2                !
 ! D19   D(6,3,7,8)             30.2331         estimate D2E/DX2                !
 ! D20   D(6,3,7,13)          -174.8609         estimate D2E/DX2                !
 ! D21   D(1,4,5,6)             -3.5749         estimate D2E/DX2                !
 ! D22   D(1,4,5,21)           176.4251         estimate D2E/DX2                !
 ! D23   D(20,4,5,6)           180.0            estimate D2E/DX2                !
 ! D24   D(20,4,5,21)            0.0            estimate D2E/DX2                !
 ! D25   D(4,5,6,3)            -24.253          estimate D2E/DX2                !
 ! D26   D(4,5,6,9)            180.0            estimate D2E/DX2                !
 ! D27   D(21,5,6,3)           155.747          estimate D2E/DX2                !
 ! D28   D(21,5,6,9)             0.0            estimate D2E/DX2                !
 ! D29   D(4,5,21,29)          180.0            estimate D2E/DX2                !
 ! D30   D(4,5,21,31)            0.0            estimate D2E/DX2                !
 ! D31   D(6,5,21,29)            0.0            estimate D2E/DX2                !
 ! D32   D(6,5,21,31)          180.0            estimate D2E/DX2                !
 ! D33   D(3,6,9,8)             18.8099         estimate D2E/DX2                !
 ! D34   D(3,6,9,22)          -161.1901         estimate D2E/DX2                !
 ! D35   D(5,6,9,8)            180.0            estimate D2E/DX2                !
 ! D36   D(5,6,9,22)             0.0            estimate D2E/DX2                !
 ! D37   D(3,7,8,9)            -18.8493         estimate D2E/DX2                !
 ! D38   D(3,7,8,10)           161.1507         estimate D2E/DX2                !
 ! D39   D(13,7,8,9)           180.0            estimate D2E/DX2                !
 ! D40   D(13,7,8,10)            0.0            estimate D2E/DX2                !
 ! D41   D(3,7,13,12)         -152.6645         estimate D2E/DX2                !
 ! D42   D(3,7,13,16)           10.3051         estimate D2E/DX2                !
 ! D43   D(8,7,13,12)            0.0            estimate D2E/DX2                !
 ! D44   D(8,7,13,16)          162.9696         estimate D2E/DX2                !
 ! D45   D(7,8,9,6)              0.0            estimate D2E/DX2                !
 ! D46   D(7,8,9,22)           180.0            estimate D2E/DX2                !
 ! D47   D(10,8,9,6)           180.0            estimate D2E/DX2                !
 ! D48   D(10,8,9,22)            0.0            estimate D2E/DX2                !
 ! D49   D(7,8,10,11)            0.0            estimate D2E/DX2                !
 ! D50   D(7,8,10,23)          180.0            estimate D2E/DX2                !
 ! D51   D(9,8,10,11)          180.0            estimate D2E/DX2                !
 ! D52   D(9,8,10,23)            0.0            estimate D2E/DX2                !
 ! D53   D(6,9,22,29)            0.0            estimate D2E/DX2                !
 ! D54   D(6,9,22,30)          180.0            estimate D2E/DX2                !
 ! D55   D(8,9,22,29)          180.0            estimate D2E/DX2                !
 ! D56   D(8,9,22,30)            0.0            estimate D2E/DX2                !
 ! D57   D(8,10,11,12)           0.0            estimate D2E/DX2                !
 ! D58   D(8,10,11,24)         180.0            estimate D2E/DX2                !
 ! D59   D(23,10,11,12)        180.0            estimate D2E/DX2                !
 ! D60   D(23,10,11,24)          0.0            estimate D2E/DX2                !
 ! D61   D(8,10,23,30)           0.0            estimate D2E/DX2                !
 ! D62   D(8,10,23,34)         180.0            estimate D2E/DX2                !
 ! D63   D(11,10,23,30)        180.0            estimate D2E/DX2                !
 ! D64   D(11,10,23,34)          0.0            estimate D2E/DX2                !
 ! D65   D(10,11,12,13)          0.0            estimate D2E/DX2                !
 ! D66   D(10,11,12,14)        180.0            estimate D2E/DX2                !
 ! D67   D(24,11,12,13)        180.0            estimate D2E/DX2                !
 ! D68   D(24,11,12,14)          0.0            estimate D2E/DX2                !
 ! D69   D(11,12,13,7)           0.0            estimate D2E/DX2                !
 ! D70   D(11,12,13,16)       -165.8219         estimate D2E/DX2                !
 ! D71   D(14,12,13,7)         180.0            estimate D2E/DX2                !
 ! D72   D(14,12,13,16)         14.1781         estimate D2E/DX2                !
 ! D73   D(11,12,14,15)        168.788          estimate D2E/DX2                !
 ! D74   D(11,12,14,25)          0.0            estimate D2E/DX2                !
 ! D75   D(13,12,14,15)        -11.212          estimate D2E/DX2                !
 ! D76   D(13,12,14,25)        180.0            estimate D2E/DX2                !
 ! D77   D(7,13,16,17)        -178.4353         estimate D2E/DX2                !
 ! D78   D(7,13,16,26)          38.4741         estimate D2E/DX2                !
 ! D79   D(12,13,16,17)        -14.7236         estimate D2E/DX2                !
 ! D80   D(12,13,16,26)       -157.8142         estimate D2E/DX2                !
 ! D81   D(12,14,15,17)          6.7909         estimate D2E/DX2                !
 ! D82   D(12,14,15,28)        166.1146         estimate D2E/DX2                !
 ! D83   D(25,14,15,17)        175.8502         estimate D2E/DX2                !
 ! D84   D(25,14,15,28)        -24.8261         estimate D2E/DX2                !
 ! D85   D(14,15,17,16)         -8.0453         estimate D2E/DX2                !
 ! D86   D(14,15,17,27)        159.8088         estimate D2E/DX2                !
 ! D87   D(28,15,17,16)       -168.9485         estimate D2E/DX2                !
 ! D88   D(28,15,17,27)         -1.0944         estimate D2E/DX2                !
 ! D89   D(13,16,17,15)         12.3737         estimate D2E/DX2                !
 ! D90   D(13,16,17,27)       -158.3463         estimate D2E/DX2                !
 ! D91   D(26,16,17,15)        154.101          estimate D2E/DX2                !
 ! D92   D(26,16,17,27)        -16.619          estimate D2E/DX2                !
 ! D93   D(5,21,29,22)           0.0            estimate D2E/DX2                !
 ! D94   D(5,21,29,32)         180.0            estimate D2E/DX2                !
 ! D95   D(31,21,29,22)        180.0            estimate D2E/DX2                !
 ! D96   D(31,21,29,32)          0.0            estimate D2E/DX2                !
 ! D97   D(9,22,29,21)           0.0            estimate D2E/DX2                !
 ! D98   D(9,22,29,32)         180.0            estimate D2E/DX2                !
 ! D99   D(30,22,29,21)        180.0            estimate D2E/DX2                !
 ! D100  D(30,22,29,32)          0.0            estimate D2E/DX2                !
 ! D101  D(9,22,30,23)           0.0            estimate D2E/DX2                !
 ! D102  D(9,22,30,33)         180.0            estimate D2E/DX2                !
 ! D103  D(29,22,30,23)        180.0            estimate D2E/DX2                !
 ! D104  D(29,22,30,33)          0.0            estimate D2E/DX2                !
 ! D105  D(10,23,30,22)          0.0            estimate D2E/DX2                !
 ! D106  D(10,23,30,33)        180.0            estimate D2E/DX2                !
 ! D107  D(34,23,30,22)        180.0            estimate D2E/DX2                !
 ! D108  D(34,23,30,33)          0.0            estimate D2E/DX2                !
 --------------------------------------------------------------------------------
 Trust Radius=3.00D-01 FncErr=1.00D-07 GrdErr=1.00D-06 EigMax=2.50D+02 EigMin=1.00D-04
 Number of steps in this run=    204 maximum allowed number of steps=    204.
 GradGradGradGradGradGradGradGradGradGradGradGradGradGradGradGradGradGrad

                          Input orientation:                          
 ---------------------------------------------------------------------
 Center     Atomic      Atomic             Coordinates (Angstroms)
 Number     Number       Type             X           Y           Z
 ---------------------------------------------------------------------
      1          6           0       -6.998300    0.272480    0.083230
      2          6           0       -5.670800    0.793830   -0.045320
      3          6           0       -4.648480   -0.080190   -0.461060
      4          6           0       -7.380180   -1.139680    0.000000
      5          6           0       -6.311510   -2.021700    0.000000
      6          6           0       -5.063830   -1.418020    0.000000
      7          6           0       -3.267000    0.085640    0.000000
      8          6           0       -2.748590   -1.281680    0.000000
      9          6           0       -3.843130   -2.185830    0.000000
     10          6           0       -1.463570   -1.672590    0.000000
     11          6           0       -0.471440   -0.590950    0.000000
     12          6           0       -0.818910    0.725040    0.000000
     13          6           0       -2.271350    1.142710    0.000000
     14          6           0        0.190790    1.776640    0.000000
     15          6           0       -0.157060    3.034460   -0.222420
     16          6           0       -2.440220    2.651360   -0.354500
     17          6           0       -1.439440    3.375210   -0.314490
     18          1           0       -5.533010    1.806470    0.275910
     19          1           0       -7.999390    0.938100    0.000000
     20          1           0       -8.402220   -1.508060    0.000000
     21          6           0       -6.319500   -3.509740    0.000000
     22          6           0       -3.761430   -3.619290    0.000000
     23          6           0       -1.252210   -3.143470    0.000000
     24          1           0        0.570830   -0.894030    0.000000
     25          1           0        1.245500    1.529610    0.000000
     26          1           0       -3.511710    3.138450    0.046010
     27          1           0       -2.008150    4.497350   -0.184700
     28          1           0        0.564050    3.932960    0.000000
     29          6           0       -5.060360   -4.297850    0.000000
     30          6           0       -2.381410   -4.115530    0.000000
     31          1           0       -7.268560   -4.031100    0.000000
     32          1           0       -5.108260   -5.379250    0.000000
     33          1           0       -2.177830   -5.178060    0.000000
     34          1           0       -0.239220   -3.528290    0.000000
 ---------------------------------------------------------------------
                    Distance matrix (angstroms):
                    1          2          3          4          5
     1  C    0.000000
     2  C    1.431987   0.000000
     3  C    2.437680   1.407796   0.000000
     4  C    1.465249   2.581181   2.966021   0.000000
     5  C    2.396220   2.887866   2.597635   1.385646   0.000000
     6  C    2.570387   2.294068   1.474748   2.333013   1.386050
     7  C    3.736902   2.506360   1.465798   4.291813   3.702691
     8  C    4.525746   3.584565   2.294719   4.633766   3.638960
     9  C    4.000664   3.495827   2.301062   3.688516   2.473831
    10  C    5.867151   4.877096   3.590538   5.940561   4.860494
    11  C    6.584249   5.380800   4.233334   6.930497   6.012775
    12  C    6.196499   4.852589   3.940378   6.821103   6.141110
    13  C    4.807108   3.417606   2.712712   5.595485   5.131899
    14  C    7.345232   5.943585   5.203742   8.113230   7.530424
    15  C    7.384072   5.954252   5.470909   8.345441   7.968154
    16  C    5.160113   3.739339   3.514133   6.237055   6.078655
    17  C    6.378561   4.963908   4.717967   7.468302   7.277541
    18  H    2.130100   1.071268   2.210205   3.488261   3.916258
    19  H    1.205055   2.333495   3.532434   2.168085   3.407250
    20  H    2.268974   3.572311   4.042518   1.086402   2.152880
    21  C    3.843551   4.352422   3.842746   2.596580   1.488061
    22  C    5.062621   4.808677   3.677589   4.386778   3.009186
    23  C    6.685297   5.918473   4.596837   6.447262   5.182170
    24  H    7.658943   6.465978   5.302463   7.954804   6.974112
    25  H    8.339517   6.955475   6.127237   9.029256   8.349862
    26  H    4.513478   3.188613   3.450943   5.767978   5.870958
    27  H    6.543922   5.210613   5.291653   7.789026   7.813516
    28  H    8.402094   6.980655   6.594575   9.425628   9.095675
    29  C    4.964922   5.128342   4.262731   3.918623   2.597352
    30  C    6.370026   5.909649   4.651468   5.817507   4.453067
    31  H    4.312861   5.082798   4.763096   2.893574   2.225676
    32  H    5.959969   6.198824   5.338915   4.809945   3.566644
    33  H    7.276829   6.918552   5.683746   6.585815   5.200954
    34  H    7.754866   6.941530   5.616364   7.529858   6.256398
                    6          7          8          9         10
     6  C    0.000000
     7  C    2.342988   0.000000
     8  C    2.319251   1.462297   0.000000
     9  C    1.442096   2.343395   1.419685   0.000000
    10  C    3.609249   2.518677   1.343163   2.434280   0.000000
    11  C    4.666272   2.876270   2.379605   3.729871   1.467742
    12  C    4.755213   2.530213   2.783988   4.197508   2.482784
    13  C    3.788837   1.452142   2.470916   3.680988   2.928894
    14  C    6.149543   3.849129   4.241848   5.654527   3.825454
    15  C    6.629513   4.291473   5.039302   6.394373   4.890067
    16  C    4.854776   2.718852   3.961006   5.048983   4.447028
    17  C    6.017488   3.776261   4.847618   6.066448   5.057645
    18  H    3.270106   2.858703   4.167228   4.343994   5.361001
    19  H    3.764149   4.808555   5.700730   5.199369   7.037943
    20  H    3.339604   5.376836   5.658160   4.609194   6.940600
    21  C    2.439672   4.716409   4.208996   2.808050   5.191837
    22  C    2.557701   3.737776   2.547600   1.435786   3.011611
    23  C    4.183972   3.806117   2.388601   2.762235   1.485988
    24  H    5.658972   3.960895   3.341979   4.599108   2.178288
    25  H    6.963919   4.737901   4.884271   6.300686   4.194418
    26  H    4.813794   3.062948   4.485757   5.334783   5.229063
    27  H    6.660548   4.591514   5.829198   6.932976   6.196680
    28  H    7.765695   5.429440   6.177868   7.540744   5.960993
    29  C    2.879832   4.736151   3.800206   2.437679   4.452964
    30  C    3.804200   4.293495   2.857539   2.420820   2.609672
    31  H    3.418921   5.741083   5.290505   3.890834   6.265818
    32  H    3.961479   5.766737   4.728438   3.434892   5.198374
    33  H    4.739926   5.375205   3.937962   3.424422   3.577497
    34  H    5.265938   4.714652   3.368114   3.845825   2.223208
                   11         12         13         14         15
    11  C    0.000000
    12  C    1.361090   0.000000
    13  C    2.499050   1.511301   0.000000
    14  C    2.458461   1.457860   2.542440   0.000000
    15  C    3.645806   2.412662   2.845771   1.323851   0.000000
    16  C    3.809769   2.542641   1.558914   2.795178   2.318842
    17  C    4.094674   2.739957   2.403130   2.304773   1.330070
    18  H    5.607427   4.844415   3.339930   5.730524   5.536888
    19  H    7.681668   7.183640   5.731693   8.232994   8.120735
    20  H    7.983631   7.905272   6.679382   9.199406   9.416296
    21  C    6.535988   6.941891   6.167075   8.386280   8.991757
    22  C    4.471563   5.247059   4.989688   6.688505   7.570558
    23  C    2.669262   3.892701   4.405676   5.127351   6.278188
    24  H    1.085442   2.133721   3.496612   2.697575   4.001541
    25  H    2.728490   2.215654   3.538068   1.083253   2.069111
    26  H    4.811838   3.616329   2.350231   3.945269   3.366979
    27  H    5.318495   3.959637   3.370015   3.503101   2.359662
    28  H    4.640905   3.493326   3.978063   2.188387   1.173360
    29  C    5.899093   6.574140   6.113777   8.029571   8.823525
    30  C    4.008821   5.086504   5.259392   6.429143   7.491299
    31  H    7.618102   8.013667   7.193081   9.453663  10.027215
    32  H    6.665427   7.460622   7.112244   8.904308   9.764956
    33  H    4.894215   6.057496   6.321462   7.346987   8.460406
    34  H    2.946505   4.292651   5.093898   5.322329   6.567032
                   16         17         18         19         20
    16  C    0.000000
    17  C    1.235767   0.000000
    18  H    3.267508   4.423441   0.000000
    19  H    5.827976   7.005095   2.629301   0.000000
    20  H    7.278179   8.510319   4.392562   2.479107   0.000000
    21  C    7.289282   8.444905   5.381151   4.754504   2.888675
    22  C    6.418124   7.376556   5.714324   6.223352   5.098453
    23  C    5.925968   6.528947   6.550060   7.885661   7.334658
    24  H    4.664963   4.729323   6.680246   8.763867   8.994035
    25  H    3.868918   3.273232   6.789770   9.263794  10.114640
    26  H    1.243284   2.116676   2.431600   4.998293   6.746055
    27  H    1.903469   1.264703   4.458434   6.971179   8.774007
    28  H    3.285393   2.103321   6.463144   9.072028  10.488026
    29  C    7.435208   8.490337   6.128805   6.004421   4.353270
    30  C    6.776425   7.556282   6.714074   7.556512   6.561178
    31  H    8.251897   9.430322   6.096350   5.022655   2.766029
    32  H    8.469640   9.497353   7.203548   6.947485   5.082941
    33  H    7.841832   8.590841   7.753517   8.443813   7.225782
    34  H    6.569486   7.014110   7.520638   8.953708   8.409275
                   21         22         23         24         25
    21  C    0.000000
    22  C    2.560415   0.000000
    23  C    5.080510   2.553936   0.000000
    24  H    7.370114   5.118156   2.895420   0.000000
    25  H    9.089790   7.181958   5.298701   2.515792   0.000000
    26  H    7.216941   6.762509   6.676075   5.738479   5.022104
    27  H    9.095897   8.305898   7.680344   5.979317   4.407702
    28  H   10.137901   8.703233   7.305796   4.826995   2.498092
    29  C    1.485446   1.465491   3.979271   6.579992   8.586219
    30  C    3.984411   1.466530   1.489964   4.369643   6.709850
    31  H    1.082835   3.531225   6.081476   8.443770  10.169106
    32  H    2.227593   2.216170   4.457335   7.236661   9.386299
    33  H    4.465056   2.222061   2.235247   5.089995   7.530739
    34  H    6.080308   3.523385   1.083621   2.755995   5.271313
                   26         27         28         29         30
    26  H    0.000000
    27  H    2.039737   0.000000
    28  H    4.152732   2.639860   0.000000
    29  C    7.595985   9.311586   9.968963   0.000000
    30  C    7.341657   8.622943   8.570527   2.685147   0.000000
    31  H    8.094349  10.022000  11.170319   2.224253   4.887879
    32  H    8.666158  10.353358  10.903777   1.082460   3.005445
    33  H    8.422927   9.678660   9.514651   3.013926   1.081857
    34  H    7.426758   8.220348   7.504365   4.882173   2.221222
                   31         32         33         34
    31  H    0.000000
    32  H    2.546449   0.000000
    33  H    5.218338   2.937328   0.000000
    34  H    7.047300   5.208993   2.545575   0.000000
 Stoichiometry    C22H12
 Framework group  C1[X(C22H12)]
 Deg. of freedom    96
 Full point group                 C1      NOp   1
 Largest Abelian subgroup         C1      NOp   1
 Largest concise Abelian subgroup C1      NOp   1
                         Standard orientation:                         
 ---------------------------------------------------------------------
 Center     Atomic      Atomic             Coordinates (Angstroms)
 Number     Number       Type             X           Y           Z
 ---------------------------------------------------------------------
      1          6           0       -1.951416   -3.229787   -0.158733
      2          6           0       -0.636958   -2.673139   -0.045019
      3          6           0       -0.512532   -1.340931    0.392735
      4          6           0       -3.211789   -2.492318   -0.038077
      5          6           0       -3.067823   -1.114353   -0.015746
      6          6           0       -1.755034   -0.670016   -0.032638
      7          6           0        0.580060   -0.482274   -0.073650
      8          6           0       -0.008466    0.855892   -0.038106
      9          6           0       -1.422616    0.733113   -0.013435
     10          6           0        0.633949    2.035428   -0.028868
     11          6           0        2.099453    1.959883   -0.058125
     12          6           0        2.773906    0.778147   -0.092457
     13          6           0        2.030856   -0.537835   -0.102263
     14          6           0        4.230888    0.736335   -0.120938
     15          6           0        4.868535   -0.408244    0.068603
     16          6           0        2.974428   -1.738154    0.212569
     17          6           0        4.194603   -1.551846    0.152720
     18          1           0        0.164843   -3.292588   -0.392886
     19          1           0       -2.197259   -4.407622   -0.092226
     20          1           0       -4.198774   -2.946210   -0.027557
     21          6           0       -4.116329   -0.059161    0.023401
     22          6           0       -2.368914    1.812272    0.024204
     23          6           0       -0.246112    3.232162    0.009649
     24          1           0        2.630311    2.906627   -0.051000
     25          1           0        4.809896    1.651843   -0.115298
     26          1           0        2.544069   -2.829276   -0.199743
     27          1           0        4.572970   -2.748131   -0.006079
     28          1           0        6.008199   -0.539186   -0.177960
     29          6           0       -3.770726    1.385387    0.043108
     30          6           0       -1.732569    3.133496    0.036135
     31          1           0       -5.158480   -0.352834    0.037886
     32          1           0       -4.562722    2.122714    0.071591
     33          1           0       -2.332009    4.033671    0.063917
     34          1           0        0.206583    4.216650    0.018948
 ---------------------------------------------------------------------
 Rotational constants (GHZ):           0.5372759           0.2496906           0.1709215
 Standard basis: 6-311+G(d,p) (5D, 7F)
 There are   578 symmetry adapted cartesian basis functions of A   symmetry.
 There are   556 symmetry adapted basis functions of A   symmetry.
   556 basis functions,   888 primitive gaussians,   578 cartesian basis functions
    72 alpha electrons       72 beta electrons
       nuclear repulsion energy      1554.8557939927 Hartrees.
 NAtoms=   34 NActive=   34 NUniq=   34 SFac= 1.00D+00 NAtFMM=   60 NAOKFM=F Big=F
 Integral buffers will be    131072 words long.
 Raffenetti 2 integral format.
 Two-electron integral symmetry is turned on.
 One-electron integrals computed using PRISM.
 NBasis=   556 RedAO= T EigKep=  1.00D-06  NBF=   556
 NBsUse=   546 1.00D-06 EigRej=  8.04D-07 NBFU=   546
 ExpMin= 4.38D-02 ExpMax= 4.56D+03 ExpMxC= 6.82D+02 IAcc=2 IRadAn=         4 AccDes= 0.00D+00
 Harris functional with IExCor=  402 and IRadAn=       4 diagonalized for initial guess.
 HarFok:  IExCor=  402 AccDes= 0.00D+00 IRadAn=         4 IDoV= 1 UseB2=F ITyADJ=14
 ICtDFT=  3500011 ScaDFX=  1.000000  1.000000  1.000000  1.000000
 FoFCou: FMM=F IPFlag=           0 FMFlag=      100000 FMFlg1=           0
         NFxFlg=           0 DoJE=T BraDBF=F KetDBF=T FulRan=T
         wScrn=  0.000000 ICntrl=       500 IOpCl=  0 I1Cent=   200000004 NGrid=           0
         NMat0=    1 NMatS0=      1 NMatT0=    0 NMatD0=    1 NMtDS0=    0 NMtDT0=    0
 Petite list used in FoFCou.
 Requested convergence on RMS density matrix=1.00D-08 within 128 cycles.
 Requested convergence on MAX density matrix=1.00D-06.
 Requested convergence on             energy=1.00D-06.
 No special actions if energy rises.
 SCF Done:  E(RB3LYP) =  -845.569485575     A.U. after   17 cycles
            NFock= 17  Conv=0.46D-08     -V/T= 2.0057

 **********************************************************************

            Population analysis using the SCF density.

 **********************************************************************

 Orbital symmetries:
       Occupied  (A) (A) (A) (A) (A) (A) (A) (A) (A) (A) (A) (A)
                 (A) (A) (A) (A) (A) (A) (A) (A) (A) (A) (A) (A)
                 (A) (A) (A) (A) (A) (A) (A) (A) (A) (A) (A) (A)
                 (A) (A) (A) (A) (A) (A) (A) (A) (A) (A) (A) (A)
                 (A) (A) (A) (A) (A) (A) (A) (A) (A) (A) (A) (A)
                 (A) (A) (A) (A) (A) (A) (A) (A) (A) (A) (A) (A)
       Virtual   (A) (A) (A) (A) (A) (A) (A) (A) (A) (A) (A) (A)
                 (A) (A) (A) (A) (A) (A) (A) (A) (A) (A) (A) (A)
                 (A) (A) (A) (A) (A) (A) (A) (A) (A) (A) (A) (A)
                 (A) (A) (A) (A) (A) (A) (A) (A) (A) (A) (A) (A)
                 (A) (A) (A) (A) (A) (A) (A) (A) (A) (A) (A) (A)
                 (A) (A) (A) (A) (A) (A) (A) (A) (A) (A) (A) (A)
                 (A) (A) (A) (A) (A) (A) (A) (A) (A) (A) (A) (A)
                 (A) (A) (A) (A) (A) (A) (A) (A) (A) (A) (A) (A)
                 (A) (A) (A) (A) (A) (A) (A) (A) (A) (A) (A) (A)
                 (A) (A) (A) (A) (A) (A) (A) (A) (A) (A) (A) (A)
                 (A) (A) (A) (A) (A) (A) (A) (A) (A) (A) (A) (A)
                 (A) (A) (A) (A) (A) (A) (A) (A) (A) (A) (A) (A)
                 (A) (A) (A) (A) (A) (A) (A) (A) (A) (A) (A) (A)
                 (A) (A) (A) (A) (A) (A) (A) (A) (A) (A) (A) (A)
                 (A) (A) (A) (A) (A) (A) (A) (A) (A) (A) (A) (A)
                 (A) (A) (A) (A) (A) (A) (A) (A) (A) (A) (A) (A)
                 (A) (A) (A) (A) (A) (A) (A) (A) (A) (A) (A) (A)
                 (A) (A) (A) (A) (A) (A) (A) (A) (A) (A) (A) (A)
                 (A) (A) (A) (A) (A) (A) (A) (A) (A) (A) (A) (A)
                 (A) (A) (A) (A) (A) (A) (A) (A) (A) (A) (A) (A)
                 (A) (A) (A) (A) (A) (A) (A) (A) (A) (A) (A) (A)
                 (A) (A) (A) (A) (A) (A) (A) (A) (A) (A) (A) (A)
                 (A) (A) (A) (A) (A) (A) (A) (A) (A) (A) (A) (A)
                 (A) (A) (A) (A) (A) (A) (A) (A) (A) (A) (A) (A)
                 (A) (A) (A) (A) (A) (A) (A) (A) (A) (A) (A) (A)
                 (A) (A) (A) (A) (A) (A) (A) (A) (A) (A) (A) (A)
                 (A) (A) (A) (A) (A) (A) (A) (A) (A) (A) (A) (A)
                 (A) (A) (A) (A) (A) (A) (A) (A) (A) (A) (A) (A)
                 (A) (A) (A) (A) (A) (A) (A) (A) (A) (A) (A) (A)
                 (A) (A) (A) (A) (A) (A) (A) (A) (A) (A) (A) (A)
                 (A) (A) (A) (A) (A) (A) (A) (A) (A) (A) (A) (A)
                 (A) (A) (A) (A) (A) (A) (A) (A) (A) (A) (A) (A)
                 (A) (A) (A) (A) (A) (A) (A) (A) (A) (A) (A) (A)
                 (A) (A) (A) (A) (A) (A) (A) (A) (A) (A) (A) (A)
                 (A) (A) (A) (A) (A) (A) (A) (A) (A) (A) (A) (A)
                 (A) (A) (A) (A) (A) (A) (A) (A) (A) (A) (A) (A)
                 (A) (A) (A) (A) (A) (A) (A) (A) (A) (A) (A) (A)
                 (A) (A) (A) (A) (A) (A) (A) (A) (A) (A) (A) (A)
                 (A) (A) (A) (A) (A) (A) (A) (A) (A) (A) (A) (A)
                 (A) (A) (A) (A) (A) (A)
 The electronic state is 1-A.
 Alpha  occ. eigenvalues --  -10.21740 -10.20991 -10.20869 -10.20848 -10.20714
 Alpha  occ. eigenvalues --  -10.20601 -10.20355 -10.20155 -10.20112 -10.20098
 Alpha  occ. eigenvalues --  -10.19987 -10.19791 -10.19711 -10.19509 -10.19379
 Alpha  occ. eigenvalues --  -10.19090 -10.19009 -10.18436 -10.18361 -10.18046
 Alpha  occ. eigenvalues --  -10.17809 -10.17465  -0.91063  -0.88506  -0.85771
 Alpha  occ. eigenvalues --   -0.83166  -0.81299  -0.78594  -0.77288  -0.76293
 Alpha  occ. eigenvalues --   -0.72536  -0.71798  -0.71081  -0.66065  -0.64018
 Alpha  occ. eigenvalues --   -0.62587  -0.61790  -0.59613  -0.58598  -0.55594
 Alpha  occ. eigenvalues --   -0.53226  -0.52230  -0.51211  -0.49530  -0.48074
 Alpha  occ. eigenvalues --   -0.47179  -0.46430  -0.44568  -0.43986  -0.43420
 Alpha  occ. eigenvalues --   -0.42983  -0.42597  -0.42237  -0.41245  -0.40215
 Alpha  occ. eigenvalues --   -0.39247  -0.38754  -0.38235  -0.37186  -0.35825
 Alpha  occ. eigenvalues --   -0.35115  -0.34744  -0.34297  -0.32936  -0.32178
 Alpha  occ. eigenvalues --   -0.30514  -0.28763  -0.27752  -0.26475  -0.22759
 Alpha  occ. eigenvalues --   -0.22377  -0.21321
 Alpha virt. eigenvalues --   -0.10381  -0.06051  -0.04911  -0.03151  -0.01639
 Alpha virt. eigenvalues --   -0.00679   0.00400   0.00442   0.00700   0.01514
 Alpha virt. eigenvalues --    0.01688   0.01930   0.03135   0.03380   0.03779
 Alpha virt. eigenvalues --    0.03909   0.05039   0.05182   0.05262   0.05452
 Alpha virt. eigenvalues --    0.05931   0.06462   0.06986   0.07171   0.07804
 Alpha virt. eigenvalues --    0.07910   0.08299   0.09286   0.09825   0.09926
 Alpha virt. eigenvalues --    0.10435   0.10698   0.10935   0.11302   0.11804
 Alpha virt. eigenvalues --    0.12013   0.12765   0.12973   0.13229   0.13485
 Alpha virt. eigenvalues --    0.14013   0.14359   0.14516   0.14893   0.15144
 Alpha virt. eigenvalues --    0.15442   0.15968   0.16203   0.16449   0.16904
 Alpha virt. eigenvalues --    0.17094   0.17384   0.17585   0.17777   0.17997
 Alpha virt. eigenvalues --    0.18153   0.18471   0.18828   0.18845   0.19095
 Alpha virt. eigenvalues --    0.19496   0.19874   0.20001   0.20169   0.20533
 Alpha virt. eigenvalues --    0.20752   0.20919   0.21227   0.21515   0.21879
 Alpha virt. eigenvalues --    0.22039   0.22560   0.22779   0.23065   0.23204
 Alpha virt. eigenvalues --    0.23361   0.23922   0.24201   0.24457   0.24975
 Alpha virt. eigenvalues --    0.25209   0.25413   0.25606   0.26102   0.26401
 Alpha virt. eigenvalues --    0.26509   0.26686   0.26957   0.27503   0.27762
 Alpha virt. eigenvalues --    0.28447   0.28480   0.29276   0.29425   0.29886
 Alpha virt. eigenvalues --    0.30450   0.30679   0.31394   0.31488   0.31719
 Alpha virt. eigenvalues --    0.32221   0.32931   0.32954   0.33721   0.34060
 Alpha virt. eigenvalues --    0.34530   0.34979   0.35259   0.36263   0.36578
 Alpha virt. eigenvalues --    0.37906   0.37990   0.39306   0.39956   0.40398
 Alpha virt. eigenvalues --    0.41781   0.42284   0.43250   0.43604   0.44460
 Alpha virt. eigenvalues --    0.44912   0.45267   0.47419   0.48091   0.48541
 Alpha virt. eigenvalues --    0.49257   0.49997   0.51273   0.51452   0.52070
 Alpha virt. eigenvalues --    0.52495   0.52968   0.53284   0.54176   0.54537
 Alpha virt. eigenvalues --    0.55075   0.55831   0.56366   0.56541   0.56692
 Alpha virt. eigenvalues --    0.56865   0.57450   0.57955   0.58385   0.58907
 Alpha virt. eigenvalues --    0.59904   0.60127   0.61931   0.62157   0.62719
 Alpha virt. eigenvalues --    0.62937   0.63396   0.63733   0.64473   0.65279
 Alpha virt. eigenvalues --    0.65567   0.65896   0.66340   0.67258   0.67486
 Alpha virt. eigenvalues --    0.67820   0.68121   0.68802   0.68914   0.69233
 Alpha virt. eigenvalues --    0.69935   0.70314   0.70735   0.70935   0.71305
 Alpha virt. eigenvalues --    0.71523   0.72586   0.72827   0.73611   0.73977
 Alpha virt. eigenvalues --    0.74502   0.75200   0.75690   0.76279   0.77312
 Alpha virt. eigenvalues --    0.78231   0.78910   0.79673   0.81245   0.81336
 Alpha virt. eigenvalues --    0.82531   0.82767   0.83361   0.84402   0.85216
 Alpha virt. eigenvalues --    0.85679   0.86453   0.87218   0.88308   0.88806
 Alpha virt. eigenvalues --    0.89340   0.90361   0.90605   0.90995   0.92502
 Alpha virt. eigenvalues --    0.92700   0.93625   0.94188   0.94623   0.94798
 Alpha virt. eigenvalues --    0.95699   0.96492   0.96842   0.97818   0.98607
 Alpha virt. eigenvalues --    0.99330   1.00173   1.00207   1.01645   1.02011
 Alpha virt. eigenvalues --    1.02335   1.03267   1.03649   1.03832   1.04621
 Alpha virt. eigenvalues --    1.05490   1.06283   1.07238   1.09583   1.10514
 Alpha virt. eigenvalues --    1.11150   1.12541   1.13222   1.13708   1.14614
 Alpha virt. eigenvalues --    1.15435   1.18067   1.18871   1.21370   1.22989
 Alpha virt. eigenvalues --    1.25795   1.27284   1.28243   1.29676   1.31123
 Alpha virt. eigenvalues --    1.33852   1.35513   1.37440   1.37853   1.38906
 Alpha virt. eigenvalues --    1.41227   1.41692   1.43273   1.43990   1.45250
 Alpha virt. eigenvalues --    1.46093   1.46498   1.47319   1.48291   1.48931
 Alpha virt. eigenvalues --    1.49436   1.49980   1.50547   1.51309   1.52107
 Alpha virt. eigenvalues --    1.53605   1.54406   1.54932   1.55676   1.56569
 Alpha virt. eigenvalues --    1.57116   1.58055   1.58825   1.60166   1.61041
 Alpha virt. eigenvalues --    1.61559   1.62661   1.63535   1.64604   1.65408
 Alpha virt. eigenvalues --    1.65824   1.66584   1.68103   1.68886   1.69501
 Alpha virt. eigenvalues --    1.70808   1.71752   1.73170   1.74280   1.74638
 Alpha virt. eigenvalues --    1.75338   1.76185   1.76254   1.77660   1.78690
 Alpha virt. eigenvalues --    1.79423   1.80403   1.81091   1.81876   1.83301
 Alpha virt. eigenvalues --    1.84506   1.85237   1.85703   1.86310   1.86503
 Alpha virt. eigenvalues --    1.87434   1.89424   1.89933   1.91065   1.91714
 Alpha virt. eigenvalues --    1.92545   1.93271   1.93586   1.94953   1.95960
 Alpha virt. eigenvalues --    1.96883   1.98600   1.98798   1.99178   2.01144
 Alpha virt. eigenvalues --    2.02325   2.02889   2.03443   2.04607   2.06305
 Alpha virt. eigenvalues --    2.06628   2.08409   2.08812   2.10161   2.11349
 Alpha virt. eigenvalues --    2.12114   2.13993   2.15610   2.17743   2.18963
 Alpha virt. eigenvalues --    2.19050   2.21021   2.21770   2.21846   2.23638
 Alpha virt. eigenvalues --    2.24361   2.25032   2.27124   2.28554   2.31767
 Alpha virt. eigenvalues --    2.33064   2.34562   2.35404   2.37205   2.37450
 Alpha virt. eigenvalues --    2.38881   2.40509   2.41830   2.43553   2.46265
 Alpha virt. eigenvalues --    2.48133   2.49093   2.50318   2.51591   2.53152
 Alpha virt. eigenvalues --    2.56170   2.59481   2.59837   2.61728   2.62688
 Alpha virt. eigenvalues --    2.62939   2.65151   2.66340   2.67466   2.68018
 Alpha virt. eigenvalues --    2.68910   2.70644   2.71047   2.71185   2.71810
 Alpha virt. eigenvalues --    2.72512   2.72976   2.73376   2.74029   2.74529
 Alpha virt. eigenvalues --    2.75036   2.75501   2.75951   2.76336   2.77417
 Alpha virt. eigenvalues --    2.77935   2.79440   2.80355   2.81144   2.82607
 Alpha virt. eigenvalues --    2.83460   2.85006   2.85781   2.86657   2.86938
 Alpha virt. eigenvalues --    2.88467   2.90182   2.91314   2.93234   2.94615
 Alpha virt. eigenvalues --    2.95521   2.99270   3.01869   3.03583   3.05418
 Alpha virt. eigenvalues --    3.06811   3.09136   3.10229   3.11233   3.12736
 Alpha virt. eigenvalues --    3.13062   3.14182   3.15997   3.18473   3.18879
 Alpha virt. eigenvalues --    3.23311   3.26234   3.27383   3.29206   3.31779
 Alpha virt. eigenvalues --    3.34883   3.36291   3.37579   3.38874   3.40219
 Alpha virt. eigenvalues --    3.40337   3.42201   3.43916   3.46705   3.49543
 Alpha virt. eigenvalues --    3.52523   3.55037   3.57308   3.59812   3.64688
 Alpha virt. eigenvalues --    3.70051   3.76652   3.77448   3.79448   3.82977
 Alpha virt. eigenvalues --    3.85092   3.92948   4.03185   4.03888   4.06361
 Alpha virt. eigenvalues --    4.09624   4.12969   4.18005   4.23464   4.30834
 Alpha virt. eigenvalues --    4.48312   4.52459   4.60843   4.65659   4.68368
 Alpha virt. eigenvalues --    4.73069   4.80215  23.40548  23.52231  23.71742
 Alpha virt. eigenvalues --   23.73899  23.77677  23.80594  23.83599  23.84678
 Alpha virt. eigenvalues --   23.86988  23.89826  23.91009  23.91732  23.96505
 Alpha virt. eigenvalues --   23.98290  23.99276  24.01052  24.06085  24.12668
 Alpha virt. eigenvalues --   24.15323  24.22526  24.31257  24.69127
          Condensed to atoms (all electrons):
               1          2          3          4          5          6
     1  C   11.332016  -4.795691  -0.064910  -0.147837   0.533361   1.884787
     2  C   -4.795691  11.197050  -0.920805   0.025119  -0.516153  -1.813714
     3  C   -0.064910  -0.920805  26.360985  -1.847572  -1.971595  -2.352227
     4  C   -0.147837   0.025119  -1.847572  10.096437  -2.222560  -1.951898
     5  C    0.533361  -0.516153  -1.971595  -2.222560  13.074689   0.719933
     6  C    1.884787  -1.813714  -2.352227  -1.951898   0.719933  10.926425
     7  C   -0.583949   0.775865  -5.163861   0.607653   1.246212  -0.478833
     8  C   -0.410647   0.154126   1.092864   0.224976   0.380045  -1.574035
     9  C   -0.181885   0.076987  -0.539855   0.022015  -1.253531   0.550561
    10  C   -0.088375   0.006209  -0.892598   0.003809  -0.172689   0.312196
    11  C    0.030470   0.096974   0.121383  -0.016734  -0.171514   0.078564
    12  C   -0.171952   0.133375   1.313058  -0.019108  -0.032367  -0.151207
    13  C    0.210457   0.171913  -4.566407   0.221437   0.441207   0.690179
    14  C    0.037079  -0.075764   0.018221  -0.006784   0.050940  -0.065153
    15  C   -0.008130   0.079548  -0.202115   0.009371  -0.012842   0.043049
    16  C   -0.064385   0.344218  -4.335905   0.080044   0.076518   0.630282
    17  C   -0.190461  -0.136454   0.195497  -0.011147  -0.007053  -0.143927
    18  H   -0.061510   0.333765   0.062902  -0.030212  -0.027023   0.079672
    19  H    0.375580  -0.006492  -0.005492  -0.040196  -0.026569   0.034602
    20  H    0.017384  -0.049534  -0.001339   0.360186  -0.022129   0.041795
    21  C   -1.568127   1.333786   1.250959   1.131516  -5.096548  -1.774817
    22  C    0.279357  -0.235426  -1.311804   0.203742   0.130191   0.534828
    23  C    0.082181  -0.183087   1.560778  -0.187925  -0.356989   0.020090
    24  H   -0.000085  -0.000911  -0.002416  -0.000036  -0.000231   0.002589
    25  H   -0.000024  -0.000216   0.000584  -0.000004   0.000017  -0.000202
    26  H    0.022840   0.009881   0.016608   0.000383  -0.001676   0.029368
    27  H   -0.000033   0.002274   0.001072   0.000016   0.000024  -0.001356
    28  H    0.000061   0.000074  -0.000033  -0.000004  -0.000011  -0.000074
    29  C    0.140607  -0.009894   0.380629  -0.639222  -0.383820   1.728254
    30  C   -0.010488  -0.011733  -1.762254   0.191859   1.309963  -1.682977
    31  H    0.004475   0.007599  -0.012499   0.051533  -0.068684   0.000122
    32  H   -0.000768   0.000808  -0.000391   0.008702  -0.031662  -0.017642
    33  H    0.000322  -0.000569  -0.000022  -0.000560   0.005733   0.002445
    34  H    0.000009  -0.000317  -0.003867   0.000142   0.002298  -0.002302
               7          8          9         10         11         12
     1  C   -0.583949  -0.410647  -0.181885  -0.088375   0.030470  -0.171952
     2  C    0.775865   0.154126   0.076987   0.006209   0.096974   0.133375
     3  C   -5.163861   1.092864  -0.539855  -0.892598   0.121383   1.313058
     4  C    0.607653   0.224976   0.022015   0.003809  -0.016734  -0.019108
     5  C    1.246212   0.380045  -1.253531  -0.172689  -0.171514  -0.032367
     6  C   -0.478833  -1.574035   0.550561   0.312196   0.078564  -0.151207
     7  C   12.923807   0.344935  -1.002281  -0.213583  -0.437717  -1.430667
     8  C    0.344935   8.750943  -0.135697   0.658974  -0.789443   0.086874
     9  C   -1.002281  -0.135697   9.135478  -0.214105  -0.426385  -0.581277
    10  C   -0.213583   0.658974  -0.214105  10.839011   0.252051  -3.584378
    11  C   -0.437717  -0.789443  -0.426385   0.252051   8.883082   2.709857
    12  C   -1.430667   0.086874  -0.581277  -3.584378   2.709857  20.338852
    13  C    0.584501  -0.590453  -0.171920   0.478098  -1.751909  -4.687966
    14  C    0.626638  -0.113513   0.349941  -0.417560  -2.123707  -6.829105
    15  C   -0.703890  -0.237186  -0.060385  -0.358483   0.224183   2.343482
    16  C   -2.294270  -1.853064   0.390461   1.270933   1.589920   0.303123
    17  C    2.027708   0.637161  -0.100553  -0.355220  -1.539233  -2.869233
    18  H   -0.039057   0.000549   0.011576   0.004088  -0.000176  -0.004638
    19  H   -0.022368  -0.000602   0.003813  -0.000365  -0.000022   0.000499
    20  H    0.000960   0.002180  -0.006937  -0.000338  -0.000028   0.000041
    21  C   -0.816794   0.053701   1.390453   0.098975  -0.019126   0.079594
    22  C    0.124151  -0.887967   1.421284   0.325134   0.311858   0.136176
    23  C   -0.827853  -0.845094   1.745364  -2.234837  -0.873554  -0.188489
    24  H   -0.020537   0.034657  -0.004106  -0.002404   0.380230  -0.103107
    25  H   -0.013917   0.002186   0.001011   0.051638   0.092478  -0.100362
    26  H   -0.019133  -0.032222   0.005860   0.006865   0.014226  -0.008212
    27  H   -0.027375   0.000729   0.000191  -0.000355   0.011109   0.078888
    28  H    0.005516   0.000825   0.000118   0.000943  -0.006183   0.025805
    29  C    0.270672  -1.457240  -2.623805   0.186326   0.091282  -0.057231
    30  C    0.323172   2.456310  -2.055765  -0.235165  -0.574351  -0.748916
    31  H    0.007410  -0.001395  -0.015188   0.001563   0.000124   0.000051
    32  H    0.001117  -0.004730   0.046654   0.005895   0.000435  -0.000007
    33  H    0.000588  -0.025337   0.019697   0.010497   0.004885   0.003557
    34  H    0.000318   0.016591  -0.025364  -0.046036   0.062179   0.018390
              13         14         15         16         17         18
     1  C    0.210457   0.037079  -0.008130  -0.064385  -0.190461  -0.061510
     2  C    0.171913  -0.075764   0.079548   0.344218  -0.136454   0.333765
     3  C   -4.566407   0.018221  -0.202115  -4.335905   0.195497   0.062902
     4  C    0.221437  -0.006784   0.009371   0.080044  -0.011147  -0.030212
     5  C    0.441207   0.050940  -0.012842   0.076518  -0.007053  -0.027023
     6  C    0.690179  -0.065153   0.043049   0.630282  -0.143927   0.079672
     7  C    0.584501   0.626638  -0.703890  -2.294270   2.027708  -0.039057
     8  C   -0.590453  -0.113513  -0.237186  -1.853064   0.637161   0.000549
     9  C   -0.171920   0.349941  -0.060385   0.390461  -0.100553   0.011576
    10  C    0.478098  -0.417560  -0.358483   1.270933  -0.355220   0.004088
    11  C   -1.751909  -2.123707   0.224183   1.589920  -1.539233  -0.000176
    12  C   -4.687966  -6.829105   2.343482   0.303123  -2.869233  -0.004638
    13  C   15.232165   1.594513  -0.869577  -2.735958   1.523040   0.000788
    14  C    1.594513  14.121242  -2.016515  -0.442687   0.871167  -0.002950
    15  C   -0.869577  -2.016515   8.389126   0.605524  -0.893817  -0.000874
    16  C   -2.735958  -0.442687   0.605524  19.324418  -6.602974  -0.006525
    17  C    1.523040   0.871167  -0.893817  -6.602974  13.097683   0.015413
    18  H    0.000788  -0.002950  -0.000874  -0.006525   0.015413   0.539828
    19  H    0.006760  -0.000043   0.000020  -0.001807  -0.000730  -0.006616
    20  H    0.000419   0.000003  -0.000001  -0.000075   0.000007  -0.000163
    21  C   -0.445824  -0.005132  -0.004101  -0.084101   0.021201  -0.006719
    22  C    0.062219  -0.124583   0.022989   0.078484  -0.073411   0.003100
    23  C   -1.244343   0.686526  -0.224120  -0.409442   0.146194   0.000318
    24  H   -0.029671  -0.009208  -0.000536   0.002052  -0.000125  -0.000000
    25  H   -0.024610   0.370643  -0.039035   0.031411  -0.041449   0.000000
    26  H   -0.019038   0.001493  -0.011982   0.566702  -0.269027   0.003681
    27  H   -0.028717  -0.044688   0.070102   0.021706   0.231816  -0.000104
    28  H    0.008073  -0.036329   0.365383  -0.029811  -0.000156   0.000000
    29  C    0.025875   0.012612   0.001477   0.010242  -0.014091  -0.001924
    30  C    1.372294  -0.228360   0.016463   0.224838  -0.023401   0.000469
    31  H    0.000333   0.000002   0.000001   0.000025  -0.000006  -0.000001
    32  H   -0.000238  -0.000022   0.000001  -0.000009   0.000001   0.000000
    33  H   -0.001313   0.000348  -0.000004  -0.000059   0.000002   0.000000
    34  H    0.014269   0.003305   0.000813   0.000676  -0.000045   0.000000
              19         20         21         22         23         24
     1  C    0.375580   0.017384  -1.568127   0.279357   0.082181  -0.000085
     2  C   -0.006492  -0.049534   1.333786  -0.235426  -0.183087  -0.000911
     3  C   -0.005492  -0.001339   1.250959  -1.311804   1.560778  -0.002416
     4  C   -0.040196   0.360186   1.131516   0.203742  -0.187925  -0.000036
     5  C   -0.026569  -0.022129  -5.096548   0.130191  -0.356989  -0.000231
     6  C    0.034602   0.041795  -1.774817   0.534828   0.020090   0.002589
     7  C   -0.022368   0.000960  -0.816794   0.124151  -0.827853  -0.020537
     8  C   -0.000602   0.002180   0.053701  -0.887967  -0.845094   0.034657
     9  C    0.003813  -0.006937   1.390453   1.421284   1.745364  -0.004106
    10  C   -0.000365  -0.000338   0.098975   0.325134  -2.234837  -0.002404
    11  C   -0.000022  -0.000028  -0.019126   0.311858  -0.873554   0.380230
    12  C    0.000499   0.000041   0.079594   0.136176  -0.188489  -0.103107
    13  C    0.006760   0.000419  -0.445824   0.062219  -1.244343  -0.029671
    14  C   -0.000043   0.000003  -0.005132  -0.124583   0.686526  -0.009208
    15  C    0.000020  -0.000001  -0.004101   0.022989  -0.224120  -0.000536
    16  C   -0.001807  -0.000075  -0.084101   0.078484  -0.409442   0.002052
    17  C   -0.000730   0.000007   0.021201  -0.073411   0.146194  -0.000125
    18  H   -0.006616  -0.000163  -0.006719   0.003100   0.000318  -0.000000
    19  H    0.561646  -0.006850   0.008477   0.001380  -0.000042   0.000000
    20  H   -0.006850   0.532331  -0.014108   0.006835   0.000198  -0.000000
    21  C    0.008477  -0.014108  11.853404  -0.983320   0.122213   0.000228
    22  C    0.001380   0.006835  -0.983320  10.190996  -0.621518   0.007926
    23  C   -0.000042   0.000198   0.122213  -0.621518  10.561596   0.055629
    24  H    0.000000  -0.000000   0.000228   0.007926   0.055629   0.551607
    25  H   -0.000000   0.000000   0.000002  -0.000021   0.003297   0.001717
    26  H   -0.000005  -0.000000  -0.000316   0.000155   0.000375   0.000015
    27  H    0.000000  -0.000000  -0.000000   0.000115  -0.000180  -0.000003
    28  H   -0.000000   0.000000  -0.000000   0.000009   0.000231  -0.000017
    29  C   -0.001556   0.006163   0.037925  -1.669754   0.027985   0.000179
    30  C    0.000122   0.000055  -0.826537  -2.578926  -0.691534   0.014139
    31  H   -0.000001   0.002658   0.358263  -0.001174  -0.001181  -0.000000
    32  H   -0.000000  -0.000007   0.022527  -0.025077   0.002501   0.000000
    33  H   -0.000000   0.000000  -0.000321  -0.041227  -0.006871  -0.000004
    34  H   -0.000000  -0.000000  -0.001732  -0.028051   0.315739   0.003091
              25         26         27         28         29         30
     1  C   -0.000024   0.022840  -0.000033   0.000061   0.140607  -0.010488
     2  C   -0.000216   0.009881   0.002274   0.000074  -0.009894  -0.011733
     3  C    0.000584   0.016608   0.001072  -0.000033   0.380629  -1.762254
     4  C   -0.000004   0.000383   0.000016  -0.000004  -0.639222   0.191859
     5  C    0.000017  -0.001676   0.000024  -0.000011  -0.383820   1.309963
     6  C   -0.000202   0.029368  -0.001356  -0.000074   1.728254  -1.682977
     7  C   -0.013917  -0.019133  -0.027375   0.005516   0.270672   0.323172
     8  C    0.002186  -0.032222   0.000729   0.000825  -1.457240   2.456310
     9  C    0.001011   0.005860   0.000191   0.000118  -2.623805  -2.055765
    10  C    0.051638   0.006865  -0.000355   0.000943   0.186326  -0.235165
    11  C    0.092478   0.014226   0.011109  -0.006183   0.091282  -0.574351
    12  C   -0.100362  -0.008212   0.078888   0.025805  -0.057231  -0.748916
    13  C   -0.024610  -0.019038  -0.028717   0.008073   0.025875   1.372294
    14  C    0.370643   0.001493  -0.044688  -0.036329   0.012612  -0.228360
    15  C   -0.039035  -0.011982   0.070102   0.365383   0.001477   0.016463
    16  C    0.031411   0.566702   0.021706  -0.029811   0.010242   0.224838
    17  C   -0.041449  -0.269027   0.231816  -0.000156  -0.014091  -0.023401
    18  H    0.000000   0.003681  -0.000104   0.000000  -0.001924   0.000469
    19  H   -0.000000  -0.000005   0.000000  -0.000000  -0.001556   0.000122
    20  H    0.000000  -0.000000  -0.000000   0.000000   0.006163   0.000055
    21  C    0.000002  -0.000316  -0.000000  -0.000000   0.037925  -0.826537
    22  C   -0.000021   0.000155   0.000115   0.000009  -1.669754  -2.578926
    23  C    0.003297   0.000375  -0.000180   0.000231   0.027985  -0.691534
    24  H    0.001717   0.000015  -0.000003  -0.000017   0.000179   0.014139
    25  H    0.547211   0.000077  -0.000282  -0.010415  -0.000004   0.000467
    26  H    0.000077   0.608061  -0.034919  -0.000235  -0.000072   0.000275
    27  H   -0.000282  -0.034919   0.613926  -0.010283   0.000008  -0.000007
    28  H   -0.010415  -0.000235  -0.010283   0.558897   0.000001  -0.000013
    29  C   -0.000004  -0.000072   0.000008   0.000001  10.944066  -0.945318
    30  C    0.000467   0.000275  -0.000007  -0.000013  -0.945318  12.596307
    31  H    0.000000   0.000000   0.000000  -0.000000  -0.007357   0.009874
    32  H    0.000000  -0.000000   0.000000  -0.000000   0.320391   0.008889
    33  H   -0.000000  -0.000000   0.000000  -0.000000   0.038316   0.327260
    34  H    0.000002   0.000000  -0.000000  -0.000000   0.008325  -0.001295
              31         32         33         34
     1  C    0.004475  -0.000768   0.000322   0.000009
     2  C    0.007599   0.000808  -0.000569  -0.000317
     3  C   -0.012499  -0.000391  -0.000022  -0.003867
     4  C    0.051533   0.008702  -0.000560   0.000142
     5  C   -0.068684  -0.031662   0.005733   0.002298
     6  C    0.000122  -0.017642   0.002445  -0.002302
     7  C    0.007410   0.001117   0.000588   0.000318
     8  C   -0.001395  -0.004730  -0.025337   0.016591
     9  C   -0.015188   0.046654   0.019697  -0.025364
    10  C    0.001563   0.005895   0.010497  -0.046036
    11  C    0.000124   0.000435   0.004885   0.062179
    12  C    0.000051  -0.000007   0.003557   0.018390
    13  C    0.000333  -0.000238  -0.001313   0.014269
    14  C    0.000002  -0.000022   0.000348   0.003305
    15  C    0.000001   0.000001  -0.000004   0.000813
    16  C    0.000025  -0.000009  -0.000059   0.000676
    17  C   -0.000006   0.000001   0.000002  -0.000045
    18  H   -0.000001   0.000000   0.000000   0.000000
    19  H   -0.000001  -0.000000  -0.000000  -0.000000
    20  H    0.002658  -0.000007   0.000000  -0.000000
    21  C    0.358263   0.022527  -0.000321  -0.001732
    22  C   -0.001174  -0.025077  -0.041227  -0.028051
    23  C   -0.001181   0.002501  -0.006871   0.315739
    24  H   -0.000000   0.000000  -0.000004   0.003091
    25  H    0.000000   0.000000  -0.000000   0.000002
    26  H    0.000000  -0.000000  -0.000000   0.000000
    27  H    0.000000   0.000000   0.000000  -0.000000
    28  H   -0.000000  -0.000000  -0.000000  -0.000000
    29  C   -0.007357   0.320391   0.038316   0.008325
    30  C    0.009874   0.008889   0.327260  -0.001295
    31  H    0.536119  -0.005582  -0.000003  -0.000000
    32  H   -0.005582   0.531357   0.002259  -0.000004
    33  H   -0.000003   0.002259   0.529522  -0.005383
    34  H   -0.000000  -0.000004  -0.005383   0.535396
 Mulliken charges:
               1
     1  C   -0.601729
     2  C    0.007188
     3  C   -0.417572
     4  C   -0.117143
     5  C    0.404515
     6  C   -0.299377
     7  C    0.224862
     8  C    0.059999
     9  C    0.227577
    10  C    0.303287
    11  C   -0.225207
    12  C   -0.003400
    13  C    0.529400
    14  C   -0.202567
    15  C   -0.527940
    16  C   -0.690503
    17  C    0.505622
    18  H    0.132342
    19  H    0.126859
    20  H    0.130294
    21  C   -0.115601
    22  C    0.741328
    23  C   -0.434155
    24  H    0.119337
    25  H    0.127799
    26  H    0.109973
    27  H    0.116327
    28  H    0.127631
    29  C   -0.420048
    30  C   -0.475717
    31  H    0.132919
    32  H    0.134602
    33  H    0.136243
    34  H    0.132856
 Sum of Mulliken charges =  -0.00000
 Mulliken charges with hydrogens summed into heavy atoms:
               1
     1  C   -0.474870
     2  C    0.139529
     3  C   -0.417572
     4  C    0.013150
     5  C    0.404515
     6  C   -0.299377
     7  C    0.224862
     8  C    0.059999
     9  C    0.227577
    10  C    0.303287
    11  C   -0.105870
    12  C   -0.003400
    13  C    0.529400
    14  C   -0.074768
    15  C   -0.400309
    16  C   -0.580531
    17  C    0.621948
    21  C    0.017318
    22  C    0.741328
    23  C   -0.301298
    29  C   -0.285446
    30  C   -0.339474
 Electronic spatial extent (au):  <R**2>=           6037.5673
 Charge=             -0.0000 electrons
 Dipole moment (field-independent basis, Debye):
    X=              0.0125    Y=              0.2982    Z=             -0.5606  Tot=              0.6351
 Quadrupole moment (field-independent basis, Debye-Ang):
   XX=           -108.7818   YY=           -112.4204   ZZ=           -136.4312
   XY=              1.6816   XZ=             -2.5802   YZ=              1.8663
 Traceless Quadrupole moment (field-independent basis, Debye-Ang):
   XX=             10.4293   YY=              6.7907   ZZ=            -17.2200
   XY=              1.6816   XZ=             -2.5802   YZ=              1.8663
 Octapole moment (field-independent basis, Debye-Ang**2):
  XXX=            -15.9228  YYY=             13.0930  ZZZ=             -0.5599  XYY=             -2.8464
  XXY=              2.8724  XXZ=             -7.6942  XZZ=              3.5374  YZZ=             -0.4436
  YYZ=             -4.4278  XYZ=              4.3646
 Hexadecapole moment (field-independent basis, Debye-Ang**3):
 XXXX=          -5194.1108 YYYY=          -2573.5272 ZZZZ=           -176.4471 XXXY=             65.6133
 XXXZ=            -63.2309 YYYX=              0.8428 YYYZ=             19.2565 ZZZX=             -2.9869
 ZZZY=              1.6836 XXYY=          -1274.4506 XXZZ=          -1094.3441 YYZZ=           -556.4734
 XXYZ=             12.8267 YYXZ=            -18.7985 ZZXY=              1.4538
 N-N= 1.554855793993D+03 E-N=-5.070328314129D+03  KE= 8.408124719321D+02
 Calling FoFJK, ICntrl=      2127 FMM=F ISym2X=0 I1Cent= 0 IOpClX= 0 NMat=1 NMatS=1 NMatT=0.
 ***** Axes restored to original set *****
 -------------------------------------------------------------------
 Center     Atomic                   Forces (Hartrees/Bohr)
 Number     Number              X              Y              Z
 -------------------------------------------------------------------
      1        6          -0.078203116   -0.010694120   -0.024192987
      2        6          -0.033519014   -0.011633992   -0.012707261
      3        6          -0.047052421    0.017280284    0.112785451
      4        6           0.016300948    0.052358223    0.003751946
      5        6           0.010515159   -0.048140494    0.001479887
      6        6           0.063421296   -0.022461418   -0.066230189
      7        6           0.065901036    0.003468199   -0.044678837
      8        6          -0.055339963    0.024742890    0.012371060
      9        6          -0.015227143   -0.020913841    0.007588163
     10        6           0.057236445   -0.017985322    0.002942968
     11        6          -0.003925231   -0.059254002    0.002834613
     12        6          -0.029318006    0.027284658    0.007259993
     13        6          -0.003334495    0.004254255   -0.043124640
     14        6           0.006725823   -0.040728038   -0.013451627
     15        6           0.095907101    0.065533277    0.030363072
     16        6          -0.191912842   -0.149826152    0.072089527
     17        6          -0.017865187    0.193514919    0.000528935
     18        1           0.004007977    0.012630857   -0.009515573
     19        1           0.053855321   -0.018139639    0.013739280
     20        1          -0.000436184    0.008705523   -0.000305746
     21        6           0.062444426   -0.007724848    0.004219411
     22        6           0.001011905    0.028562587    0.003852136
     23        6          -0.050114778   -0.019954505   -0.000914097
     24        1           0.001909996    0.003769113   -0.000873556
     25        1           0.000071883   -0.006335859    0.008221350
     26        1           0.050162614   -0.030774393   -0.036427790
     27        1           0.061888232   -0.040580642   -0.012617480
     28        1          -0.017467367   -0.038797172   -0.018383292
     29        6          -0.037786386    0.048284185   -0.000685921
     30        6           0.029520484    0.057648615   -0.000166042
     31        1           0.000411555   -0.001612847    0.000520991
     32        1          -0.002254987   -0.000473766   -0.000516677
     33        1           0.002990718   -0.000236490    0.000049671
     34        1          -0.000525800   -0.001770045    0.000193260
 -------------------------------------------------------------------
 Cartesian Forces:  Max     0.193514919 RMS     0.045387878

 GradGradGradGradGradGradGradGradGradGradGradGradGradGradGradGradGradGrad
 Berny optimization.
 FormGI is forming the generalized inverse of G from B-inverse, IUseBI=4.
 Internal  Forces:  Max     0.180815336 RMS     0.021841828
 Search for a local minimum.
 Step number   1 out of a maximum of  204
 All quantities printed in internal units (Hartrees-Bohrs-Radians)
 Mixed Optimization -- RFO/linear search
 Second derivative matrix not updated -- first step.
 ITU=  0
     Eigenvalues ---    0.00925   0.00941   0.00941   0.01032   0.01067
     Eigenvalues ---    0.01092   0.01099   0.01142   0.01343   0.01433
     Eigenvalues ---    0.01470   0.01491   0.01532   0.01620   0.01674
     Eigenvalues ---    0.01725   0.01805   0.01819   0.01842   0.01866
     Eigenvalues ---    0.01888   0.01991   0.02029   0.02100   0.02214
     Eigenvalues ---    0.02344   0.03047   0.03174   0.03433   0.03609
     Eigenvalues ---    0.03937   0.13413   0.15204   0.15552   0.15753
     Eigenvalues ---    0.15853   0.15905   0.15962   0.16000   0.16000
     Eigenvalues ---    0.16000   0.16000   0.16000   0.17519   0.20487
     Eigenvalues ---    0.20988   0.21758   0.21831   0.21935   0.22163
     Eigenvalues ---    0.22413   0.22564   0.22703   0.23004   0.23579
     Eigenvalues ---    0.23831   0.24300   0.24372   0.24488   0.24743
     Eigenvalues ---    0.26609   0.26717   0.28782   0.29308   0.30317
     Eigenvalues ---    0.32011   0.32921   0.33128   0.33454   0.33800
     Eigenvalues ---    0.34990   0.35232   0.35242   0.35345   0.35422
     Eigenvalues ---    0.35560   0.35604   0.35654   0.35699   0.35706
     Eigenvalues ---    0.35771   0.36301   0.36747   0.37070   0.37406
     Eigenvalues ---    0.38442   0.38925   0.40057   0.42550   0.45012
     Eigenvalues ---    0.46977   0.49875   0.52852   0.56538   0.59303
     Eigenvalues ---    0.85037
 RFO step:  Lambda=-1.82540705D-01 EMin= 9.24564285D-03
 Linear search not attempted -- first point.
 Maximum step size (   0.300) exceeded in Quadratic search.
    -- Step size scaled by   0.540
 Iteration  1 RMS(Cart)=  0.03420261 RMS(Int)=  0.00065475
 Iteration  2 RMS(Cart)=  0.00089257 RMS(Int)=  0.00022219
 Iteration  3 RMS(Cart)=  0.00000114 RMS(Int)=  0.00022218
 Iteration  4 RMS(Cart)=  0.00000000 RMS(Int)=  0.00022218
 Variable       Old X    -DE/DX   Delta X   Delta X   Delta X     New X
                                 (Linear)    (Quad)   (Total)
    R1        2.70606  -0.00989   0.00000  -0.00976  -0.00983   2.69623
    R2        2.76892  -0.04047   0.00000  -0.04005  -0.04026   2.72866
    R3        2.27722  -0.05571   0.00000  -0.07069  -0.07069   2.20653
    R4        2.66035   0.00984   0.00000   0.00772   0.00783   2.66818
    R5        2.02440   0.00960   0.00000   0.00937   0.00937   2.03378
    R6        2.78687  -0.02064   0.00000  -0.02047  -0.01982   2.76705
    R7        2.76996   0.02188   0.00000   0.02276   0.02297   2.79293
    R8        2.61849   0.03085   0.00000   0.02576   0.02559   2.64408
    R9        2.05300  -0.00254   0.00000  -0.00257  -0.00257   2.05044
   R10        2.61926  -0.00361   0.00000  -0.00180  -0.00167   2.61758
   R11        2.81203  -0.02830   0.00000  -0.02887  -0.02888   2.78315
   R12        2.72517  -0.03314   0.00000  -0.03215  -0.03211   2.69306
   R13        2.76334  -0.01945   0.00000  -0.01743  -0.01765   2.74570
   R14        2.74415  -0.04508   0.00000  -0.04505  -0.04504   2.69911
   R15        2.68282  -0.02441   0.00000  -0.02164  -0.02204   2.66078
   R16        2.53821   0.03302   0.00000   0.02698   0.02691   2.56512
   R17        2.71324  -0.04485   0.00000  -0.04263  -0.04255   2.67069
   R18        2.77363  -0.03966   0.00000  -0.03769  -0.03769   2.73594
   R19        2.80811  -0.02962   0.00000  -0.02974  -0.02981   2.77830
   R20        2.57209   0.02933   0.00000   0.02179   0.02178   2.59386
   R21        2.05119   0.00078   0.00000   0.00079   0.00079   2.05198
   R22        2.85594  -0.00163   0.00000  -0.01340  -0.01356   2.84239
   R23        2.75496   0.00028   0.00000  -0.00677  -0.00683   2.74813
   R24        2.94592  -0.04754   0.00000  -0.05640  -0.05645   2.88947
   R25        2.50172   0.04055   0.00000   0.02830   0.02837   2.53009
   R26        2.04705   0.00152   0.00000   0.00152   0.00152   2.04857
   R27        2.51347   0.08238   0.00000   0.06291   0.06305   2.57651
   R28        2.21733  -0.04393   0.00000  -0.05275  -0.05275   2.16458
   R29        2.33526   0.18082   0.00000   0.09535   0.09543   2.43069
   R30        2.34947  -0.06702   0.00000  -0.09046  -0.09046   2.25901
   R31        2.38994  -0.06513   0.00000  -0.09079  -0.09079   2.29915
   R32        2.80709  -0.06786   0.00000  -0.07037  -0.07042   2.73667
   R33        2.04626   0.00042   0.00000   0.00042   0.00042   2.04668
   R34        2.76938  -0.01933   0.00000  -0.01986  -0.01991   2.74946
   R35        2.77134  -0.01542   0.00000  -0.01709  -0.01701   2.75433
   R36        2.81562  -0.06865   0.00000  -0.07257  -0.07255   2.74307
   R37        2.04775   0.00014   0.00000   0.00014   0.00014   2.04788
   R38        2.04555   0.00057   0.00000   0.00057   0.00057   2.04613
   R39        2.04441   0.00080   0.00000   0.00079   0.00079   2.04521
    A1        2.19863  -0.01050   0.00000  -0.01384  -0.01387   2.18476
    A2        2.16860  -0.00899   0.00000  -0.01538  -0.01541   2.15319
    A3        1.88800   0.02030   0.00000   0.03181   0.03183   1.91983
    A4        2.06426   0.00437   0.00000   0.00399   0.00425   2.06850
    A5        2.02247   0.00317   0.00000   0.00663   0.00650   2.02896
    A6        2.19200  -0.00735   0.00000  -0.00987  -0.01002   2.18198
    A7        1.84040   0.01556   0.00000   0.02671   0.02595   1.86635
    A8        2.11915   0.03063   0.00000   0.05552   0.05509   2.17424
    A9        1.84391  -0.01714   0.00000  -0.01361  -0.01508   1.82883
   A10        1.99596   0.01664   0.00000   0.02406   0.02386   2.01983
   A11        2.17972  -0.01688   0.00000  -0.02546  -0.02538   2.15433
   A12        2.10565   0.00047   0.00000   0.00181   0.00190   2.10755
[...]
 0.00001110,-0.00017695,-0.00003178,0.00000053,-0.00004969,0.00022065,-
 0.00000359,-0.00004652,-0.00038469,0.00000224,0.00028331,0.00002597,0.
 00000091,-0.00001566,0.00000373,0.00000474,-0.00003306,-0.00054205,-0.
 00000169,0.00031026,-0.00003662,-0.00000364,0.12573939,-0.18441881,0.0
 0116472,-0.07347987,-0.15449698,0.00185081,0.00527763,-0.00066119,0.00
 005059,-0.00002839,-0.00005530,0.00000248,0.00001062,-0.00001315,0.000
 00022,-0.00002196,0.00006323,-0.00000107,-0.00000629,0.00001372,0.0000
 0009,-0.00000370,0.00001661,-0.00000034,-0.03319818,0.71339373,-0.0000
 7231,-0.00006969,0.00006046,0.00009940,-0.00000392,-0.00009988,-0.0000
 4712,0.00005027,-0.00060992,0.00004032,0.00022360,0.00468725,-0.000431
 49,0.00007704,0.00410554,0.00014475,-0.00010085,-0.00188496,0.00004227
 ,0.00000337,-0.00050729,0.00000614,0.00018460,0.00701166,0.00043093,0.
 00085668,0.00574034,-0.00001162,0.00006726,-0.00094969,-0.00000540,-0.
 00003945,-0.00075961,-0.00000016,0.00002271,0.00041684,-0.00000094,0.0
 0000336,-0.00043970,-0.00000277,-0.00001028,-0.00003005,-0.00000447,0.
 00000491,-0.00004374,0.00000096,-0.00000339,-0.00011915,0.00000431,0.0
 0000275,0.00009857,0.00000354,0.00000314,0.00025803,-0.00000401,0.0000
 0054,-0.00055713,-0.00000503,0.00000123,-0.00015797,-0.00059066,0.0014
 8120,-0.05908481,0.00190598,0.00165714,-0.06039388,-0.00010503,-0.0000
 0918,0.00397731,0.00000097,0.00000165,0.00009719,0.00000008,0.00000009
 ,0.00000502,0.00000002,-0.00000080,-0.00001217,0.00000032,0.00000023,0
 .00001126,-0.00000009,-0.00000016,-0.00000868,-0.00211775,-0.00843312,
 0.13192826,0.00119736,0.00329037,-0.00004826,-0.00242715,0.00013859,0.
 00001095,0.00007947,0.00002222,-0.00000682,0.00220136,-0.00382384,0.00
 003379,-0.00197784,0.00968169,-0.00013160,-0.00032823,0.00048850,0.000
 03825,-0.00027300,0.01121222,-0.00013720,-0.02188750,-0.01725154,0.000
 29687,0.00634296,0.05002448,-0.00074087,0.01013618,-0.04843558,0.00066
 626,0.00827248,0.02309769,-0.00031806,0.00529222,-0.01382548,0.0001602
 2,-0.00982745,-0.00620747,0.00011439,0.00278979,0.00645947,-0.00009440
 ,0.00449416,-0.00465062,0.00004287,0.00072616,0.00479797,-0.00005968,-
 0.00560798,-0.00114036,0.00003585,-0.00005076,0.00000517,-0.00000094,0
 .00006428,0.00003741,-0.00000157,0.00001444,-0.00008656,0.00000231,0.0
 0933364,-0.01359304,0.00016888,-0.20690119,0.03418817,0.00017307,-0.27
 358243,-0.09926639,0.00229689,-0.00008088,0.00043375,-0.00001016,-0.00
 011400,0.00006259,-0.00000058,0.00012408,-0.00008825,0.00000075,-0.000
 09245,-0.00005938,0.00000029,0.00004124,-0.00009261,0.00000113,-0.0392
 8325,0.00658376,0.00009012,0.59526825,0.00035487,0.00123473,-0.0000134
 1,-0.00137446,-0.00026397,0.00000672,0.00241408,-0.00068007,-0.0000145
 5,0.00107843,-0.00067490,-0.00001112,-0.00145101,-0.00017655,-0.000007
 78,-0.00064959,-0.00534736,0.00020300,-0.00150746,0.00109339,-0.000013
 54,-0.00690180,-0.00240300,0.00003155,0.04167571,-0.01757070,0.0001389
 6,-0.02573503,-0.03737704,0.00068620,0.00700196,0.00174481,0.00001595,
 -0.00021867,-0.00336383,0.00004543,-0.00129852,-0.00038580,0.00000979,
 0.00095418,0.00072151,-0.00002207,0.00083924,-0.00064116,0.00000721,-0
 .00012679,0.00016575,0.00000097,-0.00047183,-0.00035707,0.00000569,0.0
 0007499,-0.00004552,-0.00000178,0.00003058,0.00006335,-0.00000144,0.00
 001193,-0.00006138,0.00000230,-0.00367279,-0.00313663,0.00014093,0.058
 91771,-0.13561533,0.00088734,-0.14488663,-0.22277816,0.00298876,-0.000
 28507,-0.00001438,-0.00000199,-0.00001979,0.00004961,-0.00000055,0.000
 06845,-0.00011732,0.00000139,-0.00000582,-0.00001703,-0.00000032,-0.00
 000757,-0.00009994,0.00000217,-0.01458388,0.01525639,-0.00016738,0.030
 51074,0.72346779,-0.00000933,-0.00002941,0.00026252,0.00003129,0.00000
 059,-0.00028633,-0.00004085,0.00000659,-0.00053638,-0.00003126,0.00001
 570,-0.00075773,0.00002163,-0.00005662,-0.00114552,0.00006441,0.000175
 69,0.00722490,0.00001949,-0.00006811,-0.00042147,0.00017845,0.00007501
 ,-0.00240451,-0.00064245,0.00014125,0.00568238,0.00034785,0.00077726,0
 .00397476,-0.00012123,-0.00006085,0.00418401,-0.00001606,0.00010762,0.
 00008698,0.00006123,0.00003277,0.00009752,-0.00002815,-0.00004561,-0.0
 0062963,-0.00002991,0.00003132,0.00015417,-0.00000137,-0.00002224,0.00
 010374,0.00003112,0.00000908,-0.00005009,-0.00000187,0.00000013,-0.000
 07837,-0.00000085,-0.00000146,-0.00002280,-0.00000010,0.00000245,0.000
 08047,0.00004010,0.00018564,0.00457934,-0.00022338,0.00098100,-0.06008
 229,0.00298610,0.00283531,-0.05842451,0.00000393,-0.00000357,-0.000174
 61,0.00000086,-0.00000082,0.00000279,-0.00000141,0.00000209,0.00000803
 ,0.00000035,0.00000020,-0.00002704,0.00000012,0.00000254,0.00005882,0.
 00042619,-0.00027548,-0.00018991,-0.00239737,-0.00887720,0.13156363,-0
 .00011497,-0.00038169,0.00000474,0.00030705,-0.00007059,-0.00000135,0.
 00012751,0.00049503,-0.00000287,0.00084205,0.00021361,-0.00002074,0.00
 383119,0.00172376,-0.00003301,0.00116542,0.00049757,0.00000712,-0.0000
 4130,-0.00003862,0.00000243,0.00002049,-0.00002366,-0.00000248,0.00025
 324,0.00068249,-0.00001727,-0.00001069,0.00007370,-0.00000034,0.000028
 46,-0.00000115,0.00000023,-0.00001521,0.00000154,-0.00000042,0.0000237
 0,0.00003454,-0.00000230,0.00001522,0.00000070,0.00000032,0.00000092,-
 0.00000610,0.00000009,-0.00001281,-0.00002152,0.00000028,0.00001012,-0
 .00001646,0.00000019,0.00000097,-0.00002429,0.00000073,-0.00000012,-0.
 00004590,0.00000103,0.00001090,-0.00063737,0.00000944,-0.25841326,-0.1
 2085470,0.00305205,-0.00264570,0.00382472,0.00000415,-0.00039391,0.000
 28365,-0.00000516,-0.00000775,0.00000172,-0.00000004,-0.00000478,0.000
 00286,-0.00000003,0.00000544,0.00000217,-0.00000005,0.00000067,-0.0000
 0611,0.00000009,-0.00000494,-0.00000578,0.00000008,-0.01972229,-0.0154
 9016,0.00036591,-0.00029950,-0.00115838,0.00002237,0.27428947,0.000331
 34,0.00007980,-0.00000535,-0.00019370,0.00008066,-0.00000063,-0.001171
 07,0.00037648,0.00001425,-0.00062802,0.00173146,-0.00005175,-0.0279368
 9,-0.01088800,0.00036447,0.00149669,-0.00622964,0.00013227,-0.00021504
 ,-0.00052333,0.00001210,-0.00033913,-0.00005500,-0.00000574,0.00088434
 ,-0.00043607,-0.00001457,0.00008680,-0.00014541,0.00000395,-0.00005175
 ,-0.00001484,0.00000036,-0.00004881,-0.00000437,0.00000006,-0.00007862
 ,0.00017820,-0.00000690,-0.00002192,0.00000060,0.00000101,-0.00001400,
 0.00001859,-0.00000024,-0.00000307,-0.00003645,0.00000070,0.00003669,0
 .00000007,-0.00000019,0.00008144,-0.00003128,0.00000085,0.00002249,-0.
 00003791,0.00000182,0.00099129,-0.00027480,0.00000092,-0.12316765,-0.1
 3169163,0.00212934,0.00329106,-0.00125448,0.00012869,0.00023822,-0.000
 02064,-0.00000752,-0.00000780,-0.00000491,0.00000006,-0.00000703,-0.00
 000301,0.00000003,0.00000368,0.00001193,-0.00000015,-0.00000070,-0.000
 00394,0.00000009,-0.00000373,-0.00000223,0.,0.01557494,0.01054609,-0.0
 0019305,0.00025417,0.00067612,-0.00000512,0.13069043,0.13694018,-0.000
 00266,0.00000185,-0.00016910,-0.00000217,-0.00000200,-0.00004581,0.000
 02341,-0.00000078,0.00062191,-0.00001128,-0.00006171,-0.00228217,0.000
 39969,0.00019974,0.00238874,-0.00001053,0.00014449,0.00401110,0.000003
 72,0.00001259,0.00033220,0.00000212,-0.00000812,-0.00056421,-0.0000183
 7,-0.00001477,-0.00104381,0.00000035,0.00000439,0.00015448,0.00000041,
 -0.00000068,0.00001208,0.00000045,0.00000036,-0.00002026,0.00000026,-0
 .00000637,-0.00032346,0.00000034,0.00000039,0.00006073,-0.00000009,-0.
 00000006,-0.00000059,0.00000002,0.00000055,0.00000799,-0.00000036,0.00
 000015,-0.00000337,-0.00000069,0.00000158,0.00007687,0.00000029,0.0000
 0200,0.00009360,-0.00001277,0.00001177,0.00029886,0.00309915,0.0021054
 5,-0.03455493,0.00001629,0.00012542,0.00860888,-0.00000290,-0.00000883
 ,-0.00047068,0.00000010,0.00000002,-0.00000343,0.00000011,-0.00000002,
 -0.00000274,-0.00000008,-0.00000020,0.00000159,0.00000002,0.00000011,0
 .00000209,0.00000007,0.00000003,-0.00000276,-0.00010613,-0.00001154,0.
 00359923,0.00000212,0.00000521,0.00046659,-0.00334582,-0.00240290,0.02
 429099,-0.00021152,0.00038335,-0.00000695,-0.00028124,0.00001106,0.000
 00260,0.00013113,-0.00029914,-0.00000054,0.00085882,0.00083023,-0.0000
 1490,-0.00463301,0.00188356,0.00004880,-0.00081739,0.00037018,-0.00000
 549,-0.00047736,-0.00018246,0.00000416,0.00085601,-0.00120752,0.000018
 28,-0.00542811,-0.00245193,0.00009082,0.00017762,-0.00004845,-0.000000
 38,-0.00002141,0.00007018,-0.00000076,-0.00000496,-0.00003322,0.000000
 26,0.00014099,-0.00011542,0.00000004,0.00001602,0.00001890,-0.00000023
 ,-0.00001060,-0.00002464,0.00000026,-0.00005979,-0.00001634,0.00000027
 ,-0.00000268,-0.00000748,0.00000025,0.00001053,0.00000073,0.00000030,0
 .00002653,0.00014063,-0.00000224,-0.00003302,-0.00001502,0.00000141,0.
 00336062,0.02853683,-0.00042249,0.00434376,-0.02748254,0.00039941,-0.0
 0006693,0.00022030,-0.00000365,-0.00002362,-0.00001508,0.00000033,-0.0
 0000496,-0.00000125,0.00000005,0.00000284,-0.00000454,0.00000005,-0.00
 000413,-0.00000706,0.00000014,-0.00000014,-0.00000121,0.00000003,-0.05
 820491,-0.01124118,0.00029527,0.00188991,-0.00007770,-0.00001827,0.000
 88626,-0.00015204,-0.00003521,0.05800907,0.00031122,-0.00010976,-0.000
 01147,-0.00000387,0.00005269,0.00000250,-0.00003544,-0.00008896,-0.000
 00930,-0.00047585,-0.00049478,0.00001706,0.00259243,0.00096717,0.00010
 265,-0.00002071,0.00063793,-0.00002124,-0.00023967,-0.00023458,0.00000
 409,0.00079204,-0.00025851,0.00000947,-0.00329621,0.00020355,0.0000795
 0,-0.00002502,0.00014693,-0.00000333,-0.00004284,-0.00001165,0.0000006
 1,-0.00003649,0.00002779,-0.00000053,0.00011619,0.00002000,-0.00000205
 ,0.00001723,-0.00000938,0.00000003,-0.00002566,-0.00000877,0.00000016,
 -0.00005130,-0.00004874,0.00000037,0.00002598,-0.00001063,0.00000024,0
 .00000081,-0.00002488,0.00000172,-0.00001061,-0.00007438,-0.00000013,0
 .00004507,0.00000059,0.00000242,-0.00256065,-0.01256863,0.00024481,0.0
 0194620,-0.01065097,0.00018257,-0.00034655,-0.00010931,0.00000138,-0.0
 0002575,-0.00001169,0.00000037,-0.00001017,0.00000151,0.00000008,0.000
 00674,0.00000389,-0.00000008,-0.00000116,-0.00001072,0.00000022,-0.000
 00613,-0.00000645,0.00000013,-0.00885535,-0.33221256,0.00442573,0.0006
 7037,0.00074129,-0.00004319,0.00029041,0.00097228,-0.00009813,0.010145
 26,0.35312806,-0.00000940,-0.00000861,-0.00071295,0.00000161,0.0000007
 8,0.00020026,-0.00000325,-0.00000537,-0.00071773,0.00000705,0.00001162
 ,0.00044680,0.00003261,0.00010496,0.00884593,-0.00000559,-0.00002590,-
 0.00081072,0.00000677,0.00000416,0.00000401,-0.00001562,0.00002016,0.0
 0046723,0.00011457,0.00006728,0.00457872,-0.00000153,-0.00000548,-0.00
 009226,0.00000112,0.00000128,0.00003511,0.00000024,-0.00000132,-0.0000
 2027,-0.00000302,0.00000002,-0.00007498,-0.00000017,0.00000041,-0.0000
 0464,0.00000048,-0.00000010,-0.00000329,0.00000111,0.00000060,-0.00002
 205,-0.00000049,0.00000043,0.00001077,0.00000062,0.00000151,0.00009794
 ,-0.00000032,-0.00000024,-0.00007155,0.00000075,0.00000237,0.00018014,
 0.00004491,0.00007686,0.00318374,-0.00001749,0.00037340,0.00239771,0.0
 0000582,0.00000143,-0.00011720,0.00000054,0.00000038,0.00000898,0.0000
 0017,0.00000003,0.00000343,-0.00000011,0.00000003,0.00000057,0.0000000
 7,0.00000026,0.00000509,0.00000009,0.00000013,0.00000231,0.00023886,0.
 00441354,-0.03493582,-0.00003438,-0.00004397,-0.00206681,-0.00004032,-
 0.00009659,-0.00556955,-0.00034287,-0.00489377,0.02445393,-0.00003680,
 0.00003287,-0.00000029,0.00012523,0.00013235,-0.00000237,-0.00053667,0
 .00013171,0.00000120,0.00000398,-0.00006633,0.00000126,0.00013461,0.00
 000456,-0.00000125,0.00080654,0.00135952,-0.00002439,0.00013119,0.0003
 1139,-0.00000678,-0.00063377,-0.00056308,0.00000765,-0.00623139,0.0014
 0180,0.00002807,-0.00398744,-0.00241711,0.00008928,0.00091692,-0.00065
 931,0.00000666,-0.00023670,-0.00035676,0.00000091,-0.00019306,-0.00014
 062,0.00000327,0.00013424,0.00000648,-0.00000082,0.00005624,-0.0001022
 8,0.00000145,0.00003089,0.00012378,-0.00000125,-0.00011422,-0.00003347
 ,0.00000081,-0.00005056,0.00004979,-0.00000023,-0.00000408,0.00000086,
 0.,-0.00002912,0.00001260,0.00000004,-0.00010949,-0.00019930,0.0000024
 9,0.00042488,0.02895742,-0.00042973,0.00657037,-0.02599899,0.00037253,
 -0.00002944,0.00001397,0.00000115,-0.00000019,0.00000934,-0.00000022,0
 .00000590,-0.00001587,0.00000020,0.00000039,-0.00000222,-0.00000006,0.
 00000316,-0.00001733,0.00000027,0.00196086,0.00023575,-0.00002055,-0.0
 6616627,0.04931239,-0.00059777,-0.00003079,-0.00000673,0.00000058,-0.0
 0040316,-0.00083660,0.00001582,0.06657861,0.00004392,0.00002355,-0.000
 00087,-0.00007840,-0.00004057,0.00000017,0.00018230,-0.00015596,0.0000
 0058,0.00002947,-0.00001650,0.00000035,0.00005480,0.00019240,-0.000003
 77,-0.00063193,-0.00022584,0.00001322,0.00004641,-0.00002477,-0.000008
 09,-0.00013440,0.00053365,-0.00001685,0.00230635,0.00087384,0.00003122
 ,-0.00319230,0.00035304,0.00014976,0.00062527,-0.00058043,0.00001128,-
 0.00030276,-0.00015566,-0.00001227,-0.00000223,0.00003507,0.00000211,0
 .00010156,-0.00003618,-0.00000119,-0.00003838,-0.00006686,0.00000236,-
 0.00000497,0.00000819,0.00000113,-0.00003221,0.00000035,-0.00000007,0.
 00001660,-0.00002305,0.00000014,0.00001155,-0.00000573,0.00000003,0.00
 002320,-0.00000378,-0.00000003,0.00034062,-0.00012671,-0.00000206,-0.0
 0042008,-0.00657494,0.00013961,0.00520116,-0.01603571,0.00027040,-0.00
 005082,-0.00000370,0.00000461,-0.00001227,0.00000563,-0.00000033,0.000
 00745,0.00000180,-0.00000006,0.00000057,-0.00001113,-0.00000012,-0.000
 00221,-0.00001688,0.00000052,-0.00045887,0.00069348,-0.00003226,0.0466
 1426,-0.32393481,0.00411653,0.00005225,-0.00001122,0.00000109,0.000766
 23,0.00006169,-0.00000234,-0.05076048,0.34430290,-0.00000058,-0.000001
 36,-0.00001919,0.00000061,-0.00000029,-0.00004697,-0.00000126,0.000000
 97,-0.00002967,-0.00000060,0.00000193,0.00003808,-0.00000084,-0.000005
 39,-0.00005097,0.00000732,0.00000413,0.00032632,-0.00000362,-0.0000092
 5,-0.00055316,0.00000607,-0.00001375,-0.00064749,0.00000841,0.00002846
 ,0.00387536,0.00010337,0.00014110,0.00941028,-0.00001431,0.00001672,0.
 00038570,0.00000231,-0.00000715,-0.00099290,0.00000303,0.00000287,0.00
 016647,-0.00000302,-0.00000106,-0.00009224,0.00000033,0.00000320,0.000
 09169,0.00000003,-0.00000028,0.00008355,0.00000164,0.00000005,-0.00001
 452,-0.00000005,0.00000023,0.00000195,-0.00000018,0.00000008,-0.000001
 48,-0.00000019,0.00000007,0.00000481,-0.00000675,0.00000269,-0.0001517
 3,-0.00000292,0.00001994,0.00255413,-0.00010113,0.00038684,0.00364524,
 0.00000184,0.00000362,0.00028819,0.00000011,-0.00000041,-0.00002021,-0
 .00000016,0.00000009,0.00000020,-0.00000008,-0.00000003,-0.00001706,0.
 00000008,0.00000062,0.00001934,-0.00000763,-0.00003730,-0.00166279,-0.
 00054129,0.00412073,-0.03513127,-0.00000021,0.00000142,0.00008199,-0.0
 0000941,0.00000483,0.00017427,0.00058048,-0.00456228,0.02423662,-0.000
 01031,-0.00000460,0.00000005,0.00001836,-0.00000027,-0.00000111,-0.000
 07913,0.00008727,0.00000025,0.00000722,0.00001419,-0.00000017,0.000030
 94,-0.00004999,0.00000122,-0.00002954,0.00005269,-0.00000299,0.0000126
 0,-0.00047506,0.00000714,0.00122351,0.00042934,0.00000475,0.00047712,-
 0.00049053,0.00000166,-0.00000986,-0.00029126,0.00001062,0.00079419,-0
 .00038347,-0.00000538,0.00004140,0.00037919,-0.00000578,0.00017885,0.0
 0007689,-0.00000163,-0.00011574,-0.00007867,0.00000153,-0.00005795,0.0
 0009685,-0.00000098,0.00002818,-0.00004764,0.00000066,0.00007159,0.000
 04818,-0.00000098,0.00000065,0.00000950,-0.00000009,-0.00001064,0.0000
 0651,0.00000025,-0.00000926,-0.00000428,0.00000012,-0.00029950,-0.0003
 1954,0.00000447,-0.00149773,-0.00391450,0.00009898,-0.29058779,0.09810
 848,-0.00045402,0.00006281,0.00070209,-0.00000693,0.00001454,-0.000009
 37,0.00000013,-0.00001192,-0.00000169,0.00000012,0.00000205,0.00000922
 ,-0.00000012,0.00000445,0.00001497,-0.00000021,-0.00043388,0.00099257,
 -0.00001189,-0.01936808,0.01118752,-0.00007386,-0.00010110,0.00006413,
 -0.00000047,-0.00002117,-0.00005390,0.00000137,0.00090916,-0.00030164,
 -0.00002138,0.30876600,0.00008102,0.00006899,-0.00000185,-0.00001384,0
 .00014705,-0.00000612,0.00024689,-0.00053434,0.00000875,0.00009320,-0.
 00005670,0.00000023,-0.00011201,-0.00013581,0.00000493,0.00033455,0.00
 007317,-0.00001040,0.00116823,0.00049846,0.00000022,-0.00068480,-0.006
 35581,0.00013618,-0.00061142,-0.00049934,-0.00000452,0.02935669,-0.007
 19475,0.00003354,0.00060128,0.00185906,-0.00005324,-0.00038862,-0.0000
 1788,-0.00000030,0.00014743,0.00019737,-0.00000385,0.00005612,-0.00003
 243,0.00000035,-0.00000006,0.00000088,0.00000020,-0.00011932,-0.000025
 86,0.00000122,0.00003521,-0.00006885,0.00000052,-0.00000819,-0.0000009
 9,0.00000014,0.00002121,0.00001023,0.00000089,0.00000490,-0.00000351,0
 .00000004,-0.00027403,-0.00009556,-0.00000521,-0.00318698,-0.00241065,
 0.00018250,0.10057171,-0.09939192,0.00055202,-0.00096592,-0.00030100,0
 .00001094,-0.00002740,-0.00001589,0.00000058,0.00000062,0.00001217,0.0
 0000002,-0.00000734,-0.00000603,0.00000010,-0.00000543,-0.00000707,0.0
 0000009,-0.00040607,0.00081304,-0.00000397,-0.02005246,0.00984721,-0.0
 0000911,-0.00008866,0.00005670,-0.00000107,0.00000676,-0.00002001,0.00
 000208,0.00007992,0.00096484,-0.00010206,-0.10585319,0.10262525,-0.000
 00084,-0.00000119,-0.00003004,-0.00000225,-0.00000560,-0.00030673,-0.0
 0000128,0.00001108,0.00027668,-0.00000122,0.00000062,0.00001631,0.0000
 0254,0.00000479,0.00016753,-0.00000892,-0.00000889,-0.00056208,-0.0000
 1671,0.00000187,0.00061641,0.00002262,0.00013790,0.00351509,0.00000352
 ,-0.00000794,-0.00096638,-0.00041023,0.00014911,0.00232575,-0.00001828
 ,-0.00005423,-0.00189276,0.00000360,-0.00000141,-0.00017672,-0.0000015
 4,-0.00000340,-0.00002422,-0.00000077,0.00000008,0.00001166,-0.0000002
 8,0.00000047,0.00001786,0.00000171,0.00000060,0.00003670,-0.00000020,0
 .00000057,-0.00002412,0.00000018,0.00000004,0.00000839,0.00000024,0.00
 000082,0.00007878,0.00000002,0.00000006,-0.00000028,0.00000129,-0.0000
 0736,-0.00058561,0.00009148,0.00018277,0.00907405,-0.00050381,0.000558
 61,-0.03441109,0.00001488,0.00000541,0.00029929,0.00000044,0.00000051,
 0.00001807,0.00000005,0.00000003,0.00001233,0.00000011,0.00000007,-0.0
 0000019,0.00000007,0.00000007,-0.00000059,0.00000735,-0.00000642,0.000
 45020,0.00038817,-0.00012322,0.00389862,0.00000118,-0.00000168,-0.0000
 5303,0.00000064,0.00000228,0.00012286,-0.00002842,-0.00010253,-0.00595
 252,0.00045468,-0.00073389,0.02403980\\-0.00001650,0.00004925,-0.00000
 163,-0.00001464,0.00001881,0.00004054,0.00001057,0.00000175,-0.0000298
 4,0.00000031,-0.00002256,0.00001714,-0.00000181,-0.00002495,-0.0000123
 4,-0.00000587,-0.00001278,-0.00000627,-0.00004025,-0.00001672,-0.00000
 159,-0.00000511,-0.00000374,-0.00004994,0.00001370,-0.00001987,-0.0000
 1263,0.00000012,-0.00000408,0.00003151,0.00001015,-0.00002175,0.000004
 18,0.00001870,-0.00000274,-0.00001213,0.00001138,-0.00001479,0.0000603
 7,0.00000100,-0.00000163,0.00000438,-0.00000261,0.00002158,-0.00000688
 ,-0.00006378,0.00002124,-0.00002474,0.00000619,0.00005777,-0.00000567,
 0.00000546,0.00000150,-0.00000348,0.00001515,-0.00000805,-0.00000784,-
 0.00000254,-0.00000293,-0.00000156,-0.00001692,0.00001737,-0.00002653,
 -0.00000365,0.00000130,-0.00002226,0.00003415,0.00002857,-0.00001937,-
 0.00000319,0.,-0.00000174,0.00000393,-0.00000151,-0.00000169,0.0000381
 3,-0.00000006,0.00000459,0.00000974,-0.00002896,0.00000507,0.00000291,
 -0.00000196,0.00000266,0.00002513,-0.00000502,0.00009797,-0.00003694,-
 0.00002845,-0.00001595,-0.00000056,0.00000211,-0.00000902,0.00000530,-
 0.00000126,-0.00001570,-0.00000035,0.00000087,0.00001155,0.00000272,0.
 00000167,0.00000882\\\@


 MAN IS THE MEASURE OF ALL THINGS.
  -- PROTAGORAS (5TH CENTURY B.C.)
 Job cpu time:       0 days  8 hours 58 minutes 42.3 seconds.
 Elapsed time:       0 days  0 hours 26 minutes 56.9 seconds.
 File lengths (MBytes):  RWF=    984 Int=      0 D2E=      0 Chk=     26 Scr=      1
 Normal termination of Gaussian 16 at Mon Mar 25 16:39:20 2019.
