 Entering Gaussian System, Link 0=/share/apps/gaussian16/g16/g16
 Initial command:
 /share/apps/gaussian16/g16/l1.exe "/home/am2145//scratch/3534/Gau-2021.inp" -scrdir="/home/am2145//scratch/3534/"
 Entering Link 1 = /share/apps/gaussian16/g16/l1.exe PID=      2022.
  
 Copyright (c) 1988,1990,1992,1993,1995,1998,2003,2009,2016,
            Gaussian, Inc.  All Rights Reserved.
  
 This is part of the Gaussian(R) 16 program.  It is based on
 the Gaussian(R) 09 system (copyright 2009, Gaussian, Inc.),
 the Gaussian(R) 03 system (copyright 2003, Gaussian, Inc.),
 the Gaussian(R) 98 system (copyright 1998, Gaussian, Inc.),
 the Gaussian(R) 94 system (copyright 1995, Gaussian, Inc.),
 the Gaussian 92(TM) system (copyright 1992, Gaussian, Inc.),
 the Gaussian 90(TM) system (copyright 1990, Gaussian, Inc.),
 the Gaussian 88(TM) system (copyright 1988, Gaussian, Inc.),
 the Gaussian 86(TM) system (copyright 1986, Carnegie Mellon
 University), and the Gaussian 82(TM) system (copyright 1983,
 Carnegie Mellon University). Gaussian is a federally registered
 trademark of Gaussian, Inc.
  
 This software contains proprietary and confidential information,
 including trade secrets, belonging to Gaussian, Inc.
  
 This software is provided under written license and may be
 used, copied, transmitted, or stored only in accord with that
 written license.
  
 The following legend is applicable only to US Government
 contracts under FAR:
  
                    RESTRICTED RIGHTS LEGEND
  
 Use, reproduction and disclosure by the US Government is
 subject to restrictions as set forth in subparagraphs (a)
 and (c) of the Commercial Computer Software - Restricted
 Rights clause in FAR 52.227-19.
  
 Gaussian, Inc.
 340 Quinnipiac St., Bldg. 40, Wallingford CT 06492
  
  
 ---------------------------------------------------------------
 Warning -- This program may not be used in any manner that
 competes with the business of Gaussian, Inc. or will provide
 assistance to any competitor of Gaussian, Inc.  The licensee
 of this program is prohibited from giving any competitor of
 Gaussian, Inc. access to this program.  By using this program,
 the user acknowledges that Gaussian, Inc. is engaged in the
 business of creating and licensing software in the field of
 computational chemistry and represents and warrants to the
 licensee that it is not a competitor of Gaussian, Inc. and that
 it will not use this program in any manner prohibited above.
 ---------------------------------------------------------------
  

 Cite this work as:
 Gaussian 16, Revision A.03,
 M. J. Frisch, G. W. Trucks, H. B. Schlegel, G. E. Scuseria, 
 M. A. Robb, J. R. Cheeseman, G. Scalmani, V. Barone, 
 G. A. Petersson, H. Nakatsuji, X. Li, M. Caricato, A. V. Marenich, 
 J. Bloino, B. G. Janesko, R. Gomperts, B. Mennucci, H. P. Hratchian, 
 J. V. Ortiz, A. F. Izmaylov, J. L. Sonnenberg, D. Williams-Young, 
 F. Ding, F. Lipparini, F. Egidi, J. Goings, B. Peng, A. Petrone, 
 T. Henderson, D. Ranasinghe, V. G. Zakrzewski, J. Gao, N. Rega, 
 G. Zheng, W. Liang, M. Hada, M. Ehara, K. Toyota, R. Fukuda, 
 J. Hasegawa, M. Ishida, T. Nakajima, Y. Honda, O. Kitao, H. Nakai, 
 T. Vreven, K. Throssell, J. A. Montgomery, Jr., J. E. Peralta, 
 F. Ogliaro, M. J. Bearpark, J. J. Heyd, E. N. Brothers, K. N. Kudin, 
 V. N. Staroverov, T. A. Keith, R. Kobayashi, J. Normand, 
 K. Raghavachari, A. P. Rendell, J. C. Burant, S. S. Iyengar, 
 J. Tomasi, M. Cossi, J. M. Millam, M. Klene, C. Adamo, R. Cammi, 
 J. W. Ochterski, R. L. Martin, K. Morokuma, O. Farkas, 
 J. B. Foresman, and D. J. Fox, Gaussian, Inc., Wallingford CT, 2016.
 
 ******************************************
 Gaussian 16:  ES64L-G16RevA.03 25-Dec-2016
                25-Mar-2019 
 ******************************************
 %nprocshared=20
 Will use up to   20 processors via shared memory.
 %mem=100GB
 %chk=7-memb-2a.chk
 -------------------------------------------
 # opt freq b3lyp/6-311+g(d,p) int=grid=fine
 -------------------------------------------
 1/18=20,19=15,26=3,38=1/1,3;
 2/9=110,12=2,17=6,18=5,40=1/2;
 3/5=4,6=6,7=111,11=2,25=1,30=1,71=1,74=-5,75=-4/1,2,3;
 4//1;
 5/5=2,38=5/2;
 6/7=2,8=2,9=2,10=2,28=1/1;
 7//1,2,3,16;
 1/18=20,19=15,26=3/3(2);
 2/9=110/2;
 99//99;
 2/9=110/2;
 3/5=4,6=6,7=111,11=2,25=1,30=1,71=1,74=-5,75=-4/1,2,3;
 4/5=5,16=3,69=1/1;
 5/5=2,38=5/2;
 7//1,2,3,16;
 1/18=20,19=15,26=3/3(-5);
 2/9=110/2;
 6/7=2,8=2,9=2,10=2,19=2,28=1/1;
 99/9=1/99;
 ---------
 7-memb-2a
 ---------
 Symbolic Z-matrix:
 Charge =  0 Multiplicity = 2
 C                    -7.07731   0.20321  -0.11216 
 C                    -5.76382   0.74695  -0.08256 
 C                    -4.70262  -0.1261   -0.03233 
 C                    -7.33839  -1.20106  -0.09206 
 C                    -6.28375  -2.0959   -0.04159 
 C                    -5.03956  -1.49706  -0.01521 
 C                    -3.22196  -0.01506   0.01102 
 C                    -2.69643  -1.32568   0.05349 
 C                    -3.80922  -2.23322   0.03746 
 C                    -1.38283  -1.74351   0.10223 
 C                    -0.46069  -0.71035   0.10983 
 C                    -0.89304   0.65731   0.06908 
 C                    -2.28952   1.00658   0.01915 
 C                     0.0448    1.69989   0.07693 
 C                    -0.36108   3.03784   0.03756 
 C                    -2.67244   2.35086  -0.01964 
 C                    -1.71529   3.3611   -0.01054 
 H                    -5.61633   1.82106  -0.09957 
 H                    -7.92381   0.88827  -0.15201 
 H                    -8.36515  -1.55445  -0.11666 
 C                    -6.27652  -3.58267  -0.01162 
 C                    -3.70805  -3.66576   0.06919 
 C                    -1.17905  -3.2165    0.138 
 H                     0.60115  -0.94095   0.14706 
 H                     1.11003   1.47985   0.11407 
 H                    -2.03226   4.39934  -0.04116 
 H                     0.38468   3.82917   0.04456 
 C                    -2.32678  -4.16422   0.12165 
 C                    -5.0054   -4.35635   0.04302 
 H                    -7.2191   -4.11495  -0.03009 
 H                    -5.04287  -5.43806   0.06344 
 H                    -2.13686  -5.22966   0.14876 
 H                    -0.17079  -3.60923   0.17683 
 

 GradGradGradGradGradGradGradGradGradGradGradGradGradGradGradGradGradGrad
 Berny optimization.
 Initialization pass.
                           ----------------------------
                           !    Initial Parameters    !
                           ! (Angstroms and Degrees)  !
 --------------------------                            --------------------------
 ! Name  Definition              Value          Derivative Info.                !
 --------------------------------------------------------------------------------
 ! R1    R(1,2)                  1.4219         estimate D2E/DX2                !
 ! R2    R(1,4)                  1.4285         estimate D2E/DX2                !
 ! R3    R(1,19)                 1.0897         estimate D2E/DX2                !
 ! R4    R(2,3)                  1.3751         estimate D2E/DX2                !
 ! R5    R(2,18)                 1.0843         estimate D2E/DX2                !
 ! R6    R(3,6)                  1.4119         estimate D2E/DX2                !
 ! R7    R(3,7)                  1.4855         estimate D2E/DX2                !
 ! R8    R(4,5)                  1.384          estimate D2E/DX2                !
 ! R9    R(4,20)                 1.0862         estimate D2E/DX2                !
 ! R10   R(5,6)                  1.3811         estimate D2E/DX2                !
 ! R11   R(5,21)                 1.4871         estimate D2E/DX2                !
 ! R12   R(6,9)                  1.4347         estimate D2E/DX2                !
 ! R13   R(7,8)                  1.4127         estimate D2E/DX2                !
 ! R14   R(7,13)                 1.3832         estimate D2E/DX2                !
 ! R15   R(8,9)                  1.436          estimate D2E/DX2                !
 ! R16   R(8,10)                 1.3793         estimate D2E/DX2                !
 ! R17   R(9,22)                 1.4365         estimate D2E/DX2                !
 ! R18   R(10,11)                1.3849         estimate D2E/DX2                !
 ! R19   R(10,23)                1.4874         estimate D2E/DX2                !
 ! R20   R(11,12)                1.4349         estimate D2E/DX2                !
 ! R21   R(11,24)                1.0872         estimate D2E/DX2                !
 ! R22   R(12,13)                1.4404         estimate D2E/DX2                !
 ! R23   R(12,14)                1.4023         estimate D2E/DX2                !
 ! R24   R(13,16)                1.3983         estimate D2E/DX2                !
 ! R25   R(14,15)                1.3987         estimate D2E/DX2                !
 ! R26   R(14,25)                1.0884         estimate D2E/DX2                !
 ! R27   R(15,17)                1.3931         estimate D2E/DX2                !
 ! R28   R(15,27)                1.0874         estimate D2E/DX2                !
 ! R29   R(16,17)                1.3917         estimate D2E/DX2                !
 ! R30   R(17,26)                1.086          estimate D2E/DX2                !
 ! R31   R(21,29)                1.4891         estimate D2E/DX2                !
 ! R32   R(21,30)                1.0826         estimate D2E/DX2                !
 ! R33   R(22,28)                1.4694         estimate D2E/DX2                !
 ! R34   R(22,29)                1.4699         estimate D2E/DX2                !
 ! R35   R(23,28)                1.4885         estimate D2E/DX2                !
 ! R36   R(23,33)                1.0827         estimate D2E/DX2                !
 ! R37   R(28,32)                1.0826         estimate D2E/DX2                !
 ! R38   R(29,31)                1.0826         estimate D2E/DX2                !
 ! A1    A(2,1,4)              122.9882         estimate D2E/DX2                !
 ! A2    A(2,1,19)             118.5514         estimate D2E/DX2                !
 ! A3    A(4,1,19)             118.4603         estimate D2E/DX2                !
 ! A4    A(1,2,3)              118.0903         estimate D2E/DX2                !
 ! A5    A(1,2,18)             120.2734         estimate D2E/DX2                !
 ! A6    A(3,2,18)             121.6362         estimate D2E/DX2                !
 ! A7    A(2,3,6)              115.6441         estimate D2E/DX2                !
 ! A8    A(2,3,7)              136.29           estimate D2E/DX2                !
 ! A9    A(6,3,7)              108.066          estimate D2E/DX2                !
 ! A10   A(1,4,5)              119.7906         estimate D2E/DX2                !
 ! A11   A(1,4,20)             119.492          estimate D2E/DX2                !
 ! A12   A(5,4,20)             120.7174         estimate D2E/DX2                !
 ! A13   A(4,5,6)              114.0062         estimate D2E/DX2                !
 ! A14   A(4,5,21)             130.6054         estimate D2E/DX2                !
 ! A15   A(6,5,21)             115.3884         estimate D2E/DX2                !
 ! A16   A(3,6,5)              129.4805         estimate D2E/DX2                !
 ! A17   A(3,6,9)              107.0994         estimate D2E/DX2                !
 ! A18   A(5,6,9)              123.4201         estimate D2E/DX2                !
 ! A19   A(3,7,8)              107.5977         estimate D2E/DX2                !
 ! A20   A(3,7,13)             136.6626         estimate D2E/DX2                !
 ! A21   A(8,7,13)             115.7397         estimate D2E/DX2                !
 ! A22   A(7,8,9)              107.32           estimate D2E/DX2                !
 ! A23   A(7,8,10)             129.5226         estimate D2E/DX2                !
 ! A24   A(9,8,10)             123.1574         estimate D2E/DX2                !
 ! A25   A(6,9,8)              109.9169         estimate D2E/DX2                !
 ! A26   A(6,9,22)             124.9533         estimate D2E/DX2                !
 ! A27   A(8,9,22)             125.1298         estimate D2E/DX2                !
 ! A28   A(8,10,11)            114.1012         estimate D2E/DX2                !
 ! A29   A(8,10,23)            115.5504         estimate D2E/DX2                !
 ! A30   A(11,10,23)           130.3484         estimate D2E/DX2                !
 ! A31   A(10,11,12)           120.6821         estimate D2E/DX2                !
 ! A32   A(10,11,24)           119.4905         estimate D2E/DX2                !
 ! A33   A(12,11,24)           119.8274         estimate D2E/DX2                !
 ! A34   A(11,12,13)           121.6159         estimate D2E/DX2                !
 ! A35   A(11,12,14)           120.4597         estimate D2E/DX2                !
 ! A36   A(13,12,14)           117.9244         estimate D2E/DX2                !
 ! A37   A(7,13,12)            118.3385         estimate D2E/DX2                !
 ! A38   A(7,13,16)            121.6887         estimate D2E/DX2                !
 ! A39   A(12,13,16)           119.9728         estimate D2E/DX2                !
 ! A40   A(12,14,15)           121.1269         estimate D2E/DX2                !
 ! A41   A(12,14,25)           120.294          estimate D2E/DX2                !
 ! A42   A(15,14,25)           118.579          estimate D2E/DX2                !
 ! A43   A(14,15,17)           120.3326         estimate D2E/DX2                !
 ! A44   A(14,15,27)           119.7968         estimate D2E/DX2                !
 ! A45   A(17,15,27)           119.8705         estimate D2E/DX2                !
 ! A46   A(13,16,17)           120.6202         estimate D2E/DX2                !
 ! A47   A(15,17,16)           120.023          estimate D2E/DX2                !
 ! A48   A(15,17,26)           120.4342         estimate D2E/DX2                !
 ! A49   A(16,17,26)           119.5428         estimate D2E/DX2                !
 ! A50   A(5,21,29)            121.6247         estimate D2E/DX2                !
 ! A51   A(5,21,30)            119.1413         estimate D2E/DX2                !
 ! A52   A(29,21,30)           119.234          estimate D2E/DX2                !
 ! A53   A(9,22,28)            113.9098         estimate D2E/DX2                !
 ! A54   A(9,22,29)            113.9521         estimate D2E/DX2                !
 ! A55   A(28,22,29)           132.1381         estimate D2E/DX2                !
 ! A56   A(10,23,28)           121.641          estimate D2E/DX2                !
 ! A57   A(10,23,33)           119.1849         estimate D2E/DX2                !
 ! A58   A(28,23,33)           119.1741         estimate D2E/DX2                !
 ! A59   A(22,28,23)           120.6118         estimate D2E/DX2                !
 ! A60   A(22,28,32)           119.9779         estimate D2E/DX2                !
 ! A61   A(23,28,32)           119.4104         estimate D2E/DX2                !
 ! A62   A(21,29,22)           120.6613         estimate D2E/DX2                !
 ! A63   A(21,29,31)           119.3614         estimate D2E/DX2                !
 ! A64   A(22,29,31)           119.9773         estimate D2E/DX2                !
 ! D1    D(4,1,2,3)             -0.0004         estimate D2E/DX2                !
 ! D2    D(4,1,2,18)           179.9984         estimate D2E/DX2                !
 ! D3    D(19,1,2,3)          -179.9994         estimate D2E/DX2                !
 ! D4    D(19,1,2,18)           -0.0006         estimate D2E/DX2                !
 ! D5    D(2,1,4,5)              0.0006         estimate D2E/DX2                !
 ! D6    D(2,1,4,20)          -179.9985         estimate D2E/DX2                !
 ! D7    D(19,1,4,5)           179.9997         estimate D2E/DX2                !
 ! D8    D(19,1,4,20)            0.0005         estimate D2E/DX2                !
 ! D9    D(1,2,3,6)             -0.0009         estimate D2E/DX2                !
 ! D10   D(1,2,3,7)            179.9955         estimate D2E/DX2                !
 ! D11   D(18,2,3,6)          -179.9996         estimate D2E/DX2                !
 ! D12   D(18,2,3,7)            -0.0033         estimate D2E/DX2                !
 ! D13   D(2,3,6,5)              0.0022         estimate D2E/DX2                !
 ! D14   D(2,3,6,9)            179.9989         estimate D2E/DX2                !
 ! D15   D(7,3,6,5)           -179.9951         estimate D2E/DX2                !
 ! D16   D(7,3,6,9)              0.0015         estimate D2E/DX2                !
 ! D17   D(2,3,7,8)           -179.997          estimate D2E/DX2                !
 ! D18   D(2,3,7,13)            -0.0016         estimate D2E/DX2                !
 ! D19   D(6,3,7,8)             -0.0005         estimate D2E/DX2                !
 ! D20   D(6,3,7,13)           179.9949         estimate D2E/DX2                !
 ! D21   D(1,4,5,6)              0.0004         estimate D2E/DX2                !
 ! D22   D(1,4,5,21)          -179.997          estimate D2E/DX2                !
 ! D23   D(20,4,5,6)           179.9995         estimate D2E/DX2                !
 ! D24   D(20,4,5,21)            0.0021         estimate D2E/DX2                !
 ! D25   D(4,5,6,3)             -0.0019         estimate D2E/DX2                !
 ! D26   D(4,5,6,9)           -179.9981         estimate D2E/DX2                !
 ! D27   D(21,5,6,3)           179.9959         estimate D2E/DX2                !
 ! D28   D(21,5,6,9)            -0.0003         estimate D2E/DX2                !
 ! D29   D(4,5,21,29)          179.9959         estimate D2E/DX2                !
 ! D30   D(4,5,21,30)            0.0008         estimate D2E/DX2                !
 ! D31   D(6,5,21,29)           -0.0014         estimate D2E/DX2                !
 ! D32   D(6,5,21,30)         -179.9965         estimate D2E/DX2                !
 ! D33   D(3,6,9,8)             -0.002          estimate D2E/DX2                !
 ! D34   D(3,6,9,22)          -179.9941         estimate D2E/DX2                !
 ! D35   D(5,6,9,8)            179.9949         estimate D2E/DX2                !
 ! D36   D(5,6,9,22)             0.0029         estimate D2E/DX2                !
 ! D37   D(3,7,8,9)             -0.0007         estimate D2E/DX2                !
 ! D38   D(3,7,8,10)           179.9958         estimate D2E/DX2                !
 ! D39   D(13,7,8,9)          -179.9972         estimate D2E/DX2                !
 ! D40   D(13,7,8,10)           -0.0007         estimate D2E/DX2                !
 ! D41   D(3,7,13,12)         -179.9955         estimate D2E/DX2                !
 ! D42   D(3,7,13,16)            0.0037         estimate D2E/DX2                !
 ! D43   D(8,7,13,12)           -0.0004         estimate D2E/DX2                !
 ! D44   D(8,7,13,16)          179.9988         estimate D2E/DX2                !
 ! D45   D(7,8,9,6)              0.0017         estimate D2E/DX2                !
 ! D46   D(7,8,9,22)           179.9937         estimate D2E/DX2                !
 ! D47   D(10,8,9,6)          -179.9951         estimate D2E/DX2                !
 ! D48   D(10,8,9,22)           -0.0031         estimate D2E/DX2                !
 ! D49   D(7,8,10,11)            0.0014         estimate D2E/DX2                !
 ! D50   D(7,8,10,23)         -179.9966         estimate D2E/DX2                !
 ! D51   D(9,8,10,11)          179.9975         estimate D2E/DX2                !
 ! D52   D(9,8,10,23)           -0.0006         estimate D2E/DX2                !
 ! D53   D(6,9,22,28)          179.9948         estimate D2E/DX2                !
 ! D54   D(6,9,22,29)           -0.0032         estimate D2E/DX2                !
 ! D55   D(8,9,22,28)            0.004          estimate D2E/DX2                !
 ! D56   D(8,9,22,29)         -179.9941         estimate D2E/DX2                !
 ! D57   D(8,10,11,12)          -0.0012         estimate D2E/DX2                !
 ! D58   D(8,10,11,24)        -179.9989         estimate D2E/DX2                !
 ! D59   D(23,10,11,12)        179.9965         estimate D2E/DX2                !
 ! D60   D(23,10,11,24)         -0.0012         estimate D2E/DX2                !
 ! D61   D(8,10,23,28)           0.0028         estimate D2E/DX2                !
 ! D62   D(8,10,23,33)         179.9986         estimate D2E/DX2                !
 ! D63   D(11,10,23,28)       -179.9948         estimate D2E/DX2                !
 ! D64   D(11,10,23,33)          0.0009         estimate D2E/DX2                !
 ! D65   D(10,11,12,13)          0.0003         estimate D2E/DX2                !
 ! D66   D(10,11,12,14)       -179.9979         estimate D2E/DX2                !
 ! D67   D(24,11,12,13)        179.998          estimate D2E/DX2                !
 ! D68   D(24,11,12,14)         -0.0003         estimate D2E/DX2                !
 ! D69   D(11,12,13,7)           0.0005         estimate D2E/DX2                !
 ! D70   D(11,12,13,16)       -179.9987         estimate D2E/DX2                !
 ! D71   D(14,12,13,7)         179.9988         estimate D2E/DX2                !
 ! D72   D(14,12,13,16)         -0.0003         estimate D2E/DX2                !
 ! D73   D(11,12,14,15)        179.9986         estimate D2E/DX2                !
 ! D74   D(11,12,14,25)         -0.0008         estimate D2E/DX2                !
 ! D75   D(13,12,14,15)          0.0002         estimate D2E/DX2                !
 ! D76   D(13,12,14,25)       -179.9992         estimate D2E/DX2                !
 ! D77   D(7,13,16,17)        -179.9991         estimate D2E/DX2                !
 ! D78   D(12,13,16,17)          0.0            estimate D2E/DX2                !
 ! D79   D(12,14,15,17)          0.0001         estimate D2E/DX2                !
 ! D80   D(12,14,15,27)       -180.0            estimate D2E/DX2                !
 ! D81   D(25,14,15,17)        179.9996         estimate D2E/DX2                !
 ! D82   D(25,14,15,27)         -0.0005         estimate D2E/DX2                !
 ! D83   D(14,15,17,16)         -0.0005         estimate D2E/DX2                !
 ! D84   D(14,15,17,26)       -179.9995         estimate D2E/DX2                !
 ! D85   D(27,15,17,16)        179.9997         estimate D2E/DX2                !
 ! D86   D(27,15,17,26)          0.0006         estimate D2E/DX2                !
 ! D87   D(13,16,17,15)          0.0004         estimate D2E/DX2                !
 ! D88   D(13,16,17,26)        179.9995         estimate D2E/DX2                !
 ! D89   D(5,21,29,22)           0.0009         estimate D2E/DX2                !
 ! D90   D(5,21,29,31)        -179.9958         estimate D2E/DX2                !
 ! D91   D(30,21,29,22)        179.9959         estimate D2E/DX2                !
 ! D92   D(30,21,29,31)         -0.0008         estimate D2E/DX2                !
 ! D93   D(9,22,28,23)          -0.0015         estimate D2E/DX2                !
 ! D94   D(9,22,28,32)        -179.9989         estimate D2E/DX2                !
 ! D95   D(29,22,28,23)        179.9961         estimate D2E/DX2                !
 ! D96   D(29,22,28,32)         -0.0013         estimate D2E/DX2                !
 ! D97   D(9,22,29,21)           0.0014         estimate D2E/DX2                !
 ! D98   D(9,22,29,31)         179.9981         estimate D2E/DX2                !
 ! D99   D(28,22,29,21)       -179.9963         estimate D2E/DX2                !
 ! D100  D(28,22,29,31)          0.0004         estimate D2E/DX2                !
 ! D101  D(10,23,28,22)         -0.0018         estimate D2E/DX2                !
 ! D102  D(10,23,28,32)        179.9956         estimate D2E/DX2                !
 ! D103  D(33,23,28,22)       -179.9975         estimate D2E/DX2                !
 ! D104  D(33,23,28,32)         -0.0001         estimate D2E/DX2                !
 --------------------------------------------------------------------------------
 Trust Radius=3.00D-01 FncErr=1.00D-07 GrdErr=1.00D-06 EigMax=2.50D+02 EigMin=1.00D-04
 Number of steps in this run=    198 maximum allowed number of steps=    198.
 GradGradGradGradGradGradGradGradGradGradGradGradGradGradGradGradGradGrad

                          Input orientation:                          
 ---------------------------------------------------------------------
 Center     Atomic      Atomic             Coordinates (Angstroms)
 Number     Number       Type             X           Y           Z
 ---------------------------------------------------------------------
      1          6           0       -7.077310    0.203210   -0.112160
      2          6           0       -5.763820    0.746950   -0.082560
      3          6           0       -4.702620   -0.126100   -0.032330
      4          6           0       -7.338390   -1.201060   -0.092060
      5          6           0       -6.283750   -2.095900   -0.041590
      6          6           0       -5.039560   -1.497060   -0.015210
      7          6           0       -3.221960   -0.015060    0.011020
      8          6           0       -2.696430   -1.325680    0.053490
      9          6           0       -3.809220   -2.233220    0.037460
     10          6           0       -1.382830   -1.743510    0.102230
     11          6           0       -0.460690   -0.710350    0.109830
     12          6           0       -0.893040    0.657310    0.069080
     13          6           0       -2.289520    1.006580    0.019150
     14          6           0        0.044800    1.699890    0.076930
     15          6           0       -0.361080    3.037840    0.037560
     16          6           0       -2.672440    2.350860   -0.019640
     17          6           0       -1.715290    3.361100   -0.010540
     18          1           0       -5.616330    1.821060   -0.099570
     19          1           0       -7.923810    0.888270   -0.152010
     20          1           0       -8.365150   -1.554450   -0.116660
     21          6           0       -6.276520   -3.582670   -0.011620
     22          6           0       -3.708050   -3.665760    0.069190
     23          6           0       -1.179050   -3.216500    0.138000
     24          1           0        0.601150   -0.940950    0.147060
     25          1           0        1.110030    1.479850    0.114070
     26          1           0       -2.032260    4.399340   -0.041160
     27          1           0        0.384680    3.829170    0.044560
     28          6           0       -2.326780   -4.164220    0.121650
     29          6           0       -5.005400   -4.356350    0.043020
     30          1           0       -7.219100   -4.114950   -0.030090
     31          1           0       -5.042870   -5.438060    0.063440
     32          1           0       -2.136860   -5.229660    0.148760
     33          1           0       -0.170790   -3.609230    0.176830
 ---------------------------------------------------------------------
                    Distance matrix (angstroms):
                    1          2          3          4          5
     1  C    0.000000
     2  C    1.421895   0.000000
     3  C    2.398744   1.375094   0.000000
     4  C    1.428475   2.504816   2.847172   0.000000
     5  C    2.433233   2.890294   2.525900   1.384034   0.000000
     6  C    2.655700   2.358955   1.411862   2.319082   1.381055
     7  C    3.863488   2.655272   1.485450   4.285116   3.702326
     8  C    4.642957   3.704482   2.339050   4.645913   3.670306
     9  C    4.079092   3.565989   2.289757   3.679289   2.479598
    10  C    6.021859   5.042778   3.695284   5.983368   4.915677
    11  C    6.683078   5.503083   4.284335   6.898138   5.987546
    12  C    6.203568   4.873964   3.890619   6.709847   6.054103
    13  C    4.856499   3.485472   2.666208   5.511545   5.057959
    14  C    7.280128   5.888429   5.087649   7.934454   7.380556
    15  C    7.291453   5.869600   5.372557   8.165043   7.838340
    16  C    4.901412   3.483262   3.202674   5.864509   5.728500
    17  C    6.223653   4.819706   4.591860   7.241492   7.116926
    18  H    2.179922   1.084322   2.151934   3.478327   3.973838
    19  H    1.089705   2.165722   3.379251   2.170624   3.406943
    20  H    2.178972   3.473402   3.932101   1.086152   2.151983
    21  C    3.870951   4.360448   3.798087   2.608851   1.487090
    22  C    5.133588   4.870444   3.678134   4.390913   3.018437
    23  C    6.822497   6.064462   4.689897   6.484782   5.229336
    24  H    7.767564   6.588974   5.368998   7.947398   6.983648
    25  H    8.289362   6.915607   6.032198   8.865978   8.214512
    26  H    6.562399   5.221705   5.254570   7.715056   7.762945
    27  H    8.297797   6.878975   6.444431   9.217792   8.920865
    28  C    6.457294   5.997878   4.687722   5.825996   4.467909
    29  C    5.010637   5.160876   4.241741   3.926442   2.598263
    30  H    4.321267   5.075299   4.716312   2.916989   2.225213
    31  H    5.999476   6.228598   5.323707   4.821386   3.566630
    32  H    7.347939   6.994871   5.715089   6.583580   5.201287
    33  H    7.894190   7.094052   5.719565   7.566114   6.301282
                    6          7          8          9         10
     6  C    0.000000
     7  C    2.345353   0.000000
     8  C    2.350393   1.412696   0.000000
     9  C    1.434727   2.294735   1.436032   0.000000
    10  C    3.666907   2.525521   1.379312   2.476162   0.000000
    11  C    4.647644   2.849176   2.319556   3.679269   1.384854
    12  C    4.673547   2.424731   2.680431   4.106126   2.450496
    13  C    3.719155   1.383206   2.367740   3.578565   2.896892
    14  C    6.006638   3.690138   4.082764   5.506758   3.727703
    15  C    6.515848   4.183962   4.949184   6.298710   4.889730
    16  C    4.517717   2.429092   3.677345   4.723274   4.294393
    17  C    5.886638   3.697158   4.788804   5.973547   5.116668
    18  H    3.368932   3.019367   4.295488   4.440902   5.537996
    19  H    3.745319   4.790613   5.680608   5.168119   7.055163
    20  H    3.327632   5.370142   5.675885   4.608794   6.988308
    21  C    2.424841   4.696668   4.232645   2.812649   5.229118
    22  C    2.546233   3.683379   2.549431   1.436458   3.017082
    23  C    4.228887   3.799845   2.425857   2.809758   1.487449
    24  H    5.670379   3.935981   3.321266   4.597101   2.140628
    25  H    6.833459   4.583832   4.729039   6.163747   4.074867
    26  H    6.619068   4.572203   5.764194   6.866922   6.178748
    27  H    7.602281   5.271345   6.005481   7.371663   5.846553
    28  C    3.806790   4.246071   2.863319   2.435873   2.598318
    29  C    2.860087   4.693451   3.810041   2.436916   4.466929
    30  H    3.406459   5.726073   5.314279   3.895222   6.301054
    31  H    3.941786   5.720786   4.734717   3.434176   5.200682
    32  H    4.731264   5.328083   3.945029   3.433341   3.567067
    33  H    5.310656   4.717541   3.407150   3.892429   2.226099
                   11         12         13         14         15
    11  C    0.000000
    12  C    1.434950   0.000000
    13  C    2.510118   1.440361   0.000000
    14  C    2.462897   1.402348   2.435789   0.000000
    15  C    3.750210   2.439446   2.800935   1.398713   0.000000
    16  C    3.778837   2.458098   1.398292   2.795797   2.411970
    17  C    4.262067   2.827174   2.423713   2.421815   1.393088
    18  H    5.747391   4.867466   3.427118   5.665177   5.396018
    19  H    7.636904   7.038036   5.638131   8.013107   7.864571
    20  H    7.952628   7.794794   6.594740   9.019726   9.229195
    21  C    6.487592   6.853160   6.079336   8.238469   8.878401
    22  C    4.391064   5.158800   4.883185   6.547835   7.492761
    23  C    2.607225   3.884965   4.368258   5.066797   6.308402
    24  H    1.087229   2.189319   3.487866   2.699718   4.094954
    25  H    2.695210   2.165845   3.433647   1.088353   2.144143
    26  H    5.348043   3.913153   3.403034   3.408101   2.157017
    27  H    4.618025   3.419629   3.888317   2.156479   1.087387
    28  C    3.925767   5.030460   5.171950   6.325676   7.465971
    29  C    5.826849   6.484518   6.011455   7.885665   8.731769
    30  H    7.568817   7.924856   7.108674   9.305271   9.909562
    31  H    6.584054   7.373917   7.008301   8.765552   9.683011
    32  H    4.820293   6.017462   6.239455   7.265223   8.456791
    33  H    2.914110   4.328582   5.081297   5.314435   6.651251
                   16         17         18         19         20
    16  C    0.000000
    17  C    1.391691   0.000000
    18  H    2.992251   4.194969   0.000000
    19  H    5.452850   6.684357   2.489440   0.000000
    20  H    6.904188   8.270099   4.353202   2.482521   0.000000
    21  C    6.942351   8.307874   5.444620   4.766821   2.913260
    22  C    6.105743   7.304397   5.811644   6.209730   5.116713
    23  C    5.766330   6.601094   6.717358   7.900951   7.380196
    24  H    4.645449   4.888596   6.807832   8.724129   8.991133
    25  H    3.883763   3.396625   6.738396   9.057098   9.951847
    26  H    2.146291   1.085979   4.415484   6.859319   8.692457
    27  H    3.396396   2.152208   6.329724   8.815812  10.274672
    28  C    6.525773   7.551280   6.833276   7.545150   6.582523
    29  C    7.101640   8.389680   6.209184   6.005097   4.377678
    30  H    7.904361   9.283514   6.148977   5.054077   2.806615
    31  H    8.142058   9.407629   7.283560   6.954760   5.113942
    32  H    7.601282   8.602573   7.866450   8.426643   7.236658
    33  H    6.466802   7.141855   7.695346   8.969112   8.453153
                   21         22         23         24         25
    21  C    0.000000
    22  C    2.571084   0.000000
    23  C    5.112794   2.569516   0.000000
    24  H    7.369275   5.099006   2.889173   0.000000
    25  H    8.955782   7.049341   5.224573   2.473928   0.000000
    26  H    9.040304   8.238100   7.665578   5.957262   4.292028
    27  H    9.965446   8.539615   7.217718   4.776129   2.459729
    28  C    3.994547   1.469395   1.488531   4.354640   6.608120
    29  C    1.489064   1.469938   3.993649   6.565758   8.453683
    30  H    1.082645   3.541059   6.108819   8.441680  10.034788
    31  H    2.229349   2.218744   4.457577   7.217060   9.258414
    32  H    4.458148   2.218277   2.229423   5.088196   7.453927
    33  H    6.108695   3.539349   1.082743   2.777858   5.248159
                   26         27         28         29         30
    26  H    0.000000
    27  H    2.484762   0.000000
    28  C    8.570170   8.441104   0.000000
    29  C    9.247094   9.800801   2.686653   0.000000
    30  H    9.969783  10.996913   4.894921   2.228023   0.000000
    31  H   10.288302  10.739656   3.000534   1.082551   2.548597
    32  H    9.631441   9.403798   1.082574   3.000395   5.206124
    33  H    8.224949   7.460284   2.226960   4.893827   7.069458
                   31         32         33
    31  H    0.000000
    32  H    2.914722   0.000000
    33  H    5.205251   2.547943   0.000000
 Stoichiometry    C22H11(2)
 Framework group  C1[X(C22H11)]
 Deg. of freedom    93
 Full point group                 C1      NOp   1
 Largest Abelian subgroup         C1      NOp   1
 Largest concise Abelian subgroup C1      NOp   1
                         Standard orientation:                         
 ---------------------------------------------------------------------
 Center     Atomic      Atomic             Coordinates (Angstroms)
 Number     Number       Type             X           Y           Z
 ---------------------------------------------------------------------
      1          6           0       -1.972104   -3.292796    0.000033
      2          6           0       -0.653270   -2.761322   -0.000056
      3          6           0       -0.506157   -1.394120   -0.000113
      4          6           0       -3.141341   -2.472171    0.000073
      5          6           0       -3.014163   -1.093992    0.000011
      6          6           0       -1.706275   -0.650434   -0.000096
      7          6           0        0.629286   -0.436345   -0.000126
      8          6           0        0.087515    0.868337   -0.000128
      9          6           0       -1.342536    0.737419   -0.000134
     10          6           0        0.733504    2.087025   -0.000062
     11          6           0        2.115272    1.994632   -0.000013
     12          6           0        2.763525    0.714456   -0.000008
     13          6           0        2.010350   -0.513292   -0.000059
     14          6           0        4.163101    0.626327    0.000085
     15          6           0        4.809471   -0.614078    0.000121
     16          6           0        2.677552   -1.742138   -0.000024
     17          6           0        4.068290   -1.793631    0.000062
     18          1           0        0.203771   -3.425578   -0.000057
     19          1           0       -2.097400   -4.375274    0.000089
     20          1           0       -4.122134   -2.938831    0.000167
     21          6           0       -4.049464   -0.026477    0.000093
     22          6           0       -2.272779    1.831980   -0.000009
     23          6           0       -0.151744    3.282366   -0.000008
     24          1           0        2.712438    2.903180    0.000060
     25          1           0        4.770079    1.529704    0.000140
     26          1           0        4.568434   -2.757585    0.000097
     27          1           0        5.896003   -0.657203    0.000193
     28          6           0       -1.634875    3.155687    0.000037
     29          6           0       -3.682850    1.416750    0.000093
     30          1           0       -5.095311   -0.306340    0.000237
     31          1           0       -4.466616    2.163496    0.000222
     32          1           0       -2.244814    4.050080    0.000148
     33          1           0        0.293685    4.269243    0.000069
 ---------------------------------------------------------------------
 Rotational constants (GHZ):           0.5260224           0.2621891           0.1749750
 Standard basis: 6-311+G(d,p) (5D, 7F)
 There are   572 symmetry adapted cartesian basis functions of A   symmetry.
 There are   550 symmetry adapted basis functions of A   symmetry.
   550 basis functions,   880 primitive gaussians,   572 cartesian basis functions
    72 alpha electrons       71 beta electrons
       nuclear repulsion energy      1544.2052836703 Hartrees.
 NAtoms=   33 NActive=   33 NUniq=   33 SFac= 1.00D+00 NAtFMM=   60 NAOKFM=F Big=F
 Integral buffers will be    131072 words long.
 Raffenetti 2 integral format.
 Two-electron integral symmetry is turned on.
 One-electron integrals computed using PRISM.
 NBasis=   550 RedAO= T EigKep=  1.49D-06  NBF=   550
 NBsUse=   535 1.00D-06 EigRej=  8.91D-07 NBFU=   535
 ExpMin= 4.38D-02 ExpMax= 4.56D+03 ExpMxC= 6.82D+02 IAcc=2 IRadAn=         4 AccDes= 0.00D+00
 Harris functional with IExCor=  402 and IRadAn=       4 diagonalized for initial guess.
 HarFok:  IExCor=  402 AccDes= 0.00D+00 IRadAn=         4 IDoV= 1 UseB2=F ITyADJ=14
 ICtDFT=  3500011 ScaDFX=  1.000000  1.000000  1.000000  1.000000
 FoFCou: FMM=F IPFlag=           0 FMFlag=      100000 FMFlg1=           0
         NFxFlg=           0 DoJE=T BraDBF=F KetDBF=T FulRan=T
         wScrn=  0.000000 ICntrl=       500 IOpCl=  0 I1Cent=   200000004 NGrid=           0
         NMat0=    1 NMatS0=      1 NMatT0=    0 NMatD0=    1 NMtDS0=    0 NMtDT0=    0
 Petite list used in FoFCou.
 Initial guess <Sx>= 0.0000 <Sy>= 0.0000 <Sz>= 0.5000 <S**2>= 0.7500 S= 0.5000
 Requested convergence on RMS density matrix=1.00D-08 within 128 cycles.
 Requested convergence on MAX density matrix=1.00D-06.
 Requested convergence on             energy=1.00D-06.
 No special actions if energy rises.
 Restarting incremental Fock formation.
 SCF Done:  E(UB3LYP) =  -845.065784710     A.U. after   24 cycles
            NFock= 24  Conv=0.72D-08     -V/T= 2.0053
 <Sx>= 0.0000 <Sy>= 0.0000 <Sz>= 0.5000 <S**2>= 0.7661 S= 0.5080
 <L.S>=  0.00000000000    
 Annihilation of the first spin contaminant:
 S**2 before annihilation     0.7661,   after     0.7501

 **********************************************************************

            Population analysis using the SCF density.

 **********************************************************************

 Orbital symmetries:
 Alpha Orbitals:
       Occupied  (A) (A) (A) (A) (A) (A) (A) (A) (A) (A) (A) (A)
                 (A) (A) (A) (A) (A) (A) (A) (A) (A) (A) (A) (A)
                 (A) (A) (A) (A) (A) (A) (A) (A) (A) (A) (A) (A)
                 (A) (A) (A) (A) (A) (A) (A) (A) (A) (A) (A) (A)
                 (A) (A) (A) (A) (A) (A) (A) (A) (A) (A) (A) (A)
                 (A) (A) (A) (A) (A) (A) (A) (A) (A) (A) (A) (A)
       Virtual   (A) (A) (A) (A) (A) (A) (A) (A) (A) (A) (A) (A)
                 (A) (A) (A) (A) (A) (A) (A) (A) (A) (A) (A) (A)
                 (A) (A) (A) (A) (A) (A) (A) (A) (A) (A) (A) (A)
                 (A) (A) (A) (A) (A) (A) (A) (A) (A) (A) (A) (A)
                 (A) (A) (A) (A) (A) (A) (A) (A) (A) (A) (A) (A)
                 (A) (A) (A) (A) (A) (A) (A) (A) (A) (A) (A) (A)
                 (A) (A) (A) (A) (A) (A) (A) (A) (A) (A) (A) (A)
                 (A) (A) (A) (A) (A) (A) (A) (A) (A) (A) (A) (A)
                 (A) (A) (A) (A) (A) (A) (A) (A) (A) (A) (A) (A)
                 (A) (A) (A) (A) (A) (A) (A) (A) (A) (A) (A) (A)
                 (A) (A) (A) (A) (A) (A) (A) (A) (A) (A) (A) (A)
                 (A) (A) (A) (A) (A) (A) (A) (A) (A) (A) (A) (A)
                 (A) (A) (A) (A) (A) (A) (A) (A) (A) (A) (A) (A)
                 (A) (A) (A) (A) (A) (A) (A) (A) (A) (A) (A) (A)
                 (A) (A) (A) (A) (A) (A) (A) (A) (A) (A) (A) (A)
                 (A) (A) (A) (A) (A) (A) (A) (A) (A) (A) (A) (A)
                 (A) (A) (A) (A) (A) (A) (A) (A) (A) (A) (A) (A)
                 (A) (A) (A) (A) (A) (A) (A) (A) (A) (A) (A) (A)
                 (A) (A) (A) (A) (A) (A) (A) (A) (A) (A) (A) (A)
                 (A) (A) (A) (A) (A) (A) (A) (A) (A) (A) (A) (A)
                 (A) (A) (A) (A) (A) (A) (A) (A) (A) (A) (A) (A)
                 (A) (A) (A) (A) (A) (A) (A) (A) (A) (A) (A) (A)
                 (A) (A) (A) (A) (A) (A) (A) (A) (A) (A) (A) (A)
                 (A) (A) (A) (A) (A) (A) (A) (A) (A) (A) (A) (A)
                 (A) (A) (A) (A) (A) (A) (A) (A) (A) (A) (A) (A)
                 (A) (A) (A) (A) (A) (A) (A) (A) (A) (A) (A) (A)
                 (A) (A) (A) (A) (A) (A) (A) (A) (A) (A) (A) (A)
                 (A) (A) (A) (A) (A) (A) (A) (A) (A) (A) (A) (A)
                 (A) (A) (A) (A) (A) (A) (A) (A) (A) (A) (A) (A)
                 (A) (A) (A) (A) (A) (A) (A) (A) (A) (A) (A) (A)
                 (A) (A) (A) (A) (A) (A) (A) (A) (A) (A) (A) (A)
                 (A) (A) (A) (A) (A) (A) (A) (A) (A) (A) (A) (A)
                 (A) (A) (A) (A) (A) (A) (A) (A) (A) (A) (A) (A)
                 (A) (A) (A) (A) (A) (A) (A) (A) (A) (A) (A) (A)
                 (A) (A) (A) (A) (A) (A) (A) (A) (A) (A) (A) (A)
                 (A) (A) (A) (A) (A) (A) (A) (A) (A) (A) (A) (A)
                 (A) (A) (A) (A) (A) (A) (A) (A) (A) (A) (A) (A)
                 (A) (A) (A) (A) (A) (A) (A) (A) (A) (A) (A) (A)
                 (A) (A) (A) (A) (A) (A) (A)
 Beta  Orbitals:
       Occupied  (A) (A) (A) (A) (A) (A) (A) (A) (A) (A) (A) (A)
                 (A) (A) (A) (A) (A) (A) (A) (A) (A) (A) (A) (A)
                 (A) (A) (A) (A) (A) (A) (A) (A) (A) (A) (A) (A)
                 (A) (A) (A) (A) (A) (A) (A) (A) (A) (A) (A) (A)
                 (A) (A) (A) (A) (A) (A) (A) (A) (A) (A) (A) (A)
                 (A) (A) (A) (A) (A) (A) (A) (A) (A) (A) (A)
       Virtual   (A) (A) (A) (A) (A) (A) (A) (A) (A) (A) (A) (A)
                 (A) (A) (A) (A) (A) (A) (A) (A) (A) (A) (A) (A)
                 (A) (A) (A) (A) (A) (A) (A) (A) (A) (A) (A) (A)
                 (A) (A) (A) (A) (A) (A) (A) (A) (A) (A) (A) (A)
                 (A) (A) (A) (A) (A) (A) (A) (A) (A) (A) (A) (A)
                 (A) (A) (A) (A) (A) (A) (A) (A) (A) (A) (A) (A)
                 (A) (A) (A) (A) (A) (A) (A) (A) (A) (A) (A) (A)
                 (A) (A) (A) (A) (A) (A) (A) (A) (A) (A) (A) (A)
                 (A) (A) (A) (A) (A) (A) (A) (A) (A) (A) (A) (A)
                 (A) (A) (A) (A) (A) (A) (A) (A) (A) (A) (A) (A)
                 (A) (A) (A) (A) (A) (A) (A) (A) (A) (A) (A) (A)
                 (A) (A) (A) (A) (A) (A) (A) (A) (A) (A) (A) (A)
                 (A) (A) (A) (A) (A) (A) (A) (A) (A) (A) (A) (A)
                 (A) (A) (A) (A) (A) (A) (A) (A) (A) (A) (A) (A)
                 (A) (A) (A) (A) (A) (A) (A) (A) (A) (A) (A) (A)
                 (A) (A) (A) (A) (A) (A) (A) (A) (A) (A) (A) (A)
                 (A) (A) (A) (A) (A) (A) (A) (A) (A) (A) (A) (A)
                 (A) (A) (A) (A) (A) (A) (A) (A) (A) (A) (A) (A)
                 (A) (A) (A) (A) (A) (A) (A) (A) (A) (A) (A) (A)
                 (A) (A) (A) (A) (A) (A) (A) (A) (A) (A) (A) (A)
                 (A) (A) (A) (A) (A) (A) (A) (A) (A) (A) (A) (A)
                 (A) (A) (A) (A) (A) (A) (A) (A) (A) (A) (A) (A)
                 (A) (A) (A) (A) (A) (A) (A) (A) (A) (A) (A) (A)
                 (A) (A) (A) (A) (A) (A) (A) (A) (A) (A) (A) (A)
                 (A) (A) (A) (A) (A) (A) (A) (A) (A) (A) (A) (A)
                 (A) (A) (A) (A) (A) (A) (A) (A) (A) (A) (A) (A)
                 (A) (A) (A) (A) (A) (A) (A) (A) (A) (A) (A) (A)
                 (A) (A) (A) (A) (A) (A) (A) (A) (A) (A) (A) (A)
                 (A) (A) (A) (A) (A) (A) (A) (A) (A) (A) (A) (A)
                 (A) (A) (A) (A) (A) (A) (A) (A) (A) (A) (A) (A)
                 (A) (A) (A) (A) (A) (A) (A) (A) (A) (A) (A) (A)
                 (A) (A) (A) (A) (A) (A) (A) (A) (A) (A) (A) (A)
                 (A) (A) (A) (A) (A) (A) (A) (A) (A) (A) (A) (A)
                 (A) (A) (A) (A) (A) (A) (A) (A) (A) (A) (A) (A)
                 (A) (A) (A) (A) (A) (A) (A) (A) (A) (A) (A) (A)
                 (A) (A) (A) (A) (A) (A) (A) (A) (A) (A) (A) (A)
                 (A) (A) (A) (A) (A) (A) (A) (A) (A) (A) (A) (A)
                 (A) (A) (A) (A) (A) (A) (A) (A) (A) (A) (A) (A)
                 (A) (A) (A) (A) (A) (A) (A) (A)
 The electronic state is 2-A.
 Alpha  occ. eigenvalues --  -10.21315 -10.20992 -10.20963 -10.20932 -10.20809
 Alpha  occ. eigenvalues --  -10.20744 -10.20467 -10.20165 -10.19841 -10.19562
 Alpha  occ. eigenvalues --  -10.19496 -10.19213 -10.19171 -10.19096 -10.19089
 Alpha  occ. eigenvalues --  -10.19078 -10.19043 -10.19012 -10.18840 -10.18243
 Alpha  occ. eigenvalues --  -10.17514 -10.17231  -0.91638  -0.88525  -0.85627
 Alpha  occ. eigenvalues --   -0.82972  -0.81515  -0.78905  -0.77435  -0.76430
 Alpha  occ. eigenvalues --   -0.73112  -0.72010  -0.70759  -0.66668  -0.63927
 Alpha  occ. eigenvalues --   -0.63192  -0.62088  -0.60510  -0.58493  -0.56863
 Alpha  occ. eigenvalues --   -0.53469  -0.52721  -0.51059  -0.50044  -0.48798
 Alpha  occ. eigenvalues --   -0.47654  -0.46484  -0.44904  -0.44456  -0.43314
 Alpha  occ. eigenvalues --   -0.43198  -0.42630  -0.42047  -0.41123  -0.40461
 Alpha  occ. eigenvalues --   -0.39717  -0.39713  -0.39015  -0.36770  -0.36680
 Alpha  occ. eigenvalues --   -0.35626  -0.34155  -0.34061  -0.33476  -0.32193
 Alpha  occ. eigenvalues --   -0.29495  -0.27990  -0.27186  -0.27176  -0.23130
 Alpha  occ. eigenvalues --   -0.22626  -0.20856
 Alpha virt. eigenvalues --   -0.10156  -0.06006  -0.03481  -0.02486   0.00158
 Alpha virt. eigenvalues --    0.00202   0.00515   0.00754   0.00912   0.01904
 Alpha virt. eigenvalues --    0.02131   0.03296   0.03470   0.03514   0.03807
 Alpha virt. eigenvalues --    0.04436   0.05502   0.05603   0.05650   0.06047
 Alpha virt. eigenvalues --    0.06669   0.07083   0.07483   0.07925   0.08254
 Alpha virt. eigenvalues --    0.08505   0.08727   0.09616   0.09928   0.10974
 Alpha virt. eigenvalues --    0.11031   0.11288   0.11451   0.11632   0.12442
 Alpha virt. eigenvalues --    0.12830   0.13544   0.14109   0.14308   0.14427
 Alpha virt. eigenvalues --    0.14811   0.15199   0.15454   0.15528   0.15801
 Alpha virt. eigenvalues --    0.15984   0.16359   0.17126   0.17533   0.17651
 Alpha virt. eigenvalues --    0.17784   0.18082   0.18404   0.18598   0.18891
 Alpha virt. eigenvalues --    0.19232   0.19296   0.19613   0.19880   0.20267
 Alpha virt. eigenvalues --    0.20519   0.20752   0.21015   0.21231   0.21259
 Alpha virt. eigenvalues --    0.21646   0.22144   0.22390   0.22505   0.22635
 Alpha virt. eigenvalues --    0.23106   0.23562   0.23622   0.23849   0.24191
 Alpha virt. eigenvalues --    0.24643   0.25188   0.25376   0.25755   0.26125
 Alpha virt. eigenvalues --    0.26782   0.26993   0.27200   0.27410   0.27868
 Alpha virt. eigenvalues --    0.28394   0.28436   0.29002   0.29007   0.29286
 Alpha virt. eigenvalues --    0.29924   0.30846   0.31297   0.31718   0.32152
 Alpha virt. eigenvalues --    0.32558   0.33059   0.33385   0.34022   0.34267
 Alpha virt. eigenvalues --    0.35108   0.36399   0.36829   0.37432   0.38679
 Alpha virt. eigenvalues --    0.39423   0.39871   0.40605   0.41036   0.41451
 Alpha virt. eigenvalues --    0.42773   0.43231   0.44193   0.44431   0.46466
 Alpha virt. eigenvalues --    0.47487   0.48760   0.48886   0.50726   0.51398
 Alpha virt. eigenvalues --    0.51873   0.52187   0.52557   0.53337   0.53613
 Alpha virt. eigenvalues --    0.54002   0.54372   0.54948   0.55646   0.55756
 Alpha virt. eigenvalues --    0.55980   0.56476   0.57286   0.57786   0.58260
 Alpha virt. eigenvalues --    0.58614   0.59366   0.59836   0.60266   0.60888
 Alpha virt. eigenvalues --    0.61552   0.61921   0.62797   0.62919   0.63402
 Alpha virt. eigenvalues --    0.63978   0.64370   0.64397   0.64681   0.65597
 Alpha virt. eigenvalues --    0.66087   0.66292   0.66407   0.67021   0.67637
 Alpha virt. eigenvalues --    0.68108   0.68108   0.69161   0.70164   0.70523
 Alpha virt. eigenvalues --    0.70781   0.71045   0.71464   0.72219   0.72403
 Alpha virt. eigenvalues --    0.72994   0.74215   0.74725   0.75592   0.76440
 Alpha virt. eigenvalues --    0.76502   0.76884   0.78035   0.78271   0.79894
 Alpha virt. eigenvalues --    0.80894   0.81364   0.82298   0.83962   0.85014
 Alpha virt. eigenvalues --    0.85955   0.87185   0.87496   0.87786   0.88781
 Alpha virt. eigenvalues --    0.90374   0.90728   0.91688   0.91950   0.92638
 Alpha virt. eigenvalues --    0.92797   0.93897   0.94298   0.94759   0.94928
 Alpha virt. eigenvalues --    0.95699   0.96404   0.96959   0.97279   0.98176
 Alpha virt. eigenvalues --    0.98595   0.99227   0.99376   0.99910   1.01134
 Alpha virt. eigenvalues --    1.02108   1.02907   1.02976   1.03365   1.03490
 Alpha virt. eigenvalues --    1.04362   1.05333   1.05770   1.05830   1.07506
 Alpha virt. eigenvalues --    1.09019   1.09126   1.09422   1.11509   1.12449
 Alpha virt. eigenvalues --    1.13178   1.13497   1.14418   1.14593   1.14674
 Alpha virt. eigenvalues --    1.17372   1.18380   1.19384   1.20483   1.21573
 Alpha virt. eigenvalues --    1.26386   1.27849   1.28679   1.32623   1.34884
 Alpha virt. eigenvalues --    1.37248   1.38384   1.39410   1.41481   1.42216
 Alpha virt. eigenvalues --    1.43826   1.45384   1.45885   1.46304   1.47006
 Alpha virt. eigenvalues --    1.47503   1.48517   1.48892   1.49948   1.50703
 Alpha virt. eigenvalues --    1.50978   1.52872   1.54432   1.54443   1.55691
 Alpha virt. eigenvalues --    1.55732   1.56022   1.57236   1.59099   1.59264
 Alpha virt. eigenvalues --    1.61238   1.63239   1.63786   1.63941   1.65272
 Alpha virt. eigenvalues --    1.65961   1.67174   1.69200   1.70069   1.72192
 Alpha virt. eigenvalues --    1.72481   1.72586   1.73480   1.73538   1.75175
 Alpha virt. eigenvalues --    1.75274   1.76378   1.76799   1.78056   1.78743
 Alpha virt. eigenvalues --    1.79367   1.80546   1.81976   1.83747   1.83952
 Alpha virt. eigenvalues --    1.85166   1.85445   1.85895   1.87554   1.88698
 Alpha virt. eigenvalues --    1.88956   1.89054   1.90326   1.90703   1.91400
 Alpha virt. eigenvalues --    1.93268   1.93904   1.93911   1.94654   1.95480
 Alpha virt. eigenvalues --    1.96088   1.96607   1.97171   1.97892   1.99295
 Alpha virt. eigenvalues --    2.00777   2.01474   2.01619   2.03586   2.03741
 Alpha virt. eigenvalues --    2.04489   2.05571   2.08518   2.09266   2.10562
 Alpha virt. eigenvalues --    2.12504   2.12855   2.15161   2.17550   2.18427
 Alpha virt. eigenvalues --    2.18639   2.19121   2.20809   2.22413   2.22815
 Alpha virt. eigenvalues --    2.24244   2.24912   2.28539   2.32499   2.33310
 Alpha virt. eigenvalues --    2.35504   2.37823   2.38808   2.39885   2.41681
 Alpha virt. eigenvalues --    2.42119   2.43346   2.43683   2.44603   2.44627
 Alpha virt. eigenvalues --    2.49651   2.51461   2.54753   2.55754   2.57073
 Alpha virt. eigenvalues --    2.59393   2.60380   2.61431   2.63838   2.65107
 Alpha virt. eigenvalues --    2.65731   2.67854   2.68854   2.69366   2.70576
 Alpha virt. eigenvalues --    2.71436   2.71776   2.71947   2.72345   2.72907
 Alpha virt. eigenvalues --    2.73920   2.74489   2.74768   2.74967   2.75517
 Alpha virt. eigenvalues --    2.76284   2.76524   2.77845   2.77974   2.79418
 Alpha virt. eigenvalues --    2.80112   2.80288   2.80577   2.83415   2.84106
 Alpha virt. eigenvalues --    2.84439   2.84539   2.86471   2.87580   2.88316
 Alpha virt. eigenvalues --    2.89517   2.89574   2.90585   2.93502   2.96638
 Alpha virt. eigenvalues --    2.98789   2.99654   3.02087   3.05623   3.08101
 Alpha virt. eigenvalues --    3.08291   3.10269   3.10498   3.11339   3.12274
 Alpha virt. eigenvalues --    3.12398   3.19153   3.20830   3.22292   3.24540
 Alpha virt. eigenvalues --    3.26687   3.31160   3.32728   3.35201   3.36716
 Alpha virt. eigenvalues --    3.37378   3.38989   3.40798   3.42149   3.42985
 Alpha virt. eigenvalues --    3.43407   3.45770   3.49113   3.53614   3.55441
 Alpha virt. eigenvalues --    3.57522   3.60654   3.61452   3.65692   3.70995
 Alpha virt. eigenvalues --    3.75421   3.79758   3.81139   3.90466   3.98916
 Alpha virt. eigenvalues --    4.02580   4.03952   4.03993   4.05540   4.12061
 Alpha virt. eigenvalues --    4.13040   4.20568   4.27139   4.33977   4.52871
 Alpha virt. eigenvalues --    4.67510   4.72389   4.81246   4.81945   4.82600
 Alpha virt. eigenvalues --    4.85391  23.37940  23.60601  23.74255  23.80122
 Alpha virt. eigenvalues --   23.82291  23.86353  23.87153  23.90169  23.90755
 Alpha virt. eigenvalues --   23.90844  23.94667  23.96535  23.98972  23.99919
 Alpha virt. eigenvalues --   24.05653  24.06289  24.06737  24.10159  24.13261
 Alpha virt. eigenvalues --   24.15016  24.17572  24.19076
  Beta  occ. eigenvalues --  -10.20999 -10.20967 -10.20935 -10.20821 -10.20738
  Beta  occ. eigenvalues --  -10.20345 -10.20144 -10.19822 -10.19685 -10.19593
  Beta  occ. eigenvalues --  -10.19494 -10.19237 -10.19105 -10.19084 -10.19073
  Beta  occ. eigenvalues --  -10.19038 -10.19002 -10.18967 -10.18913 -10.18227
  Beta  occ. eigenvalues --  -10.17543 -10.17232  -0.91525  -0.88211  -0.85402
  Beta  occ. eigenvalues --   -0.82904  -0.81353  -0.78808  -0.76996  -0.76127
  Beta  occ. eigenvalues --   -0.73050  -0.71932  -0.70411  -0.66506  -0.63748
  Beta  occ. eigenvalues --   -0.63094  -0.61785  -0.60261  -0.57986  -0.56617
  Beta  occ. eigenvalues --   -0.53386  -0.52477  -0.50872  -0.49856  -0.48679
  Beta  occ. eigenvalues --   -0.47312  -0.46296  -0.44712  -0.44338  -0.43294
  Beta  occ. eigenvalues --   -0.43125  -0.42528  -0.41863  -0.41020  -0.39968
  Beta  occ. eigenvalues --   -0.39598  -0.39419  -0.38775  -0.36680  -0.36390
  Beta  occ. eigenvalues --   -0.35501  -0.34135  -0.33976  -0.33319  -0.32057
  Beta  occ. eigenvalues --   -0.29496  -0.27671  -0.27101  -0.23144  -0.22656
  Beta  occ. eigenvalues --   -0.20532
  Beta virt. eigenvalues --   -0.11197  -0.10072  -0.06025  -0.03084  -0.02381
  Beta virt. eigenvalues --    0.00230   0.00434   0.00617   0.00763   0.00942
  Beta virt. eigenvalues --    0.01921   0.02198   0.03393   0.03472   0.03547
  Beta virt. eigenvalues --    0.03869   0.04419   0.05498   0.05653   0.05787
  Beta virt. eigenvalues --    0.06075   0.06653   0.07178   0.07505   0.07953
  Beta virt. eigenvalues --    0.08359   0.08502   0.08737   0.09616   0.09919
  Beta virt. eigenvalues --    0.11004   0.11151   0.11370   0.11651   0.11726
  Beta virt. eigenvalues --    0.12450   0.12890   0.13542   0.14216   0.14301
  Beta virt. eigenvalues --    0.14455   0.14887   0.15222   0.15516   0.15525
  Beta virt. eigenvalues --    0.15855   0.16000   0.16364   0.17163   0.17541
  Beta virt. eigenvalues --    0.17698   0.17796   0.18123   0.18539   0.18689
  Beta virt. eigenvalues --    0.18937   0.19241   0.19332   0.19661   0.19934
  Beta virt. eigenvalues --    0.20426   0.20524   0.20834   0.21074   0.21260
  Beta virt. eigenvalues --    0.21278   0.21668   0.22347   0.22446   0.22594
  Beta virt. eigenvalues --    0.22676   0.23254   0.23588   0.23642   0.23863
  Beta virt. eigenvalues --    0.24272   0.24693   0.25192   0.25428   0.25776
  Beta virt. eigenvalues --    0.26309   0.26841   0.27011   0.27234   0.27522
  Beta virt. eigenvalues --    0.27909   0.28389   0.28635   0.28998   0.29070
  Beta virt. eigenvalues --    0.29583   0.30152   0.30909   0.31484   0.31788
  Beta virt. eigenvalues --    0.32175   0.32601   0.33078   0.33526   0.34194
  Beta virt. eigenvalues --    0.34341   0.35120   0.36976   0.37159   0.37488
  Beta virt. eigenvalues --    0.38770   0.39569   0.40097   0.40706   0.41113
  Beta virt. eigenvalues --    0.41563   0.42925   0.43365   0.44226   0.44540
  Beta virt. eigenvalues --    0.46630   0.47505   0.48949   0.49123   0.51349
  Beta virt. eigenvalues --    0.51511   0.51903   0.52244   0.52737   0.53612
  Beta virt. eigenvalues --    0.53711   0.54227   0.54432   0.54978   0.55646
  Beta virt. eigenvalues --    0.55908   0.56087   0.56552   0.57378   0.57885
  Beta virt. eigenvalues --    0.58273   0.58728   0.59474   0.59711   0.60540
  Beta virt. eigenvalues --    0.60988   0.61586   0.62225   0.62787   0.63380
  Beta virt. eigenvalues --    0.63552   0.64140   0.64384   0.64645   0.64869
  Beta virt. eigenvalues --    0.65793   0.66355   0.66462   0.66666   0.67379
  Beta virt. eigenvalues --    0.68058   0.68150   0.68161   0.69356   0.70257
  Beta virt. eigenvalues --    0.70575   0.71009   0.71269   0.71533   0.72260
  Beta virt. eigenvalues --    0.72489   0.73182   0.74759   0.75201   0.75715
  Beta virt. eigenvalues --    0.76485   0.76701   0.76932   0.78244   0.78332
  Beta virt. eigenvalues --    0.79948   0.81142   0.81416   0.82518   0.84017
  Beta virt. eigenvalues --    0.85228   0.86129   0.87546   0.87698   0.87812
  Beta virt. eigenvalues --    0.88867   0.90664   0.90883   0.91745   0.92095
  Beta virt. eigenvalues --    0.92801   0.93045   0.93997   0.94325   0.94827
  Beta virt. eigenvalues --    0.94970   0.95789   0.96464   0.97165   0.97361
  Beta virt. eigenvalues --    0.98302   0.98754   0.99354   0.99462   0.99966
  Beta virt. eigenvalues --    1.01165   1.02125   1.02971   1.03290   1.03397
  Beta virt. eigenvalues --    1.04406   1.04449   1.05343   1.05890   1.05929
  Beta virt. eigenvalues --    1.07593   1.09068   1.09173   1.09519   1.11800
  Beta virt. eigenvalues --    1.12568   1.13204   1.13573   1.14613   1.14686
  Beta virt. eigenvalues --    1.14749   1.17400   1.19423   1.20522   1.20766
  Beta virt. eigenvalues --    1.21692   1.26617   1.28121   1.28744   1.32691
  Beta virt. eigenvalues --    1.34942   1.37361   1.38410   1.39626   1.41538
  Beta virt. eigenvalues --    1.42508   1.44020   1.45471   1.45896   1.46280
  Beta virt. eigenvalues --    1.47158   1.47503   1.48766   1.48897   1.50090
  Beta virt. eigenvalues --    1.50855   1.51657   1.53017   1.54473   1.54513
  Beta virt. eigenvalues --    1.55770   1.55868   1.56152   1.57242   1.59793
  Beta virt. eigenvalues --    1.60014   1.61364   1.63293   1.63864   1.64879
  Beta virt. eigenvalues --    1.65295   1.66139   1.67280   1.69458   1.70228
  Beta virt. eigenvalues --    1.72268   1.72603   1.72899   1.73510   1.73596
  Beta virt. eigenvalues --    1.75376   1.76220   1.76414   1.77232   1.78694
  Beta virt. eigenvalues --    1.78797   1.79443   1.80573   1.82226   1.83745
  Beta virt. eigenvalues --    1.84032   1.85276   1.85457   1.85943   1.87621
  Beta virt. eigenvalues --    1.88810   1.88982   1.89137   1.90398   1.91245
  Beta virt. eigenvalues --    1.91554   1.93532   1.94017   1.94518   1.95176
  Beta virt. eigenvalues --    1.95597   1.96134   1.96645   1.97207   1.98218
  Beta virt. eigenvalues --    1.99368   2.01058   2.01714   2.01928   2.03707
  Beta virt. eigenvalues --    2.03774   2.04533   2.06207   2.08535   2.09425
  Beta virt. eigenvalues --    2.10633   2.12737   2.12940   2.15255   2.17730
  Beta virt. eigenvalues --    2.18697   2.18854   2.19329   2.20917   2.22499
  Beta virt. eigenvalues --    2.23022   2.24468   2.25021   2.28675   2.32672
  Beta virt. eigenvalues --    2.33527   2.35555   2.38058   2.39255   2.39895
  Beta virt. eigenvalues --    2.41683   2.42360   2.43634   2.43774   2.44766
  Beta virt. eigenvalues --    2.44906   2.49853   2.51472   2.55143   2.55975
  Beta virt. eigenvalues --    2.57239   2.59565   2.61069   2.61478   2.64009
  Beta virt. eigenvalues --    2.65341   2.65742   2.67986   2.68866   2.69638
  Beta virt. eigenvalues --    2.70693   2.71530   2.71850   2.72021   2.72368
  Beta virt. eigenvalues --    2.73013   2.73950   2.74601   2.74797   2.75100
  Beta virt. eigenvalues --    2.75694   2.76331   2.76651   2.78012   2.78086
  Beta virt. eigenvalues --    2.79603   2.80274   2.80304   2.80604   2.83336
  Beta virt. eigenvalues --    2.84095   2.84541   2.84866   2.86560   2.87681
  Beta virt. eigenvalues --    2.88763   2.89579   2.89843   2.90699   2.93582
  Beta virt. eigenvalues --    2.97248   2.98796   2.99710   3.02138   3.05741
  Beta virt. eigenvalues --    3.08435   3.09519   3.10484   3.11277   3.11346
  Beta virt. eigenvalues --    3.12404   3.13117   3.19257   3.20916   3.22514
  Beta virt. eigenvalues --    3.24623   3.26807   3.31187   3.32772   3.35339
  Beta virt. eigenvalues --    3.37114   3.37523   3.39017   3.40838   3.42328
  Beta virt. eigenvalues --    3.43086   3.43555   3.45936   3.49211   3.53961
  Beta virt. eigenvalues --    3.55535   3.57977   3.60839   3.61673   3.65820
  Beta virt. eigenvalues --    3.71354   3.75592   3.79806   3.81148   3.90804
  Beta virt. eigenvalues --    3.99021   4.02623   4.03962   4.03995   4.05609
  Beta virt. eigenvalues --    4.12219   4.13068   4.20602   4.27172   4.34021
  Beta virt. eigenvalues --    4.53009   4.67520   4.72402   4.81462   4.82034
  Beta virt. eigenvalues --    4.82734   4.85443  23.38071  23.60864  23.74320
  Beta virt. eigenvalues --   23.80210  23.82348  23.86380  23.87341  23.90175
  Beta virt. eigenvalues --   23.90763  23.90845  23.94979  23.96555  23.98991
  Beta virt. eigenvalues --   24.00430  24.05772  24.06303  24.06741  24.10213
  Beta virt. eigenvalues --   24.13279  24.15209  24.17580  24.19095
          Condensed to atoms (all electrons):
               1          2          3          4          5          6
     1  C    9.808898  -1.369088  -1.454613   0.852299  -0.002467   0.849197
     2  C   -1.369088  10.391692  -0.297114  -1.635982   0.202615  -0.470041
     3  C   -1.454613  -0.297114   7.665633   0.475076  -0.193745  -0.072781
     4  C    0.852299  -1.635982   0.475076   9.471653  -2.067000  -1.339997
     5  C   -0.002467   0.202615  -0.193745  -2.067000   9.069652   1.571759
     6  C    0.849197  -0.470041  -0.072781  -1.339997   1.571759   6.448892
     7  C   -0.899818   0.112013   0.198074   0.191096  -0.303151  -0.405503
     8  C   -0.175333  -0.775442  -0.142541   0.076591   0.063890   0.096501
     9  C   -0.255022  -0.045189  -0.285738  -0.168736  -0.332631   0.233791
    10  C   -0.092150  -0.010472  -0.382389  -0.002195  -0.239397   0.110182
    11  C   -0.016938   0.176733   0.094460   0.004250  -0.041959  -0.215208
    12  C   -0.206903  -0.678603  -0.166308  -0.001623   0.183404   0.035233
    13  C   -0.025667  -0.018634   0.189690   0.080082  -0.017212  -0.127180
    14  C    0.073060   0.060416   0.323108  -0.002160   0.045076   0.069005
    15  C   -0.026891  -0.023818   0.033295   0.005400  -0.000382  -0.030986
    16  C   -0.387557   0.107479   0.397488   0.007634   0.030565  -0.019496
    17  C   -0.084148  -0.022731  -0.444581  -0.022157  -0.050763  -0.005445
    18  H   -0.061588   0.431254  -0.058516  -0.015079  -0.022446   0.032564
    19  H    0.384909  -0.070280   0.036056  -0.016762  -0.004014   0.004028
    20  H    0.035175  -0.042206  -0.005496   0.356726  -0.051993   0.045172
    21  C   -0.400243  -0.057850  -0.456597   0.416057  -2.103216  -0.858484
    22  C    0.064031   0.126918  -0.071572  -0.212299   0.215836   0.337862
    23  C    0.103554  -0.092280   0.013194  -0.135322   0.063654  -0.105643
    24  H   -0.000096  -0.001018  -0.003048  -0.000010  -0.000064   0.003289
    25  H   -0.000060  -0.000831   0.000923  -0.000010   0.000053   0.000065
    26  H   -0.000590  -0.000450   0.001207   0.000022   0.000014  -0.000403
    27  H    0.000082   0.000693  -0.000254  -0.000005  -0.000010  -0.000009
    28  C   -0.018188   0.043333   0.148427  -0.027091   0.126792  -0.450826
    29  C    0.018690   0.299929  -0.064189  -0.097599  -0.403208   0.303651
    30  H    0.003142   0.005989  -0.004489   0.068323  -0.112486   0.000982
    31  H   -0.000646  -0.000035  -0.003580   0.011231  -0.018385  -0.012976
    32  H    0.000249   0.000297   0.004826  -0.000419   0.006690  -0.006521
    33  H   -0.000014   0.000468   0.005686   0.000055   0.000672  -0.002324
               7          8          9         10         11         12
     1  C   -0.899818  -0.175333  -0.255022  -0.092150  -0.016938  -0.206903
     2  C    0.112013  -0.775442  -0.045189  -0.010472   0.176733  -0.678603
     3  C    0.198074  -0.142541  -0.285738  -0.382389   0.094460  -0.166308
     4  C    0.191096   0.076591  -0.168736  -0.002195   0.004250  -0.001623
     5  C   -0.303151   0.063890  -0.332631  -0.239397  -0.041959   0.183404
     6  C   -0.405503   0.096501   0.233791   0.110182  -0.215208   0.035233
     7  C    7.204571   0.322633  -0.115511   0.489872   0.496194  -0.221173
     8  C    0.322633   6.297887   0.373636   0.586905   0.191911   0.303611
     9  C   -0.115511   0.373636   7.180103  -0.374831  -0.691366  -0.221696
    10  C    0.489872   0.586905  -0.374831   8.125588   0.738973  -0.914731
    11  C    0.496194   0.191911  -0.691366   0.738973   6.937585   0.871060
    12  C   -0.221173   0.303611  -0.221696  -0.914731   0.871060  10.094531
    13  C    0.969525  -0.083416  -0.158432  -0.578838   0.381586   0.558358
    14  C   -0.393062  -0.732493   0.351827  -0.014012  -1.399278  -2.799515
    15  C   -0.239903  -0.084355  -0.043573  -0.329268  -0.369843  -0.468094
    16  C   -0.707458  -0.115632  -0.269009  -0.380243  -0.415552  -0.846996
    17  C    0.147042   0.237595  -0.061250   0.086578   0.101494   1.080433
    18  H    0.020384   0.002045   0.000105   0.003140  -0.000391   0.000703
    19  H   -0.003450   0.002467   0.001695  -0.000018   0.000046  -0.000481
    20  H   -0.002021   0.002661  -0.008408  -0.000432  -0.000047   0.000031
    21  C    0.198859  -0.281407   0.879673   0.098501  -0.054712  -0.041619
    22  C   -0.041123   0.132696   1.024456   0.540173  -0.279371  -0.250728
    23  C   -0.882561  -0.181686   1.240499  -1.428188  -1.332230  -0.692327
    24  H   -0.019096   0.031738  -0.005128  -0.021246   0.357113  -0.083535
    25  H   -0.011675   0.006274   0.000805   0.027311   0.049263  -0.114719
    26  H   -0.010501   0.002321  -0.000431  -0.001036   0.001125   0.003617
    27  H    0.006198   0.001210   0.000134   0.005269   0.009021   0.044195
    28  C   -0.120797   0.331826  -1.066482  -0.476867   0.385553  -0.091889
    29  C   -0.119688  -0.568027  -1.131166   0.103353   0.070543   0.015497
    30  H    0.004613   0.000543  -0.009883   0.001731   0.000227   0.000127
    31  H    0.005636  -0.011008   0.035775   0.010256   0.000435  -0.000303
    32  H   -0.000028  -0.001145   0.024203  -0.004793  -0.000354   0.002827
    33  H    0.000114   0.013099  -0.018470  -0.056242   0.073425   0.026621
              13         14         15         16         17         18
     1  C   -0.025667   0.073060  -0.026891  -0.387557  -0.084148  -0.061588
     2  C   -0.018634   0.060416  -0.023818   0.107479  -0.022731   0.431254
     3  C    0.189690   0.323108   0.033295   0.397488  -0.444581  -0.058516
     4  C    0.080082  -0.002160   0.005400   0.007634  -0.022157  -0.015079
     5  C   -0.017212   0.045076  -0.000382   0.030565  -0.050763  -0.022446
     6  C   -0.127180   0.069005  -0.030986  -0.019496  -0.005445   0.032564
     7  C    0.969525  -0.393062  -0.239903  -0.707458   0.147042   0.020384
     8  C   -0.083416  -0.732493  -0.084355  -0.115632   0.237595   0.002045
     9  C   -0.158432   0.351827  -0.043573  -0.269009  -0.061250   0.000105
    10  C   -0.578838  -0.014012  -0.329268  -0.380243   0.086578   0.003140
    11  C    0.381586  -1.399278  -0.369843  -0.415552   0.101494  -0.000391
    12  C    0.558358  -2.799515  -0.468094  -0.846996   1.080433   0.000703
    13  C    6.927694  -0.967756   0.163134  -0.068984  -0.803816   0.005174
    14  C   -0.967756  10.543450   0.498144   1.655277  -1.616834  -0.001212
    15  C    0.163134   0.498144   6.374169  -0.136845   0.743556  -0.001864
    16  C   -0.068984   1.655277  -0.136845   9.202522  -1.599007   0.000284
    17  C   -0.803816  -1.616834   0.743556  -1.599007   8.198141   0.003611
    18  H    0.005174  -0.001212  -0.001864   0.000284   0.003611   0.532341
    19  H    0.000185  -0.000097   0.000054   0.002426   0.001085  -0.006496
    20  H   -0.000152   0.000004  -0.000002   0.000116   0.000045  -0.000232
    21  C    0.032231  -0.022335  -0.001897   0.044697   0.009493  -0.005490
    22  C   -0.125335  -0.086101  -0.006221   0.031209   0.021821   0.002240
    23  C   -0.501797   0.382014  -0.118166  -0.210542  -0.010103   0.000190
    24  H   -0.018784   0.030622   0.011349   0.002749   0.002069   0.000000
    25  H    0.003442   0.415482  -0.033817  -0.001339  -0.009595   0.000000
    26  H    0.040068  -0.024743   0.004938  -0.096385   0.415468  -0.000021
    27  H    0.012078  -0.066980   0.362611  -0.014340  -0.015971  -0.000000
    28  C    0.020790  -0.140558  -0.002485  -0.086464   0.017033   0.000424
    29  C   -0.025340   0.021404   0.001953  -0.021265  -0.011508  -0.001234
    30  H   -0.000166   0.000005   0.000002  -0.000001  -0.000008  -0.000001
    31  H   -0.000055  -0.000042   0.000000   0.000115   0.000006   0.000000
    32  H    0.000171   0.000313  -0.000005   0.000137  -0.000008   0.000000
    33  H    0.007493   0.004800   0.000756  -0.000025  -0.000018   0.000000
              19         20         21         22         23         24
     1  C    0.384909   0.035175  -0.400243   0.064031   0.103554  -0.000096
     2  C   -0.070280  -0.042206  -0.057850   0.126918  -0.092280  -0.001018
     3  C    0.036056  -0.005496  -0.456597  -0.071572   0.013194  -0.003048
     4  C   -0.016762   0.356726   0.416057  -0.212299  -0.135322  -0.000010
     5  C   -0.004014  -0.051993  -2.103216   0.215836   0.063654  -0.000064
     6  C    0.004028   0.045172  -0.858484   0.337862  -0.105643   0.003289
     7  C   -0.003450  -0.002021   0.198859  -0.041123  -0.882561  -0.019096
     8  C    0.002467   0.002661  -0.281407   0.132696  -0.181686   0.031738
     9  C    0.001695  -0.008408   0.879673   1.024456   1.240499  -0.005128
    10  C   -0.000018  -0.000432   0.098501   0.540173  -1.428188  -0.021246
    11  C    0.000046  -0.000047  -0.054712  -0.279371  -1.332230   0.357113
    12  C   -0.000481   0.000031  -0.041619  -0.250728  -0.692327  -0.083535
    13  C    0.000185  -0.000152   0.032231  -0.125335  -0.501797  -0.018784
    14  C   -0.000097   0.000004  -0.022335  -0.086101   0.382014   0.030622
    15  C    0.000054  -0.000002  -0.001897  -0.006221  -0.118166   0.011349
    16  C    0.002426   0.000116   0.044697   0.031209  -0.210542   0.002749
    17  C    0.001085   0.000045   0.009493   0.021821  -0.010103   0.002069
    18  H   -0.006496  -0.000232  -0.005490   0.002240   0.000190   0.000000
    19  H    0.539679  -0.007060   0.005538   0.000786  -0.000052  -0.000000
    20  H   -0.007060   0.539903   0.002926   0.006799   0.000298  -0.000000
    21  C    0.005538   0.002926   9.218358  -0.742320  -0.070860   0.000166
    22  C    0.000786   0.006799  -0.742320   8.167873  -0.831162   0.007454
    23  C   -0.000052   0.000298  -0.070860  -0.831162  10.163262   0.028802
    24  H   -0.000000  -0.000000   0.000166   0.007454   0.028802   0.547374
    25  H   -0.000000   0.000000   0.000009   0.000175   0.004296   0.001720
    26  H    0.000000  -0.000000   0.000000   0.000032  -0.000083  -0.000001
    27  H   -0.000000  -0.000000   0.000001   0.000022   0.000477  -0.000005
    28  C    0.000082  -0.000291  -0.441091  -1.338381   0.787116   0.006478
    29  C   -0.000904   0.000934   0.623907  -0.903814  -0.035340   0.000164
    30  H   -0.000003   0.002861   0.367185   0.001199  -0.000764  -0.000000
    31  H   -0.000000  -0.000014   0.027690  -0.069909  -0.003857   0.000000
    32  H   -0.000000   0.000000  -0.002918  -0.076812   0.008791  -0.000014
    33  H   -0.000000  -0.000000  -0.001653  -0.035108   0.327092   0.003158
              25         26         27         28         29         30
     1  C   -0.000060  -0.000590   0.000082  -0.018188   0.018690   0.003142
     2  C   -0.000831  -0.000450   0.000693   0.043333   0.299929   0.005989
     3  C    0.000923   0.001207  -0.000254   0.148427  -0.064189  -0.004489
     4  C   -0.000010   0.000022  -0.000005  -0.027091  -0.097599   0.068323
     5  C    0.000053   0.000014  -0.000010   0.126792  -0.403208  -0.112486
     6  C    0.000065  -0.000403  -0.000009  -0.450826   0.303651   0.000982
     7  C   -0.011675  -0.010501   0.006198  -0.120797  -0.119688   0.004613
     8  C    0.006274   0.002321   0.001210   0.331826  -0.568027   0.000543
     9  C    0.000805  -0.000431   0.000134  -1.066482  -1.131166  -0.009883
    10  C    0.027311  -0.001036   0.005269  -0.476867   0.103353   0.001731
    11  C    0.049263   0.001125   0.009021   0.385553   0.070543   0.000227
    12  C   -0.114719   0.003617   0.044195  -0.091889   0.015497   0.000127
    13  C    0.003442   0.040068   0.012078   0.020790  -0.025340  -0.000166
    14  C    0.415482  -0.024743  -0.066980  -0.140558   0.021404   0.000005
    15  C   -0.033817   0.004938   0.362611  -0.002485   0.001953   0.000002
    16  C   -0.001339  -0.096385  -0.014340  -0.086464  -0.021265  -0.000001
    17  C   -0.009595   0.415468  -0.015971   0.017033  -0.011508  -0.000008
    18  H    0.000000  -0.000021  -0.000000   0.000424  -0.001234  -0.000001
    19  H   -0.000000   0.000000  -0.000000   0.000082  -0.000904  -0.000003
    20  H    0.000000  -0.000000  -0.000000  -0.000291   0.000934   0.002861
    21  C    0.000009   0.000000   0.000001  -0.441091   0.623907   0.367185
    22  C    0.000175   0.000032   0.000022  -1.338381  -0.903814   0.001199
    23  C    0.004296  -0.000083   0.000477   0.787116  -0.035340  -0.000764
    24  H    0.001720  -0.000001  -0.000005   0.006478   0.000164  -0.000000
    25  H    0.547529  -0.000255  -0.007717  -0.000095  -0.000001   0.000000
    26  H   -0.000255   0.533455  -0.007783   0.000009   0.000000   0.000000
    27  H   -0.007717  -0.007783   0.540997   0.000012   0.000000  -0.000000
    28  C   -0.000095   0.000009   0.000012   8.654345  -0.237613   0.008560
    29  C   -0.000001   0.000000   0.000000  -0.237613   8.087272   0.000845
    30  H    0.000000   0.000000  -0.000000   0.008560   0.000845   0.532376
    31  H    0.000000   0.000000   0.000000   0.012744   0.354484  -0.005140
    32  H   -0.000000   0.000000  -0.000000   0.361801   0.020448  -0.000005
    33  H    0.000001  -0.000000  -0.000000  -0.017786   0.006646  -0.000000
              31         32         33
     1  C   -0.000646   0.000249  -0.000014
     2  C   -0.000035   0.000297   0.000468
     3  C   -0.003580   0.004826   0.005686
     4  C    0.011231  -0.000419   0.000055
     5  C   -0.018385   0.006690   0.000672
     6  C   -0.012976  -0.006521  -0.002324
     7  C    0.005636  -0.000028   0.000114
     8  C   -0.011008  -0.001145   0.013099
     9  C    0.035775   0.024203  -0.018470
    10  C    0.010256  -0.004793  -0.056242
    11  C    0.000435  -0.000354   0.073425
    12  C   -0.000303   0.002827   0.026621
    13  C   -0.000055   0.000171   0.007493
    14  C   -0.000042   0.000313   0.004800
    15  C    0.000000  -0.000005   0.000756
    16  C    0.000115   0.000137  -0.000025
    17  C    0.000006  -0.000008  -0.000018
    18  H    0.000000   0.000000   0.000000
    19  H   -0.000000  -0.000000  -0.000000
    20  H   -0.000014   0.000000  -0.000000
    21  C    0.027690  -0.002918  -0.001653
    22  C   -0.069909  -0.076812  -0.035108
    23  C   -0.003857   0.008791   0.327092
    24  H    0.000000  -0.000014   0.003158
    25  H    0.000000  -0.000000   0.000001
    26  H    0.000000   0.000000  -0.000000
    27  H    0.000000  -0.000000  -0.000000
    28  C    0.012744   0.361801  -0.017786
    29  C    0.354484   0.020448   0.006646
    30  H   -0.005140  -0.000005  -0.000000
    31  H    0.530761   0.002481  -0.000003
    32  H    0.002481   0.528185  -0.005258
    33  H   -0.000003  -0.005258   0.534219
          Atomic-Atomic Spin Densities.
               1          2          3          4          5          6
     1  C    0.664769  -0.192279  -0.231332   0.163509   0.021871   0.058690
     2  C   -0.192279   0.486544   0.159549  -0.120798  -0.040850  -0.025189
     3  C   -0.231332   0.159549   0.229980  -0.071949   0.005778  -0.003027
     4  C    0.163509  -0.120798  -0.071949   0.093856   0.007880   0.007476
     5  C    0.021871  -0.040850   0.005778   0.007880   0.076415   0.032145
     6  C    0.058690  -0.025189  -0.003027   0.007476   0.032145   0.029929
     7  C   -0.147324   0.075165   0.038686  -0.030330  -0.032392  -0.046368
     8  C   -0.057598  -0.075288  -0.029590  -0.007271   0.000590  -0.001861
     9  C   -0.025710   0.016907  -0.016121  -0.001155  -0.044980  -0.025700
    10  C   -0.008460  -0.015294  -0.038360   0.001256  -0.002953  -0.001594
    11  C    0.010968   0.028075   0.023322   0.000854  -0.000130   0.001559
    12  C   -0.070375  -0.151157  -0.098062  -0.005947   0.002027  -0.001354
    13  C    0.033196   0.090295   0.004377   0.003260  -0.004865  -0.005701
    14  C    0.004208   0.016148   0.003079   0.000434  -0.000431  -0.002749
    15  C   -0.011761  -0.035696  -0.008527  -0.001011   0.000510   0.001485
    16  C   -0.090774  -0.009449  -0.052835  -0.018773  -0.000770  -0.014063
    17  C   -0.066197  -0.115424   0.012870  -0.007990   0.001360   0.003282
    18  H   -0.006898   0.006985   0.004310  -0.000803   0.000870  -0.001539
    19  H   -0.002082   0.001833   0.001044  -0.001197  -0.000363  -0.000031
    20  H    0.000545  -0.002100  -0.000455   0.001701   0.000479   0.000503
    21  C   -0.046756   0.008690  -0.041207   0.005277  -0.093283  -0.055428
    22  C    0.011873  -0.004065  -0.015382   0.002770  -0.001032   0.002532
    23  C    0.003108   0.006656   0.017098  -0.001350  -0.000615   0.000002
    24  H    0.000040   0.000343   0.001121   0.000002   0.000014   0.000027
    25  H    0.000021   0.000236   0.000391   0.000001  -0.000000  -0.000018
    26  H   -0.000867  -0.003169   0.000212  -0.000045   0.000001   0.000034
    27  H   -0.000041  -0.000416  -0.000167  -0.000002   0.000001   0.000014
    28  C    0.008430   0.008230   0.030062  -0.002404   0.015313   0.011270
    29  C    0.020423   0.003199   0.040133  -0.010461   0.058622   0.031942
[...]
 -0.00008554,0.00000140,0.59309869,0.00034816,0.00125670,-0.00000910,-0
 .00141159,-0.00027743,-0.00004351,0.00247835,-0.00063915,0.00007790,0.
 00109261,-0.00067607,0.00003156,-0.00140015,-0.00005308,-0.00006466,-0
 .00069537,-0.00537389,0.00023200,-0.00159992,0.00142554,-0.00008568,-0
 .00706513,-0.00305825,-0.00020231,0.04214320,-0.01626361,0.00173258,-0
 .02501606,-0.03824391,0.00007227,0.00705607,0.00211774,0.00025727,-0.0
 0018217,-0.00360434,0.00007020,-0.00135195,-0.00052309,-0.00002995,0.0
 0096816,0.00084434,-0.00000020,0.00089435,-0.00068171,0.00004430,-0.00
 004222,0.00015829,-0.00000180,-0.00055981,-0.00036463,-0.00001103,0.00
 007778,-0.00005480,0.00000182,0.00003135,0.00006265,-0.00000066,0.0000
 1205,-0.00006147,0.00000323,-0.00349993,-0.00337923,0.00005175,0.05726
 250,-0.13412506,0.00324358,-0.14522271,-0.22579141,-0.00111575,-0.0002
 8024,-0.00001877,-0.00001166,-0.00001860,0.00004864,-0.00000154,-0.000
 02207,-0.00000630,-0.00000119,-0.00000309,-0.00009893,0.00000311,0.028
 79482,0.72370836,0.00001419,0.00007163,0.00026935,-0.00002683,0.000002
 93,-0.00028183,-0.00004369,0.00000173,-0.00056485,0.00006547,-0.000108
 73,-0.00077855,0.00001051,0.00027329,-0.00113573,-0.00023353,0.0002743
 5,0.00727666,0.00004061,0.00030452,-0.00039665,-0.00044513,-0.00051910
 ,-0.00230553,-0.00085095,0.00198437,0.00544166,0.00072949,-0.00062796,
 0.00383143,-0.00002979,0.00075187,0.00411567,0.00016596,-0.00034905,0.
 00018278,-0.00027301,-0.00018447,0.00005173,0.00008143,0.00016959,-0.0
 0065160,0.00011356,-0.00012269,0.00016169,0.00001771,0.00014999,0.0001
 3178,-0.00015238,-0.00003172,-0.00006072,-0.00000014,-0.00000086,-0.00
 008401,0.00000184,-0.00000070,-0.00001828,-0.00000217,0.00000040,0.000
 08143,0.00022072,-0.00025413,0.00460126,-0.00567607,0.00248886,-0.0603
 0015,-0.00360565,0.00029010,-0.05842094,0.00000833,0.00001007,-0.00017
 004,-0.00000302,0.00000064,0.00000015,-0.00000180,-0.00000182,-0.00003
 184,-0.00000026,0.00000057,0.00006062,0.01361581,-0.01096356,0.1324720
 5,0.01087440,0.01506824,0.00003183,-0.01621049,0.00141151,-0.00052598,
 0.00093900,-0.01176994,0.00028625,0.01132677,-0.02027643,0.00060989,0.
 00514542,0.06083228,-0.00118628,-0.03654120,0.01450825,-0.00135936,-0.
 00036558,0.00055650,-0.00000825,0.00022363,-0.00156222,-0.00017710,0.0
 2629738,-0.05167148,0.00166449,-0.00187379,-0.01053623,0.00018289,0.00
 247320,0.00547128,-0.00001033,0.00069158,-0.00459350,0.00009971,-0.002
 05880,-0.00202627,-0.00000796,0.00111374,0.00214386,-0.00000746,0.0010
 3541,-0.00177775,0.00006847,0.00012203,0.00174429,-0.00002797,-0.00171
 766,-0.00039692,-0.00004716,-0.00023448,-0.00004064,-0.00001399,0.0001
 4861,0.00010938,0.00001952,-0.00010959,-0.00048240,0.00001121,-0.29071
 225,0.07053534,-0.00853672,-0.19957962,-0.04222484,-0.00343944,0.00694
 276,0.01507084,-0.00020984,-0.00000401,0.00010302,-0.00000510,-0.00003
 931,0.00002864,-0.00000193,-0.00004514,-0.00003308,-0.00000101,0.00003
 450,-0.00004098,0.00000205,-0.03893036,-0.01519303,-0.00088635,0.59719
 008,0.00062694,-0.00099078,0.00003963,-0.00061238,-0.00035219,-0.00001
 280,0.00225569,0.00042839,0.00004709,-0.00461694,-0.00283500,0.0000094
 2,0.02926717,-0.02524766,0.00148835,0.00313086,-0.00023031,0.00006376,
 -0.00239983,-0.00071095,-0.00006878,0.00130437,-0.00532287,0.00028686,
 -0.03478824,-0.03198774,-0.00031298,0.00105445,-0.00171315,0.00004773,
 -0.00053096,0.00022418,-0.00003597,-0.00004511,0.00022351,0.00000304,0
 .00041525,0.00002396,0.00000273,-0.00015039,0.00003924,-0.00000627,0.0
 0001855,0.00014714,-0.00000299,-0.00007575,-0.00030696,0.00000170,0.00
 019804,0.00002550,0.00000706,-0.00001472,0.00001728,0.00000419,-0.0000
 2640,-0.00053793,-0.00000115,0.00030649,-0.00003905,0.00000700,0.12365
 726,-0.18149138,0.00625364,-0.07387609,-0.15587317,-0.00036247,0.00538
 020,-0.00037389,0.00025210,-0.00002847,-0.00005238,0.00000207,0.000008
 94,-0.00001162,0.00000061,0.00000151,0.00000761,0.00000008,-0.00000526
 ,0.00001697,-0.00000061,0.00586220,0.01513353,-0.00012721,-0.03353198,
 0.71226763,0.00032160,0.00048406,0.00001970,-0.00048511,0.00004953,-0.
 00006651,0.00000488,-0.00038469,-0.00067986,0.00029533,-0.00047242,0.0
 0475044,-0.00055421,0.00246071,0.00402777,-0.00113056,0.00041423,-0.00
 188608,0.00005099,0.00002210,-0.00046162,-0.00023469,0.00019888,0.0069
 9496,0.00132601,-0.00083268,0.00589582,-0.00004947,-0.00030914,-0.0009
 4766,0.00011007,0.00014870,-0.00075793,0.00000847,-0.00013690,0.000449
 38,-0.00005696,-0.00007247,-0.00047876,0.00003860,0.00006434,-0.000042
 89,0.00003244,-0.00005828,-0.00002857,0.00000856,0.00005769,-0.0001080
 7,-0.00005913,-0.00001124,0.00007289,-0.00001460,0.00000341,0.00024858
 ,0.00002222,0.00000299,-0.00055508,-0.00000456,-0.00001730,-0.00016010
 ,-0.00959964,0.00461809,-0.05954399,-0.00280535,0.00061146,-0.06047293
 ,-0.00001557,0.00055045,0.00394171,-0.00000247,0.00000612,0.00009457,-
 0.00000154,0.00000121,0.00000488,-0.00000171,-0.00000099,0.00000925,0.
 00000133,-0.00000171,-0.00000538,-0.00130772,-0.00077503,-0.00026615,0
 .01499391,-0.01265230,0.13246648,-0.00011925,-0.00038218,0.00000937,0.
 00030710,-0.00007050,0.00001210,0.00014307,0.00048697,-0.00002401,0.00
 083861,0.00019051,0.00009233,0.00419751,0.00189407,0.00001605,0.001145
 69,0.00059378,-0.00010123,-0.00003904,-0.00002535,-0.00001100,0.000020
 93,-0.00002597,0.00001884,0.00023816,0.00069503,0.00002513,-0.00000867
 ,0.00008299,-0.00000664,0.00002812,-0.00000925,0.00000065,-0.00001667,
 0.00000887,-0.00000003,0.00003220,0.00002642,0.00001040,0.00001233,-0.
 00000657,-0.00000131,-0.00000218,-0.00000211,-0.00000009,-0.00000945,-
 0.00001711,-0.00000011,0.00000897,-0.00001972,0.00000079,0.00000035,-0
 .00002094,-0.00000194,0.00000011,-0.00004478,-0.00000205,0.00000267,-0
 .00063264,0.00000348,-0.25512599,-0.12254026,-0.00433610,-0.00273351,0
 .00377878,-0.00042461,-0.00040133,0.00027101,-0.00000331,-0.00000730,0
 .00000122,-0.00000018,-0.00000418,0.00000275,-0.00000011,0.00000018,-0
 .00000351,0.00000008,-0.00000505,-0.00000527,0.,-0.00028158,-0.0011633
 8,0.00000035,-0.01967904,-0.01584027,-0.00040034,0.27071234,0.00032922
 ,0.00007758,0.00000509,-0.00019460,0.00007650,-0.00000832,-0.00118110,
 0.00037377,-0.00003176,-0.00061692,0.00172406,-0.00009928,-0.02773184,
 -0.01119320,-0.00058110,0.00156879,-0.00621950,0.00025418,-0.00019761,
 -0.00052347,0.00001113,-0.00034220,-0.00005368,-0.00002094,0.00089762,
 -0.00041973,0.00001538,0.00009283,-0.00014435,0.00000882,-0.00005107,-
 0.00001758,-0.00000096,-0.00004766,-0.00000181,-0.00000186,-0.00007749
 ,0.00016236,-0.00001211,-0.00002154,-0.00000082,0.00000054,-0.00001188
 ,0.00001603,-0.00000065,-0.00000158,-0.00002782,0.00000061,0.00002911,
 -0.00000209,0.00000086,0.00007990,-0.00002952,0.00000460,0.00002279,-0
 .00003784,0.00000338,0.00098841,-0.00027451,0.00004199,-0.12488245,-0.
 13501753,-0.00183564,0.00327010,-0.00115535,0.00029595,0.00023382,-0.0
 0001363,-0.00000194,-0.00000767,-0.00000506,-0.00000018,-0.00000659,-0
 .00000292,-0.00000019,-0.00000055,-0.00000267,0.00000003,-0.00000427,-
 0.00000192,-0.00000012,0.00024539,0.00066461,0.00000353,0.01517940,0.0
 1052113,0.00032909,0.13252499,0.14050917,-0.00000491,-0.00001686,-0.00
 017432,0.00001462,-0.00000448,-0.00003910,0.00000938,0.00001964,0.0006
 0491,0.00010853,-0.00007445,-0.00227845,0.00060991,0.00033177,0.002453
 62,-0.00012086,0.00022418,0.00403892,-0.00000752,0.00001640,0.00033406
 ,0.00002521,-0.00001119,-0.00057307,0.00002099,0.00000908,-0.00103027,
 -0.00000686,0.00000853,0.00015259,0.00000150,0.00000033,0.00001292,0.0
 0000109,-0.00000012,-0.00002113,0.00001248,-0.00000892,-0.00032216,-0.
 00000100,0.00000100,0.00005909,0.00000010,-0.00000035,0.00000204,-0.00
 000043,0.00000014,0.00000527,-0.00000019,-0.00000064,-0.00000376,-0.00
 000396,0.00000149,0.00007687,-0.00000341,0.00000131,0.00009586,-0.0000
 2900,-0.00000795,0.00030107,-0.00429077,-0.00176436,-0.03473592,-0.000
 41434,0.00031158,0.00858601,-0.00000259,-0.00000084,-0.00046989,0.,0.0
 0000010,-0.00000208,0.00000007,0.00000010,-0.00000232,0.00000002,-0.00
 000006,-0.00000021,-0.00000002,-0.00000016,-0.00000152,-0.00002780,-0.
 00003985,0.00046343,-0.00102041,-0.00062569,0.00359974,0.00493516,0.00
 175370,0.02439557,-0.00022107,0.00038212,0.00000725,-0.00028089,0.0000
 0775,-0.00001485,0.00014256,-0.00029007,0.00003192,0.00085782,0.000842
 12,-0.00000445,-0.00467135,0.00180688,-0.00045132,-0.00081940,0.000338
 69,-0.00000684,-0.00047637,-0.00018807,-0.00001099,0.00085992,-0.00119
 313,0.00003521,-0.00535990,-0.00252170,-0.00025537,0.00017444,-0.00004
 811,0.00000919,-0.00001910,0.00007143,-0.00000302,-0.00000114,-0.00003
 246,0.00000108,0.00013381,-0.00011399,0.00000888,0.00001416,0.00001430
 ,0.00000031,-0.00001495,-0.00002091,0.00000006,-0.00004493,-0.00001765
 ,-0.00000025,-0.00000233,-0.00000812,-0.00000015,0.00001033,-0.0000002
 3,-0.00000270,0.00002561,0.00014114,0.00000019,-0.00003327,-0.00001536
 ,-0.00000623,0.00302634,0.02870446,-0.00057885,0.00460333,-0.02729871,
 0.00061543,-0.00006652,0.00021954,-0.00000284,-0.00002276,-0.00001513,
 -0.00000068,-0.00000462,-0.00000150,-0.00000022,-0.00000397,-0.0000051
 9,-0.00000020,0.00000003,-0.00000114,-0.00000008,0.00188003,-0.0000503
 9,0.00012252,-0.05796547,-0.00815850,-0.00054980,0.00087619,-0.0001403
 9,0.00020106,0.05783236,0.00030691,-0.00010204,-0.00000263,-0.00000347
 ,0.00005026,0.00000281,-0.00003149,-0.00008622,-0.00001337,-0.00046077
 ,-0.00048451,0.00000460,0.00251125,0.00101845,0.00023333,-0.00003350,0
 .00063630,-0.00003011,-0.00023780,-0.00023972,-0.00000243,0.00079563,-
 0.00025200,0.00003937,-0.00336283,0.00012938,-0.00001449,-0.00002066,0
 .00015012,-0.00000552,-0.00004250,-0.00002060,-0.00000024,-0.00003577,
 0.00003589,-0.00000212,0.00012226,0.00001670,0.00000182,0.00001281,-0.
 00002088,0.00000071,-0.00003223,-0.00000268,-0.00000100,-0.00004202,-0
 .00004623,-0.00000087,0.00002527,-0.00001382,0.00000121,0.00000127,-0.
 00002182,0.00000244,-0.00000980,-0.00007219,-0.00000030,0.00004442,0.0
 0000065,0.00000494,-0.00236639,-0.01223598,0.00023555,0.00209435,-0.01
 091970,0.00033046,-0.00034594,-0.00011631,-0.00001066,-0.00002517,-0.0
 0001245,-0.00000034,-0.00000941,0.00000113,-0.00000024,-0.00000133,-0.
 00000695,0.00000021,-0.00000633,-0.00000586,0.,0.00067863,0.00074117,-
 0.00003538,-0.00576597,-0.33251396,0.00578222,0.00029186,0.00097365,-0
 .00012189,0.00684011,0.35338932,0.00000886,-0.00000040,-0.00070627,-0.
 00001461,0.00000321,0.00019591,0.00002672,-0.00002142,-0.00070481,0.00
 002159,0.00004466,0.00045338,-0.00046539,0.00021200,0.00880230,0.00000
 074,-0.00001860,-0.00081741,-0.00001002,-0.00000091,0.00000359,-0.0000
 0459,-0.00002184,0.00049290,-0.00023872,0.00001170,0.00457090,0.000008
 65,-0.00000633,-0.00009276,-0.00000074,0.00000325,0.00003241,0.0000011
 4,-0.00000201,-0.00001473,0.00000414,-0.00000547,-0.00008010,0.0000003
 4,0.00000075,-0.00000526,0.00000028,-0.00000065,-0.00000305,0.00000023
 ,-0.00000012,-0.00002508,-0.00000081,0.00000018,0.00000762,-0.00000274
 ,0.00000240,0.00009816,0.00000321,0.00000433,-0.00007238,-0.00000743,0
 .00000311,0.00017882,0.00004319,0.00119112,0.00313619,0.00002670,-0.00
 057462,0.00237463,0.00000847,0.00000669,-0.00011713,-0.00000048,-0.000
 00003,0.00000914,-0.00000007,0.,0.00000366,-0.00000027,0.00000010,0.00
 000580,0.00000002,0.00000015,0.00000338,0.00010800,-0.00005776,-0.0020
 6447,-0.00059757,0.00570918,-0.03491926,0.00019250,-0.00013518,-0.0055
 5683,0.00089329,-0.00637607,0.02450984,-0.00003669,0.00003036,-0.00000
 114,0.00012119,0.00014130,0.00000240,-0.00053899,0.00012160,-0.0000184
 1,0.00000216,-0.00006289,0.00000016,0.00013847,0.00000597,0.00000571,0
 .00079385,0.00137837,-0.00001230,0.00011039,0.00032582,0.00001400,-0.0
 0062188,-0.00059729,0.00001311,-0.00627434,0.00131779,-0.00033878,-0.0
 0389983,-0.00250644,-0.00036048,0.00091675,-0.00063669,0.00002959,-0.0
 0023720,-0.00036574,0.00003068,-0.00018012,-0.00014444,-0.00000774,0.0
 0013268,0.00000945,0.00000666,0.00005399,-0.00009772,0.00000067,0.0000
 3588,0.00011739,-0.00000393,-0.00010993,-0.00003595,-0.00000200,-0.000
 05159,0.00004521,-0.00000271,-0.00000423,0.00000076,-0.00000010,-0.000
 02949,0.00001237,-0.00000128,-0.00010908,-0.00020060,0.00000532,0.0000
 6339,0.02900991,-0.00066012,0.00681410,-0.02566144,0.00060955,-0.00002
 801,0.00001254,-0.00001008,0.00000017,0.00000910,0.00000045,-0.0000009
 7,-0.00000115,0.00000046,0.00000348,-0.00001690,-0.00000011,-0.0675372
 0,0.05286129,-0.00205195,0.00194555,0.00023963,0.00010591,-0.00003135,
 -0.00000708,-0.00000336,-0.00040844,-0.00083785,-0.00000127,0.06806249
 ,0.00003925,0.00002177,0.00000038,-0.00007297,-0.00004016,-0.00000242,
 0.00017882,-0.00014743,0.00000805,0.00002749,-0.00001416,0.00000190,0.
 00005879,0.00018968,-0.00000302,-0.00061804,-0.00021646,-0.00000877,0.
 00004929,-0.00002431,-0.00000915,-0.00015469,0.00053976,-0.00002873,0.
 00219764,0.00091698,0.00012691,-0.00323529,0.00025390,0.00008435,0.000
 64041,-0.00057814,0.00003869,-0.00029943,-0.00016309,-0.00002584,0.000
 00683,0.00003117,0.00000290,0.00009858,-0.00004603,0.00000216,-0.00004
 629,-0.00006079,0.00000171,-0.00000185,0.00001401,0.00000140,-0.000029
 22,-0.00000332,-0.00000126,0.00001626,-0.00001952,0.00000103,0.0000114
 0,-0.00000554,0.00000043,0.00002263,-0.00000338,0.00000085,0.00033567,
 -0.00012606,0.00000983,-0.00031368,-0.00612449,0.00016594,0.00548623,-
 0.01629122,0.00056940,-0.00004991,-0.00000532,0.00000440,-0.00001120,0
 .00000520,-0.00000086,0.00000026,-0.00000747,-0.00000015,-0.00000235,-
 0.00001606,0.00000061,0.05012464,-0.32256794,0.00729483,-0.00042209,0.
 00069039,-0.00005990,0.00005113,-0.00001041,0.00000343,0.00074563,0.00
 005160,0.00002546,-0.05454064,0.34279520,-0.00000132,0.00000010,-0.000
 01965,0.00000671,0.00000416,-0.00004891,-0.00001954,0.00000630,-0.0000
 2118,-0.00000166,-0.00000089,0.00003799,0.00000464,-0.00000461,-0.0000
 5051,0.00002765,0.00005264,0.00029648,0.00001958,-0.00000070,-0.000556
 36,0.00000414,-0.00004229,-0.00065792,-0.00035630,0.00010009,0.0038674
 9,-0.00034597,0.00010705,0.00943283,0.00000406,-0.00000064,0.00037007,
 0.00002927,-0.00002798,-0.00099356,-0.00001079,-0.00000172,0.00016551,
 0.00000488,-0.00000059,-0.00008973,-0.00000037,0.00000013,0.00009577,-
 0.00000152,0.00000507,0.00008663,-0.00000214,-0.00000146,-0.00002163,-
 0.00000212,0.00000192,0.00000681,-0.00000031,0.00000010,-0.00000157,-0
 .00000149,0.00000053,0.00000401,-0.00000540,-0.00000671,-0.00015118,-0
 .00007256,0.00106764,0.00261568,-0.00001402,-0.00038943,0.00371326,-0.
 00000883,0.00000634,0.00029104,0.00000086,-0.00000023,-0.00002043,0.00
 000043,-0.00000019,-0.00001521,-0.00000040,0.00000017,0.00001815,-0.00
 199750,0.00737963,-0.03545731,0.00011908,-0.00003952,-0.00164797,-0.00
 000452,0.00000164,0.00008224,-0.00003295,-0.00002325,0.00017704,0.0024
 4118,-0.00805686,0.02444828,-0.00000881,-0.00000298,0.00000078,0.00002
 000,-0.00000275,0.00000989,-0.00008267,0.00009226,-0.00001274,0.000007
 89,0.00001092,-0.00000051,0.00002918,-0.00004569,-0.00000326,-0.000029
 20,0.00004944,0.00001515,0.00001434,-0.00049579,-0.00000879,0.00120869
 ,0.00053498,-0.00008152,0.00048372,-0.00048003,0.00005492,-0.00034347,
 -0.00024343,-0.00007596,0.00078197,-0.00037345,0.00008920,0.00003923,0
 .00037902,-0.00000113,0.00016222,0.00008336,0.00000405,-0.00010850,-0.
 00007306,-0.00000225,-0.00005497,0.00009229,-0.00000373,0.00002079,-0.
 00005068,0.00000036,0.00007239,0.00005394,0.00000178,0.00000050,0.0000
 0850,-0.00000044,-0.00001069,0.00000610,-0.00000286,-0.00000923,-0.000
 00427,-0.00000018,-0.00028993,-0.00032257,0.00001551,-0.00137899,-0.00
 389115,-0.00024409,-0.29293732,0.09555712,-0.00986895,0.00005353,0.000
 69095,-0.00002125,0.00001371,-0.00000834,-0.00000004,0.00000268,0.0000
 0555,-0.00000032,0.00000454,0.00001409,-0.00000006,-0.01923940,0.01075
 712,-0.00092580,-0.00043727,0.00097376,-0.00004689,-0.00009996,0.00006
 213,-0.00000268,-0.00002047,-0.00005354,-0.00000338,0.00090480,-0.0002
 9330,0.00021720,0.31123072,0.00008264,0.00007514,0.00000039,-0.0000236
 0,0.00014735,-0.00000969,0.00025443,-0.00052828,0.00002387,0.00009639,
 -0.00005856,0.00000449,-0.00011143,-0.00013567,0.00000260,0.00033467,0
 .00007488,-0.00000229,0.00116726,0.00052208,0.00003791,-0.00058054,-0.
 00637419,0.00018035,-0.00059200,-0.00051015,-0.00002780,0.02939761,-0.
 00684163,0.00108690,0.00058323,0.00184083,-0.00005653,-0.00036673,-0.0
 0000352,-0.00001464,0.00012239,0.00018379,-0.00000040,0.00004830,-0.00
 003403,0.00000241,0.00000646,0.00000398,0.00000024,-0.00010512,-0.0000
 0366,-0.00000231,0.00002788,-0.00007973,0.00000204,-0.00000875,-0.0000
 0052,-0.00000007,0.00002091,0.00001070,0.00000200,0.00000450,-0.000003
 51,0.00000020,-0.00027658,-0.00010399,-0.00001813,-0.00317718,-0.00251
 117,0.00013437,0.09799246,-0.09680957,0.00426613,-0.00095632,-0.000302
 88,-0.00001745,-0.00002566,-0.00001598,-0.00000006,-0.00000750,-0.0000
 0324,0.00000002,-0.00000492,-0.00000670,-0.00000007,-0.02044518,0.0097
 0149,-0.00074587,-0.00041707,0.00082454,-0.00002024,-0.00009059,0.0000
 5657,-0.00000498,0.00000656,-0.00002070,0.00000310,0.00007397,0.000961
 62,-0.00013642,-0.10303049,0.09994470,-0.00000093,-0.00000226,-0.00003
 217,0.00001032,-0.00000905,-0.00029912,-0.00001600,0.00001885,0.000270
 43,-0.00000224,0.00000186,0.00001725,-0.00000192,0.00000464,0.00016476
 ,0.00000941,-0.00001106,-0.00055339,-0.00004210,-0.00001319,0.00062277
 ,-0.00005904,0.00021465,0.00350269,0.00005722,-0.00002442,-0.00098630,
 -0.00067022,0.00017558,0.00226450,0.00006999,-0.00008595,-0.00187074,0
 .00001383,0.00000826,-0.00017091,0.00000325,-0.00000159,-0.00002367,-0
 .00000468,-0.00000131,0.00001215,-0.00000200,0.00000287,0.00000600,0.0
 0000145,-0.00000064,0.00004220,0.00000230,0.00000284,-0.00002074,-0.00
 000009,0.00000045,0.00000916,-0.00000316,0.00000154,0.00007807,-0.0000
 0036,-0.00000007,-0.00000053,0.00001461,-0.00001958,-0.00058324,-0.000
 25835,0.00011238,0.00907489,-0.00991655,0.00419085,-0.03469148,0.00001
 179,0.00003320,0.00029294,0.00000031,0.00000047,0.00002043,-0.00000006
 ,0.00000042,0.00000937,0.00000032,0.00000052,-0.00000256,-0.00030171,0
 .00021400,0.00384697,-0.00001908,0.00002252,0.00045264,0.00000037,-0.0
 0000028,-0.00005317,-0.00000458,0.00000125,0.00012388,0.00020990,-0.00
 014771,-0.00595615,0.01089800,-0.00469007,0.02443309\\0.00005659,0.000
 02752,0.00000118,-0.00006948,-0.00002679,-0.00000183,0.00001359,-0.000
 00026,0.00000017,-0.00002664,-0.00003134,-0.00000086,-0.00001483,-0.00
 006055,-0.00000063,0.00002099,0.00005090,0.,-0.00000166,-0.00013113,0.
 00000266,-0.00006722,0.00016370,-0.00000497,-0.00000763,-0.00008964,0.
 00000137,0.00013074,0.00004408,0.00000178,-0.00003584,-0.00015199,0.00
 000146,0.00000135,0.00005053,-0.00000092,-0.00003977,0.00012674,-0.000
 00388,-0.00000169,-0.00000127,0.00000010,-0.00001363,0.00001585,-0.000
 00078,0.00007790,-0.00011435,0.00000471,-0.00001847,0.00006135,-0.0000
 0180,0.00001299,-0.00000100,0.00000045,-0.00000752,-0.00000065,-0.0000
 0007,0.00000149,0.00000410,0.,0.00000884,0.00003138,0.00000506,-0.0000
 4398,0.00003126,0.00000004,0.00003412,0.00004132,0.00000441,0.00000648
 ,0.00001885,-0.00000017,-0.00000159,-0.00000939,0.00000015,-0.00001076
 ,-0.00001434,-0.00000003,0.00001991,-0.00001046,0.00000081,-0.00002493
 ,-0.00005988,-0.00000271,0.00000100,0.00000149,-0.00000311,-0.00000591
 ,0.00000359,-0.00000131,0.00000470,0.00001025,-0.00000031,-0.00001363,
 0.00000340,-0.00000060,0.00001448,0.00001671,-0.00000039\\\@


 HE THAT WALD REACHE THE SWEITE ROSE
 SULD NOW AND THEN BE SCRATCHED WT THE SCHARPE BREERES.
 -- PROVERBS AND REASONS OF THE YEAR 1585
           AS REPRINTED IN PAISLEY MAGAZINE 1828.
 Job cpu time:       0 days  9 hours 56 minutes 37.0 seconds.
 Elapsed time:       0 days  0 hours 29 minutes 50.5 seconds.
 File lengths (MBytes):  RWF=   1813 Int=      0 D2E=      0 Chk=     34 Scr=      1
 Normal termination of Gaussian 16 at Mon Mar 25 16:37:58 2019.
