 Entering Gaussian System, Link 0=/share/apps/gaussian16/g16/g16
 Initial command:
 /share/apps/gaussian16/g16/l1.exe "/home/am2145//scratch/3535/Gau-35953.inp" -scrdir="/home/am2145//scratch/3535/"
 Entering Link 1 = /share/apps/gaussian16/g16/l1.exe PID=     35954.
  
 Copyright (c) 1988,1990,1992,1993,1995,1998,2003,2009,2016,
            Gaussian, Inc.  All Rights Reserved.
  
 This is part of the Gaussian(R) 16 program.  It is based on
 the Gaussian(R) 09 system (copyright 2009, Gaussian, Inc.),
 the Gaussian(R) 03 system (copyright 2003, Gaussian, Inc.),
 the Gaussian(R) 98 system (copyright 1998, Gaussian, Inc.),
 the Gaussian(R) 94 system (copyright 1995, Gaussian, Inc.),
 the Gaussian 92(TM) system (copyright 1992, Gaussian, Inc.),
 the Gaussian 90(TM) system (copyright 1990, Gaussian, Inc.),
 the Gaussian 88(TM) system (copyright 1988, Gaussian, Inc.),
 the Gaussian 86(TM) system (copyright 1986, Carnegie Mellon
 University), and the Gaussian 82(TM) system (copyright 1983,
 Carnegie Mellon University). Gaussian is a federally registered
 trademark of Gaussian, Inc.
  
 This software contains proprietary and confidential information,
 including trade secrets, belonging to Gaussian, Inc.
  
 This software is provided under written license and may be
 used, copied, transmitted, or stored only in accord with that
 written license.
  
 The following legend is applicable only to US Government
 contracts under FAR:
  
                    RESTRICTED RIGHTS LEGEND
  
 Use, reproduction and disclosure by the US Government is
 subject to restrictions as set forth in subparagraphs (a)
 and (c) of the Commercial Computer Software - Restricted
 Rights clause in FAR 52.227-19.
  
 Gaussian, Inc.
 340 Quinnipiac St., Bldg. 40, Wallingford CT 06492
  
  
 ---------------------------------------------------------------
 Warning -- This program may not be used in any manner that
 competes with the business of Gaussian, Inc. or will provide
 assistance to any competitor of Gaussian, Inc.  The licensee
 of this program is prohibited from giving any competitor of
 Gaussian, Inc. access to this program.  By using this program,
 the user acknowledges that Gaussian, Inc. is engaged in the
 business of creating and licensing software in the field of
 computational chemistry and represents and warrants to the
 licensee that it is not a competitor of Gaussian, Inc. and that
 it will not use this program in any manner prohibited above.
 ---------------------------------------------------------------
  

 Cite this work as:
 Gaussian 16, Revision A.03,
 M. J. Frisch, G. W. Trucks, H. B. Schlegel, G. E. Scuseria, 
 M. A. Robb, J. R. Cheeseman, G. Scalmani, V. Barone, 
 G. A. Petersson, H. Nakatsuji, X. Li, M. Caricato, A. V. Marenich, 
 J. Bloino, B. G. Janesko, R. Gomperts, B. Mennucci, H. P. Hratchian, 
 J. V. Ortiz, A. F. Izmaylov, J. L. Sonnenberg, D. Williams-Young, 
 F. Ding, F. Lipparini, F. Egidi, J. Goings, B. Peng, A. Petrone, 
 T. Henderson, D. Ranasinghe, V. G. Zakrzewski, J. Gao, N. Rega, 
 G. Zheng, W. Liang, M. Hada, M. Ehara, K. Toyota, R. Fukuda, 
 J. Hasegawa, M. Ishida, T. Nakajima, Y. Honda, O. Kitao, H. Nakai, 
 T. Vreven, K. Throssell, J. A. Montgomery, Jr., J. E. Peralta, 
 F. Ogliaro, M. J. Bearpark, J. J. Heyd, E. N. Brothers, K. N. Kudin, 
 V. N. Staroverov, T. A. Keith, R. Kobayashi, J. Normand, 
 K. Raghavachari, A. P. Rendell, J. C. Burant, S. S. Iyengar, 
 J. Tomasi, M. Cossi, J. M. Millam, M. Klene, C. Adamo, R. Cammi, 
 J. W. Ochterski, R. L. Martin, K. Morokuma, O. Farkas, 
 J. B. Foresman, and D. J. Fox, Gaussian, Inc., Wallingford CT, 2016.
 
 ******************************************
 Gaussian 16:  ES64L-G16RevA.03 25-Dec-2016
                25-Mar-2019 
 ******************************************
 %nprocshared=20
 Will use up to   20 processors via shared memory.
 %mem=100GB
 %chk=7-memb-2b.chk
 -------------------------------------------
 # opt freq b3lyp/6-311+g(d,p) int=grid=fine
 -------------------------------------------
 1/18=20,19=15,26=3,38=1/1,3;
 2/9=110,12=2,17=6,18=5,40=1/2;
 3/5=4,6=6,7=111,11=2,25=1,30=1,71=1,74=-5,75=-4/1,2,3;
 4//1;
 5/5=2,38=5/2;
 6/7=2,8=2,9=2,10=2,28=1/1;
 7//1,2,3,16;
 1/18=20,19=15,26=3/3(2);
 2/9=110/2;
 99//99;
 2/9=110/2;
 3/5=4,6=6,7=111,11=2,25=1,30=1,71=1,74=-5,75=-4/1,2,3;
 4/5=5,16=3,69=1/1;
 5/5=2,38=5/2;
 7//1,2,3,16;
 1/18=20,19=15,26=3/3(-5);
 2/9=110/2;
 6/7=2,8=2,9=2,10=2,19=2,28=1/1;
 99/9=1/99;
 ---------
 7-memb-2b
 ---------
 Symbolic Z-matrix:
 Charge =  0 Multiplicity = 2
 C                    -7.12522   0.28974   0. 
 C                    -5.72993   0.65878   0. 
 C                    -4.63948  -0.04032   0. 
 C                    -7.40945  -1.0454    0. 
 C                    -6.30289  -2.0376    0. 
 C                    -4.96083  -1.46801   0. 
 C                    -3.18959   0.10658   0. 
 C                    -2.71041  -1.294     0. 
 C                    -3.84031  -2.19156   0. 
 C                    -1.44345  -1.74921   0. 
 C                    -0.43889  -0.69121   0. 
 C                    -0.83991   0.73101   0. 
 C                    -2.29726   1.11262   0. 
 C                     0.07379   1.72577   0. 
 C                    -0.30873   3.1348    0. 
 C                    -2.64309   2.52429   0. 
 C                    -1.59596   3.52681   0. 
 H                    -7.89623   1.05028   0. 
 H                    -8.42986  -1.41002   0. 
 C                    -6.35744  -3.51425   0. 
 C                    -3.79633  -3.63293   0. 
 C                    -1.27465  -3.22055   0. 
 H                     0.6104   -0.95922   0. 
 H                     1.13864   1.51366   0. 
 H                    -3.67845   2.84189   0. 
 H                    -1.87495   4.57438   0. 
 H                     0.49114   3.86901   0. 
 C                    -2.42701  -4.16084   0. 
 C                    -5.10286  -4.31171   0. 
 H                    -7.3133   -4.02214   0. 
 H                    -5.15514  -5.39273   0. 
 H                    -2.24982  -5.22834   0. 
 H                    -0.2724   -3.63309   0. 
 

 GradGradGradGradGradGradGradGradGradGradGradGradGradGradGradGradGradGrad
 Berny optimization.
 Initialization pass.
                           ----------------------------
                           !    Initial Parameters    !
                           ! (Angstroms and Degrees)  !
 --------------------------                            --------------------------
 ! Name  Definition              Value          Derivative Info.                !
 --------------------------------------------------------------------------------
 ! R1    R(1,2)                  1.4433         estimate D2E/DX2                !
 ! R2    R(1,4)                  1.3651         estimate D2E/DX2                !
 ! R3    R(1,18)                 1.083          estimate D2E/DX2                !
 ! R4    R(2,3)                  1.2953         estimate D2E/DX2                !
 ! R5    R(3,6)                  1.4634         estimate D2E/DX2                !
 ! R6    R(3,7)                  1.4573         estimate D2E/DX2                !
 ! R7    R(4,5)                  1.4862         estimate D2E/DX2                !
 ! R8    R(4,19)                 1.0836         estimate D2E/DX2                !
 ! R9    R(5,6)                  1.4579         estimate D2E/DX2                !
 ! R10   R(5,20)                 1.4777         estimate D2E/DX2                !
 ! R11   R(6,9)                  1.3338         estimate D2E/DX2                !
 ! R12   R(7,8)                  1.4803         estimate D2E/DX2                !
 ! R13   R(7,13)                 1.3448         estimate D2E/DX2                !
 ! R14   R(8,9)                  1.443          estimate D2E/DX2                !
 ! R15   R(8,10)                 1.3463         estimate D2E/DX2                !
 ! R16   R(9,21)                 1.442          estimate D2E/DX2                !
 ! R17   R(10,11)                1.4589         estimate D2E/DX2                !
 ! R18   R(10,22)                1.481          estimate D2E/DX2                !
 ! R19   R(11,12)                1.4777         estimate D2E/DX2                !
 ! R20   R(11,23)                1.083          estimate D2E/DX2                !
 ! R21   R(12,13)                1.5065         estimate D2E/DX2                !
 ! R22   R(12,14)                1.3507         estimate D2E/DX2                !
 ! R23   R(13,16)                1.4534         estimate D2E/DX2                !
 ! R24   R(14,15)                1.46           estimate D2E/DX2                !
 ! R25   R(14,24)                1.0858         estimate D2E/DX2                !
 ! R26   R(15,17)                1.3456         estimate D2E/DX2                !
 ! R27   R(15,27)                1.0858         estimate D2E/DX2                !
 ! R28   R(16,17)                1.4497         estimate D2E/DX2                !
 ! R29   R(16,25)                1.083          estimate D2E/DX2                !
 ! R30   R(17,26)                1.0841         estimate D2E/DX2                !
 ! R31   R(20,29)                1.4866         estimate D2E/DX2                !
 ! R32   R(20,30)                1.0824         estimate D2E/DX2                !
 ! R33   R(21,28)                1.4676         estimate D2E/DX2                !
 ! R34   R(21,29)                1.4723         estimate D2E/DX2                !
 ! R35   R(22,28)                1.4873         estimate D2E/DX2                !
 ! R36   R(22,33)                1.0838         estimate D2E/DX2                !
 ! R37   R(28,32)                1.0821         estimate D2E/DX2                !
 ! R38   R(29,31)                1.0823         estimate D2E/DX2                !
 ! A1    A(2,1,4)              116.8329         estimate D2E/DX2                !
 ! A2    A(2,1,18)             120.5768         estimate D2E/DX2                !
 ! A3    A(4,1,18)             122.5904         estimate D2E/DX2                !
 ! A4    A(1,2,3)              132.5207         estimate D2E/DX2                !
 ! A5    A(2,3,6)              109.9794         estimate D2E/DX2                !
 ! A6    A(2,3,7)              141.5502         estimate D2E/DX2                !
 ! A7    A(6,3,7)              108.4703         estimate D2E/DX2                !
 ! A8    A(1,4,5)              119.8631         estimate D2E/DX2                !
 ! A9    A(1,4,19)             121.6811         estimate D2E/DX2                !
 ! A10   A(5,4,19)             118.4557         estimate D2E/DX2                !
 ! A11   A(4,5,6)              115.1218         estimate D2E/DX2                !
 ! A12   A(4,5,20)             129.7654         estimate D2E/DX2                !
 ! A13   A(6,5,20)             115.1127         estimate D2E/DX2                !
 ! A14   A(3,6,5)              125.682          estimate D2E/DX2                !
 ! A15   A(3,6,9)              110.1665         estimate D2E/DX2                !
 ! A16   A(5,6,9)              124.1515         estimate D2E/DX2                !
 ! A17   A(3,7,8)              103.102          estimate D2E/DX2                !
 ! A18   A(3,7,13)             137.3575         estimate D2E/DX2                !
 ! A19   A(8,7,13)             119.5405         estimate D2E/DX2                !
 ! A20   A(7,8,9)              109.5753         estimate D2E/DX2                !
 ! A21   A(7,8,10)             128.6504         estimate D2E/DX2                !
 ! A22   A(9,8,10)             121.7744         estimate D2E/DX2                !
 ! A23   A(6,9,8)              108.686          estimate D2E/DX2                !
 ! A24   A(6,9,21)             124.5991         estimate D2E/DX2                !
 ! A25   A(8,9,21)             126.7149         estimate D2E/DX2                !
 ! A26   A(8,10,11)            113.7528         estimate D2E/DX2                !
 ! A27   A(8,10,22)            116.3077         estimate D2E/DX2                !
 ! A28   A(11,10,22)           129.9395         estimate D2E/DX2                !
 ! A29   A(10,11,12)           120.7374         estimate D2E/DX2                !
 ! A30   A(10,11,23)           119.1877         estimate D2E/DX2                !
 ! A31   A(12,11,23)           120.0749         estimate D2E/DX2                !
 ! A32   A(11,12,13)           120.4203         estimate D2E/DX2                !
 ! A33   A(11,12,14)           121.6854         estimate D2E/DX2                !
 ! A34   A(13,12,14)           117.8943         estimate D2E/DX2                !
 ! A35   A(7,13,12)            116.8986         estimate D2E/DX2                !
 ! A36   A(7,13,16)            124.6627         estimate D2E/DX2                !
 ! A37   A(12,13,16)           118.4387         estimate D2E/DX2                !
 ! A38   A(12,14,15)           122.2437         estimate D2E/DX2                !
 ! A39   A(12,14,24)           121.3024         estimate D2E/DX2                !
 ! A40   A(15,14,24)           116.4539         estimate D2E/DX2                !
 ! A41   A(14,15,17)           122.1259         estimate D2E/DX2                !
 ! A42   A(14,15,27)           117.3607         estimate D2E/DX2                !
 ! A43   A(17,15,27)           120.5133         estimate D2E/DX2                !
 ! A44   A(13,16,17)           119.988          estimate D2E/DX2                !
 ! A45   A(13,16,25)           120.8187         estimate D2E/DX2                !
 ! A46   A(17,16,25)           119.1933         estimate D2E/DX2                !
 ! A47   A(15,17,16)           119.3094         estimate D2E/DX2                !
 ! A48   A(15,17,26)           121.8504         estimate D2E/DX2                !
 ! A49   A(16,17,26)           118.8402         estimate D2E/DX2                !
 ! A50   A(5,20,29)            120.326          estimate D2E/DX2                !
 ! A51   A(5,20,30)            120.0993         estimate D2E/DX2                !
 ! A52   A(29,20,30)           119.5747         estimate D2E/DX2                !
 ! A53   A(9,21,28)            112.8307         estimate D2E/DX2                !
 ! A54   A(9,21,29)            115.7055         estimate D2E/DX2                !
 ! A55   A(28,21,29)           131.4638         estimate D2E/DX2                !
 ! A56   A(10,22,28)           122.6687         estimate D2E/DX2                !
 ! A57   A(10,22,33)           118.9174         estimate D2E/DX2                !
 ! A58   A(28,22,33)           118.4139         estimate D2E/DX2                !
 ! A59   A(21,28,22)           119.7036         estimate D2E/DX2                !
 ! A60   A(21,28,32)           120.5074         estimate D2E/DX2                !
 ! A61   A(22,28,32)           119.789          estimate D2E/DX2                !
 ! A62   A(20,29,21)           120.1052         estimate D2E/DX2                !
 ! A63   A(20,29,31)           119.6729         estimate D2E/DX2                !
 ! A64   A(21,29,31)           120.2219         estimate D2E/DX2                !
 ! D1    D(4,1,2,3)              0.0            estimate D2E/DX2                !
 ! D2    D(18,1,2,3)           180.0            estimate D2E/DX2                !
 ! D3    D(2,1,4,5)              0.0            estimate D2E/DX2                !
 ! D4    D(2,1,4,19)           180.0            estimate D2E/DX2                !
 ! D5    D(18,1,4,5)           180.0            estimate D2E/DX2                !
 ! D6    D(18,1,4,19)            0.0            estimate D2E/DX2                !
 ! D7    D(1,2,3,6)              0.0            estimate D2E/DX2                !
 ! D8    D(1,2,3,7)            180.0            estimate D2E/DX2                !
 ! D9    D(2,3,6,5)              0.0            estimate D2E/DX2                !
 ! D10   D(2,3,6,9)            180.0            estimate D2E/DX2                !
 ! D11   D(7,3,6,5)            180.0            estimate D2E/DX2                !
 ! D12   D(7,3,6,9)              0.0            estimate D2E/DX2                !
 ! D13   D(2,3,7,8)            180.0            estimate D2E/DX2                !
 ! D14   D(2,3,7,13)             0.0            estimate D2E/DX2                !
 ! D15   D(6,3,7,8)              0.0            estimate D2E/DX2                !
 ! D16   D(6,3,7,13)           180.0            estimate D2E/DX2                !
 ! D17   D(1,4,5,6)              0.0            estimate D2E/DX2                !
 ! D18   D(1,4,5,20)           180.0            estimate D2E/DX2                !
 ! D19   D(19,4,5,6)           180.0            estimate D2E/DX2                !
 ! D20   D(19,4,5,20)            0.0            estimate D2E/DX2                !
 ! D21   D(4,5,6,3)              0.0            estimate D2E/DX2                !
 ! D22   D(4,5,6,9)            180.0            estimate D2E/DX2                !
 ! D23   D(20,5,6,3)           180.0            estimate D2E/DX2                !
 ! D24   D(20,5,6,9)             0.0            estimate D2E/DX2                !
 ! D25   D(4,5,20,29)          180.0            estimate D2E/DX2                !
 ! D26   D(4,5,20,30)            0.0            estimate D2E/DX2                !
 ! D27   D(6,5,20,29)            0.0            estimate D2E/DX2                !
 ! D28   D(6,5,20,30)          180.0            estimate D2E/DX2                !
 ! D29   D(3,6,9,8)              0.0            estimate D2E/DX2                !
 ! D30   D(3,6,9,21)           180.0            estimate D2E/DX2                !
 ! D31   D(5,6,9,8)            180.0            estimate D2E/DX2                !
 ! D32   D(5,6,9,21)             0.0            estimate D2E/DX2                !
 ! D33   D(3,7,8,9)              0.0            estimate D2E/DX2                !
 ! D34   D(3,7,8,10)           180.0            estimate D2E/DX2                !
 ! D35   D(13,7,8,9)           180.0            estimate D2E/DX2                !
 ! D36   D(13,7,8,10)            0.0            estimate D2E/DX2                !
 ! D37   D(3,7,13,12)          180.0            estimate D2E/DX2                !
 ! D38   D(3,7,13,16)            0.0            estimate D2E/DX2                !
 ! D39   D(8,7,13,12)            0.0            estimate D2E/DX2                !
 ! D40   D(8,7,13,16)          180.0            estimate D2E/DX2                !
 ! D41   D(7,8,9,6)              0.0            estimate D2E/DX2                !
 ! D42   D(7,8,9,21)           180.0            estimate D2E/DX2                !
 ! D43   D(10,8,9,6)           180.0            estimate D2E/DX2                !
 ! D44   D(10,8,9,21)            0.0            estimate D2E/DX2                !
 ! D45   D(7,8,10,11)            0.0            estimate D2E/DX2                !
 ! D46   D(7,8,10,22)          180.0            estimate D2E/DX2                !
 ! D47   D(9,8,10,11)          180.0            estimate D2E/DX2                !
 ! D48   D(9,8,10,22)            0.0            estimate D2E/DX2                !
 ! D49   D(6,9,21,28)          180.0            estimate D2E/DX2                !
 ! D50   D(6,9,21,29)            0.0            estimate D2E/DX2                !
 ! D51   D(8,9,21,28)            0.0            estimate D2E/DX2                !
 ! D52   D(8,9,21,29)          180.0            estimate D2E/DX2                !
 ! D53   D(8,10,11,12)           0.0            estimate D2E/DX2                !
 ! D54   D(8,10,11,23)         180.0            estimate D2E/DX2                !
 ! D55   D(22,10,11,12)        180.0            estimate D2E/DX2                !
 ! D56   D(22,10,11,23)          0.0            estimate D2E/DX2                !
 ! D57   D(8,10,22,28)           0.0            estimate D2E/DX2                !
 ! D58   D(8,10,22,33)         180.0            estimate D2E/DX2                !
 ! D59   D(11,10,22,28)        180.0            estimate D2E/DX2                !
 ! D60   D(11,10,22,33)          0.0            estimate D2E/DX2                !
 ! D61   D(10,11,12,13)          0.0            estimate D2E/DX2                !
 ! D62   D(10,11,12,14)        180.0            estimate D2E/DX2                !
 ! D63   D(23,11,12,13)        180.0            estimate D2E/DX2                !
 ! D64   D(23,11,12,14)          0.0            estimate D2E/DX2                !
 ! D65   D(11,12,13,7)           0.0            estimate D2E/DX2                !
 ! D66   D(11,12,13,16)        180.0            estimate D2E/DX2                !
 ! D67   D(14,12,13,7)         180.0            estimate D2E/DX2                !
 ! D68   D(14,12,13,16)          0.0            estimate D2E/DX2                !
 ! D69   D(11,12,14,15)        180.0            estimate D2E/DX2                !
 ! D70   D(11,12,14,24)          0.0            estimate D2E/DX2                !
 ! D71   D(13,12,14,15)          0.0            estimate D2E/DX2                !
 ! D72   D(13,12,14,24)        180.0            estimate D2E/DX2                !
 ! D73   D(7,13,16,17)         180.0            estimate D2E/DX2                !
 ! D74   D(7,13,16,25)           0.0            estimate D2E/DX2                !
 ! D75   D(12,13,16,17)          0.0            estimate D2E/DX2                !
 ! D76   D(12,13,16,25)        180.0            estimate D2E/DX2                !
 ! D77   D(12,14,15,17)          0.0            estimate D2E/DX2                !
 ! D78   D(12,14,15,27)        180.0            estimate D2E/DX2                !
 ! D79   D(24,14,15,17)        180.0            estimate D2E/DX2                !
 ! D80   D(24,14,15,27)          0.0            estimate D2E/DX2                !
 ! D81   D(14,15,17,16)          0.0            estimate D2E/DX2                !
 ! D82   D(14,15,17,26)        180.0            estimate D2E/DX2                !
 ! D83   D(27,15,17,16)        180.0            estimate D2E/DX2                !
 ! D84   D(27,15,17,26)          0.0            estimate D2E/DX2                !
 ! D85   D(13,16,17,15)          0.0            estimate D2E/DX2                !
 ! D86   D(13,16,17,26)        180.0            estimate D2E/DX2                !
 ! D87   D(25,16,17,15)        180.0            estimate D2E/DX2                !
 ! D88   D(25,16,17,26)          0.0            estimate D2E/DX2                !
 ! D89   D(5,20,29,21)           0.0            estimate D2E/DX2                !
 ! D90   D(5,20,29,31)         180.0            estimate D2E/DX2                !
 ! D91   D(30,20,29,21)        180.0            estimate D2E/DX2                !
 ! D92   D(30,20,29,31)          0.0            estimate D2E/DX2                !
 ! D93   D(9,21,28,22)           0.0            estimate D2E/DX2                !
 ! D94   D(9,21,28,32)         180.0            estimate D2E/DX2                !
 ! D95   D(29,21,28,22)        180.0            estimate D2E/DX2                !
 ! D96   D(29,21,28,32)          0.0            estimate D2E/DX2                !
 ! D97   D(9,21,29,20)           0.0            estimate D2E/DX2                !
 ! D98   D(9,21,29,31)         180.0            estimate D2E/DX2                !
 ! D99   D(28,21,29,20)        180.0            estimate D2E/DX2                !
 ! D100  D(28,21,29,31)          0.0            estimate D2E/DX2                !
 ! D101  D(10,22,28,21)          0.0            estimate D2E/DX2                !
 ! D102  D(10,22,28,32)        180.0            estimate D2E/DX2                !
 ! D103  D(33,22,28,21)        180.0            estimate D2E/DX2                !
 ! D104  D(33,22,28,32)          0.0            estimate D2E/DX2                !
 --------------------------------------------------------------------------------
 Trust Radius=3.00D-01 FncErr=1.00D-07 GrdErr=1.00D-06 EigMax=2.50D+02 EigMin=1.00D-04
 Number of steps in this run=    198 maximum allowed number of steps=    198.
 GradGradGradGradGradGradGradGradGradGradGradGradGradGradGradGradGradGrad

                          Input orientation:                          
 ---------------------------------------------------------------------
 Center     Atomic      Atomic             Coordinates (Angstroms)
 Number     Number       Type             X           Y           Z
 ---------------------------------------------------------------------
      1          6           0       -7.125220    0.289740    0.000000
      2          6           0       -5.729930    0.658780    0.000000
      3          6           0       -4.639480   -0.040320    0.000000
      4          6           0       -7.409450   -1.045400    0.000000
      5          6           0       -6.302890   -2.037600    0.000000
      6          6           0       -4.960830   -1.468010    0.000000
      7          6           0       -3.189590    0.106580    0.000000
      8          6           0       -2.710410   -1.294000    0.000000
      9          6           0       -3.840310   -2.191560    0.000000
     10          6           0       -1.443450   -1.749210    0.000000
     11          6           0       -0.438890   -0.691210    0.000000
     12          6           0       -0.839910    0.731010    0.000000
     13          6           0       -2.297260    1.112620    0.000000
     14          6           0        0.073790    1.725770    0.000000
     15          6           0       -0.308730    3.134800    0.000000
     16          6           0       -2.643090    2.524290    0.000000
     17          6           0       -1.595960    3.526810    0.000000
     18          1           0       -7.896230    1.050280    0.000000
     19          1           0       -8.429860   -1.410020    0.000000
     20          6           0       -6.357440   -3.514250    0.000000
     21          6           0       -3.796330   -3.632930    0.000000
     22          6           0       -1.274650   -3.220550    0.000000
     23          1           0        0.610400   -0.959220    0.000000
     24          1           0        1.138640    1.513660    0.000000
     25          1           0       -3.678450    2.841890    0.000000
     26          1           0       -1.874950    4.574380    0.000000
     27          1           0        0.491140    3.869010    0.000000
     28          6           0       -2.427010   -4.160840    0.000000
     29          6           0       -5.102860   -4.311710    0.000000
     30          1           0       -7.313300   -4.022140    0.000000
     31          1           0       -5.155140   -5.392730    0.000000
     32          1           0       -2.249820   -5.228340    0.000000
     33          1           0       -0.272400   -3.633090    0.000000
 ---------------------------------------------------------------------
                    Distance matrix (angstroms):
                    1          2          3          4          5
     1  C    0.000000
     2  C    1.443269   0.000000
     3  C    2.507557   1.295308   0.000000
     4  C    1.365059   2.392701   2.946679   0.000000
     5  C    2.468347   2.756583   2.599242   1.486249   0.000000
     6  C    2.788238   2.261581   1.463409   2.484822   1.457929
     7  C    3.939890   2.599664   1.457313   4.374274   3.780231
     8  C    4.690286   3.595949   2.300657   4.705611   3.668631
     9  C    4.116732   3.419810   2.294887   3.748659   2.467388
    10  C    6.036541   4.916536   3.624212   6.007371   4.867990
    11  C    6.757904   5.460547   4.250719   6.979553   6.016582
    12  C    6.300781   4.890553   3.877071   6.805475   6.124488
    13  C    4.897584   3.462542   2.610606   5.549012   5.095975
    14  C    7.340840   5.900986   5.033288   7.979866   7.404391
    15  C    7.386400   5.959873   5.369989   8.239800   7.917302
    16  C    5.008263   3.606759   3.250046   5.954903   5.848502
    17  C    6.407132   5.031432   4.689076   7.396065   7.288199
    18  H    1.082995   2.201392   3.434506   2.151471   3.474728
    19  H    2.142725   3.401405   4.030268   1.083598   2.217624
    20  C    3.880699   4.219946   3.875510   2.683644   1.477657
    21  C    5.144788   4.707184   3.690223   4.444091   2.971182
    22  C    6.822852   5.907514   4.629897   6.508998   5.165517
    23  H    7.835797   6.543524   5.329692   8.020313   6.996891
    24  H    8.354003   6.921566   5.983438   8.922927   8.245472
    25  H    4.288787   2.995754   3.038209   5.388078   5.540497
    26  H    6.776686   5.494797   5.379413   7.887498   7.957696
    27  H    8.415469   7.000521   6.450281   9.304340   9.002604
    28  C    6.471541   5.842775   4.676934   5.876281   4.419343
    29  C    5.026259   5.009889   4.296451   3.998642   2.571313
    30  H    4.315980   4.941465   4.796270   2.978292   2.226955
    31  H    6.014290   6.078746   5.377192   4.897059   3.546016
    32  H    7.363337   6.838812   5.711920   6.642196   5.158314
    33  H    7.896185   6.942966   5.655032   7.591681   6.237980
                    6          7          8          9         10
     6  C    0.000000
     7  C    2.369942   0.000000
     8  C    2.257137   1.480283   0.000000
     9  C    1.333825   2.388490   1.443014   0.000000
    10  C    3.528602   2.548129   1.346255   2.437337   0.000000
    11  C    4.588176   2.864056   2.350140   3.717621   1.458940
    12  C    4.670939   2.431236   2.756707   4.188534   2.552597
    13  C    3.708673   1.344756   2.441826   3.646726   2.986480
    14  C    5.962183   3.642997   4.107406   5.537658   3.791768
    15  C    6.544302   4.179650   5.038089   6.390788   5.014094
    16  C    4.616316   2.478706   3.818883   4.865447   4.438687
    17  C    6.022506   3.773278   4.947950   6.143034   5.278224
    18  H    3.867604   4.800316   5.691079   5.192303   7.033883
    19  H    3.469515   5.455319   5.720627   4.655617   6.994639
    20  C    2.477422   4.810996   4.269700   2.843493   5.221366
    21  C    2.458239   3.788412   2.578724   1.442041   3.014041
    22  C    4.081583   3.838853   2.402707   2.764314   1.480991
    23  H    5.594414   3.946626   3.337642   4.618169   2.200542
    24  H    6.789248   4.551203   4.764257   6.206335   4.160951
    25  H    4.496636   2.778652   4.247668   5.036052   5.106214
    26  H    6.784772   4.657200   5.927552   7.045607   6.338295
    27  H    7.629401   5.263426   6.075080   7.449293   5.941972
    28  C    3.697510   4.335020   2.880814   2.423939   2.604486
    29  C    2.847245   4.814757   3.851025   2.467604   4.467403
    30  H    3.472419   5.835350   5.350640   3.925899   6.294549
    31  H    3.929527   5.840017   4.772451   3.460674   5.201142
    32  H    4.635694   5.417060   3.961209   3.428074   3.571355
    33  H    5.164199   4.742903   3.378644   3.848115   2.218189
                   11         12         13         14         15
    11  C    0.000000
    12  C    1.477676   0.000000
    13  C    2.589854   1.506484   0.000000
    14  C    2.470756   1.350702   2.449047   0.000000
    15  C    3.828223   2.461780   2.836100   1.460030   0.000000
    16  C    3.898453   2.543091   1.453413   2.831796   2.412874
    17  C    4.373843   2.896223   2.513988   2.455974   1.345598
    18  H    7.657983   7.063539   5.599317   7.998594   7.868633
    19  H    8.023234   7.886149   6.631176   9.063401   9.306350
    20  C    6.557346   6.961707   6.155728   8.295693   8.988702
    21  C    4.463868   5.271090   4.976691   6.610105   7.613509
    22  C    2.663842   3.975403   4.452201   5.126829   6.428334
    23  H    1.082977   2.227168   3.570295   2.738087   4.195927
    24  H    2.711098   2.127722   3.459226   1.085770   2.173241
    25  H    4.793490   3.537389   2.213156   3.914720   3.382427
    26  H    5.457903   3.980302   3.487424   3.451401   2.127307
    27  H    4.654091   3.408627   3.920824   2.183497   1.085752
    28  C    3.998869   5.142867   5.275056   6.395794   7.596938
    29  C    5.904290   6.603163   6.106943   7.952916   8.856308
    30  H    7.638888   8.031016   7.178190   9.359891  10.014279
    31  H    6.659377   7.491422   7.105424   8.832596   9.808489
    32  H    4.885183   6.123863   6.341137   7.332040   8.585449
    33  H    2.946587   4.400845   5.159634   5.370031   6.767988
                   16         17         18         19         20
    16  C    0.000000
    17  C    1.449665   0.000000
    18  H    5.456023   6.769535   0.000000
    19  H    6.997535   8.430568   2.517506   0.000000
    20  C    7.089454   8.499895   4.816929   2.953423   0.000000
    21  C    6.264289   7.490227   6.224278   5.139156   2.563858
    22  C    5.905575   6.755006   7.879423   7.380721   5.091268
    23  H    4.766554   4.999249   8.740758   9.051493   7.421521
    24  H    3.914442   3.395705   9.046745  10.005203   9.026134
    25  H    1.082977   2.192232   4.582525   6.376099   6.897645
    26  H    2.189271   1.084084   6.976754   8.875804   9.247630
    27  H    3.410523   2.114967   8.848345  10.365925  10.070530
    28  C    6.688621   7.732439   7.554346   6.603122   3.983260
    29  C    7.265078   8.587243   6.045978   4.414605   1.486578
    30  H    8.041555   9.469669   5.105806   2.840753   1.082414
    31  H    8.305998   9.603435   7.001853   5.156139   2.230294
    32  H    7.762598   8.779532   8.444111   7.264466   4.450915
    33  H    6.597992   7.281207   8.947443   8.454951   6.086200
                   21         22         23         24         25
    21  C    0.000000
    22  C    2.555177   0.000000
    23  H    5.154415   2.943981   0.000000
    24  H    7.130310   5.313823   2.528670   0.000000
    25  H    6.475893   6.521613   5.730853   4.996854   0.000000
    26  H    8.429213   7.818011   6.066110   4.295315   2.500827
    27  H    8.640689   7.306153   4.829703   2.442730   4.294235
    28  C    1.467558   1.487306   4.413188   6.701777   7.113672
    29  C    1.472332   3.980681   6.624238   8.537638   7.294034
    30  H    3.538441   6.091621   8.495087  10.103483   7.767048
    31  H    2.223344   4.447085   7.273064   9.343976   8.365978
    32  H    2.221942   2.232079   5.138701   7.545610   8.195706
    33  H    3.523930   1.083833   2.815833   5.336672   7.316184
                   26         27         28         29         30
    26  H    0.000000
    27  H    2.468993   0.000000
    28  C    8.752648   8.543658   0.000000
    29  C    9.454205   9.910450   2.680100   0.000000
    30  H   10.172306  11.098627   4.888258   2.229326   0.000000
    31  H   10.492994  10.847134   2.993367   1.082283   2.556594
    32  H    9.809885   9.501297   1.082106   2.996673   5.205166
    33  H    8.362460   7.540855   2.218302   4.877896   7.051640
                   31         32         33
    31  H    0.000000
    32  H    2.909967   0.000000
    33  H    5.190133   2.540672   0.000000
 Stoichiometry    C22H11(2)
 Framework group  CS[SG(C22H11)]
 Deg. of freedom    63
 Full point group                 CS      NOp   2
 Largest Abelian subgroup         CS      NOp   2
 Largest concise Abelian subgroup C1      NOp   1
                         Standard orientation:                         
 ---------------------------------------------------------------------
 Center     Atomic      Atomic             Coordinates (Angstroms)
 Number     Number       Type             X           Y           Z
 ---------------------------------------------------------------------
      1          6           0        3.886825    0.180240    0.000000
      2          6           0        2.599650    0.833084    0.000000
      3          6           0        1.387050    0.377647    0.000000
      4          6           0        3.885375   -1.184818    0.000000
      5          6           0        2.595688   -1.923496    0.000000
      6          6           0        1.402531   -1.085680    0.000000
      7          6           0       -0.000000    0.824695   -0.000000
      8          6           0       -0.761653   -0.444605   -0.000000
      9          6           0        0.155411   -1.558734    0.000000
     10          6           0       -2.095819   -0.624617   -0.000000
     11          6           0       -2.856745    0.620171   -0.000000
     12          6           0       -2.166993    1.926988   -0.000000
     13          6           0       -0.662053    1.995188   -0.000000
     14          6           0       -2.852303    3.090923   -0.000000
     15          6           0       -2.183402    4.388713   -0.000000
     16          6           0       -0.028477    3.303237   -0.000000
     17          6           0       -0.842640    4.502682   -0.000000
     18          1           0        4.799914    0.762603    0.000000
     19          1           0        4.806894   -1.754894    0.000000
     20          6           0        2.340030   -3.378868    0.000000
     21          6           0       -0.189213   -2.958990    0.000000
     22          6           0       -2.568771   -2.028059   -0.000000
     23          1           0       -3.938887    0.577667   -0.000000
     24          1           0       -3.937964    3.106337   -0.000000
     25          1           0        1.050421    3.397149    0.000000
     26          1           0       -0.350615    5.468678   -0.000000
     27          1           0       -2.811925    5.274047   -0.000000
     28          6           0       -1.638686   -3.188672   -0.000000
     29          6           0        0.946352   -3.896143    0.000000
     30          1           0        3.168448   -4.075535    0.000000
     31          1           0        0.771263   -4.964170    0.000000
     32          1           0       -2.035335   -4.195460   -0.000000
     33          1           0       -3.635159   -2.221738   -0.000000
 ---------------------------------------------------------------------
 Rotational constants (GHZ):           0.5286506           0.2537039           0.1714322
 Standard basis: 6-311+G(d,p) (5D, 7F)
 There are   429 symmetry adapted cartesian basis functions of A'  symmetry.
 There are   143 symmetry adapted cartesian basis functions of A"  symmetry.
 There are   407 symmetry adapted basis functions of A'  symmetry.
 There are   143 symmetry adapted basis functions of A"  symmetry.
   550 basis functions,   880 primitive gaussians,   572 cartesian basis functions
    72 alpha electrons       71 beta electrons
       nuclear repulsion energy      1533.9126561171 Hartrees.
 NAtoms=   33 NActive=   33 NUniq=   33 SFac= 1.00D+00 NAtFMM=   60 NAOKFM=F Big=F
 Integral buffers will be    131072 words long.
 Raffenetti 2 integral format.
 Two-electron integral symmetry is turned on.
 One-electron integrals computed using PRISM.
 NBasis=   550 RedAO= T EigKep=  1.10D-06  NBF=   407   143
 NBsUse=   536 1.00D-06 EigRej=  7.13D-07 NBFU=   393   143
 ExpMin= 4.38D-02 ExpMax= 4.56D+03 ExpMxC= 6.82D+02 IAcc=2 IRadAn=         4 AccDes= 0.00D+00
 Harris functional with IExCor=  402 and IRadAn=       4 diagonalized for initial guess.
 HarFok:  IExCor=  402 AccDes= 0.00D+00 IRadAn=         4 IDoV= 1 UseB2=F ITyADJ=14
 ICtDFT=  3500011 ScaDFX=  1.000000  1.000000  1.000000  1.000000
 FoFCou: FMM=F IPFlag=           0 FMFlag=      100000 FMFlg1=           0
         NFxFlg=           0 DoJE=T BraDBF=F KetDBF=T FulRan=T
         wScrn=  0.000000 ICntrl=       500 IOpCl=  0 I1Cent=   200000004 NGrid=           0
         NMat0=    1 NMatS0=      1 NMatT0=    0 NMatD0=    1 NMtDS0=    0 NMtDT0=    0
 Petite list used in FoFCou.
 Initial guess orbital symmetries:
 Alpha Orbitals:
       Occupied  (A') (A') (A') (A') (A') (A') (A') (A') (A') (A')
                 (A') (A') (A') (A') (A') (A') (A') (A') (A') (A')
                 (A') (A') (A') (A') (A') (A') (A') (A') (A') (A')
                 (A') (A') (A') (A') (A') (A') (A') (A') (A') (A')
                 (A') (A') (A') (A') (A') (A') (A') (A') (A') (A')
                 (A') (A') (A') (A") (A') (A') (A') (A') (A") (A')
                 (A') (A") (A') (A") (A") (A") (A") (A") (A") (A")
                 (A") (A')
       Virtual   (A") (A") (A") (A") (A") (A") (A") (A") (A') (A')
                 (A') (A") (A') (A') (A') (A') (A') (A') (A') (A")
                 (A') (A') (A') (A") (A") (A') (A") (A') (A') (A")
                 (A') (A") (A') (A') (A') (A") (A") (A') (A') (A')
                 (A') (A") (A") (A') (A') (A') (A") (A') (A') (A')
                 (A') (A") (A') (A') (A") (A') (A') (A") (A') (A')
                 (A') (A') (A") (A') (A') (A') (A") (A') (A') (A")
                 (A') (A') (A') (A') (A") (A') (A') (A') (A") (A')
                 (A') (A') (A") (A') (A') (A") (A') (A') (A') (A")
                 (A') (A') (A") (A') (A') (A') (A") (A') (A') (A')
                 (A') (A') (A') (A') (A') (A') (A') (A') (A') (A')
                 (A') (A') (A') (A') (A') (A') (A') (A') (A') (A')
                 (A') (A') (A') (A') (A") (A') (A") (A') (A') (A")
                 (A') (A') (A") (A') (A") (A') (A') (A") (A') (A')
                 (A") (A") (A') (A") (A') (A") (A') (A') (A") (A")
                 (A") (A') (A') (A') (A') (A") (A') (A") (A') (A')
                 (A") (A') (A') (A') (A") (A") (A') (A") (A') (A')
                 (A") (A") (A') (A') (A") (A') (A') (A') (A') (A')
                 (A') (A') (A') (A') (A') (A') (A") (A') (A') (A')
                 (A') (A") (A') (A') (A') (A') (A') (A') (A") (A')
                 (A") (A") (A') (A') (A') (A") (A') (A") (A") (A')
                 (A") (A") (A") (A') (A') (A") (A') (A') (A") (A")
                 (A") (A') (A") (A') (A') (A') (A') (A') (A') (A")
                 (A') (A') (A') (A') (A') (A') (A') (A') (A') (A')
                 (A") (A') (A') (A") (A') (A") (A') (A") (A') (A")
                 (A') (A") (A') (A') (A") (A') (A') (A") (A") (A')
                 (A") (A') (A") (A') (A') (A') (A') (A') (A') (A')
                 (A") (A') (A') (A") (A") (A') (A") (A") (A') (A")
                 (A') (A') (A") (A") (A') (A') (A") (A") (A') (A')
                 (A") (A') (A") (A') (A') (A") (A") (A') (A') (A')
                 (A') (A') (A") (A') (A') (A') (A') (A") (A') (A')
                 (A') (A') (A") (A') (A") (A') (A") (A') (A") (A')
                 (A") (A') (A') (A') (A") (A') (A') (A') (A") (A")
                 (A') (A') (A') (A') (A') (A") (A") (A') (A') (A')
                 (A") (A') (A') (A') (A') (A") (A') (A') (A") (A')
                 (A") (A') (A") (A') (A') (A') (A") (A") (A') (A')
                 (A') (A") (A') (A') (A') (A") (A') (A') (A') (A')
                 (A') (A") (A') (A') (A") (A") (A') (A') (A') (A")
                 (A') (A") (A") (A') (A") (A') (A") (A") (A") (A')
                 (A") (A") (A') (A') (A") (A') (A") (A') (A') (A')
                 (A') (A') (A') (A') (A') (A') (A') (A') (A') (A')
                 (A') (A') (A') (A') (A') (A') (A') (A') (A') (A')
                 (A') (A') (A') (A') (A') (A') (A') (A') (A') (A')
                 (A') (A') (A') (A') (A') (A') (A') (A') (A') (A')
                 (A') (A') (A') (A') (A') (A') (A') (A') (A') (A')
                 (A') (A') (A') (A') (A') (A') (A') (A') (A') (A')
                 (A') (A') (A') (A')
 Beta  Orbitals:
       Occupied  (A') (A') (A') (A') (A') (A') (A') (A') (A') (A')
                 (A') (A') (A') (A') (A') (A') (A') (A') (A') (A')
                 (A') (A') (A') (A') (A') (A') (A') (A') (A') (A')
                 (A') (A') (A') (A') (A') (A') (A') (A') (A') (A')
                 (A') (A') (A') (A') (A') (A') (A') (A') (A') (A')
                 (A') (A') (A') (A") (A') (A') (A') (A') (A") (A')
                 (A') (A") (A') (A") (A") (A") (A") (A") (A") (A")
                 (A")
       Virtual   (A') (A") (A") (A") (A") (A") (A") (A") (A") (A')
                 (A') (A') (A") (A') (A') (A') (A') (A') (A') (A')
                 (A") (A') (A') (A') (A") (A") (A') (A") (A') (A')
                 (A") (A') (A") (A') (A') (A') (A") (A") (A') (A')
                 (A') (A') (A") (A") (A') (A') (A') (A") (A') (A')
                 (A') (A') (A") (A') (A') (A") (A') (A') (A") (A')
                 (A') (A') (A') (A") (A') (A') (A') (A") (A') (A')
                 (A") (A') (A') (A') (A') (A") (A') (A') (A') (A")
                 (A') (A') (A') (A") (A') (A') (A") (A') (A') (A')
                 (A") (A') (A') (A") (A') (A') (A') (A") (A') (A')
                 (A') (A') (A') (A') (A') (A') (A') (A') (A') (A')
                 (A') (A') (A') (A') (A') (A') (A') (A') (A') (A')
                 (A') (A') (A') (A') (A') (A") (A') (A") (A') (A')
                 (A") (A') (A') (A") (A') (A") (A') (A') (A") (A')
                 (A') (A") (A") (A') (A") (A') (A") (A') (A') (A")
                 (A") (A") (A') (A') (A') (A') (A") (A') (A") (A')
                 (A') (A") (A') (A') (A') (A") (A") (A') (A") (A')
                 (A') (A") (A") (A') (A') (A") (A') (A') (A') (A')
                 (A') (A') (A') (A') (A') (A') (A') (A") (A') (A')
                 (A') (A') (A") (A') (A') (A') (A') (A') (A') (A")
                 (A') (A") (A") (A') (A') (A') (A") (A') (A") (A")
                 (A') (A") (A") (A") (A') (A') (A") (A') (A') (A")
                 (A") (A") (A') (A") (A') (A') (A') (A') (A') (A')
                 (A") (A') (A') (A') (A') (A') (A') (A') (A') (A')
                 (A') (A") (A') (A') (A") (A') (A") (A') (A") (A')
                 (A") (A') (A") (A') (A') (A") (A') (A') (A") (A")
                 (A') (A") (A') (A") (A') (A') (A') (A') (A') (A')
                 (A') (A") (A') (A') (A") (A") (A') (A") (A") (A')
                 (A") (A') (A') (A") (A") (A') (A') (A") (A") (A')
                 (A') (A") (A') (A") (A') (A') (A") (A") (A') (A')
                 (A') (A') (A') (A") (A') (A') (A') (A') (A") (A')
                 (A') (A') (A') (A") (A') (A") (A') (A") (A') (A")
                 (A') (A") (A') (A') (A') (A") (A') (A') (A') (A")
                 (A") (A') (A') (A') (A') (A') (A") (A") (A') (A')
                 (A') (A") (A') (A') (A') (A') (A") (A') (A') (A")
                 (A') (A") (A') (A") (A') (A') (A') (A") (A") (A')
                 (A') (A') (A") (A') (A') (A') (A") (A') (A') (A')
                 (A') (A') (A") (A') (A') (A") (A") (A') (A') (A')
                 (A") (A') (A") (A") (A') (A") (A') (A") (A") (A")
                 (A') (A") (A") (A') (A') (A") (A') (A") (A') (A')
                 (A') (A') (A') (A') (A') (A') (A') (A') (A') (A')
                 (A') (A') (A') (A') (A') (A') (A') (A') (A') (A')
                 (A') (A') (A') (A') (A') (A') (A') (A') (A') (A')
                 (A') (A') (A') (A') (A') (A') (A') (A') (A') (A')
                 (A') (A') (A') (A') (A') (A') (A') (A') (A') (A')
                 (A') (A') (A') (A') (A') (A') (A') (A') (A') (A')
                 (A') (A') (A') (A') (A')
 The electronic state of the initial guess is 2-A'.
 Initial guess <Sx>= 0.0000 <Sy>= 0.0000 <Sz>= 0.5000 <S**2>= 0.7500 S= 0.5000
 Requested convergence on RMS density matrix=1.00D-08 within 128 cycles.
 Requested convergence on MAX density matrix=1.00D-06.
 Requested convergence on             energy=1.00D-06.
 No special actions if energy rises.
 Restarting incremental Fock formation.
 SCF Done:  E(UB3LYP) =  -845.031873591     A.U. after   25 cycles
            NFock= 25  Conv=0.62D-08     -V/T= 2.0057
 <Sx>= 0.0000 <Sy>= 0.0000 <Sz>= 0.5000 <S**2>= 0.7609 S= 0.5054
 <L.S>=  0.00000000000    
 Annihilation of the first spin contaminant:
 S**2 before annihilation     0.7609,   after     0.7501

 **********************************************************************

            Population analysis using the SCF density.

 **********************************************************************

 Orbital symmetries:
 Alpha Orbitals:
       Occupied  (A') (A') (A') (A') (A') (A') (A') (A') (A') (A')
                 (A') (A') (A') (A') (A') (A') (A') (A') (A') (A')
                 (A') (A') (A') (A') (A') (A') (A') (A') (A') (A')
                 (A') (A') (A') (A') (A') (A') (A') (A') (A') (A')
                 (A') (A') (A') (A') (A') (A') (A') (A') (A') (A')
                 (A') (A") (A') (A') (A') (A') (A") (A') (A') (A")
                 (A') (A') (A") (A') (A") (A") (A") (A") (A") (A')
                 (A") (A")
       Virtual   (A") (A") (A") (A") (A") (A') (A") (A') (A') (A')
                 (A') (A') (A') (A") (A') (A") (A') (A") (A') (A')
                 (A") (A") (A') (A') (A') (A") (A") (A') (A") (A')
                 (A") (A') (A") (A') (A') (A") (A") (A') (A") (A')
                 (A') (A') (A') (A") (A') (A") (A') (A') (A') (A')
                 (A") (A') (A') (A') (A") (A') (A') (A") (A') (A')
                 (A") (A') (A') (A') (A") (A') (A") (A') (A') (A')
                 (A") (A') (A') (A') (A') (A") (A') (A') (A") (A')
                 (A') (A') (A") (A') (A') (A') (A') (A") (A') (A")
                 (A') (A') (A') (A') (A') (A') (A') (A') (A') (A')
                 (A') (A') (A') (A') (A') (A') (A') (A') (A') (A')
                 (A') (A') (A') (A') (A') (A') (A') (A') (A') (A')
                 (A') (A') (A") (A') (A") (A') (A') (A") (A') (A")
                 (A') (A') (A") (A') (A') (A") (A') (A") (A") (A')
                 (A") (A') (A") (A') (A") (A') (A") (A') (A") (A')
                 (A') (A") (A') (A") (A') (A') (A") (A') (A') (A')
                 (A") (A") (A') (A') (A') (A") (A') (A') (A') (A")
                 (A') (A") (A') (A') (A") (A') (A') (A') (A') (A')
                 (A') (A') (A') (A') (A') (A') (A') (A') (A') (A')
                 (A") (A') (A') (A') (A') (A') (A") (A') (A') (A')
                 (A') (A') (A") (A') (A") (A") (A') (A") (A") (A")
                 (A') (A') (A") (A") (A") (A') (A') (A") (A') (A")
                 (A') (A') (A") (A") (A') (A") (A') (A') (A') (A')
                 (A") (A') (A') (A') (A') (A') (A') (A') (A') (A')
                 (A") (A') (A') (A") (A") (A') (A") (A') (A") (A')
                 (A") (A') (A') (A') (A") (A') (A") (A') (A") (A")
                 (A') (A') (A") (A') (A') (A') (A') (A') (A') (A')
                 (A") (A') (A") (A') (A") (A') (A") (A") (A') (A")
                 (A') (A') (A") (A") (A') (A') (A") (A') (A') (A")
                 (A') (A") (A') (A') (A") (A") (A') (A') (A") (A')
                 (A') (A') (A') (A") (A') (A') (A') (A") (A') (A')
                 (A') (A") (A') (A") (A') (A') (A") (A') (A") (A')
                 (A") (A') (A') (A") (A') (A') (A') (A") (A') (A")
                 (A') (A') (A') (A') (A') (A") (A") (A') (A') (A")
                 (A') (A') (A') (A') (A') (A') (A') (A') (A") (A')
                 (A") (A") (A') (A") (A') (A') (A') (A') (A') (A')
                 (A') (A') (A") (A") (A') (A') (A') (A') (A') (A')
                 (A") (A') (A") (A') (A') (A") (A") (A') (A") (A')
                 (A") (A") (A') (A") (A") (A') (A") (A") (A") (A')
                 (A") (A") (A') (A") (A') (A") (A') (A') (A') (A')
                 (A') (A') (A') (A') (A') (A') (A') (A') (A') (A')
                 (A') (A') (A') (A') (A') (A') (A') (A') (A') (A')
                 (A') (A') (A') (A') (A') (A') (A') (A') (A') (A')
                 (A') (A') (A') (A') (A') (A') (A') (A') (A') (A')
                 (A') (A') (A') (A') (A') (A') (A') (A') (A') (A')
                 (A') (A') (A') (A') (A') (A') (A') (A') (A') (A')
                 (A') (A') (A') (A')
 Beta  Orbitals:
       Occupied  (A') (A') (A') (A') (A') (A') (A') (A') (A') (A')
                 (A') (A') (A') (A') (A') (A') (A') (A') (A') (A')
                 (A') (A') (A') (A') (A') (A') (A') (A') (A') (A')
                 (A') (A') (A') (A') (A') (A') (A') (A') (A') (A')
                 (A') (A') (A') (A') (A') (A') (A') (A') (A') (A')
                 (A') (A") (A') (A') (A') (A') (A") (A') (A") (A')
                 (A') (A') (A") (A') (A") (A") (A") (A") (A") (A")
                 (A")
       Virtual   (A") (A') (A") (A") (A") (A") (A') (A') (A") (A')
                 (A') (A') (A') (A') (A") (A') (A") (A') (A") (A')
                 (A') (A") (A") (A') (A') (A') (A") (A") (A') (A")
                 (A') (A") (A') (A") (A') (A') (A") (A") (A') (A")
                 (A') (A') (A') (A') (A") (A') (A") (A') (A') (A')
                 (A') (A") (A') (A') (A") (A') (A') (A') (A") (A')
                 (A') (A") (A') (A') (A') (A") (A') (A') (A') (A")
                 (A') (A") (A') (A') (A') (A') (A") (A') (A') (A")
                 (A') (A') (A') (A") (A') (A') (A') (A') (A") (A')
                 (A") (A') (A') (A') (A') (A') (A') (A') (A') (A')
                 (A') (A') (A') (A') (A') (A') (A') (A') (A') (A')
                 (A') (A') (A') (A') (A') (A') (A') (A') (A') (A')
                 (A') (A') (A') (A") (A') (A") (A') (A') (A") (A')
                 (A") (A') (A') (A") (A') (A') (A") (A') (A") (A")
                 (A') (A") (A') (A") (A") (A') (A') (A") (A') (A")
                 (A') (A') (A") (A') (A") (A') (A') (A") (A') (A')
                 (A") (A') (A") (A') (A') (A') (A") (A') (A') (A')
                 (A") (A') (A") (A') (A') (A") (A') (A') (A') (A')
                 (A') (A') (A') (A') (A') (A') (A') (A') (A') (A')
                 (A') (A") (A') (A') (A') (A') (A') (A") (A') (A')
                 (A') (A') (A") (A') (A') (A") (A") (A') (A") (A")
                 (A") (A') (A") (A') (A") (A') (A") (A') (A") (A')
                 (A") (A') (A') (A") (A") (A') (A") (A') (A') (A')
                 (A') (A') (A") (A') (A') (A') (A') (A') (A') (A')
                 (A') (A") (A') (A') (A") (A") (A") (A') (A') (A")
                 (A') (A") (A') (A') (A') (A") (A') (A") (A') (A")
                 (A") (A') (A') (A") (A') (A') (A') (A') (A') (A')
                 (A') (A") (A') (A") (A') (A") (A') (A") (A") (A')
                 (A") (A') (A') (A") (A") (A') (A') (A") (A') (A')
                 (A") (A') (A") (A') (A') (A") (A") (A') (A') (A")
                 (A') (A') (A') (A") (A') (A') (A') (A') (A") (A')
                 (A') (A') (A") (A') (A") (A') (A') (A") (A') (A")
                 (A') (A") (A') (A') (A") (A') (A') (A') (A") (A')
                 (A") (A') (A') (A') (A') (A') (A") (A") (A') (A')
                 (A') (A") (A') (A') (A') (A') (A') (A') (A') (A")
                 (A") (A') (A") (A') (A") (A') (A') (A') (A') (A')
                 (A') (A') (A') (A") (A") (A') (A') (A') (A') (A')
                 (A') (A") (A') (A") (A') (A') (A") (A") (A') (A")
                 (A") (A') (A") (A") (A') (A") (A") (A') (A") (A")
                 (A') (A") (A") (A') (A") (A') (A") (A') (A') (A')
                 (A') (A') (A') (A') (A') (A') (A') (A') (A') (A')
                 (A') (A') (A') (A') (A') (A') (A') (A') (A') (A')
                 (A') (A') (A') (A') (A') (A') (A') (A') (A') (A')
                 (A') (A') (A') (A') (A') (A') (A') (A') (A') (A')
                 (A') (A') (A') (A') (A') (A') (A') (A') (A') (A')
                 (A') (A') (A') (A') (A') (A') (A') (A') (A') (A')
                 (A') (A') (A') (A') (A')
 The electronic state is 2-A'.
 Alpha  occ. eigenvalues --  -10.21386 -10.21199 -10.21113 -10.21089 -10.21027
 Alpha  occ. eigenvalues --  -10.20780 -10.20591 -10.20533 -10.20493 -10.20354
 Alpha  occ. eigenvalues --  -10.20234 -10.20161 -10.19880 -10.19584 -10.19278
 Alpha  occ. eigenvalues --  -10.19224 -10.18766 -10.18684 -10.18422 -10.18393
 Alpha  occ. eigenvalues --  -10.18231 -10.17859  -0.91815  -0.87396  -0.85475
 Alpha  occ. eigenvalues --   -0.82992  -0.81418  -0.78760  -0.77413  -0.76303
 Alpha  occ. eigenvalues --   -0.73769  -0.71918  -0.70486  -0.66540  -0.64242
 Alpha  occ. eigenvalues --   -0.63271  -0.62260  -0.60051  -0.58677  -0.56320
 Alpha  occ. eigenvalues --   -0.53301  -0.52045  -0.51134  -0.49511  -0.48748
 Alpha  occ. eigenvalues --   -0.48540  -0.46141  -0.45463  -0.44315  -0.43860
 Alpha  occ. eigenvalues --   -0.43466  -0.43237  -0.42611  -0.41148  -0.40430
 Alpha  occ. eigenvalues --   -0.39847  -0.38948  -0.38155  -0.36906  -0.36845
 Alpha  occ. eigenvalues --   -0.35918  -0.34798  -0.34269  -0.33385  -0.32010
 Alpha  occ. eigenvalues --   -0.29629  -0.28162  -0.27371  -0.23789  -0.23369
 Alpha  occ. eigenvalues --   -0.22512  -0.20145
 Alpha virt. eigenvalues --   -0.10537  -0.06087  -0.04287  -0.02623   0.00110
 Alpha virt. eigenvalues --    0.00270   0.00664   0.00713   0.00912   0.01804
 Alpha virt. eigenvalues --    0.02094   0.03259   0.03408   0.03598   0.03827
 Alpha virt. eigenvalues --    0.04502   0.05437   0.05541   0.05579   0.06086
 Alpha virt. eigenvalues --    0.06644   0.07334   0.07528   0.07925   0.08089
 Alpha virt. eigenvalues --    0.08375   0.08705   0.09583   0.09903   0.10758
 Alpha virt. eigenvalues --    0.10853   0.11119   0.11300   0.11474   0.12306
 Alpha virt. eigenvalues --    0.12595   0.13491   0.13681   0.14121   0.14137
 Alpha virt. eigenvalues --    0.14361   0.15207   0.15452   0.15531   0.15766
 Alpha virt. eigenvalues --    0.15929   0.16694   0.16819   0.17048   0.17303
 Alpha virt. eigenvalues --    0.17555   0.17725   0.17771   0.18416   0.18494
 Alpha virt. eigenvalues --    0.18900   0.19053   0.19105   0.19705   0.19947
 Alpha virt. eigenvalues --    0.20052   0.20109   0.20658   0.20832   0.20947
 Alpha virt. eigenvalues --    0.21092   0.21862   0.21898   0.21933   0.22406
 Alpha virt. eigenvalues --    0.22730   0.23072   0.23239   0.23662   0.23873
 Alpha virt. eigenvalues --    0.23919   0.24608   0.25005   0.25154   0.25713
 Alpha virt. eigenvalues --    0.26094   0.26517   0.26763   0.26991   0.27176
 Alpha virt. eigenvalues --    0.27533   0.27777   0.28094   0.28635   0.29244
 Alpha virt. eigenvalues --    0.29553   0.30244   0.30821   0.31102   0.31659
 Alpha virt. eigenvalues --    0.32307   0.32862   0.33473   0.33934   0.34583
 Alpha virt. eigenvalues --    0.35052   0.35214   0.35714   0.37256   0.37782
 Alpha virt. eigenvalues --    0.38526   0.39658   0.40023   0.40293   0.41213
 Alpha virt. eigenvalues --    0.41674   0.42710   0.43293   0.44011   0.44891
 Alpha virt. eigenvalues --    0.46805   0.47358   0.47800   0.48757   0.49618
 Alpha virt. eigenvalues --    0.50131   0.51094   0.52136   0.52558   0.53483
 Alpha virt. eigenvalues --    0.53828   0.54197   0.54354   0.54772   0.55569
 Alpha virt. eigenvalues --    0.55625   0.56240   0.56622   0.57052   0.57228
 Alpha virt. eigenvalues --    0.58062   0.58301   0.59431   0.60075   0.60313
 Alpha virt. eigenvalues --    0.60911   0.61084   0.61712   0.62541   0.62700
 Alpha virt. eigenvalues --    0.63302   0.63508   0.63758   0.64216   0.64541
 Alpha virt. eigenvalues --    0.65254   0.65442   0.66556   0.66745   0.67333
 Alpha virt. eigenvalues --    0.67717   0.67830   0.68040   0.68849   0.69368
 Alpha virt. eigenvalues --    0.70024   0.70859   0.70921   0.70992   0.71683
 Alpha virt. eigenvalues --    0.73167   0.73702   0.74942   0.75100   0.75820
 Alpha virt. eigenvalues --    0.75863   0.76359   0.77368   0.78314   0.78440
 Alpha virt. eigenvalues --    0.80942   0.81742   0.82275   0.82701   0.83881
 Alpha virt. eigenvalues --    0.84406   0.85228   0.86529   0.86899   0.88089
 Alpha virt. eigenvalues --    0.88863   0.89937   0.90206   0.91246   0.92464
 Alpha virt. eigenvalues --    0.92843   0.93253   0.94043   0.94232   0.94699
 Alpha virt. eigenvalues --    0.95050   0.95716   0.95733   0.96767   0.97004
 Alpha virt. eigenvalues --    0.98326   0.98610   0.98688   0.99446   1.00217
 Alpha virt. eigenvalues --    1.00569   1.01391   1.03032   1.03634   1.03739
 Alpha virt. eigenvalues --    1.04117   1.04839   1.05045   1.05650   1.06927
 Alpha virt. eigenvalues --    1.06930   1.07114   1.08563   1.08825   1.11092
 Alpha virt. eigenvalues --    1.11773   1.12307   1.12665   1.13052   1.13546
 Alpha virt. eigenvalues --    1.14437   1.15828   1.18915   1.20426   1.21705
 Alpha virt. eigenvalues --    1.23445   1.24803   1.28062   1.28801   1.34294
 Alpha virt. eigenvalues --    1.35458   1.36369   1.38145   1.40507   1.41008
 Alpha virt. eigenvalues --    1.41922   1.43271   1.44683   1.45051   1.45622
 Alpha virt. eigenvalues --    1.45797   1.45882   1.46531   1.48451   1.48826
 Alpha virt. eigenvalues --    1.50065   1.50892   1.51635   1.52351   1.52456
 Alpha virt. eigenvalues --    1.53394   1.55704   1.55724   1.56127   1.57059
 Alpha virt. eigenvalues --    1.58462   1.59244   1.62645   1.63149   1.63328
 Alpha virt. eigenvalues --    1.64054   1.64977   1.66572   1.67159   1.69480
 Alpha virt. eigenvalues --    1.70136   1.72396   1.73506   1.73745   1.74096
 Alpha virt. eigenvalues --    1.74621   1.75388   1.76289   1.77069   1.77148
 Alpha virt. eigenvalues --    1.77968   1.78843   1.81142   1.81427   1.82320
 Alpha virt. eigenvalues --    1.83463   1.84083   1.84875   1.85269   1.85965
 Alpha virt. eigenvalues --    1.88077   1.88518   1.88585   1.89593   1.90254
 Alpha virt. eigenvalues --    1.91811   1.92252   1.92607   1.92810   1.93895
 Alpha virt. eigenvalues --    1.94238   1.96390   1.96551   1.96937   1.98074
 Alpha virt. eigenvalues --    1.99646   2.00848   2.01040   2.01381   2.02575
 Alpha virt. eigenvalues --    2.03451   2.05416   2.05861   2.08110   2.09616
 Alpha virt. eigenvalues --    2.10626   2.11450   2.12601   2.12998   2.15297
 Alpha virt. eigenvalues --    2.17095   2.18283   2.19553   2.20235   2.21413
 Alpha virt. eigenvalues --    2.22204   2.23602   2.25716   2.26077   2.30439
 Alpha virt. eigenvalues --    2.32537   2.35019   2.37730   2.38582   2.39527
 Alpha virt. eigenvalues --    2.40157   2.40923   2.41562   2.43799   2.45787
 Alpha virt. eigenvalues --    2.45993   2.49893   2.51039   2.51754   2.54630
 Alpha virt. eigenvalues --    2.56462   2.58752   2.59568   2.61043   2.63882
 Alpha virt. eigenvalues --    2.63936   2.65266   2.66336   2.68653   2.68760
 Alpha virt. eigenvalues --    2.69849   2.70471   2.71080   2.71485   2.72379
 Alpha virt. eigenvalues --    2.72878   2.73489   2.73839   2.74412   2.74533
 Alpha virt. eigenvalues --    2.75654   2.75775   2.76353   2.76787   2.77701
 Alpha virt. eigenvalues --    2.77784   2.78644   2.80299   2.81118   2.81796
 Alpha virt. eigenvalues --    2.83044   2.84031   2.84272   2.84446   2.87610
 Alpha virt. eigenvalues --    2.87786   2.88210   2.90588   2.90689   2.93056
 Alpha virt. eigenvalues --    2.95786   2.97799   2.98742   3.01991   3.02343
 Alpha virt. eigenvalues --    3.04836   3.07303   3.07402   3.09796   3.09974
 Alpha virt. eigenvalues --    3.11354   3.12518   3.13774   3.15304   3.18876
 Alpha virt. eigenvalues --    3.22335   3.24780   3.28773   3.30171   3.33030
 Alpha virt. eigenvalues --    3.33758   3.34612   3.37227   3.37902   3.39050
 Alpha virt. eigenvalues --    3.40767   3.42950   3.45125   3.49003   3.50689
 Alpha virt. eigenvalues --    3.53315   3.54357   3.57717   3.59279   3.62814
 Alpha virt. eigenvalues --    3.66006   3.74188   3.82064   3.85947   3.88198
 Alpha virt. eigenvalues --    4.01286   4.03054   4.03499   4.03925   4.05053
 Alpha virt. eigenvalues --    4.08732   4.17484   4.19051   4.24219   4.31080
 Alpha virt. eigenvalues --    4.53136   4.64793   4.67402   4.73569   4.74843
 Alpha virt. eigenvalues --    4.77983   4.80301  23.36751  23.62819  23.67627
 Alpha virt. eigenvalues --   23.74987  23.77537  23.81412  23.83374  23.84181
 Alpha virt. eigenvalues --   23.84866  23.86133  23.87773  23.91020  23.91318
 Alpha virt. eigenvalues --   23.92346  23.94058  24.14838  24.17584  24.19461
 Alpha virt. eigenvalues --   24.21780  24.22851  24.26004  24.43328
  Beta  occ. eigenvalues --  -10.21370 -10.21189 -10.21143 -10.21091 -10.21018
  Beta  occ. eigenvalues --  -10.20799 -10.20644 -10.20475 -10.20370 -10.20148
  Beta  occ. eigenvalues --  -10.20121 -10.19873 -10.19493 -10.19326 -10.19192
  Beta  occ. eigenvalues --  -10.19016 -10.18787 -10.18698 -10.18405 -10.18254
  Beta  occ. eigenvalues --  -10.18204 -10.17847  -0.91530  -0.87222  -0.85046
  Beta  occ. eigenvalues --   -0.82891  -0.81150  -0.78569  -0.77316  -0.75963
  Beta  occ. eigenvalues --   -0.73352  -0.71738  -0.70375  -0.66360  -0.63919
  Beta  occ. eigenvalues --   -0.63163  -0.61959  -0.59866  -0.58528  -0.56197
  Beta  occ. eigenvalues --   -0.53127  -0.51785  -0.50633  -0.49282  -0.48464
  Beta  occ. eigenvalues --   -0.48211  -0.45985  -0.45071  -0.44140  -0.43673
  Beta  occ. eigenvalues --   -0.43287  -0.43158  -0.42465  -0.40980  -0.40371
  Beta  occ. eigenvalues --   -0.39530  -0.38899  -0.37962  -0.36636  -0.36351
  Beta  occ. eigenvalues --   -0.35836  -0.34725  -0.34231  -0.33232  -0.31983
  Beta  occ. eigenvalues --   -0.29434  -0.28115  -0.27198  -0.23659  -0.22510
  Beta  occ. eigenvalues --   -0.20069
  Beta virt. eigenvalues --   -0.10460  -0.08557  -0.05833  -0.04323  -0.02377
  Beta virt. eigenvalues --    0.00137   0.00288   0.00723   0.00743   0.00946
  Beta virt. eigenvalues --    0.01804   0.02205   0.03316   0.03464   0.03619
  Beta virt. eigenvalues --    0.03863   0.04662   0.05435   0.05611   0.05721
  Beta virt. eigenvalues --    0.06119   0.06648   0.07379   0.07607   0.07989
  Beta virt. eigenvalues --    0.08136   0.08376   0.08833   0.09617   0.09884
  Beta virt. eigenvalues --    0.10787   0.10907   0.11153   0.11317   0.11539
  Beta virt. eigenvalues --    0.12330   0.12664   0.13544   0.13686   0.14118
  Beta virt. eigenvalues --    0.14275   0.14474   0.15258   0.15449   0.15560
  Beta virt. eigenvalues --    0.15815   0.15971   0.16710   0.16888   0.17093
  Beta virt. eigenvalues --    0.17425   0.17549   0.17794   0.17863   0.18515
  Beta virt. eigenvalues --    0.18670   0.18944   0.19099   0.19135   0.19839
  Beta virt. eigenvalues --    0.20001   0.20089   0.20163   0.20696   0.20925
  Beta virt. eigenvalues --    0.21027   0.21196   0.21917   0.21956   0.22086
  Beta virt. eigenvalues --    0.22478   0.22762   0.23122   0.23306   0.23695
  Beta virt. eigenvalues --    0.23927   0.23934   0.24657   0.25040   0.25155
  Beta virt. eigenvalues --    0.25780   0.26125   0.26593   0.26765   0.27034
  Beta virt. eigenvalues --    0.27394   0.27573   0.27862   0.28096   0.28680
  Beta virt. eigenvalues --    0.29254   0.29665   0.30439   0.30855   0.31163
  Beta virt. eigenvalues --    0.31741   0.32334   0.32933   0.33540   0.34061
  Beta virt. eigenvalues --    0.34919   0.35156   0.35333   0.35739   0.37481
  Beta virt. eigenvalues --    0.37861   0.38623   0.39757   0.40148   0.40386
  Beta virt. eigenvalues --    0.41378   0.41774   0.42824   0.43389   0.44095
  Beta virt. eigenvalues --    0.45023   0.47149   0.47529   0.47823   0.48867
  Beta virt. eigenvalues --    0.49745   0.50358   0.51282   0.52197   0.52851
  Beta virt. eigenvalues --    0.53501   0.54004   0.54296   0.54434   0.54844
  Beta virt. eigenvalues --    0.55555   0.55848   0.56429   0.56699   0.57143
  Beta virt. eigenvalues --    0.57588   0.58053   0.58392   0.59439   0.60063
  Beta virt. eigenvalues --    0.60763   0.60999   0.61392   0.61692   0.62841
  Beta virt. eigenvalues --    0.62864   0.63406   0.63593   0.63862   0.64438
  Beta virt. eigenvalues --    0.64632   0.65390   0.65465   0.66782   0.66799
  Beta virt. eigenvalues --    0.67568   0.67931   0.67979   0.68393   0.68936
  Beta virt. eigenvalues --    0.70022   0.70356   0.70979   0.71079   0.71311
  Beta virt. eigenvalues --    0.71861   0.73201   0.73808   0.75083   0.75525
  Beta virt. eigenvalues --    0.75856   0.75964   0.76422   0.77734   0.78434
  Beta virt. eigenvalues --    0.78482   0.81003   0.81903   0.82517   0.82728
  Beta virt. eigenvalues --    0.84065   0.84625   0.85304   0.86910   0.87136
  Beta virt. eigenvalues --    0.88334   0.88895   0.89959   0.90610   0.91302
  Beta virt. eigenvalues --    0.92594   0.92945   0.93417   0.94217   0.94313
  Beta virt. eigenvalues --    0.94832   0.95206   0.95797   0.95799   0.96898
  Beta virt. eigenvalues --    0.97143   0.98392   0.98730   0.98783   0.99618
  Beta virt. eigenvalues --    1.00257   1.00622   1.01616   1.03174   1.03695
  Beta virt. eigenvalues --    1.03762   1.04354   1.05063   1.05203   1.05729
  Beta virt. eigenvalues --    1.07033   1.07252   1.07305   1.08625   1.09287
  Beta virt. eigenvalues --    1.11279   1.11812   1.12412   1.12665   1.13118
  Beta virt. eigenvalues --    1.13564   1.14458   1.15841   1.18964   1.20709
  Beta virt. eigenvalues --    1.21985   1.24978   1.25766   1.28098   1.29087
  Beta virt. eigenvalues --    1.34356   1.35513   1.36569   1.38251   1.40741
  Beta virt. eigenvalues --    1.41409   1.42435   1.43405   1.44815   1.45050
  Beta virt. eigenvalues --    1.45693   1.45902   1.45969   1.46640   1.48474
  Beta virt. eigenvalues --    1.49031   1.50391   1.51028   1.51963   1.52450
  Beta virt. eigenvalues --    1.52914   1.53665   1.55763   1.55903   1.56393
  Beta virt. eigenvalues --    1.57237   1.58584   1.59569   1.62901   1.63441
  Beta virt. eigenvalues --    1.63740   1.64172   1.65038   1.66731   1.67173
  Beta virt. eigenvalues --    1.69785   1.70184   1.72430   1.73541   1.73811
  Beta virt. eigenvalues --    1.74116   1.75344   1.75459   1.76317   1.77234
  Beta virt. eigenvalues --    1.77241   1.78433   1.79207   1.81148   1.81616
  Beta virt. eigenvalues --    1.82850   1.83601   1.84232   1.84969   1.85345
  Beta virt. eigenvalues --    1.86194   1.88142   1.88566   1.88720   1.89692
  Beta virt. eigenvalues --    1.90302   1.91928   1.92527   1.92650   1.92937
  Beta virt. eigenvalues --    1.94003   1.94821   1.96449   1.97044   1.97092
  Beta virt. eigenvalues --    1.98109   1.99857   2.00872   2.01178   2.01569
  Beta virt. eigenvalues --    2.02716   2.03672   2.05549   2.05946   2.08193
  Beta virt. eigenvalues --    2.09853   2.10702   2.11523   2.12914   2.13147
  Beta virt. eigenvalues --    2.15542   2.17156   2.18451   2.19609   2.20443
  Beta virt. eigenvalues --    2.21571   2.22335   2.23827   2.25863   2.26149
  Beta virt. eigenvalues --    2.30494   2.32810   2.35164   2.38035   2.38597
  Beta virt. eigenvalues --    2.39598   2.40272   2.40999   2.41697   2.43878
  Beta virt. eigenvalues --    2.46054   2.46173   2.49998   2.51203   2.52280
  Beta virt. eigenvalues --    2.54759   2.56867   2.59194   2.60022   2.61098
  Beta virt. eigenvalues --    2.63974   2.64013   2.65353   2.66377   2.68710
  Beta virt. eigenvalues --    2.68917   2.70062   2.70506   2.71119   2.71592
  Beta virt. eigenvalues --    2.72402   2.72911   2.73502   2.73829   2.74484
  Beta virt. eigenvalues --    2.74658   2.75673   2.75905   2.76436   2.76879
  Beta virt. eigenvalues --    2.77850   2.78006   2.78884   2.80309   2.81284
  Beta virt. eigenvalues --    2.81948   2.83183   2.84036   2.84386   2.84593
  Beta virt. eigenvalues --    2.87765   2.87914   2.88495   2.90755   2.90780
  Beta virt. eigenvalues --    2.93077   2.97873   2.97965   2.98784   3.02009
  Beta virt. eigenvalues --    3.03688   3.04990   3.07341   3.07713   3.09854
  Beta virt. eigenvalues --    3.10031   3.11378   3.12889   3.14133   3.15457
  Beta virt. eigenvalues --    3.18957   3.22522   3.24978   3.28981   3.30300
  Beta virt. eigenvalues --    3.33078   3.34465   3.34669   3.37411   3.38387
  Beta virt. eigenvalues --    3.39327   3.40917   3.43177   3.45250   3.49238
  Beta virt. eigenvalues --    3.50951   3.53456   3.54372   3.57837   3.59426
  Beta virt. eigenvalues --    3.62887   3.65996   3.74381   3.82089   3.86014
  Beta virt. eigenvalues --    3.88560   4.01337   4.03166   4.03504   4.03978
  Beta virt. eigenvalues --    4.05098   4.08990   4.17490   4.19054   4.24264
  Beta virt. eigenvalues --    4.31228   4.53183   4.65103   4.67418   4.73609
  Beta virt. eigenvalues --    4.74910   4.78083   4.80306  23.36960  23.62928
  Beta virt. eigenvalues --   23.67908  23.75003  23.77572  23.81415  23.83562
  Beta virt. eigenvalues --   23.84285  23.84891  23.86183  23.87823  23.91014
  Beta virt. eigenvalues --   23.91305  23.92321  23.94093  24.14905  24.17592
  Beta virt. eigenvalues --   24.19487  24.21862  24.22866  24.26115  24.44029
          Condensed to atoms (all electrons):
               1          2          3          4          5          6
     1  C   10.341827  -2.436528  -1.033848  -0.394777   0.384113   1.539235
     2  C   -2.436528   9.191177   0.623630  -0.461625  -0.375101  -0.724136
     3  C   -1.033848   0.623630   6.706583   1.291743  -0.315564  -0.172683
     4  C   -0.394777  -0.461625   1.291743  10.719697  -2.299682  -1.728457
     5  C    0.384113  -0.375101  -0.315564  -2.299682  10.037987   1.686575
     6  C    1.539235  -0.724136  -0.172683  -1.728457   1.686575   7.153549
     7  C   -1.198779   0.669139   0.604455   0.371850  -0.174177  -0.539642
     8  C    0.081350  -0.581038   0.015216  -0.110291   0.368515   0.088779
     9  C    0.047209   0.068266  -0.551117  -0.803504  -0.419554   0.162226
    10  C   -0.116516  -0.073694  -0.621907  -0.142773  -0.355646   0.255121
    11  C   -0.035910   0.152786  -0.043983  -0.016735  -0.146082  -0.172503
    12  C   -0.252213  -0.554426  -0.383441   0.038272   0.093629   0.013973
    13  C   -0.333108   0.004192   0.774606   0.409462  -0.059356  -0.338423
    14  C    0.048631  -0.000347   0.053053  -0.002124   0.024291   0.055713
    15  C   -0.007619   0.031708   0.153462   0.000209   0.005389  -0.017745
    16  C   -0.313713   0.419613   0.053190   0.189576  -0.133627  -0.251318
    17  C   -0.093267   0.010192  -0.529176   0.014887  -0.081018  -0.040371
    18  H    0.375428  -0.050761   0.031015   0.007804  -0.018009  -0.018302
    19  H    0.045831  -0.042999  -0.018125   0.329054  -0.064189   0.035476
    20  C   -0.355470   0.240809  -1.108794  -1.026058  -2.794679  -1.246027
    21  C    0.110285  -0.058374   0.048492  -0.060448  -0.511336   0.160164
    22  C    0.133092  -0.212625  -0.107471  -0.151839   0.030137  -0.129703
    23  H   -0.000021  -0.000691  -0.000084  -0.000060  -0.000122   0.003891
    24  H   -0.000063  -0.000824  -0.000766   0.000002   0.000053   0.000039
    25  H    0.010824   0.025322   0.013507  -0.000718   0.000738   0.002109
    26  H    0.000724   0.002598   0.006318  -0.000038   0.000126  -0.000073
    27  H    0.000061   0.000404   0.000195  -0.000003  -0.000017  -0.000028
    28  C   -0.078667  -0.054446   0.113759   0.160021   0.379877  -0.371541
    29  C    0.048377   0.265771   0.026192  -0.089386   0.257111   0.663437
    30  H   -0.006479   0.010341  -0.000257   0.051016  -0.056295   0.014049
    31  H   -0.001331   0.000713  -0.002922   0.008968  -0.038390  -0.015357
    32  H    0.000323   0.000009   0.002915  -0.000448   0.007314  -0.009275
    33  H   -0.000051   0.000275   0.004039   0.000125   0.001120  -0.003025
               7          8          9         10         11         12
     1  C   -1.198779   0.081350   0.047209  -0.116516  -0.035910  -0.252213
     2  C    0.669139  -0.581038   0.068266  -0.073694   0.152786  -0.554426
     3  C    0.604455   0.015216  -0.551117  -0.621907  -0.043983  -0.383441
     4  C    0.371850  -0.110291  -0.803504  -0.142773  -0.016735   0.038272
     5  C   -0.174177   0.368515  -0.419554  -0.355646  -0.146082   0.093629
     6  C   -0.539642   0.088779   0.162226   0.255121  -0.172503   0.013973
     7  C    7.519026   0.495164  -0.676156   0.235744   0.158540  -0.378460
     8  C    0.495164   6.810541   0.322773   0.654258  -0.579105  -0.134540
     9  C   -0.676156   0.322773   7.823248  -0.222194  -0.670810  -0.356940
    10  C    0.235744   0.654258  -0.222194  10.138994   1.081648  -1.814432
    11  C    0.158540  -0.579105  -0.670810   1.081648   8.803389   0.608793
    12  C   -0.378460  -0.134540  -0.356940  -1.814432   0.608793  11.379319
    13  C    1.771179   0.336139  -0.558645  -1.174473  -0.992658  -0.222287
    14  C   -0.440726  -0.478162   0.339578   0.131653  -0.978221  -1.467197
    15  C    0.049383  -0.006171  -0.074039  -0.611565  -1.090699  -0.810683
    16  C   -1.412588  -1.066344  -0.141043  -0.130280   0.359750  -0.560979
    17  C   -0.137523  -0.029318  -0.017535   0.243758   0.630415   1.359315
    18  H   -0.001313   0.001253  -0.002065  -0.000190   0.000027  -0.000079
    19  H   -0.005131   0.004354  -0.007335  -0.000161  -0.000018   0.000027
    20  C   -0.086603  -0.127224   1.800757   0.475348   0.017911   0.040533
    21  C   -0.053855  -0.058670   1.367720   0.624878   0.111467  -0.235241
    22  C   -1.109813  -0.076457   1.704492  -2.151269  -1.504410  -0.258989
    23  H   -0.014246   0.022484  -0.006979  -0.076196   0.320091  -0.029555
    24  H   -0.016451   0.004362   0.001602   0.044805   0.084712  -0.107591
    25  H    0.011645   0.009955  -0.000881   0.000093  -0.001093  -0.029154
    26  H    0.004309   0.003435  -0.000459  -0.002789  -0.009294  -0.048343
    27  H    0.006735   0.001523   0.000199   0.004242   0.010943   0.052789
    28  C   -0.054408   0.476666  -1.059587  -0.575578  -0.035775  -0.161759
    29  C    0.094218  -0.568463  -1.977674  -0.136128   0.030976  -0.153413
    30  H    0.005835  -0.000721  -0.019259   0.000958   0.000104   0.000041
    31  H    0.003614  -0.009434   0.044390   0.012222   0.000656   0.000058
    32  H    0.000121   0.001663   0.024824  -0.015690  -0.002652   0.000976
    33  H    0.002919   0.029137  -0.018631  -0.019497   0.040681   0.002485
              13         14         15         16         17         18
     1  C   -0.333108   0.048631  -0.007619  -0.313713  -0.093267   0.375428
     2  C    0.004192  -0.000347   0.031708   0.419613   0.010192  -0.050761
     3  C    0.774606   0.053053   0.153462   0.053190  -0.529176   0.031015
     4  C    0.409462  -0.002124   0.000209   0.189576   0.014887   0.007804
     5  C   -0.059356   0.024291   0.005389  -0.133627  -0.081018  -0.018009
     6  C   -0.338423   0.055713  -0.017745  -0.251318  -0.040371  -0.018302
     7  C    1.771179  -0.440726   0.049383  -1.412588  -0.137523  -0.001313
     8  C    0.336139  -0.478162  -0.006171  -1.066344  -0.029318   0.001253
     9  C   -0.558645   0.339578  -0.074039  -0.141043  -0.017535  -0.002065
    10  C   -1.174473   0.131653  -0.611565  -0.130280   0.243758  -0.000190
    11  C   -0.992658  -0.978221  -1.090699   0.359750   0.630415   0.000027
    12  C   -0.222287  -1.467197  -0.810683  -0.560979   1.359315  -0.000079
    13  C   10.338799  -1.640723   1.147415  -1.502020  -1.636065   0.001944
    14  C   -1.640723   8.723528   0.555947   1.574279  -1.056280  -0.000046
    15  C    1.147415   0.555947   6.976672  -0.164060   0.042745   0.000025
    16  C   -1.502020   1.574279  -0.164060  10.941434  -1.374055   0.001111
    17  C   -1.636065  -1.056280   0.042745  -1.374055   8.981786   0.000180
    18  H    0.001944  -0.000046   0.000025   0.001111   0.000180   0.521993
    19  H   -0.001159   0.000008  -0.000001  -0.000555  -0.000030  -0.006974
    20  C   -0.287145  -0.013700   0.001697  -0.113589  -0.010223   0.008083
    21  C   -0.173977  -0.062712  -0.007196   0.056278   0.028189  -0.000156
    22  C   -0.675358   0.355027  -0.078244  -0.308202  -0.008148  -0.000084
    23  H   -0.015631   0.054430   0.017242  -0.001747  -0.000512  -0.000000
    24  H   -0.024299   0.425540  -0.079252   0.000730  -0.006220  -0.000000
    25  H    0.051731  -0.009167   0.002178   0.352812  -0.111172  -0.000044
    26  H    0.110251  -0.028700   0.017918  -0.087049   0.376435   0.000000
    27  H    0.022208  -0.072361   0.337474  -0.036806   0.016058  -0.000000
    28  C    0.189482  -0.106382  -0.015725   0.006376   0.025384   0.000048
    29  C    0.149555   0.014565  -0.000469   0.058533  -0.002484  -0.000244
    30  H    0.000342   0.000001   0.000001   0.000096  -0.000001   0.000000
    31  H   -0.000361  -0.000022   0.000000   0.000025   0.000002  -0.000000
    32  H    0.000137   0.000182  -0.000001   0.000082  -0.000006  -0.000000
    33  H    0.009400   0.002255   0.000422   0.000767   0.000024  -0.000000
              19         20         21         22         23         24
     1  C    0.045831  -0.355470   0.110285   0.133092  -0.000021  -0.000063
     2  C   -0.042999   0.240809  -0.058374  -0.212625  -0.000691  -0.000824
     3  C   -0.018125  -1.108794   0.048492  -0.107471  -0.000084  -0.000766
[...]
 0.,-0.03607942,0.,0.,0.00455639,0.,0.,-0.00096589,0.,0.,0.00851809,0.,
 0.,0.00001009,0.,0.,0.00000717,0.,0.,0.00000496,0.,0.,-0.00001753,0.,0
 .,0.00011678,0.,0.,0.00029302,0.,0.,0.02463764,-0.00011354,-0.00000374
 ,0.,0.00009316,-0.00016039,0.,0.00001990,0.00022244,0.,0.00000702,0.00
 004681,0.,0.00003848,-0.00001883,0.,0.00012957,0.00005719,0.,0.0004318
 8,-0.00076707,0.,-0.00000812,0.00035282,0.,-0.00007678,-0.00010306,0.,
 0.00022183,0.00012008,0.,-0.00031070,-0.00047372,0.,0.00165195,0.00068
 601,0.,-0.00307330,0.00023887,0.,0.00049615,-0.00029269,0.,-0.00086428
 ,-0.00412681,0.,-0.31272430,0.07606416,0.,-0.01746912,0.00895316,0.,0.
 00000437,-0.00001364,0.,0.00000214,0.00000706,0.,-0.00000477,0.0000353
 9,0.,-0.00010246,0.00009620,0.,0.00001957,-0.00012806,0.,-0.00000468,0
 .00007534,0.,-0.00006965,0.00006232,0.,0.33152995,-0.00011134,0.000288
 43,0.,-0.00032626,-0.00041620,0.,-0.00021135,0.00005737,0.,0.00009955,
 -0.00005687,0.,-0.00001580,0.00018032,0.,-0.00005415,-0.00050720,0.,0.
 00050549,0.00085034,0.,-0.00010884,0.00030241,0.,-0.00007700,0.0002351
 2,0.,0.00009163,-0.00000232,0.,0.00167037,0.00023464,0.,-0.00044517,-0
 .00526670,0.,0.03034825,-0.00498919,0.,-0.00039895,-0.00089988,0.,-0.0
 0297951,-0.00260970,0.,0.07626790,-0.08145193,0.,-0.02247220,0.0100900
 3,0.,0.00002262,-0.00000276,0.,0.00001029,0.00004178,0.,0.00002097,-0.
 00009271,0.,0.00011180,-0.00005950,0.,-0.00006942,0.00015103,0.,0.0001
 3896,-0.00047264,0.,0.00007594,0.00012143,0.,-0.08123549,0.08306578,0.
 ,0.,-0.00003141,0.,0.,0.00000499,0.,0.,0.00013601,0.,0.,-0.00003825,0.
 ,0.,0.00004072,0.,0.,-0.00016097,0.,0.,-0.00233682,0.,0.,-0.00018283,0
 .,0.,0.00009617,0.,0.,-0.00013941,0.,0.,0.00011661,0.,0.,0.00482421,0.
 ,0.,0.00310351,0.,0.,-0.00092155,0.,0.,0.00846962,0.,0.,-0.03620023,0.
 ,0.,0.00427328,0.,0.,0.00002571,0.,0.,0.00001591,0.,0.,0.00000570,0.,0
 .,0.00004011,0.,0.,-0.00000687,0.,0.,0.00024673,0.,0.,-0.00112465,0.,0
 .,0.02477560,-0.00000815,0.00002469,0.,-0.00000725,-0.00004012,0.,-0.0
 0002521,0.00004651,0.,0.00001373,-0.00001259,0.,-0.00001173,0.00002040
 ,0.,-0.00005652,0.00003560,0.,0.00093224,-0.00049751,0.,-0.00012417,-0
 .00044037,0.,0.00015194,-0.00005835,0.,-0.00026642,-0.00010841,0.,0.00
 019413,0.00045024,0.,-0.00069604,-0.00081944,0.,-0.00354402,-0.0031240
 1,0.,-0.00565061,0.00069450,0.,-0.00190799,0.03017043,0.,0.00920776,-0
 .02401458,0.,-0.07325527,0.06164947,0.,-0.00000876,-0.00000586,0.,-0.0
 0000018,0.00000197,0.,0.00001866,-0.00003203,0.,0.00004775,-0.00005706
 ,0.,0.00003455,0.00008219,0.,0.00003996,-0.00007898,0.,-0.00031697,0.0
 0147656,0.,0.00092914,0.00041145,0.,0.07346393,-0.00001431,0.00001041,
 0.,0.00000644,-0.00003550,0.,0.00002276,0.00005652,0.,-0.00000086,-0.0
 0001886,0.,0.00000909,0.00002590,0.,-0.00011942,-0.00003443,0.,0.00088
 996,-0.00065663,0.,-0.00033549,-0.00024179,0.,0.00012513,-0.00011013,0
 .,-0.00009144,-0.00001332,0.,0.00007448,0.00012048,0.,-0.00030928,0.00
 035256,0.,-0.00382274,-0.00027585,0.,0.00163635,0.00154160,0.,-0.00088
 844,-0.00448957,0.,0.00728192,-0.01702295,0.,0.06080558,-0.32106357,0.
 ,-0.00001574,-0.00000373,0.,-0.00000743,-0.00000259,0.,-0.00000308,-0.
 00005955,0.,0.00000760,-0.00001443,0.,-0.00000752,0.00006961,0.,0.0000
 1273,-0.00000610,0.,-0.00008995,-0.00035254,0.,-0.00021218,0.00091871,
 0.,-0.06520046,0.34067461,0.,0.,-0.00005036,0.,0.,0.00000434,0.,0.,0.0
 0020738,0.,0.,-0.00000537,0.,0.,-0.00000208,0.,0.,-0.00006317,0.,0.,0.
 00021796,0.,0.,-0.00096747,0.,0.,-0.00005449,0.,0.,0.00013484,0.,0.,-0
 .00076247,0.,0.,-0.00068973,0.,0.,0.00933451,0.,0.,0.00494092,0.,0.,0.
 00300297,0.,0.,0.00445001,0.,0.,-0.03751228,0.,0.,0.00001458,0.,0.,0.0
 0000922,0.,0.,0.00000119,0.,0.,0.00007985,0.,0.,0.00012990,0.,0.,0.000
 03872,0.,0.,0.00008039,0.,0.,-0.00523183,0.,0.,0.02525350,0.00001949,-
 0.00002811,0.,0.00000300,0.00002616,0.,0.00007323,0.00002115,0.,-0.000
 02241,-0.00001307,0.,-0.00002289,-0.00001810,0.,0.00002821,-0.00000079
 ,0.,0.00002133,-0.00028236,0.,-0.00014062,0.00017764,0.,-0.00005311,-0
 .00006305,0.,0.00015990,0.00013860,0.,0.00028131,-0.00006876,0.,0.0005
 6801,0.00242738,0.,0.00005013,0.00105062,0.,0.00903884,0.00722434,0.,-
 0.20251286,-0.13871801,0.,-0.00454481,0.00329410,0.,-0.01628979,-0.022
 75128,0.,-0.00000485,0.00000257,0.,-0.00000456,-0.00000745,0.,-0.00001
 159,0.00002716,0.,-0.00002991,0.00001532,0.,0.00001587,-0.00000434,0.,
 -0.00000681,-0.00000778,0.,0.00086851,-0.00033327,0.,-0.00089936,-0.00
 109136,0.,0.00097280,0.00035646,0.,0.21237482,0.00001532,0.00002296,0.
 ,-0.00002979,-0.00001560,0.,0.00000799,0.00002015,0.,0.00000760,-0.000
 03555,0.,-0.00003853,0.00003635,0.,-0.00003788,-0.00001478,0.,0.000015
 17,0.00030846,0.,0.00018638,-0.00014432,0.,0.00004728,0.00005903,0.,0.
 00002239,-0.00064846,0.,-0.00133805,-0.00011042,0.,0.00333559,-0.00410
 003,0.,0.00050119,-0.00044603,0.,-0.02436341,-0.01720628,0.,-0.1379209
 4,-0.19149276,0.,0.00232078,0.00042393,0.,0.00849910,0.00967907,0.,-0.
 00000545,0.00000083,0.,-0.00000430,-0.00000173,0.,0.00001838,-0.000032
 85,0.,0.00011856,-0.00006322,0.,-0.00012376,0.00012404,0.,0.00005754,-
 0.00001829,0.,0.00028979,0.00096406,0.,0.00046492,0.00029743,0.,-0.000
 55396,0.00066401,0.,0.14865632,0.20184515,0.,0.,-0.00001114,0.,0.,0.00
 000594,0.,0.,0.00004370,0.,0.,-0.00000900,0.,0.,0.00001449,0.,0.,-0.00
 001160,0.,0.,-0.00062367,0.,0.,0.00014822,0.,0.,-0.00001315,0.,0.,-0.0
 0076922,0.,0.,0.00030751,0.,0.,0.00903278,0.,0.,-0.00069053,0.,0.,0.00
 371426,0.,0.,-0.03599261,0.,0.,0.00485954,0.,0.,0.00240827,0.,0.,0.000
 00505,0.,0.,0.00000365,0.,0.,0.00000233,0.,0.,-0.00001125,0.,0.,-0.000
 10184,0.,0.,0.00023693,0.,0.,-0.00520836,0.,0.,0.00019292,0.,0.,-0.002
 53906,0.,0.,0.02493658,0.00129568,0.00353582,0.,-0.00287381,0.00027487
 ,0.,0.00053400,-0.00005008,0.,0.00241582,-0.00403744,0.,-0.00232115,0.
 00971290,0.,0.00019089,0.00042811,0.,-0.00056951,0.01122063,0.,-0.0219
 5719,-0.01693146,0.,0.00620686,0.04952632,0.,0.00961813,-0.04856535,0.
 ,0.00844341,0.02314431,0.,0.00533737,-0.01380964,0.,-0.00977334,-0.006
 17671,0.,0.00278987,0.00644476,0.,0.00451588,-0.00462652,0.,0.00068983
 ,0.00473186,0.,-0.00555942,-0.00115435,0.,0.00006657,0.00003614,0.,0.0
 0001956,-0.00007505,0.,0.00942798,-0.01374312,0.,-0.20578022,0.0343970
 1,0.,-0.27379985,-0.09848777,0.,-0.00007847,0.00043408,0.,-0.00011493,
 0.00006461,0.,0.00011208,-0.00009114,0.,-0.00009227,-0.00005872,0.,0.0
 0003873,-0.00009555,0.,0.59445840,0.00037046,0.00145834,0.,-0.00149261
 ,-0.00019512,0.,0.00232813,-0.00086375,0.,0.00122383,-0.00077361,0.,-0
 .00148918,-0.00012220,0.,-0.00027228,-0.00534078,0.,-0.00154320,0.0009
 6436,0.,-0.00661420,-0.00213833,0.,0.04080362,-0.01795893,0.,-0.025802
 10,-0.03715342,0.,0.00698309,0.00171763,0.,-0.00026140,-0.00332908,0.,
 -0.00121755,-0.00028162,0.,0.00094686,0.00070907,0.,0.00081864,-0.0006
 1868,0.,-0.00013125,0.00006980,0.,-0.00042410,-0.00033166,0.,0.0000275
 1,0.00004490,0.,0.00001268,-0.00003250,0.,-0.00364653,-0.00317623,0.,0
 .05941270,-0.13620705,0.,-0.14432368,-0.22164284,0.,-0.00027856,-0.000
 01577,0.,-0.00001981,0.00004978,0.,0.00005464,-0.00010198,0.,-0.000004
 99,-0.00001489,0.,-0.00000926,-0.00009945,0.,0.03030282,0.72334213,0.,
 0.,0.00019927,0.,0.,-0.00026771,0.,0.,-0.00055467,0.,0.,-0.00052703,0.
 ,0.,-0.00115960,0.,0.,0.00693708,0.,0.,-0.00048208,0.,0.,-0.00228095,0
 .,0.,0.00581337,0.,0.,0.00396461,0.,0.,0.00416683,0.,0.,0.00001011,0.,
 0.,0.00011945,0.,0.,-0.00058315,0.,0.,0.00013415,0.,0.,0.00008823,0.,0
 .,-0.00002063,0.,0.,-0.00009762,0.,0.,0.00005529,0.,0.,0.00455342,0.,0
 .,-0.06032072,0.,0.,-0.05846445,0.,0.,-0.00017195,0.,0.,0.00000493,0.,
 0.,0.00000114,0.,0.,-0.00003021,0.,0.,0.00005553,0.,0.,0.13160312,0.01
 106690,0.01456439,0.,-0.01699886,0.00193311,0.,0.00090808,-0.01199396,
 0.,0.01152116,-0.02021171,0.,0.00563144,0.05992605,0.,-0.03638293,0.01
 471741,0.,0.00020091,0.00097925,0.,0.00031116,-0.00143016,0.,0.0250767
 2,-0.05235160,0.,-0.00225827,-0.01066360,0.,0.00266479,0.00570252,0.,0
 .00076303,-0.00471817,0.,-0.00232973,-0.00226413,0.,0.00117697,0.00222
 010,0.,0.00119445,-0.00188017,0.,0.00006640,0.00184614,0.,-0.00192382,
 -0.00038617,0.,0.00017937,0.00009139,0.,-0.00007448,-0.00047378,0.,-0.
 28805518,0.07245719,0.,-0.20236276,-0.04249403,0.,0.00729012,0.0151605
 3,0.,-0.00000517,0.00010837,0.,-0.00004168,0.00003405,0.,0.00003243,-0
 .00006518,0.,-0.00003367,-0.00004535,0.,0.00002644,-0.00004315,0.,-0.0
 3951013,-0.01449975,0.,0.59820194,0.00026677,-0.00141929,0.,-0.0003375
 2,-0.00054215,0.,0.00234964,0.00038877,0.,-0.00478583,-0.00240979,0.,0
 .02849883,-0.02670205,0.,0.00358345,-0.00041082,0.,-0.00243467,-0.0007
 1526,0.,0.00142828,-0.00526333,0.,-0.03557557,-0.03049493,0.,0.0009491
 3,-0.00148982,0.,-0.00054484,0.00017323,0.,-0.00007766,0.00028057,0.,0
 .00051997,0.00008375,0.,-0.00016989,-0.00001161,0.,-0.00004278,0.00020
 662,0.,-0.00004167,-0.00038104,0.,0.00027292,0.00001830,0.,-0.00003657
 ,-0.00049095,0.,0.00031730,-0.00006665,0.,0.12537096,-0.18395270,0.,-0
 .07392512,-0.15464685,0.,0.00523996,-0.00075305,0.,-0.00002952,-0.0000
 5512,0.,0.00001002,-0.00001307,0.,-0.00001543,0.00005708,0.,-0.0000066
 0,0.00001255,0.,-0.00000333,0.00001598,0.,0.00668765,0.01531336,0.,-0.
 03123627,0.71392543,0.,0.,-0.00010610,0.,0.,0.00034614,0.,0.,-0.000766
 60,0.,0.,0.00457595,0.,0.,0.00437742,0.,0.,-0.00181192,0.,0.,-0.000415
 93,0.,0.,0.00689712,0.,0.,0.00586229,0.,0.,-0.00097741,0.,0.,-0.000722
 24,0.,0.,0.00042251,0.,0.,-0.00042096,0.,0.,-0.00003897,0.,0.,-0.00003
 859,0.,0.,-0.00010887,0.,0.,0.00007916,0.,0.,-0.00045024,0.,0.,-0.0001
 4554,0.,0.,-0.05907309,0.,0.,-0.06056414,0.,0.,0.00396781,0.,0.,0.0000
 9423,0.,0.,0.00000167,0.,0.,-0.00000911,0.,0.,0.00001314,0.,0.,-0.0000
 0666,0.,0.,0.00002421,0.,0.,0.13141372,-0.00010367,-0.00040240,0.,0.00
 032121,-0.00006152,0.,0.00013030,0.00049965,0.,0.00080891,0.00026036,0
 .,0.00384692,0.00176988,0.,0.00112550,0.00047049,0.,-0.00005625,-0.000
 04266,0.,0.00001887,-0.00002327,0.,0.00024382,0.00068227,0.,-0.0000076
 4,0.00007464,0.,0.00002702,-0.00000338,0.,-0.00001435,0.00000431,0.,0.
 00002575,0.00003790,0.,0.00001397,-0.00000148,0.,0.00000028,-0.0000041
 2,0.,-0.00001364,-0.00002495,0.,0.00001234,-0.00001513,0.,-0.00000429,
 -0.00003557,0.,0.00001711,-0.00058674,0.,-0.25928543,-0.12095264,0.,-0
 .00267539,0.00380551,0.,-0.00039300,0.00028423,0.,-0.00000723,0.000001
 68,0.,-0.00000458,0.00000276,0.,0.00000446,0.00000242,0.,0.00000055,-0
 .00000577,0.,-0.00000479,-0.00000558,0.,-0.00028939,-0.00115589,0.,-0.
 01963127,-0.01539917,0.,0.27513074,0.00027546,0.00007840,0.,-0.0002429
 9,0.00011324,0.,-0.00107703,-0.00001192,0.,-0.00069358,0.00178831,0.,-
 0.02773531,-0.01106044,0.,0.00160410,-0.00594632,0.,-0.00018170,-0.000
 44040,0.,-0.00032949,-0.00003935,0.,0.00080414,-0.00047523,0.,0.000077
 36,-0.00014201,0.,-0.00004769,-0.00000616,0.,-0.00004243,-0.00000456,0
 .,-0.00006749,0.00015397,0.,-0.00001989,0.00000200,0.,-0.00001114,0.00
 001599,0.,-0.00000002,-0.00003528,0.,0.00003039,0.00000154,0.,0.000017
 43,-0.00003265,0.,0.00094341,-0.00027474,0.,-0.12318724,-0.13148901,0.
 ,0.00331248,-0.00125793,0.,0.00023804,-0.00002272,0.,-0.00000719,-0.00
 000462,0.,-0.00000631,-0.00000251,0.,0.00000283,0.00001564,0.,-0.00000
 060,-0.00000351,0.,-0.00000383,-0.00000196,0.,0.00025197,0.00067413,0.
 ,0.01558271,0.01054626,0.,0.13059108,0.13684461,0.,0.,-0.00014099,0.,0
 .,0.00005366,0.,0.,0.00064083,0.,0.,-0.00235241,0.,0.,0.00241861,0.,0.
 ,0.00395736,0.,0.,0.00030905,0.,0.,-0.00052226,0.,0.,-0.00105133,0.,0.
 ,0.00014344,0.,0.,0.00001423,0.,0.,-0.00002562,0.,0.,-0.00030532,0.,0.
 ,0.00005804,0.,0.,-0.00000115,0.,0.,0.00000642,0.,0.,-0.00000769,0.,0.
 ,0.00011749,0.,0.,0.00032502,0.,0.,-0.03442449,0.,0.,0.00856689,0.,0.,
 -0.00046488,0.,0.,-0.00000322,0.,0.,-0.00000273,0.,0.,0.00000753,0.,0.
 ,0.00000185,0.,0.,-0.00000088,0.,0.,0.00044715,0.,0.,0.00361312,0.,0.,
 0.02412588,-0.00013940,0.00044805,0.,-0.00031282,0.00002267,0.,0.00009
 605,-0.00028770,0.,0.00085638,0.00078179,0.,-0.00454760,0.00191066,0.,
 -0.00086886,0.00033504,0.,-0.00047015,-0.00017739,0.,0.00086517,-0.001
 19944,0.,-0.00543486,-0.00243933,0.,0.00017624,-0.00004604,0.,-0.00002
 045,0.00007425,0.,-0.00000072,-0.00003510,0.,0.00013407,-0.00012411,0.
 ,0.00001579,0.00001874,0.,-0.00000955,-0.00002506,0.,-0.00005850,-0.00
 001234,0.,-0.00000532,-0.00000781,0.,0.00002234,0.00012679,0.,-0.00003
 739,-0.00000522,0.,0.00334410,0.02847910,0.,0.00413223,-0.02755195,0.,
 -0.00006622,0.00022115,0.,-0.00002344,-0.00001483,0.,-0.00000494,-0.00
 000126,0.,0.00000164,-0.00000357,0.,-0.00000423,-0.00000692,0.,-0.0000
 0013,-0.00000116,0.,0.00188817,-0.00008326,0.,-0.05823510,-0.01204567,
 0.,0.00089318,-0.00013591,0.,0.05823364,0.00027918,-0.00012449,0.,0.00
 000406,0.00004165,0.,-0.00004595,-0.00011111,0.,-0.00045888,-0.0004719
 6,0.,0.00256550,0.00096538,0.,0.00001679,0.00066663,0.,-0.00024411,-0.
 00022494,0.,0.00077413,-0.00026186,0.,-0.00324969,0.00019341,0.,-0.000
 02168,0.00014655,0.,-0.00004314,-0.00001157,0.,-0.00003196,0.00002926,
 0.,0.00011395,0.00002099,0.,0.00001546,-0.00001217,0.,-0.00002574,-0.0
 0000694,0.,-0.00005029,-0.00005141,0.,0.00002601,-0.00000885,0.,-0.000
 01158,-0.00006433,0.,0.00004590,-0.00000140,0.,-0.00254031,-0.01260926
 ,0.,0.00185359,-0.01056931,0.,-0.00033988,-0.00010606,0.,-0.00002493,-
 0.00001148,0.,-0.00000993,0.00000137,0.,0.00000511,0.00000565,0.,-0.00
 000124,-0.00001032,0.,-0.00000611,-0.00000622,0.,0.00065506,0.00073246
 ,0.,-0.00971989,-0.33270365,0.,0.00026994,0.00097306,0.,0.01104427,0.3
 5356907,0.,0.,-0.00057700,0.,0.,0.00011041,0.,0.,-0.00052418,0.,0.,0.0
 0046197,0.,0.,0.00871545,0.,0.,-0.00082165,0.,0.,0.00001896,0.,0.,0.00
 049771,0.,0.,0.00455511,0.,0.,-0.00009428,0.,0.,0.00003324,0.,0.,-0.00
 002352,0.,0.,-0.00008069,0.,0.,-0.00000350,0.,0.,-0.00000182,0.,0.,-0.
 00002434,0.,0.,0.00001109,0.,0.,-0.00006133,0.,0.,0.00016988,0.,0.,0.0
 0308014,0.,0.,0.00230820,0.,0.,-0.00012155,0.,0.,0.00001126,0.,0.,0.00
 000313,0.,0.,-0.00000302,0.,0.,0.00000580,0.,0.,0.00000171,0.,0.,-0.00
 208683,0.,0.,-0.03477723,0.,0.,-0.00553567,0.,0.,0.02445330,-0.0000341
 6,-0.00002695,0.,0.00011351,0.00015474,0.,-0.00044484,0.00022942,0.,-0
 .00002154,-0.00006363,0.,0.00012440,0.00000457,0.,0.00068169,0.0012953
 4,0.,0.00011655,0.00029255,0.,-0.00063905,-0.00054579,0.,-0.00611655,0
 .00145972,0.,-0.00400743,-0.00240215,0.,0.00092073,-0.00066532,0.,-0.0
 0024072,-0.00035342,0.,-0.00018689,-0.00013761,0.,0.00013630,0.0000047
 7,0.,0.00005446,-0.00010102,0.,0.00002399,0.00012358,0.,-0.00010897,-0
 .00003487,0.,-0.00000155,-0.00000159,0.,-0.00002921,0.00000379,0.,-0.0
 0010704,-0.00019604,0.,0.00026598,0.02885764,0.,0.00645235,-0.02609639
 ,0.,-0.00002986,0.00001410,0.,-0.00000020,0.00000954,0.,0.00000683,-0.
 00001825,0.,0.00000019,-0.00000238,0.,0.00000349,-0.00001754,0.,-0.065
 97760,0.04874179,0.,0.00195934,0.00022169,0.,-0.00002986,-0.00000613,0
 .,-0.00039898,-0.00079120,0.,0.06659200,0.00003707,0.00003384,0.,-0.00
 006528,-0.00006207,0.,0.00015678,-0.00018589,0.,0.00003526,-0.00000133
 ,0.,0.00006121,0.00017556,0.,-0.00059367,-0.00020737,0.,0.00005073,-0.
 00001349,0.,-0.00013319,0.00053905,0.,0.00228425,0.00084670,0.,-0.0031
 7587,0.00037900,0.,0.00061730,-0.00057263,0.,-0.00029476,-0.00015316,0
 .,-0.00000713,0.00003050,0.,0.00009976,-0.00003774,0.,-0.00003850,-0.0
 0006514,0.,-0.00000507,0.00000860,0.,-0.00003245,0.00000124,0.,0.00000
 850,-0.00000244,0.,0.00002239,-0.00000161,0.,0.00033625,-0.00011747,0.
 ,-0.00038626,-0.00663477,0.,0.00507216,-0.01596817,0.,-0.00004990,-0.0
 0000367,0.,-0.00001219,0.00000529,0.,0.00000611,0.00000336,0.,0.000000
 43,-0.00001084,0.,-0.00000215,-0.00001654,0.,0.04597849,-0.32453458,0.
 ,-0.00044880,0.00068818,0.,0.00005156,-0.00001234,0.,0.00073450,0.0000
 4146,0.,-0.05002629,0.34488062,0.,0.,-0.00004205,0.,0.,0.00001544,0.,0
 .,-0.00006074,0.,0.,0.00008359,0.,0.,-0.00005296,0.,0.,0.00030512,0.,0
 .,-0.00052249,0.,0.,-0.00064098,0.,0.,0.00383782,0.,0.,0.00937728,0.,0
 .,0.00039190,0.,0.,-0.00097652,0.,0.,0.00015577,0.,0.,-0.00009529,0.,0
 .,0.00008394,0.,0.,0.00008159,0.,0.,-0.00001354,0.,0.,-0.00003420,0.,0
 .,0.00001220,0.,0.,-0.00015845,0.,0.,0.00253569,0.,0.,0.00363911,0.,0.
 ,0.00028579,0.,0.,-0.00001685,0.,0.,-0.00000242,0.,0.,-0.00001241,0.,0
 .,0.00001964,0.,0.,-0.03509210,0.,0.,-0.00167070,0.,0.,0.00007933,0.,0
 .,0.00017404,0.,0.,0.02425721,-0.00000983,-0.00000831,0.,0.00002972,0.
 00001056,0.,-0.00007674,0.00010454,0.,0.00000510,0.00000652,0.,0.00003
 069,-0.00004108,0.,-0.00004693,0.00003868,0.,0.00001919,-0.00046895,0.
 ,0.00122203,0.00038715,0.,0.00049138,-0.00048750,0.,0.00012779,-0.0003
 0647,0.,0.00079332,-0.00034986,0.,0.00003397,0.00037491,0.,0.00017756,
 0.00007689,0.,-0.00011350,-0.00007708,0.,-0.00005796,0.00009490,0.,0.0
 0002911,-0.00004507,0.,0.00006966,0.00004631,0.,-0.00000749,0.00000394
 ,0.,-0.00000896,-0.00000478,0.,-0.00029986,-0.00032253,0.,-0.00154556,
 -0.00388124,0.,-0.28986299,0.09875684,0.,0.00004826,0.00066846,0.,0.00
 001410,-0.00000933,0.,-0.00001147,-0.00000268,0.,0.00000211,0.00000897
 ,0.,0.00000437,0.00001475,0.,-0.01935194,0.01124283,0.,-0.00042861,0.0
 0099154,0.,-0.00010017,0.00006456,0.,-0.00002034,-0.00005243,0.,0.0009
 2265,-0.00028125,0.,0.30792132,0.00008976,0.00007891,0.,-0.00003622,0.
 00012594,0.,0.00028674,-0.00051306,0.,0.00009448,-0.00006069,0.,-0.000
 11013,-0.00013015,0.,0.00032118,0.00004765,0.,0.00115764,0.00049259,0.
 ,-0.00070077,-0.00635022,0.,-0.00061561,-0.00048692,0.,0.02938603,-0.0
 0734689,0.,0.00057197,0.00184915,0.,-0.00038865,-0.00001637,0.,0.00014
 952,0.00019647,0.,0.00005482,-0.00003524,0.,-0.00000284,0.00000231,0.,
 -0.00011861,-0.00003136,0.,0.00003776,-0.00006600,0.,0.00001715,0.0000
 0896,0.,0.00000456,-0.00000302,0.,-0.00027271,-0.00009426,0.,-0.003208
 90,-0.00240553,0.,0.10114589,-0.10001458,0.,-0.00093931,-0.00029803,0.
 ,-0.00002706,-0.00001596,0.,-0.00000039,0.00001303,0.,-0.00000727,-0.0
 0000586,0.,-0.00000541,-0.00000697,0.,-0.01992451,0.00985651,0.,-0.000
 39732,0.00081205,0.,-0.00008839,0.00005651,0.,0.00000708,-0.00001959,0
 .,0.00007332,0.00096786,0.,-0.10655380,0.10339275,0.,0.,-0.00003296,0.
 ,0.,-0.00031691,0.,0.,0.00028911,0.,0.,-0.00000161,0.,0.,0.00017001,0.
 ,0.,-0.00053552,0.,0.,0.00058314,0.,0.,0.00355113,0.,0.,-0.00095163,0.
 ,0.,0.00239632,0.,0.,-0.00189480,0.,0.,-0.00017636,0.,0.,-0.00001803,0
 .,0.,0.00001090,0.,0.,0.00001715,0.,0.,0.00003792,0.,0.,-0.00002617,0.
 ,0.,0.00008694,0.,0.,0.00000299,0.,0.,-0.00058248,0.,0.,0.00908659,0.,
 0.,-0.03468164,0.,0.,0.00029837,0.,0.,0.00001754,0.,0.,0.00001291,0.,0
 .,-0.00000012,0.,0.,-0.00000009,0.,0.,0.00396181,0.,0.,0.00041582,0.,0
 .,-0.00004725,0.,0.,0.00012520,0.,0.,-0.00594378,0.,0.,0.02414551\\-0.
 00004487,-0.00030392,0.,0.00001027,0.00001154,0.,-0.00006221,0.0001418
 4,0.,-0.00005641,0.00019753,0.,0.00007537,-0.00009853,0.,-0.00010144,0
 .00002932,0.,-0.00003918,-0.00051117,0.,-0.00031102,0.00027669,0.,0.00
 003473,-0.00014237,0.,0.00040537,0.00007383,0.,-0.00003904,-0.00019378
 ,0.,-0.00019455,0.00006171,0.,0.00036563,0.00042983,0.,0.00002146,0.00
 004480,0.,0.00005030,0.00000799,0.,-0.00004224,-0.00013972,0.,-0.00001
 837,0.00006701,0.,-0.00000025,0.00004149,0.,0.00001448,0.00001395,0.,-
 0.00003089,0.00006978,0.,-0.00014638,-0.00000485,0.,0.00007061,0.00000
 514,0.,0.00000823,0.00002517,0.,-0.00000122,-0.00003165,0.,-0.00000640
 ,0.00000844,0.,-0.00001379,-0.00001444,0.,-0.00000697,-0.00002044,0.,-
 0.00002230,-0.00006604,0.,0.00009548,-0.00000666,0.,0.00001166,-0.0000
 0681,0.,-0.00001444,0.00000774,0.,-0.00003157,-0.00000885,0.,0.0000199
 5,0.00003540,0.\\\@


 MAN IS THE MEASURE OF ALL THINGS.
  -- PROTAGORAS (5TH CENTURY B.C.)
 Job cpu time:       0 days  8 hours 20 minutes 59.8 seconds.
 Elapsed time:       0 days  0 hours 25 minutes  3.8 seconds.
 File lengths (MBytes):  RWF=   1817 Int=      0 D2E=      0 Chk=     32 Scr=      1
 Normal termination of Gaussian 16 at Mon Mar 25 16:32:53 2019.
