 Entering Gaussian System, Link 0=g09
 Initial command:
 /usr/local/Cluster-Apps/gaussian/g09/l1.exe "/rds/user/am2145/hpc-work/scratch/19184504/Gau-103019.inp" -scrdir="/rds/user/am2145/hpc-work/scratch/19184504/"
 Entering Link 1 = /usr/local/Cluster-Apps/gaussian/g09/l1.exe PID=    103020.
  
 Copyright (c) 1988,1990,1992,1993,1995,1998,2003,2009,2013,
            Gaussian, Inc.  All Rights Reserved.
  
 This is part of the Gaussian(R) 09 program.  It is based on
 the Gaussian(R) 03 system (copyright 2003, Gaussian, Inc.),
 the Gaussian(R) 98 system (copyright 1998, Gaussian, Inc.),
 the Gaussian(R) 94 system (copyright 1995, Gaussian, Inc.),
 the Gaussian 92(TM) system (copyright 1992, Gaussian, Inc.),
 the Gaussian 90(TM) system (copyright 1990, Gaussian, Inc.),
 the Gaussian 88(TM) system (copyright 1988, Gaussian, Inc.),
 the Gaussian 86(TM) system (copyright 1986, Carnegie Mellon
 University), and the Gaussian 82(TM) system (copyright 1983,
 Carnegie Mellon University). Gaussian is a federally registered
 trademark of Gaussian, Inc.
  
 This software contains proprietary and confidential information,
 including trade secrets, belonging to Gaussian, Inc.
  
 This software is provided under written license and may be
 used, copied, transmitted, or stored only in accord with that
 written license.
  
 The following legend is applicable only to US Government
 contracts under FAR:
  
                    RESTRICTED RIGHTS LEGEND
  
 Use, reproduction and disclosure by the US Government is
 subject to restrictions as set forth in subparagraphs (a)
 and (c) of the Commercial Computer Software - Restricted
 Rights clause in FAR 52.227-19.
  
 Gaussian, Inc.
 340 Quinnipiac St., Bldg. 40, Wallingford CT 06492
  
  
 ---------------------------------------------------------------
 Warning -- This program may not be used in any manner that
 competes with the business of Gaussian, Inc. or will provide
 assistance to any competitor of Gaussian, Inc.  The licensee
 of this program is prohibited from giving any competitor of
 Gaussian, Inc. access to this program.  By using this program,
 the user acknowledges that Gaussian, Inc. is engaged in the
 business of creating and licensing software in the field of
 computational chemistry and represents and warrants to the
 licensee that it is not a competitor of Gaussian, Inc. and that
 it will not use this program in any manner prohibited above.
 ---------------------------------------------------------------
  

 Cite this work as:
 Gaussian 09, Revision D.01,
 M. J. Frisch, G. W. Trucks, H. B. Schlegel, G. E. Scuseria, 
 M. A. Robb, J. R. Cheeseman, G. Scalmani, V. Barone, B. Mennucci, 
 G. A. Petersson, H. Nakatsuji, M. Caricato, X. Li, H. P. Hratchian, 
 A. F. Izmaylov, J. Bloino, G. Zheng, J. L. Sonnenberg, M. Hada, 
 M. Ehara, K. Toyota, R. Fukuda, J. Hasegawa, M. Ishida, T. Nakajima, 
 Y. Honda, O. Kitao, H. Nakai, T. Vreven, J. A. Montgomery, Jr., 
 J. E. Peralta, F. Ogliaro, M. Bearpark, J. J. Heyd, E. Brothers, 
 K. N. Kudin, V. N. Staroverov, T. Keith, R. Kobayashi, J. Normand, 
 K. Raghavachari, A. Rendell, J. C. Burant, S. S. Iyengar, J. Tomasi, 
 M. Cossi, N. Rega, J. M. Millam, M. Klene, J. E. Knox, J. B. Cross, 
 V. Bakken, C. Adamo, J. Jaramillo, R. Gomperts, R. E. Stratmann, 
 O. Yazyev, A. J. Austin, R. Cammi, C. Pomelli, J. W. Ochterski, 
 R. L. Martin, K. Morokuma, V. G. Zakrzewski, G. A. Voth, 
 P. Salvador, J. J. Dannenberg, S. Dapprich, A. D. Daniels, 
 O. Farkas, J. B. Foresman, J. V. Ortiz, J. Cioslowski, 
 and D. J. Fox, Gaussian, Inc., Wallingford CT, 2013.
 
 ******************************************
 Gaussian 09:  ES64L-G09RevD.01 24-Apr-2013
                 1-Feb-2020 
 ******************************************
 %NProcShared=20
 Will use up to   20 processors via shared memory.
 %mem=64GB
 %Chk=AS2a_Hmig.chk
 ------------------------------
 #n opt freq b3lyp/6-311+g(d,p)
 ------------------------------
 1/14=-1,18=20,19=15,26=3,38=1/1,3;
 2/9=110,12=2,17=6,18=5,40=1/2;
 3/5=4,6=6,7=111,11=2,16=1,25=1,30=1,71=1,74=-5/1,2,3;
 4//1;
 5/5=2,38=5/2;
 6/7=2,8=2,9=2,10=2,28=1/1;
 7//1,2,3,16;
 1/14=-1,18=20,19=15,26=3/3(2);
 2/9=110/2;
 99//99;
 2/9=110/2;
 3/5=4,6=6,7=111,11=2,16=1,25=1,30=1,71=1,74=-5/1,2,3;
 4/5=5,16=3,69=1/1;
 5/5=2,38=5/2;
 7//1,2,3,16;
 1/14=-1,18=20,19=15,26=3/3(-5);
 2/9=110/2;
 6/7=2,8=2,9=2,10=2,19=2,28=1/1;
 99/9=1/99;
 ---------
 AS2a_Hmig
 ---------
 Symbolic Z-matrix:
 Charge =  0 Multiplicity = 2
 C                     1.68963   3.40745  -0.01235 
 C                     0.52383   2.62375  -0.04298 
 C                     0.49585   1.25952  -0.05744 
 C                     2.94945   2.81368   0.0091 
 C                     3.04236   1.3947    0.00093 
 C                     1.82546   0.72018  -0.03501 
 C                    -0.43626   0.07329  -0.06755 
 C                     0.41031  -1.05106  -0.04128 
 C                     1.76015  -0.66845  -0.02622 
 C                     0.06621  -2.40864   0.00105 
 C                    -1.30446  -2.65909   0.02277 
 C                    -2.23324  -1.59074  -0.00518 
 C                    -1.83101  -0.18335  -0.06926 
 C                    -3.62209  -1.9069    0.04081 
 C                    -4.57627  -0.9288    0.0208 
 C                    -2.86822   0.81653  -0.11149 
 C                    -4.19255   0.42679  -0.06693 
 H                    -2.91774   4.27784   0.19218 
 H                     1.60837   4.48914  -0.00301 
 H                     3.83839   3.43542   0.03524 
 C                     4.20475   0.54058   0.03729 
 C                     2.84599  -1.51485   0.02073 
 C                     1.18404  -3.33486   0.03973 
 H                    -1.68998  -3.67266   0.07054 
 H                    -3.90755  -2.95233   0.08723 
 H                    -4.95953   1.18893  -0.13836 
 H                    -5.62882  -1.18634   0.04943 
 C                    -2.5467    2.24912  -0.2493 
 C                    -3.18582   3.24324   0.37106 
 H                    -3.98026   3.0583    1.08649 
 H                    -1.73096   2.49848  -0.92025 
 C                     4.11745  -0.84175   0.04733 
 C                     2.49671  -2.92144   0.04798 
 H                     5.18779   0.99952   0.06285 
 H                     5.03307  -1.42301   0.08071 
 H                     3.28322  -3.66825   0.08158 
 H                     0.97059  -4.39849   0.06795 
 

 GradGradGradGradGradGradGradGradGradGradGradGradGradGradGradGradGradGrad
 Berny optimization.
 Initialization pass.
                           ----------------------------
                           !    Initial Parameters    !
                           ! (Angstroms and Degrees)  !
 --------------------------                            --------------------------
 ! Name  Definition              Value          Derivative Info.                !
 --------------------------------------------------------------------------------
 ! R1    R(1,2)                  1.4051         estimate D2E/DX2                !
 ! R2    R(1,4)                  1.3929         estimate D2E/DX2                !
 ! R3    R(1,19)                 1.0848         estimate D2E/DX2                !
 ! R4    R(2,3)                  1.3646         estimate D2E/DX2                !
 ! R5    R(3,6)                  1.435          estimate D2E/DX2                !
 ! R6    R(3,7)                  1.5087         estimate D2E/DX2                !
 ! R7    R(4,5)                  1.422          estimate D2E/DX2                !
 ! R8    R(4,20)                 1.0851         estimate D2E/DX2                !
 ! R9    R(5,6)                  1.3918         estimate D2E/DX2                !
 ! R10   R(5,21)                 1.4429         estimate D2E/DX2                !
 ! R11   R(6,9)                  1.3902         estimate D2E/DX2                !
 ! R12   R(7,8)                  1.4077         estimate D2E/DX2                !
 ! R13   R(7,13)                 1.4182         estimate D2E/DX2                !
 ! R14   R(8,9)                  1.4031         estimate D2E/DX2                !
 ! R15   R(8,10)                 1.4011         estimate D2E/DX2                !
 ! R16   R(9,22)                 1.3776         estimate D2E/DX2                !
 ! R17   R(10,11)                1.3935         estimate D2E/DX2                !
 ! R18   R(10,23)                1.4522         estimate D2E/DX2                !
 ! R19   R(11,12)                1.4159         estimate D2E/DX2                !
 ! R20   R(11,24)                1.0855         estimate D2E/DX2                !
 ! R21   R(12,13)                1.4651         estimate D2E/DX2                !
 ! R22   R(12,14)                1.4251         estimate D2E/DX2                !
 ! R23   R(13,16)                1.4413         estimate D2E/DX2                !
 ! R24   R(14,15)                1.3666         estimate D2E/DX2                !
 ! R25   R(14,25)                1.0847         estimate D2E/DX2                !
 ! R26   R(15,17)                1.4116         estimate D2E/DX2                !
 ! R27   R(15,27)                1.084          estimate D2E/DX2                !
 ! R28   R(16,17)                1.3812         estimate D2E/DX2                !
 ! R29   R(16,28)                1.4747         estimate D2E/DX2                !
 ! R30   R(17,26)                1.0836         estimate D2E/DX2                !
 ! R31   R(18,29)                1.0836         estimate D2E/DX2                !
 ! R32   R(21,32)                1.3851         estimate D2E/DX2                !
 ! R33   R(21,34)                1.0852         estimate D2E/DX2                !
 ! R34   R(22,32)                1.4389         estimate D2E/DX2                !
 ! R35   R(22,33)                1.4496         estimate D2E/DX2                !
 ! R36   R(23,33)                1.3763         estimate D2E/DX2                !
 ! R37   R(23,37)                1.0852         estimate D2E/DX2                !
 ! R38   R(28,29)                1.3348         estimate D2E/DX2                !
 ! R39   R(28,31)                1.0853         estimate D2E/DX2                !
 ! R40   R(29,30)                1.085          estimate D2E/DX2                !
 ! R41   R(32,35)                1.0851         estimate D2E/DX2                !
 ! R42   R(33,36)                1.0851         estimate D2E/DX2                !
 ! A1    A(2,1,4)              120.8644         estimate D2E/DX2                !
 ! A2    A(2,1,19)             119.6179         estimate D2E/DX2                !
 ! A3    A(4,1,19)             119.5175         estimate D2E/DX2                !
 ! A4    A(1,2,3)              125.09           estimate D2E/DX2                !
 ! A5    A(2,3,6)              110.8903         estimate D2E/DX2                !
 ! A6    A(2,3,7)              143.0164         estimate D2E/DX2                !
 ! A7    A(6,3,7)              106.0839         estimate D2E/DX2                !
 ! A8    A(1,4,5)              118.9712         estimate D2E/DX2                !
 ! A9    A(1,4,20)             119.8063         estimate D2E/DX2                !
 ! A10   A(5,4,20)             121.222          estimate D2E/DX2                !
 ! A11   A(4,5,6)              115.2531         estimate D2E/DX2                !
 ! A12   A(4,5,21)             130.0276         estimate D2E/DX2                !
 ! A13   A(6,5,21)             114.7163         estimate D2E/DX2                !
 ! A14   A(3,6,5)              128.93           estimate D2E/DX2                !
 ! A15   A(3,6,9)              109.3897         estimate D2E/DX2                !
 ! A16   A(5,6,9)              121.6686         estimate D2E/DX2                !
 ! A17   A(3,7,8)              104.8526         estimate D2E/DX2                !
 ! A18   A(3,7,13)             138.5846         estimate D2E/DX2                !
 ! A19   A(8,7,13)             116.548          estimate D2E/DX2                !
 ! A20   A(7,8,9)              111.1595         estimate D2E/DX2                !
 ! A21   A(7,8,10)             128.8118         estimate D2E/DX2                !
 ! A22   A(9,8,10)             120.0098         estimate D2E/DX2                !
 ! A23   A(6,9,8)              108.5125         estimate D2E/DX2                !
 ! A24   A(6,9,22)             125.2341         estimate D2E/DX2                !
 ! A25   A(8,9,22)             126.2379         estimate D2E/DX2                !
 ! A26   A(8,10,11)            114.5924         estimate D2E/DX2                !
 ! A27   A(8,10,23)            115.4507         estimate D2E/DX2                !
 ! A28   A(11,10,23)           129.9465         estimate D2E/DX2                !
 ! A29   A(10,11,12)           120.6162         estimate D2E/DX2                !
 ! A30   A(10,11,24)           121.1878         estimate D2E/DX2                !
 ! A31   A(12,11,24)           118.1937         estimate D2E/DX2                !
 ! A32   A(11,12,13)           123.0639         estimate D2E/DX2                !
 ! A33   A(11,12,14)           118.1147         estimate D2E/DX2                !
 ! A34   A(13,12,14)           118.82           estimate D2E/DX2                !
 ! A35   A(7,13,12)            116.3453         estimate D2E/DX2                !
 ! A36   A(7,13,16)            125.6086         estimate D2E/DX2                !
 ! A37   A(12,13,16)           118.0413         estimate D2E/DX2                !
 ! A38   A(12,14,15)           121.4127         estimate D2E/DX2                !
 ! A39   A(12,14,25)           118.1427         estimate D2E/DX2                !
 ! A40   A(15,14,25)           120.4438         estimate D2E/DX2                !
 ! A41   A(14,15,17)           119.8972         estimate D2E/DX2                !
 ! A42   A(14,15,27)           120.5005         estimate D2E/DX2                !
 ! A43   A(17,15,27)           119.5881         estimate D2E/DX2                !
 ! A44   A(13,16,17)           119.5578         estimate D2E/DX2                !
 ! A45   A(13,16,28)           121.317          estimate D2E/DX2                !
 ! A46   A(17,16,28)           119.09           estimate D2E/DX2                !
 ! A47   A(15,17,16)           122.251          estimate D2E/DX2                !
 ! A48   A(15,17,26)           119.1518         estimate D2E/DX2                !
 ! A49   A(16,17,26)           118.559          estimate D2E/DX2                !
 ! A50   A(5,21,32)            122.6944         estimate D2E/DX2                !
 ! A51   A(5,21,34)            118.6859         estimate D2E/DX2                !
 ! A52   A(32,21,34)           118.6189         estimate D2E/DX2                !
 ! A53   A(9,22,32)            114.1879         estimate D2E/DX2                !
 ! A54   A(9,22,33)            114.0114         estimate D2E/DX2                !
 ! A55   A(32,22,33)           131.7973         estimate D2E/DX2                !
 ! A56   A(10,23,33)           122.8708         estimate D2E/DX2                !
 ! A57   A(10,23,37)           118.321          estimate D2E/DX2                !
 ! A58   A(33,23,37)           118.8076         estimate D2E/DX2                !
 ! A59   A(16,28,29)           125.1489         estimate D2E/DX2                !
 ! A60   A(16,28,31)           116.4149         estimate D2E/DX2                !
 ! A61   A(29,28,31)           118.4324         estimate D2E/DX2                !
 ! A62   A(18,29,28)           121.0584         estimate D2E/DX2                !
 ! A63   A(18,29,30)           116.9193         estimate D2E/DX2                !
 ! A64   A(28,29,30)           122.0135         estimate D2E/DX2                !
 ! A65   A(21,32,22)           121.4941         estimate D2E/DX2                !
 ! A66   A(21,32,35)           118.7936         estimate D2E/DX2                !
 ! A67   A(22,32,35)           119.7116         estimate D2E/DX2                !
 ! A68   A(22,33,23)           121.4127         estimate D2E/DX2                !
 ! A69   A(22,33,36)           119.5884         estimate D2E/DX2                !
 ! A70   A(23,33,36)           118.9979         estimate D2E/DX2                !
 ! D1    D(4,1,2,3)             -0.1459         estimate D2E/DX2                !
 ! D2    D(19,1,2,3)           179.9929         estimate D2E/DX2                !
 ! D3    D(2,1,4,5)             -0.063          estimate D2E/DX2                !
 ! D4    D(2,1,4,20)          -179.8425         estimate D2E/DX2                !
 ! D5    D(19,1,4,5)           179.7983         estimate D2E/DX2                !
 ! D6    D(19,1,4,20)            0.0188         estimate D2E/DX2                !
 ! D7    D(1,2,3,6)              0.0904         estimate D2E/DX2                !
 ! D8    D(1,2,3,7)            178.732          estimate D2E/DX2                !
 ! D9    D(2,3,6,5)              0.1869         estimate D2E/DX2                !
 ! D10   D(2,3,6,9)            178.9393         estimate D2E/DX2                !
 ! D11   D(7,3,6,5)           -178.9627         estimate D2E/DX2                !
 ! D12   D(7,3,6,9)             -0.2103         estimate D2E/DX2                !
 ! D13   D(2,3,7,8)           -178.2924         estimate D2E/DX2                !
 ! D14   D(2,3,7,13)             0.1686         estimate D2E/DX2                !
 ! D15   D(6,3,7,8)              0.3868         estimate D2E/DX2                !
 ! D16   D(6,3,7,13)           178.8478         estimate D2E/DX2                !
 ! D17   D(1,4,5,6)              0.2899         estimate D2E/DX2                !
 ! D18   D(1,4,5,21)          -179.0283         estimate D2E/DX2                !
 ! D19   D(20,4,5,6)          -179.9339         estimate D2E/DX2                !
 ! D20   D(20,4,5,21)            0.7479         estimate D2E/DX2                !
 ! D21   D(4,5,6,3)             -0.3779         estimate D2E/DX2                !
 ! D22   D(4,5,6,9)           -178.9952         estimate D2E/DX2                !
 ! D23   D(21,5,6,3)           179.0474         estimate D2E/DX2                !
 ! D24   D(21,5,6,9)             0.4301         estimate D2E/DX2                !
 ! D25   D(4,5,21,32)          178.79           estimate D2E/DX2                !
 ! D26   D(4,5,21,34)           -0.8947         estimate D2E/DX2                !
 ! D27   D(6,5,21,32)           -0.5312         estimate D2E/DX2                !
 ! D28   D(6,5,21,34)          179.7841         estimate D2E/DX2                !
 ! D29   D(3,6,9,8)             -0.0521         estimate D2E/DX2                !
 ! D30   D(3,6,9,22)          -178.6865         estimate D2E/DX2                !
 ! D31   D(5,6,9,8)            178.8076         estimate D2E/DX2                !
 ! D32   D(5,6,9,22)             0.1731         estimate D2E/DX2                !
 ! D33   D(3,7,8,9)             -0.4353         estimate D2E/DX2                !
 ! D34   D(3,7,8,10)           177.9574         estimate D2E/DX2                !
 ! D35   D(13,7,8,9)          -179.2973         estimate D2E/DX2                !
 ! D36   D(13,7,8,10)           -0.9046         estimate D2E/DX2                !
 ! D37   D(3,7,13,12)         -176.6662         estimate D2E/DX2                !
 ! D38   D(3,7,13,16)            2.5179         estimate D2E/DX2                !
 ! D39   D(8,7,13,12)            1.6709         estimate D2E/DX2                !
 ! D40   D(8,7,13,16)         -179.145          estimate D2E/DX2                !
 ! D41   D(7,8,9,6)              0.3206         estimate D2E/DX2                !
 ! D42   D(7,8,9,22)           178.9378         estimate D2E/DX2                !
 ! D43   D(10,8,9,6)          -178.2331         estimate D2E/DX2                !
 ! D44   D(10,8,9,22)            0.3841         estimate D2E/DX2                !
 ! D45   D(7,8,10,11)           -0.1699         estimate D2E/DX2                !
 ! D46   D(7,8,10,23)         -179.1132         estimate D2E/DX2                !
 ! D47   D(9,8,10,11)          178.099          estimate D2E/DX2                !
 ! D48   D(9,8,10,23)           -0.8443         estimate D2E/DX2                !
 ! D49   D(6,9,22,32)           -0.6521         estimate D2E/DX2                !
 ! D50   D(6,9,22,33)          178.7543         estimate D2E/DX2                !
 ! D51   D(8,9,22,32)         -179.0467         estimate D2E/DX2                !
 ! D52   D(8,9,22,33)            0.3597         estimate D2E/DX2                !
 ! D53   D(8,10,11,12)           0.348          estimate D2E/DX2                !
 ! D54   D(8,10,11,24)        -179.0873         estimate D2E/DX2                !
 ! D55   D(23,10,11,12)        179.1033         estimate D2E/DX2                !
 ! D56   D(23,10,11,24)         -0.332          estimate D2E/DX2                !
 ! D57   D(8,10,23,33)           0.6138         estimate D2E/DX2                !
 ! D58   D(8,10,23,37)        -179.6792         estimate D2E/DX2                !
 ! D59   D(11,10,23,33)       -178.1329         estimate D2E/DX2                !
 ! D60   D(11,10,23,37)          1.5741         estimate D2E/DX2                !
 ! D61   D(10,11,12,13)          0.5473         estimate D2E/DX2                !
 ! D62   D(10,11,12,14)       -179.0054         estimate D2E/DX2                !
 ! D63   D(24,11,12,13)        179.9992         estimate D2E/DX2                !
 ! D64   D(24,11,12,14)          0.4465         estimate D2E/DX2                !
 ! D65   D(11,12,13,7)          -1.6015         estimate D2E/DX2                !
 ! D66   D(11,12,13,16)        179.1501         estimate D2E/DX2                !
 ! D67   D(14,12,13,7)         177.9482         estimate D2E/DX2                !
 ! D68   D(14,12,13,16)         -1.3002         estimate D2E/DX2                !
 ! D69   D(11,12,14,15)        179.8418         estimate D2E/DX2                !
 ! D70   D(11,12,14,25)         -0.479          estimate D2E/DX2                !
 ! D71   D(13,12,14,15)          0.2697         estimate D2E/DX2                !
 ! D72   D(13,12,14,25)        179.9488         estimate D2E/DX2                !
 ! D73   D(7,13,16,17)        -178.038          estimate D2E/DX2                !
 ! D74   D(7,13,16,28)           4.1379         estimate D2E/DX2                !
 ! D75   D(12,13,16,17)          1.1336         estimate D2E/DX2                !
 ! D76   D(12,13,16,28)       -176.6905         estimate D2E/DX2                !
 ! D77   D(12,14,15,17)          0.9479         estimate D2E/DX2                !
 ! D78   D(12,14,15,27)        179.5712         estimate D2E/DX2                !
 ! D79   D(25,14,15,17)       -178.7239         estimate D2E/DX2                !
 ! D80   D(25,14,15,27)         -0.1006         estimate D2E/DX2                !
 ! D81   D(14,15,17,16)         -1.1432         estimate D2E/DX2                !
 ! D82   D(14,15,17,26)        176.5746         estimate D2E/DX2                !
 ! D83   D(27,15,17,16)       -179.7791         estimate D2E/DX2                !
 ! D84   D(27,15,17,26)         -2.0614         estimate D2E/DX2                !
 ! D85   D(13,16,17,15)          0.0661         estimate D2E/DX2                !
 ! D86   D(13,16,17,26)       -177.6646         estimate D2E/DX2                !
 ! D87   D(28,16,17,15)        177.939          estimate D2E/DX2                !
 ! D88   D(28,16,17,26)          0.2083         estimate D2E/DX2                !
 ! D89   D(13,16,28,29)       -141.7298         estimate D2E/DX2                !
 ! D90   D(13,16,28,31)         38.9965         estimate D2E/DX2                !
 ! D91   D(17,16,28,29)         40.4361         estimate D2E/DX2                !
 ! D92   D(17,16,28,31)       -138.8376         estimate D2E/DX2                !
 ! D93   D(5,21,32,22)           0.0476         estimate D2E/DX2                !
 ! D94   D(5,21,32,35)        -179.6659         estimate D2E/DX2                !
 ! D95   D(34,21,32,22)        179.7326         estimate D2E/DX2                !
 ! D96   D(34,21,32,35)          0.0191         estimate D2E/DX2                !
 ! D97   D(9,22,32,21)           0.5292         estimate D2E/DX2                !
 ! D98   D(9,22,32,35)        -179.7599         estimate D2E/DX2                !
 ! D99   D(33,22,32,21)       -178.7434         estimate D2E/DX2                !
 ! D100  D(33,22,32,35)          0.9674         estimate D2E/DX2                !
 ! D101  D(9,22,33,23)          -0.598          estimate D2E/DX2                !
 ! D102  D(9,22,33,36)         179.7705         estimate D2E/DX2                !
 ! D103  D(32,22,33,23)        178.6757         estimate D2E/DX2                !
 ! D104  D(32,22,33,36)         -0.9558         estimate D2E/DX2                !
 ! D105  D(10,23,33,22)          0.1233         estimate D2E/DX2                !
 ! D106  D(10,23,33,36)        179.7569         estimate D2E/DX2                !
 ! D107  D(37,23,33,22)       -179.5824         estimate D2E/DX2                !
 ! D108  D(37,23,33,36)          0.0512         estimate D2E/DX2                !
 ! D109  D(16,28,29,18)       -177.6517         estimate D2E/DX2                !
 ! D110  D(16,28,29,30)          3.4632         estimate D2E/DX2                !
 ! D111  D(31,28,29,18)          1.6087         estimate D2E/DX2                !
 ! D112  D(31,28,29,30)       -177.2764         estimate D2E/DX2                !
 --------------------------------------------------------------------------------
 Trust Radius=3.00D-01 FncErr=1.00D-07 GrdErr=1.00D-06
 Number of steps in this run=    222 maximum allowed number of steps=    222.
 GradGradGradGradGradGradGradGradGradGradGradGradGradGradGradGradGradGrad

                          Input orientation:                          
 ---------------------------------------------------------------------
 Center     Atomic      Atomic             Coordinates (Angstroms)
 Number     Number       Type             X           Y           Z
 ---------------------------------------------------------------------
      1          6           0        1.689630    3.407450   -0.012350
      2          6           0        0.523830    2.623750   -0.042980
      3          6           0        0.495850    1.259520   -0.057440
      4          6           0        2.949450    2.813680    0.009100
      5          6           0        3.042360    1.394700    0.000930
      6          6           0        1.825460    0.720180   -0.035010
      7          6           0       -0.436260    0.073290   -0.067550
      8          6           0        0.410310   -1.051060   -0.041280
      9          6           0        1.760150   -0.668450   -0.026220
     10          6           0        0.066210   -2.408640    0.001050
     11          6           0       -1.304460   -2.659090    0.022770
     12          6           0       -2.233240   -1.590740   -0.005180
     13          6           0       -1.831010   -0.183350   -0.069260
     14          6           0       -3.622090   -1.906900    0.040810
     15          6           0       -4.576270   -0.928800    0.020800
     16          6           0       -2.868220    0.816530   -0.111490
     17          6           0       -4.192550    0.426790   -0.066930
     18          1           0       -2.917740    4.277840    0.192180
     19          1           0        1.608370    4.489140   -0.003010
     20          1           0        3.838390    3.435420    0.035240
     21          6           0        4.204750    0.540580    0.037290
     22          6           0        2.845990   -1.514850    0.020730
     23          6           0        1.184040   -3.334860    0.039730
     24          1           0       -1.689980   -3.672660    0.070540
     25          1           0       -3.907550   -2.952330    0.087230
     26          1           0       -4.959530    1.188930   -0.138360
     27          1           0       -5.628820   -1.186340    0.049430
     28          6           0       -2.546700    2.249120   -0.249300
     29          6           0       -3.185820    3.243240    0.371060
     30          1           0       -3.980260    3.058300    1.086490
     31          1           0       -1.730960    2.498480   -0.920250
     32          6           0        4.117450   -0.841750    0.047330
     33          6           0        2.496710   -2.921440    0.047980
     34          1           0        5.187790    0.999520    0.062850
     35          1           0        5.033070   -1.423010    0.080710
     36          1           0        3.283220   -3.668250    0.081580
     37          1           0        0.970590   -4.398490    0.067950
 ---------------------------------------------------------------------
                    Distance matrix (angstroms):
                    1          2          3          4          5
     1  C    0.000000
     2  C    1.405067   0.000000
     3  C    2.457793   1.364594   0.000000
     4  C    1.392900   2.433602   2.905167   0.000000
     5  C    2.425122   2.802764   2.550763   1.422042   0.000000
     6  C    2.690796   2.306054   1.435010   2.376561   1.391803
     7  C    3.954627   2.725293   1.508666   4.356449   3.721775
     8  C    4.638514   3.676563   2.312219   4.624498   3.593217
     9  C    4.076534   3.516724   2.305753   3.679798   2.429277
    10  C    6.038425   5.053346   3.693699   5.965380   4.829375
    11  C    6.765258   5.590650   4.313126   6.931605   5.943781
    12  C    6.353807   5.036347   3.946473   6.801426   6.061753
    13  C    5.029114   3.664120   2.737936   5.642794   5.122978
    14  C    7.513954   6.141862   5.195508   8.091355   7.437543
    15  C    7.620083   6.215762   5.524606   8.404924   7.965084
    16  C    5.243729   3.844053   3.393542   6.152108   5.939855
    17  C    6.594494   5.203023   4.761788   7.530683   7.299683
    18  H    4.693322   3.825666   4.563459   6.049893   6.623584
    19  H    1.084778   2.158125   3.416300   2.146115   3.410557
    20  H    2.149469   3.413390   3.989449   1.085107   2.190749
    21  C    3.814084   4.230273   3.779125   2.596836   1.442911
    22  C    5.056412   4.745998   3.636811   4.329782   2.916236
    23  C    6.761441   5.995644   4.646652   6.397043   5.081692
    24  H    7.845801   6.675224   5.396354   7.975004   6.933832
    25  H    8.472611   7.123675   6.095124   8.959432   8.197888
    26  H    7.010638   5.668778   5.456437   8.075489   8.005747
    27  H    8.640974   7.237432   6.595850   9.465120   9.047291
    28  C    4.398223   3.100173   3.205188   5.531109   5.659527
    29  C    4.893259   3.783742   4.203980   6.160931   6.507252
    30  H    5.785932   4.663836   4.957796   7.017228   7.298164
    31  H    3.653894   2.422679   2.690380   4.782184   4.985127
    32  C    4.894239   4.993190   4.188353   3.837689   2.481870
    33  C    6.380428   5.886396   4.636268   5.753094   4.350748
    34  H    4.247459   4.939822   4.700678   2.881706   2.182400
    35  H    5.875423   6.060100   5.272705   4.721879   3.450910
    36  H    7.253543   6.871609   5.663186   6.490922   5.069318
    37  H    7.839398   7.037312   5.679276   7.478954   6.152867
                    6          7          8          9         10
     6  C    0.000000
     7  C    2.352637   0.000000
     8  C    2.267152   1.407670   0.000000
     9  C    1.390193   2.318643   1.403098   0.000000
    10  C    3.589676   2.533211   1.401150   2.428670   0.000000
    11  C    4.606431   2.868419   2.351659   3.654707   1.393533
    12  C    4.670577   2.449903   2.698317   4.098564   2.440588
    13  C    3.766605   1.418166   2.403585   3.624032   2.925116
    14  C    6.048396   3.752653   4.123039   5.523292   3.722483
    15  C    6.610930   4.260478   4.988465   6.341941   4.872672
    16  C    4.695292   2.543377   3.773802   4.861506   4.361796
    17  C    6.025242   3.772887   4.834358   6.052755   5.116769
    18  H    5.933507   4.889115   6.287098   6.811471   7.324582
    19  H    3.775343   4.866663   5.668389   5.159875   7.068072
    20  H    3.380732   5.439404   5.646777   4.600501   6.955828
    21  C    2.387154   4.665654   4.115491   2.727977   5.082000
    22  C    2.457630   3.647348   2.480218   1.377551   2.920004
    23  C    4.106136   3.775231   2.412667   2.728735   1.452213
    24  H    5.627300   3.952597   3.361028   4.575810   2.164897
    25  H    6.809528   4.607406   4.719667   6.111612   4.011707
    26  H    6.801948   4.659360   5.819120   6.972556   6.182233
    27  H    7.694689   5.344439   6.041326   7.407483   5.824923
    28  C    4.636740   3.036647   4.436031   5.206816   5.346466
    29  C    5.625269   4.219128   5.616332   6.318368   6.531183
    30  H    6.358534   4.775147   6.118481   6.933909   6.887636
    31  H    4.073589   2.878349   4.237554   4.797560   5.306453
    32  C    2.774820   4.646157   3.714101   2.364806   4.343942
    33  C    3.703898   4.193336   2.803454   2.371495   2.484451
    34  H    3.375333   5.701302   5.200004   3.812974   6.152232
    35  H    3.859458   5.672254   4.639304   3.360476   5.064337
    36  H    4.625686   5.277868   3.888237   3.366031   3.455757
    37  H    5.190586   4.689819   3.395752   3.813853   2.186751
                   11         12         13         14         15
    11  C    0.000000
    12  C    1.415904   0.000000
    13  C    2.532788   1.465142   0.000000
    14  C    2.436704   1.425123   2.488113   0.000000
    15  C    3.701168   2.434878   2.846095   1.366579   0.000000
    16  C    3.813569   2.491877   1.441301   2.829945   2.445631
    17  C    4.227501   2.813030   2.439087   2.404816   1.411581
    18  H    7.124070   5.911660   4.599081   6.226558   5.467101
    19  H    7.718966   7.191864   5.802231   8.262503   8.222190
    20  H    7.974466   7.882170   6.726701   9.176011   9.479089
    21  C    6.370988   6.781743   6.079953   8.200585   8.903127
    22  C    4.305290   5.079863   4.863673   6.479982   7.445361
    23  C    2.578679   3.836896   4.362845   5.013777   6.242648
    24  H    1.085464   2.152964   3.494956   2.617602   3.982702
    25  H    2.620348   2.160042   3.464644   1.084696   2.132199
    26  H    5.309685   3.895762   3.416953   3.377131   2.158008
    27  H    4.568347   3.420012   3.929814   2.132193   1.083978
    28  C    5.070277   3.860360   2.541955   4.302689   3.780381
    29  C    6.204702   4.941288   3.710918   5.179125   4.411570
    30  H    6.401559   5.085017   4.057503   5.086742   4.169879
    31  H    5.260391   4.220351   2.815387   4.889518   4.552759
    32  C    5.718429   6.394920   5.985922   7.812494   8.694196
    33  C    3.810296   4.913860   5.122504   6.202343   7.348360
    34  H    7.452271   7.860392   7.119002   9.276947   9.952741
    35  H    6.457208   7.268753   6.976736   8.668768   9.622227
    36  H    4.697730   5.895329   6.190527   7.126522   8.323453
    37  H    2.864159   4.260673   5.063121   5.225081   6.542830
                   16         17         18         19         20
    16  C    0.000000
    17  C    1.381207   0.000000
    18  H    3.474958   4.064833   0.000000
    19  H    5.791346   7.082192   4.535242   0.000000
    20  H    7.201301   8.576613   6.810257   2.466734   0.000000
    21  C    7.079914   8.398718   8.044934   4.725880   2.917931
    22  C    6.172926   7.301965   8.173447   6.130266   5.048786
    23  C    5.803251   6.562706   8.648760   7.835615   7.272021
    24  H    4.644805   4.804919   8.045660   8.803380   9.004939
    25  H    3.914588   3.394620   7.298363   9.263314  10.040201
    26  H    2.124378   1.083613   3.717463   7.351668   9.081864
    27  H    3.414425   2.163007   6.101442   9.197323  10.535128
    28  C    1.474680   2.462309   2.109095   4.726834   6.500588
    29  C    2.494523   3.022868   1.083634   4.967540   7.034859
    30  H    2.774405   2.881022   1.848247   5.870869   7.898015
    31  H    2.185500   3.328585   2.410823   3.994394   5.727868
    32  C    7.181553   8.407042   8.702016   5.892063   4.286281
    33  C    6.540667   7.481313   9.009256   7.463809   6.496917
    34  H    8.059974   9.398704   8.744354   4.999403   2.784825
    35  H    8.214795   9.410400   9.784043   6.832942   5.003366
    36  H    7.615165   8.525171  10.079905   8.327982   7.125482
    37  H    6.478047   7.068206   9.508588   8.910767   8.342391
                   21         22         23         24         25
    21  C    0.000000
    22  C    2.464000   0.000000
    23  C    4.913627   2.464726   0.000000
    24  H    7.245712   5.023311   2.893968   0.000000
    25  H    8.832459   6.905148   5.106160   2.331688   0.000000
    26  H    9.188865   8.262075   7.631503   5.862478   4.278737
    27  H    9.984062   8.481223   7.143619   4.657971   2.466358
    28  C    6.970174   6.581906   6.721815   5.991973   5.387044
    29  C    7.876312   7.690571   7.904230   7.082198   6.243920
    30  H    8.627521   8.285363   8.284817   7.182156   6.093561
    31  H    6.323204   6.159605   6.591407   6.250305   5.955157
    32  C    1.385120   1.438882   3.849747   6.460715   8.297998
    33  C    3.860453   1.449564   1.376258   4.253612   6.404455
    34  H    1.085194   3.436256   5.900627   8.314628   9.916800
    35  H    2.131592   2.189829   4.297893   7.089459   9.070477
    36  H    4.308762   2.198182   2.125901   4.973214   7.226323
    37  H    5.903824   3.440165   1.085203   2.757801   5.088025
                   26         27         28         29         30
    26  H    0.000000
    27  H    2.474898   0.000000
    28  C    2.637813   4.625050   0.000000
    29  C    2.761475   5.068814   1.334764   0.000000
    30  H    2.440035   4.670140   2.119953   1.084978   0.000000
    31  H    3.570705   5.450825   1.085259   2.082971   3.065902
    32  C    9.303210   9.752360   7.352031   8.374348   9.047826
    33  C    8.516183   8.308719   7.229042   8.390400   8.876200
    34  H   10.151082  11.035271   7.841000   8.674481   9.451960
    35  H   10.330647  10.664562   8.428900   9.455599  10.116019
    36  H    9.569927   9.251236   8.313406   9.471060   9.950601
    37  H    8.150347   7.339650   7.527463   8.704232   9.008444
                   31         32         33         34         35
    31  H    0.000000
    32  C    6.804208   0.000000
    33  C    6.941628   2.636647   0.000000
    34  H    7.147200   2.129822   4.755635   0.000000
    35  H    7.882392   1.085052   2.946097   2.427531   0.000000
    36  H    8.010882   2.947239   1.085105   5.041410   2.846591
    37  H    7.472825   4.749058   2.123939   6.850059   5.035612
                   36         37
    36  H    0.000000
    37  H    2.425220   0.000000
 Stoichiometry    C24H13(2)
 Framework group  C1[X(C24H13)]
 Deg. of freedom   105
 Full point group                 C1      NOp   1
 Largest Abelian subgroup         C1      NOp   1
 Largest concise Abelian subgroup C1      NOp   1
                         Standard orientation:                         
 ---------------------------------------------------------------------
 Center     Atomic      Atomic             Coordinates (Angstroms)
 Number     Number       Type             X           Y           Z
 ---------------------------------------------------------------------
      1          6           0        1.689631    3.407450   -0.012351
      2          6           0        0.523831    2.623750   -0.042981
      3          6           0        0.495850    1.259520   -0.057441
      4          6           0        2.949451    2.813679    0.009099
      5          6           0        3.042361    1.394699    0.000929
      6          6           0        1.825460    0.720180   -0.035011
      7          6           0       -0.436260    0.073291   -0.067551
      8          6           0        0.410309   -1.051060   -0.041281
      9          6           0        1.760150   -0.668450   -0.026221
     10          6           0        0.066209   -2.408640    0.001049
     11          6           0       -1.304461   -2.659089    0.022769
     12          6           0       -2.233241   -1.590739   -0.005181
     13          6           0       -1.831010   -0.183349   -0.069261
     14          6           0       -3.622091   -1.906898    0.040809
     15          6           0       -4.576270   -0.928798    0.020799
     16          6           0       -2.868220    0.816532   -0.111491
     17          6           0       -4.192550    0.426792   -0.066931
     18          1           0       -2.917738    4.277842    0.192179
     19          1           0        1.608372    4.489140   -0.003011
     20          1           0        3.838391    3.435419    0.035239
     21          6           0        4.204750    0.540579    0.037289
     22          6           0        2.845989   -1.514851    0.020729
     23          6           0        1.184039   -3.334860    0.039729
     24          1           0       -1.689982   -3.672659    0.070539
     25          1           0       -3.907551   -2.952328    0.087229
     26          1           0       -4.959530    1.188932   -0.138361
     27          1           0       -5.628821   -1.186337    0.049429
     28          6           0       -2.546699    2.249121   -0.249301
     29          6           0       -3.185819    3.243242    0.371059
     30          1           0       -3.980259    3.058302    1.086489
     31          1           0       -1.730959    2.498481   -0.920251
     32          6           0        4.117450   -0.841751    0.047329
     33          6           0        2.496709   -2.921441    0.047979
     34          1           0        5.187790    0.999518    0.062849
     35          1           0        5.033069   -1.423012    0.080709
     36          1           0        3.283218   -3.668251    0.081579
     37          1           0        0.970588   -4.398490    0.067949
 ---------------------------------------------------------------------
 Rotational constants (GHZ):      0.4113252      0.2328962      0.1491466
 Standard basis: 6-311+G(d,p) (5D, 7F)
 There are   630 symmetry adapted cartesian basis functions of A   symmetry.
 There are   606 symmetry adapted basis functions of A   symmetry.
   606 basis functions,   968 primitive gaussians,   630 cartesian basis functions
    79 alpha electrons       78 beta electrons
       nuclear repulsion energy      1801.2976224275 Hartrees.
 NAtoms=   37 NActive=   37 NUniq=   37 SFac= 1.00D+00 NAtFMM=   60 NAOKFM=F Big=F
 Integral buffers will be    131072 words long.
 Raffenetti 2 integral format.
 Two-electron integral symmetry is turned on.
 One-electron integrals computed using PRISM.
 NBasis=   606 RedAO= T EigKep=  1.31D-06  NBF=   606
 NBsUse=   590 1.00D-06 EigRej=  7.70D-07 NBFU=   590
 ExpMin= 4.38D-02 ExpMax= 4.56D+03 ExpMxC= 6.82D+02 IAcc=2 IRadAn=         4 AccDes= 0.00D+00
 Harris functional with IExCor=  402 and IRadAn=       4 diagonalized for initial guess.
 HarFok:  IExCor=  402 AccDes= 0.00D+00 IRadAn=         4 IDoV= 1 UseB2=F ITyADJ=14
 ICtDFT=  3500011 ScaDFX=  1.000000  1.000000  1.000000  1.000000
 FoFCou: FMM=F IPFlag=           0 FMFlag=      100000 FMFlg1=           0
         NFxFlg=           0 DoJE=T BraDBF=F KetDBF=T FulRan=T
         wScrn=  0.000000 ICntrl=     500 IOpCl=  0 I1Cent=   200000004 NGrid=           0
         NMat0=    1 NMatS0=      1 NMatT0=    0 NMatD0=    1 NMtDS0=    0 NMtDT0=    0
 Petite list used in FoFCou.
 Initial guess <Sx>= 0.0000 <Sy>= 0.0000 <Sz>= 0.5000 <S**2>= 0.7500 S= 0.5000
 Requested convergence on RMS density matrix=1.00D-08 within 128 cycles.
 Requested convergence on MAX density matrix=1.00D-06.
 Requested convergence on             energy=1.00D-06.
 No special actions if energy rises.
 Restarting incremental Fock formation.
 SCF Done:  E(UB3LYP) =  -922.515600755     A.U. after   23 cycles
            NFock= 23  Conv=0.76D-08     -V/T= 2.0044
 <Sx>= 0.0000 <Sy>= 0.0000 <Sz>= 0.5000 <S**2>= 0.7591 S= 0.5046
 <L.S>= 0.000000000000E+00
 Annihilation of the first spin contaminant:
 S**2 before annihilation     0.7591,   after     0.7500

 **********************************************************************

            Population analysis using the SCF density.

 **********************************************************************

 Orbital symmetries:
 Alpha Orbitals:
       Occupied  (A) (A) (A) (A) (A) (A) (A) (A) (A) (A) (A) (A)
                 (A) (A) (A) (A) (A) (A) (A) (A) (A) (A) (A) (A)
                 (A) (A) (A) (A) (A) (A) (A) (A) (A) (A) (A) (A)
                 (A) (A) (A) (A) (A) (A) (A) (A) (A) (A) (A) (A)
                 (A) (A) (A) (A) (A) (A) (A) (A) (A) (A) (A) (A)
                 (A) (A) (A) (A) (A) (A) (A) (A) (A) (A) (A) (A)
                 (A) (A) (A) (A) (A) (A) (A)
       Virtual   (A) (A) (A) (A) (A) (A) (A) (A) (A) (A) (A) (A)
                 (A) (A) (A) (A) (A) (A) (A) (A) (A) (A) (A) (A)
                 (A) (A) (A) (A) (A) (A) (A) (A) (A) (A) (A) (A)
                 (A) (A) (A) (A) (A) (A) (A) (A) (A) (A) (A) (A)
                 (A) (A) (A) (A) (A) (A) (A) (A) (A) (A) (A) (A)
                 (A) (A) (A) (A) (A) (A) (A) (A) (A) (A) (A) (A)
                 (A) (A) (A) (A) (A) (A) (A) (A) (A) (A) (A) (A)
                 (A) (A) (A) (A) (A) (A) (A) (A) (A) (A) (A) (A)
                 (A) (A) (A) (A) (A) (A) (A) (A) (A) (A) (A) (A)
                 (A) (A) (A) (A) (A) (A) (A) (A) (A) (A) (A) (A)
                 (A) (A) (A) (A) (A) (A) (A) (A) (A) (A) (A) (A)
                 (A) (A) (A) (A) (A) (A) (A) (A) (A) (A) (A) (A)
                 (A) (A) (A) (A) (A) (A) (A) (A) (A) (A) (A) (A)
                 (A) (A) (A) (A) (A) (A) (A) (A) (A) (A) (A) (A)
                 (A) (A) (A) (A) (A) (A) (A) (A) (A) (A) (A) (A)
                 (A) (A) (A) (A) (A) (A) (A) (A) (A) (A) (A) (A)
                 (A) (A) (A) (A) (A) (A) (A) (A) (A) (A) (A) (A)
                 (A) (A) (A) (A) (A) (A) (A) (A) (A) (A) (A) (A)
                 (A) (A) (A) (A) (A) (A) (A) (A) (A) (A) (A) (A)
                 (A) (A) (A) (A) (A) (A) (A) (A) (A) (A) (A) (A)
                 (A) (A) (A) (A) (A) (A) (A) (A) (A) (A) (A) (A)
                 (A) (A) (A) (A) (A) (A) (A) (A) (A) (A) (A) (A)
                 (A) (A) (A) (A) (A) (A) (A) (A) (A) (A) (A) (A)
                 (A) (A) (A) (A) (A) (A) (A) (A) (A) (A) (A) (A)
                 (A) (A) (A) (A) (A) (A) (A) (A) (A) (A) (A) (A)
                 (A) (A) (A) (A) (A) (A) (A) (A) (A) (A) (A) (A)
                 (A) (A) (A) (A) (A) (A) (A) (A) (A) (A) (A) (A)
                 (A) (A) (A) (A) (A) (A) (A) (A) (A) (A) (A) (A)
                 (A) (A) (A) (A) (A) (A) (A) (A) (A) (A) (A) (A)
                 (A) (A) (A) (A) (A) (A) (A) (A) (A) (A) (A) (A)
                 (A) (A) (A) (A) (A) (A) (A) (A) (A) (A) (A) (A)
                 (A) (A) (A) (A) (A) (A) (A) (A) (A) (A) (A) (A)
                 (A) (A) (A) (A) (A) (A) (A) (A) (A) (A) (A) (A)
                 (A) (A) (A) (A) (A) (A) (A) (A) (A) (A) (A) (A)
                 (A) (A) (A) (A) (A) (A) (A) (A) (A) (A) (A) (A)
                 (A) (A) (A) (A) (A) (A) (A) (A) (A) (A) (A) (A)
                 (A) (A) (A) (A) (A) (A) (A) (A) (A) (A) (A) (A)
                 (A) (A) (A) (A) (A) (A) (A) (A) (A) (A) (A) (A)
                 (A) (A) (A) (A) (A) (A) (A) (A) (A) (A) (A) (A)
                 (A) (A) (A) (A) (A) (A) (A) (A) (A) (A) (A) (A)
                 (A) (A) (A) (A) (A) (A) (A) (A) (A) (A) (A) (A)
                 (A) (A) (A) (A) (A) (A) (A) (A) (A) (A) (A) (A)
                 (A) (A) (A) (A) (A) (A) (A)
 Beta  Orbitals:
       Occupied  (A) (A) (A) (A) (A) (A) (A) (A) (A) (A) (A) (A)
                 (A) (A) (A) (A) (A) (A) (A) (A) (A) (A) (A) (A)
                 (A) (A) (A) (A) (A) (A) (A) (A) (A) (A) (A) (A)
                 (A) (A) (A) (A) (A) (A) (A) (A) (A) (A) (A) (A)
                 (A) (A) (A) (A) (A) (A) (A) (A) (A) (A) (A) (A)
                 (A) (A) (A) (A) (A) (A) (A) (A) (A) (A) (A) (A)
                 (A) (A) (A) (A) (A) (A)
       Virtual   (A) (A) (A) (A) (A) (A) (A) (A) (A) (A) (A) (A)
                 (A) (A) (A) (A) (A) (A) (A) (A) (A) (A) (A) (A)
                 (A) (A) (A) (A) (A) (A) (A) (A) (A) (A) (A) (A)
                 (A) (A) (A) (A) (A) (A) (A) (A) (A) (A) (A) (A)
                 (A) (A) (A) (A) (A) (A) (A) (A) (A) (A) (A) (A)
                 (A) (A) (A) (A) (A) (A) (A) (A) (A) (A) (A) (A)
                 (A) (A) (A) (A) (A) (A) (A) (A) (A) (A) (A) (A)
                 (A) (A) (A) (A) (A) (A) (A) (A) (A) (A) (A) (A)
                 (A) (A) (A) (A) (A) (A) (A) (A) (A) (A) (A) (A)
                 (A) (A) (A) (A) (A) (A) (A) (A) (A) (A) (A) (A)
                 (A) (A) (A) (A) (A) (A) (A) (A) (A) (A) (A) (A)
                 (A) (A) (A) (A) (A) (A) (A) (A) (A) (A) (A) (A)
                 (A) (A) (A) (A) (A) (A) (A) (A) (A) (A) (A) (A)
                 (A) (A) (A) (A) (A) (A) (A) (A) (A) (A) (A) (A)
                 (A) (A) (A) (A) (A) (A) (A) (A) (A) (A) (A) (A)
                 (A) (A) (A) (A) (A) (A) (A) (A) (A) (A) (A) (A)
                 (A) (A) (A) (A) (A) (A) (A) (A) (A) (A) (A) (A)
                 (A) (A) (A) (A) (A) (A) (A) (A) (A) (A) (A) (A)
                 (A) (A) (A) (A) (A) (A) (A) (A) (A) (A) (A) (A)
                 (A) (A) (A) (A) (A) (A) (A) (A) (A) (A) (A) (A)
                 (A) (A) (A) (A) (A) (A) (A) (A) (A) (A) (A) (A)
                 (A) (A) (A) (A) (A) (A) (A) (A) (A) (A) (A) (A)
                 (A) (A) (A) (A) (A) (A) (A) (A) (A) (A) (A) (A)
                 (A) (A) (A) (A) (A) (A) (A) (A) (A) (A) (A) (A)
                 (A) (A) (A) (A) (A) (A) (A) (A) (A) (A) (A) (A)
                 (A) (A) (A) (A) (A) (A) (A) (A) (A) (A) (A) (A)
                 (A) (A) (A) (A) (A) (A) (A) (A) (A) (A) (A) (A)
                 (A) (A) (A) (A) (A) (A) (A) (A) (A) (A) (A) (A)
                 (A) (A) (A) (A) (A) (A) (A) (A) (A) (A) (A) (A)
                 (A) (A) (A) (A) (A) (A) (A) (A) (A) (A) (A) (A)
                 (A) (A) (A) (A) (A) (A) (A) (A) (A) (A) (A) (A)
                 (A) (A) (A) (A) (A) (A) (A) (A) (A) (A) (A) (A)
                 (A) (A) (A) (A) (A) (A) (A) (A) (A) (A) (A) (A)
                 (A) (A) (A) (A) (A) (A) (A) (A) (A) (A) (A) (A)
                 (A) (A) (A) (A) (A) (A) (A) (A) (A) (A) (A) (A)
                 (A) (A) (A) (A) (A) (A) (A) (A) (A) (A) (A) (A)
                 (A) (A) (A) (A) (A) (A) (A) (A) (A) (A) (A) (A)
                 (A) (A) (A) (A) (A) (A) (A) (A) (A) (A) (A) (A)
                 (A) (A) (A) (A) (A) (A) (A) (A) (A) (A) (A) (A)
                 (A) (A) (A) (A) (A) (A) (A) (A) (A) (A) (A) (A)
                 (A) (A) (A) (A) (A) (A) (A) (A) (A) (A) (A) (A)
                 (A) (A) (A) (A) (A) (A) (A) (A) (A) (A) (A) (A)
                 (A) (A) (A) (A) (A) (A) (A) (A)
 The electronic state is 2-A.
 Alpha  occ. eigenvalues --  -10.21283 -10.20595 -10.20287 -10.20009 -10.19916
 Alpha  occ. eigenvalues --  -10.19869 -10.19714 -10.19444 -10.19421 -10.19383
 Alpha  occ. eigenvalues --  -10.19379 -10.19344 -10.19318 -10.19309 -10.19234
 Alpha  occ. eigenvalues --  -10.19173 -10.18328 -10.18175 -10.18049 -10.17997
 Alpha  occ. eigenvalues --  -10.17724 -10.17466 -10.17054 -10.16930  -0.92340
 Alpha  occ. eigenvalues --   -0.88313  -0.86406  -0.84220  -0.82256  -0.80673
 Alpha  occ. eigenvalues --   -0.79185  -0.76527  -0.75171  -0.73545  -0.73115
 Alpha  occ. eigenvalues --   -0.71313  -0.66447  -0.64639  -0.63305  -0.63072
 Alpha  occ. eigenvalues --   -0.60962  -0.59357  -0.56680  -0.56016  -0.52963
 Alpha  occ. eigenvalues --   -0.52468  -0.51641  -0.49858  -0.49054  -0.48300
 Alpha  occ. eigenvalues --   -0.46134  -0.45866  -0.45233  -0.44318  -0.43992
 Alpha  occ. eigenvalues --   -0.43735  -0.43021  -0.42541  -0.41443  -0.41031
 Alpha  occ. eigenvalues --   -0.40200  -0.39511  -0.38577  -0.37517  -0.37259
 Alpha  occ. eigenvalues --   -0.36715  -0.34958  -0.34810  -0.34121  -0.33893
 Alpha  occ. eigenvalues --   -0.32541  -0.30645  -0.29499  -0.27315  -0.25989
 Alpha  occ. eigenvalues --   -0.24465  -0.23618  -0.23302  -0.20852
 Alpha virt. eigenvalues --   -0.09685  -0.05228  -0.04035  -0.02725  -0.00612
 Alpha virt. eigenvalues --    0.00165   0.00635   0.00867   0.01315   0.01615
 Alpha virt. eigenvalues --    0.01989   0.02380   0.03177   0.03420   0.03578
 Alpha virt. eigenvalues --    0.03821   0.04259   0.04935   0.05459   0.05578
 Alpha virt. eigenvalues --    0.06003   0.06152   0.06833   0.07297   0.07807
 Alpha virt. eigenvalues --    0.08073   0.08309   0.08501   0.09041   0.09415
 Alpha virt. eigenvalues --    0.09687   0.10302   0.10623   0.10860   0.11149
 Alpha virt. eigenvalues --    0.11699   0.11801   0.12694   0.13161   0.13396
 Alpha virt. eigenvalues --    0.13586   0.14218   0.14276   0.14360   0.14807
 Alpha virt. eigenvalues --    0.15402   0.15560   0.16168   0.16309   0.16548
 Alpha virt. eigenvalues --    0.16784   0.17329   0.17503   0.17626   0.17733
 Alpha virt. eigenvalues --    0.18249   0.18602   0.18694   0.18823   0.19210
 Alpha virt. eigenvalues --    0.19246   0.19602   0.19790   0.20319   0.20422
 Alpha virt. eigenvalues --    0.20943   0.21025   0.21349   0.21563   0.21716
 Alpha virt. eigenvalues --    0.21873   0.22284   0.22490   0.22719   0.23009
 Alpha virt. eigenvalues --    0.23184   0.23331   0.23625   0.24003   0.24215
 Alpha virt. eigenvalues --    0.24610   0.25003   0.25056   0.25225   0.25453
 Alpha virt. eigenvalues --    0.26044   0.26316   0.26770   0.26963   0.27118
 Alpha virt. eigenvalues --    0.27781   0.28080   0.28176   0.28994   0.29222
 Alpha virt. eigenvalues --    0.29413   0.29787   0.29971   0.30546   0.31034
 Alpha virt. eigenvalues --    0.31325   0.31637   0.32229   0.32559   0.33024
 Alpha virt. eigenvalues --    0.33397   0.33508   0.34081   0.34654   0.35873
 Alpha virt. eigenvalues --    0.36197   0.36427   0.37282   0.38265   0.38909
 Alpha virt. eigenvalues --    0.39664   0.39856   0.40734   0.41364   0.41520
 Alpha virt. eigenvalues --    0.41905   0.43247   0.43362   0.45173   0.45915
 Alpha virt. eigenvalues --    0.46674   0.47512   0.47958   0.49030   0.49735
 Alpha virt. eigenvalues --    0.50375   0.51269   0.52069   0.52292   0.52655
 Alpha virt. eigenvalues --    0.52884   0.53630   0.54416   0.54847   0.55037
 Alpha virt. eigenvalues --    0.55541   0.55731   0.56101   0.56424   0.57078
 Alpha virt. eigenvalues --    0.57768   0.58084   0.58336   0.58581   0.59130
 Alpha virt. eigenvalues --    0.59560   0.60542   0.60719   0.61257   0.61691
 Alpha virt. eigenvalues --    0.62363   0.62411   0.63027   0.63697   0.64030
 Alpha virt. eigenvalues --    0.64483   0.65284   0.65541   0.65768   0.65831
 Alpha virt. eigenvalues --    0.66596   0.66876   0.67530   0.67865   0.68592
 Alpha virt. eigenvalues --    0.69069   0.69154   0.69637   0.70388   0.70921
 Alpha virt. eigenvalues --    0.71103   0.71393   0.71798   0.72255   0.72365
 Alpha virt. eigenvalues --    0.72577   0.73772   0.74541   0.75010   0.75333
 Alpha virt. eigenvalues --    0.75776   0.75960   0.76741   0.77661   0.77996
 Alpha virt. eigenvalues --    0.79694   0.79807   0.80361   0.81227   0.82560
 Alpha virt. eigenvalues --    0.83294   0.83514   0.84701   0.85512   0.85753
 Alpha virt. eigenvalues --    0.86675   0.87987   0.88665   0.89786   0.90140
 Alpha virt. eigenvalues --    0.90919   0.91999   0.92265   0.92858   0.94131
 Alpha virt. eigenvalues --    0.94503   0.94673   0.94947   0.95271   0.95498
 Alpha virt. eigenvalues --    0.96166   0.96335   0.96620   0.97061   0.98092
 Alpha virt. eigenvalues --    0.98676   0.99458   1.00548   1.00968   1.01293
 Alpha virt. eigenvalues --    1.01960   1.02096   1.02654   1.04057   1.04322
 Alpha virt. eigenvalues --    1.05276   1.05576   1.06088   1.06994   1.07578
 Alpha virt. eigenvalues --    1.07886   1.08345   1.09502   1.11103   1.11732
 Alpha virt. eigenvalues --    1.12456   1.13375   1.13645   1.14588   1.15548
 Alpha virt. eigenvalues --    1.15850   1.16440   1.18424   1.19311   1.20867
 Alpha virt. eigenvalues --    1.21668   1.22198   1.24709   1.29220   1.30097
 Alpha virt. eigenvalues --    1.31441   1.32458   1.33785   1.36305   1.37776
 Alpha virt. eigenvalues --    1.39213   1.39911   1.41661   1.43231   1.44573
 Alpha virt. eigenvalues --    1.45168   1.46471   1.47233   1.47784   1.48363
 Alpha virt. eigenvalues --    1.48520   1.48754   1.49006   1.50522   1.51117
 Alpha virt. eigenvalues --    1.51491   1.53247   1.53583   1.54891   1.55193
 Alpha virt. eigenvalues --    1.56469   1.56764   1.57237   1.58054   1.58704
 Alpha virt. eigenvalues --    1.59090   1.60805   1.61994   1.62790   1.64263
 Alpha virt. eigenvalues --    1.66138   1.66338   1.66780   1.66808   1.68684
 Alpha virt. eigenvalues --    1.70151   1.71263   1.71487   1.71944   1.73131
 Alpha virt. eigenvalues --    1.74068   1.74996   1.75249   1.75785   1.76132
 Alpha virt. eigenvalues --    1.79089   1.79974   1.80260   1.81240   1.82056
 Alpha virt. eigenvalues --    1.82508   1.82867   1.83257   1.84888   1.85204
 Alpha virt. eigenvalues --    1.86086   1.86711   1.87475   1.87703   1.88478
 Alpha virt. eigenvalues --    1.89280   1.89888   1.90616   1.92027   1.92142
 Alpha virt. eigenvalues --    1.93151   1.93744   1.94154   1.94272   1.96411
 Alpha virt. eigenvalues --    1.98086   1.98847   1.99550   1.99870   2.00308
 Alpha virt. eigenvalues --    2.01872   2.02010   2.02874   2.03573   2.04617
 Alpha virt. eigenvalues --    2.04888   2.06162   2.06830   2.10302   2.10790
 Alpha virt. eigenvalues --    2.11338   2.13133   2.13606   2.14085   2.15506
 Alpha virt. eigenvalues --    2.17039   2.18283   2.19480   2.20513   2.21718
 Alpha virt. eigenvalues --    2.21822   2.23188   2.24534   2.25590   2.26140
 Alpha virt. eigenvalues --    2.26964   2.29299   2.30954   2.33022   2.34680
 Alpha virt. eigenvalues --    2.36632   2.38746   2.41223   2.41336   2.42566
 Alpha virt. eigenvalues --    2.43900   2.44379   2.45029   2.45649   2.46936
 Alpha virt. eigenvalues --    2.49294   2.51998   2.54162   2.56867   2.57219
 Alpha virt. eigenvalues --    2.57910   2.59734   2.61659   2.62448   2.63396
 Alpha virt. eigenvalues --    2.65145   2.65239   2.66498   2.67140   2.69741
 Alpha virt. eigenvalues --    2.70616   2.71229   2.71727   2.72568   2.73036
 Alpha virt. eigenvalues --    2.73511   2.74065   2.74750   2.75142   2.75413
 Alpha virt. eigenvalues --    2.75542   2.75893   2.76145   2.76807   2.77657
 Alpha virt. eigenvalues --    2.79118   2.79230   2.80011   2.80730   2.81399
 Alpha virt. eigenvalues --    2.81786   2.83293   2.84715   2.85399   2.85487
 Alpha virt. eigenvalues --    2.86325   2.87727   2.89283   2.89873   2.90312
 Alpha virt. eigenvalues --    2.90807   2.91490   2.92508   2.95839   2.97003
 Alpha virt. eigenvalues --    3.00092   3.01190   3.02330   3.04645   3.07304
 Alpha virt. eigenvalues --    3.09326   3.10540   3.12551   3.13183   3.13942
 Alpha virt. eigenvalues --    3.15457   3.19454   3.21328   3.21725   3.23468
 Alpha virt. eigenvalues --    3.26168   3.26861   3.30501   3.33747   3.36166
 Alpha virt. eigenvalues --    3.37927   3.38740   3.39662   3.42430   3.44402
 Alpha virt. eigenvalues --    3.45358   3.46017   3.47027   3.48711   3.50787
 Alpha virt. eigenvalues --    3.51333   3.53920   3.55241   3.57612   3.60050
 Alpha virt. eigenvalues --    3.62845   3.65090   3.65989   3.72037   3.76132
 Alpha virt. eigenvalues --    3.80929   3.82973   3.86016   3.87817   4.03420
 Alpha virt. eigenvalues --    4.04169   4.05673   4.06302   4.06854   4.09508
 Alpha virt. eigenvalues --    4.13828   4.22058   4.27400   4.34568   4.40574
 Alpha virt. eigenvalues --    4.57033   4.74273   4.75808   4.77459   4.81688
 Alpha virt. eigenvalues --    4.84308   4.87644  23.37456  23.61040  23.72108
 Alpha virt. eigenvalues --   23.79926  23.81617  23.83730  23.86216  23.90616
 Alpha virt. eigenvalues --   23.92776  23.94105  23.98361  23.99019  24.00348
 Alpha virt. eigenvalues --   24.06343  24.08424  24.09970  24.10372  24.11858
 Alpha virt. eigenvalues --   24.13735  24.14403  24.16463  24.19675  24.20574
 Alpha virt. eigenvalues --   24.26374
  Beta  occ. eigenvalues --  -10.20601 -10.20298 -10.19962 -10.19908 -10.19856
  Beta  occ. eigenvalues --  -10.19714 -10.19589 -10.19476 -10.19417 -10.19380
  Beta  occ. eigenvalues --  -10.19367 -10.19336 -10.19315 -10.19300 -10.19254
  Beta  occ. eigenvalues --  -10.19192 -10.18335 -10.18183 -10.18044 -10.17970
  Beta  occ. eigenvalues --  -10.17581 -10.17480 -10.17042 -10.16902  -0.92162
  Beta  occ. eigenvalues --   -0.88214  -0.86080  -0.84102  -0.82092  -0.80412
  Beta  occ. eigenvalues --   -0.79091  -0.76238  -0.74893  -0.73260  -0.72869
  Beta  occ. eigenvalues --   -0.71240  -0.66234  -0.64430  -0.63102  -0.62781
  Beta  occ. eigenvalues --   -0.60736  -0.59227  -0.56574  -0.55936  -0.52822
  Beta  occ. eigenvalues --   -0.52042  -0.51375  -0.49650  -0.48778  -0.48173
  Beta  occ. eigenvalues --   -0.45791  -0.45642  -0.45070  -0.44009  -0.43830
  Beta  occ. eigenvalues --   -0.43676  -0.42900  -0.42347  -0.41183  -0.40903
  Beta  occ. eigenvalues --   -0.40100  -0.39474  -0.38361  -0.37317  -0.36975
  Beta  occ. eigenvalues --   -0.36386  -0.34892  -0.34745  -0.34079  -0.33741
  Beta  occ. eigenvalues --   -0.32500  -0.30419  -0.29359  -0.27137  -0.25697
  Beta  occ. eigenvalues --   -0.23628  -0.23188  -0.20756
  Beta virt. eigenvalues --   -0.09557  -0.09379  -0.04992  -0.03986  -0.02389
  Beta virt. eigenvalues --   -0.00569   0.00173   0.00647   0.00896   0.01331
  Beta virt. eigenvalues --    0.01665   0.02021   0.02401   0.03208   0.03424
  Beta virt. eigenvalues --    0.03652   0.03857   0.04280   0.05102   0.05490
  Beta virt. eigenvalues --    0.05594   0.06025   0.06172   0.06973   0.07323
  Beta virt. eigenvalues --    0.07812   0.08083   0.08378   0.08721   0.09041
  Beta virt. eigenvalues --    0.09449   0.09683   0.10308   0.10642   0.10912
  Beta virt. eigenvalues --    0.11165   0.11778   0.11827   0.12702   0.13221
  Beta virt. eigenvalues --    0.13412   0.13602   0.14256   0.14335   0.14556
  Beta virt. eigenvalues --    0.14827   0.15477   0.15584   0.16194   0.16389
  Beta virt. eigenvalues --    0.16646   0.16925   0.17351   0.17520   0.17646
  Beta virt. eigenvalues --    0.17751   0.18321   0.18627   0.18749   0.18873
  Beta virt. eigenvalues --    0.19227   0.19491   0.19729   0.19803   0.20367
  Beta virt. eigenvalues --    0.20502   0.21018   0.21135   0.21408   0.21621
  Beta virt. eigenvalues --    0.21855   0.21897   0.22367   0.22549   0.22760
  Beta virt. eigenvalues --    0.23052   0.23209   0.23354   0.23629   0.24026
  Beta virt. eigenvalues --    0.24275   0.24637   0.25025   0.25094   0.25279
  Beta virt. eigenvalues --    0.25538   0.26098   0.26368   0.26787   0.26996
  Beta virt. eigenvalues --    0.27148   0.27822   0.28101   0.28219   0.29018
  Beta virt. eigenvalues --    0.29282   0.29471   0.29913   0.29997   0.30567
  Beta virt. eigenvalues --    0.31120   0.31416   0.31831   0.32320   0.32628
  Beta virt. eigenvalues --    0.33203   0.33455   0.33538   0.34183   0.34763
  Beta virt. eigenvalues --    0.35925   0.36342   0.36583   0.37694   0.38385
  Beta virt. eigenvalues --    0.38998   0.39718   0.39921   0.40764   0.41417
  Beta virt. eigenvalues --    0.41624   0.41982   0.43316   0.43492   0.45224
  Beta virt. eigenvalues --    0.46006   0.46725   0.47766   0.48092   0.49203
  Beta virt. eigenvalues --    0.50076   0.50499   0.51432   0.52113   0.52421
  Beta virt. eigenvalues --    0.52670   0.53137   0.53664   0.54514   0.54923
  Beta virt. eigenvalues --    0.55213   0.55648   0.55937   0.56387   0.56796
  Beta virt. eigenvalues --    0.57189   0.57938   0.58259   0.58441   0.58680
  Beta virt. eigenvalues --    0.59496   0.59692   0.60639   0.60756   0.61370
  Beta virt. eigenvalues --    0.61752   0.62400   0.62587   0.63188   0.63858
  Beta virt. eigenvalues --    0.64090   0.64636   0.65396   0.65702   0.65803
  Beta virt. eigenvalues --    0.66022   0.66758   0.67234   0.67629   0.67909
  Beta virt. eigenvalues --    0.68795   0.69122   0.69346   0.69852   0.70504
  Beta virt. eigenvalues --    0.71142   0.71206   0.71628   0.71942   0.72307
  Beta virt. eigenvalues --    0.72471   0.72732   0.73938   0.74599   0.75157
  Beta virt. eigenvalues --    0.75367   0.75884   0.76052   0.77173   0.77793
  Beta virt. eigenvalues --    0.78025   0.79909   0.80034   0.80461   0.81302
  Beta virt. eigenvalues --    0.82674   0.83434   0.83722   0.84907   0.85531
  Beta virt. eigenvalues --    0.85822   0.86742   0.88050   0.88757   0.89832
  Beta virt. eigenvalues --    0.90211   0.91368   0.92117   0.92328   0.93183
  Beta virt. eigenvalues --    0.94208   0.94604   0.94755   0.95175   0.95355
  Beta virt. eigenvalues --    0.95561   0.96257   0.96455   0.96678   0.97142
  Beta virt. eigenvalues --    0.98183   0.98909   0.99635   1.00614   1.01084
  Beta virt. eigenvalues --    1.01415   1.02084   1.02273   1.02719   1.04134
  Beta virt. eigenvalues --    1.04448   1.05346   1.05727   1.06421   1.07028
  Beta virt. eigenvalues --    1.07767   1.08094   1.08553   1.09699   1.11289
  Beta virt. eigenvalues --    1.11854   1.12491   1.13410   1.13800   1.14665
  Beta virt. eigenvalues --    1.15673   1.15955   1.16522   1.18834   1.19353
  Beta virt. eigenvalues --    1.21313   1.22157   1.23511   1.24995   1.29415
  Beta virt. eigenvalues --    1.30228   1.31553   1.32521   1.33930   1.36502
  Beta virt. eigenvalues --    1.38132   1.39463   1.40056   1.41930   1.43382
  Beta virt. eigenvalues --    1.44606   1.45206   1.46670   1.47250   1.47944
  Beta virt. eigenvalues --    1.48430   1.48558   1.48938   1.49166   1.50593
  Beta virt. eigenvalues --    1.51245   1.51557   1.53356   1.53732   1.55178
  Beta virt. eigenvalues --    1.55431   1.56509   1.56972   1.57433   1.58453
  Beta virt. eigenvalues --    1.58813   1.59422   1.60941   1.62117   1.62921
  Beta virt. eigenvalues --    1.64418   1.66319   1.66425   1.66947   1.67034
  Beta virt. eigenvalues --    1.68752   1.70295   1.71360   1.71559   1.72441
  Beta virt. eigenvalues --    1.73248   1.74282   1.75022   1.75309   1.76180
  Beta virt. eigenvalues --    1.76211   1.79559   1.80345   1.80405   1.81324
  Beta virt. eigenvalues --    1.82189   1.82675   1.83066   1.83552   1.85010
  Beta virt. eigenvalues --    1.85268   1.86177   1.86753   1.87756   1.88072
  Beta virt. eigenvalues --    1.88607   1.89336   1.90072   1.90794   1.92114
  Beta virt. eigenvalues --    1.92306   1.93309   1.93817   1.94345   1.94449
  Beta virt. eigenvalues --    1.96935   1.98155   1.99030   1.99779   2.00024
  Beta virt. eigenvalues --    2.00447   2.01991   2.02154   2.02993   2.03725
  Beta virt. eigenvalues --    2.04710   2.05000   2.06263   2.06910   2.10583
  Beta virt. eigenvalues --    2.10921   2.11462   2.13292   2.13725   2.14303
  Beta virt. eigenvalues --    2.15612   2.17294   2.18404   2.19594   2.20748
  Beta virt. eigenvalues --    2.21831   2.22010   2.23423   2.24594   2.25645
  Beta virt. eigenvalues --    2.26215   2.27176   2.29411   2.31061   2.33234
  Beta virt. eigenvalues --    2.34971   2.36713   2.38858   2.41300   2.41500
  Beta virt. eigenvalues --    2.42710   2.43985   2.44683   2.45150   2.45945
  Beta virt. eigenvalues --    2.46963   2.49467   2.52434   2.54237   2.57089
  Beta virt. eigenvalues --    2.57426   2.57988   2.59968   2.61876   2.62507
  Beta virt. eigenvalues --    2.63700   2.65248   2.65472   2.66608   2.67314
  Beta virt. eigenvalues --    2.69794   2.70822   2.71265   2.71907   2.72613
  Beta virt. eigenvalues --    2.73113   2.73558   2.74116   2.74844   2.75188
  Beta virt. eigenvalues --    2.75471   2.75606   2.75933   2.76184   2.76894
  Beta virt. eigenvalues --    2.77717   2.79167   2.79288   2.80084   2.81035
  Beta virt. eigenvalues --    2.81547   2.82042   2.83389   2.84817   2.85482
  Beta virt. eigenvalues --    2.85613   2.86433   2.87828   2.89400   2.89958
  Beta virt. eigenvalues --    2.90497   2.90955   2.91644   2.92574   2.96042
  Beta virt. eigenvalues --    2.97201   3.00116   3.01226   3.03510   3.04646
  Beta virt. eigenvalues --    3.07545   3.09828   3.11311   3.12689   3.13270
  Beta virt. eigenvalues --    3.14398   3.15640   3.19534   3.21511   3.21809
  Beta virt. eigenvalues --    3.23586   3.26396   3.27162   3.30685   3.34105
  Beta virt. eigenvalues --    3.36338   3.37963   3.38813   3.39936   3.42523
  Beta virt. eigenvalues --    3.44558   3.45394   3.46308   3.47156   3.48910
  Beta virt. eigenvalues --    3.50908   3.51760   3.54052   3.55295   3.57810
  Beta virt. eigenvalues --    3.60211   3.62917   3.65428   3.66004   3.72111
  Beta virt. eigenvalues --    3.76173   3.81149   3.83045   3.86216   3.87992
  Beta virt. eigenvalues --    4.03516   4.04232   4.05789   4.06304   4.06870
  Beta virt. eigenvalues --    4.09681   4.13834   4.22080   4.27430   4.34710
  Beta virt. eigenvalues --    4.40595   4.57073   4.74537   4.75906   4.77485
  Beta virt. eigenvalues --    4.81694   4.84367   4.87658  23.37618  23.61254
  Beta virt. eigenvalues --   23.72381  23.79988  23.81655  23.83747  23.86217
  Beta virt. eigenvalues --   23.90886  23.92797  23.94109  23.98386  23.99036
  Beta virt. eigenvalues --   24.00433  24.06363  24.08479  24.10070  24.10392
  Beta virt. eigenvalues --   24.11859  24.13803  24.14409  24.17100  24.19675
  Beta virt. eigenvalues --   24.20611  24.26404
          Condensed to atoms (all electrons):
               1          2          3          4          5          6
     1  C   11.139304  -2.762507  -2.056252  -0.114953   0.267665   1.682359
     2  C   -2.762507  10.066382   0.245030  -1.182789   0.033221  -0.919492
     3  C   -2.056252   0.245030   8.682966   1.934038  -1.092356  -0.362672
     4  C   -0.114953  -1.182789   1.934038  10.658187  -2.039114  -1.452972
     5  C    0.267665   0.033221  -1.092356  -2.039114   9.408506   0.671500
     6  C    1.682359  -0.919492  -0.362672  -1.452972   0.671500   7.077542
     7  C   -1.797458   0.380590   0.941314   0.265946  -0.348666  -0.683311
     8  C    0.077993  -0.474568   0.154672   0.196393   0.497288   0.067082
     9  C   -0.091969  -0.194179  -0.215925  -0.611831   0.515389   0.274296
    10  C   -0.175023   0.212863  -0.544812  -0.173931  -0.510644   0.489346
    11  C   -0.099309   0.035876  -0.163213   0.010946  -0.077490  -0.104526
    12  C   -0.027980  -0.005731  -0.113349  -0.096079   0.071091  -0.093371
    13  C   -0.430536  -0.402112   0.858271   0.210228  -0.112411  -0.360507
    14  C    0.049387   0.024347   0.496430  -0.018582   0.040308  -0.010260
    15  C    0.010238   0.065712   0.038337   0.002775   0.005037  -0.056185
    16  C    0.261823   0.383044  -0.031823  -0.141409   0.128042  -0.062606
    17  C    0.336448   0.489532  -0.819948  -0.043361  -0.015764   0.154256
    18  H   -0.005074  -0.004671   0.009844   0.000361   0.000592  -0.001672
    19  H    0.385981  -0.055537   0.026881  -0.020238  -0.006272  -0.005266
    20  H    0.035052  -0.042185  -0.025017   0.358223  -0.065278   0.042009
    21  C   -0.005298   0.240183  -1.267807  -1.229643  -0.632473  -0.166661
    22  C    0.329751  -0.081131  -0.490138  -0.389169   0.239971   0.563309
    23  C    0.127729  -0.266412  -0.193755  -0.148664   0.044817  -0.323670
    24  H    0.000024   0.000270  -0.000030  -0.000061  -0.000343   0.003413
    25  H   -0.000051  -0.000673  -0.000848   0.000000   0.000021  -0.000003
    26  H    0.000338   0.001901   0.000190  -0.000004   0.000017  -0.000133
    27  H    0.000006  -0.000071  -0.000180  -0.000003  -0.000008   0.000049
    28  C   -0.176704  -0.085110   0.076835   0.046485  -0.134669  -0.152642
    29  C   -0.115934   0.008641   0.167561   0.009378  -0.000221  -0.016434
    30  H    0.002312   0.003708  -0.004228  -0.000104  -0.000004   0.000677
    31  H   -0.014307   0.026038  -0.001834  -0.004341  -0.000805   0.002262
    32  C   -0.326014   0.437926  -0.469392  -0.145942  -1.494576   0.290518
    33  C   -0.143059  -0.221207   0.188288   0.314460   0.300577  -0.513854
    34  H   -0.009041   0.014276   0.000677   0.040716  -0.102281   0.018169
    35  H   -0.001075   0.000932  -0.001712   0.000072  -0.022336   0.000758
    36  H    0.000400  -0.000207   0.001999  -0.000399   0.008266  -0.014500
    37  H   -0.000122  -0.000120   0.002669   0.000166   0.001298  -0.002013
               7          8          9         10         11         12
     1  C   -1.797458   0.077993  -0.091969  -0.175023  -0.099309  -0.027980
     2  C    0.380590  -0.474568  -0.194179   0.212863   0.035876  -0.005731
     3  C    0.941314   0.154672  -0.215925  -0.544812  -0.163213  -0.113349
     4  C    0.265946   0.196393  -0.611831  -0.173931   0.010946  -0.096079
     5  C   -0.348666   0.497288   0.515389  -0.510644  -0.077490   0.071091
     6  C   -0.683311   0.067082   0.274296   0.489346  -0.104526  -0.093371
     7  C    8.194855  -0.255989  -0.353503   0.954645   0.673555  -0.136430
     8  C   -0.255989   7.153082   0.780713  -0.158274   0.056413  -0.136848
     9  C   -0.353503   0.780713   7.177743  -0.942533  -0.891060  -0.551387
    10  C    0.954645  -0.158274  -0.942533  10.476007   1.627243  -1.624121
    11  C    0.673555   0.056413  -0.891060   1.627243   8.146559   1.119791
    12  C   -0.136430  -0.136848  -0.551387  -1.624121   1.119791  12.074400
    13  C    1.137748  -0.199794  -0.153633  -0.761706   0.498398   0.243923
    14  C   -0.131491  -0.881031   0.285525  -0.412002  -2.122451  -2.779438
    15  C   -0.314353  -0.142670  -0.054095  -0.407023  -0.549514  -0.975061
    16  C   -0.400603  -0.481827  -0.280642  -0.405665  -0.262183  -1.085090
    17  C   -1.603621   0.635131  -0.133134  -0.205691  -0.485031   1.464138
    18  H   -0.000377   0.000137  -0.000079  -0.000090   0.000376   0.003900
    19  H   -0.001538   0.000943   0.000881   0.000010   0.000081  -0.000328
    20  H   -0.004845   0.002159  -0.010270  -0.000586  -0.000043   0.000100
    21  C   -0.198390  -0.877420   0.500740   0.124414  -0.022695  -0.038623
    22  C   -0.148594  -0.617866   0.333529   1.077990  -0.117969   0.004557
    23  C   -1.050734   0.427458   1.615528  -2.017809  -1.737051  -0.560088
    24  H   -0.010055   0.030600  -0.010228  -0.040007   0.359009  -0.071272
    25  H   -0.004155   0.008278   0.001528   0.059540   0.130262  -0.115833
    26  H   -0.009656   0.001642  -0.000264  -0.000064   0.001293  -0.002315
    27  H    0.000740   0.001577   0.000084   0.004498   0.003746   0.038938
    28  C    0.731614  -0.355046   0.091965   0.069762  -0.052538  -0.841456
    29  C    0.127082  -0.048108  -0.000041  -0.011493  -0.006856  -0.039832
    30  H   -0.006937   0.001046  -0.000074  -0.000200  -0.001347  -0.005008
    31  H   -0.013305   0.004524  -0.002353  -0.001535  -0.002875   0.002456
    32  C    0.250345  -0.804186  -0.869179   0.696872   0.088633   0.018830
    33  C   -0.163505   1.328121  -0.089367  -1.648594  -0.109099  -0.376695
    34  H    0.005165   0.000565  -0.006685   0.002847   0.000254   0.000068
    35  H    0.003332  -0.019267   0.018127   0.009681   0.000386  -0.000421
    36  H   -0.001868   0.004365   0.040808  -0.024979  -0.002650   0.003450
    37  H   -0.005600   0.026211  -0.003551  -0.081677   0.060253   0.026169
              13         14         15         16         17         18
     1  C   -0.430536   0.049387   0.010238   0.261823   0.336448  -0.005074
     2  C   -0.402112   0.024347   0.065712   0.383044   0.489532  -0.004671
     3  C    0.858271   0.496430   0.038337  -0.031823  -0.819948   0.009844
     4  C    0.210228  -0.018582   0.002775  -0.141409  -0.043361   0.000361
     5  C   -0.112411   0.040308   0.005037   0.128042  -0.015764   0.000592
     6  C   -0.360507  -0.010260  -0.056185  -0.062606   0.154256  -0.001672
     7  C    1.137748  -0.131491  -0.314353  -0.400603  -1.603621  -0.000377
     8  C   -0.199794  -0.881031  -0.142670  -0.481827   0.635131   0.000137
     9  C   -0.153633   0.285525  -0.054095  -0.280642  -0.133134  -0.000079
    10  C   -0.761706  -0.412002  -0.407023  -0.405665  -0.205691  -0.000090
    11  C    0.498398  -2.122451  -0.549514  -0.262183  -0.485031   0.000376
    12  C    0.243923  -2.779438  -0.975061  -1.085090   1.464138   0.003900
    13  C    7.165820  -0.099703   0.411003   1.481667  -1.967244   0.007974
    14  C   -0.099703  10.803457   0.884822   1.188147  -1.356258  -0.000143
    15  C    0.411003   0.884822   7.341033  -1.256808   1.130075   0.000458
    16  C    1.481667   1.188147  -1.256808  14.206405  -5.079124   0.095658
    17  C   -1.967244  -1.356258   1.130075  -5.079124  13.961148  -0.017037
    18  H    0.007974  -0.000143   0.000458   0.095658  -0.017037   0.527147
    19  H    0.000842  -0.000070   0.000011   0.001611   0.000324   0.000002
    20  H   -0.000348   0.000008  -0.000001   0.000235   0.000021   0.000000
    21  C   -0.149746  -0.014225  -0.001207   0.084160   0.021102   0.000054
    22  C   -0.520775  -0.158904  -0.013822   0.211425   0.113104  -0.000041
    23  C   -0.655822   0.108573  -0.189090  -0.075405   0.026063  -0.000009
    24  H   -0.025110   0.029845   0.014318  -0.009025   0.010780   0.000000
    25  H   -0.003717   0.343157  -0.045051  -0.009799  -0.039653   0.000000
    26  H    0.006575   0.004759   0.023136  -0.156639   0.418146  -0.000039
    27  H   -0.013564  -0.045499   0.372606   0.008220  -0.032343  -0.000002
    28  C   -0.525750   0.142783   0.222843  -2.997079  -0.191902  -0.123780
    29  C    0.149185   0.076789  -0.091961   0.425178  -0.388167   0.417697
    30  H   -0.001547   0.000266   0.005581  -0.073814   0.082576  -0.035495
    31  H    0.009494   0.002773  -0.005623   0.043522   0.011218  -0.010047
    32  C   -0.061077   0.009246   0.002771  -0.024065  -0.016247   0.000010
    33  C    0.325088  -0.137673  -0.013826  -0.130709  -0.047000  -0.000005
    34  H   -0.000044   0.000002   0.000002  -0.000071  -0.000009   0.000000
    35  H   -0.000219  -0.000038  -0.000001   0.000095   0.000009   0.000000
    36  H   -0.000399   0.000444  -0.000007   0.000131   0.000009   0.000000
    37  H    0.012943   0.007054   0.000875   0.000617  -0.000337   0.000000
              19         20         21         22         23         24
     1  C    0.385981   0.035052  -0.005298   0.329751   0.127729   0.000024
     2  C   -0.055537  -0.042185   0.240183  -0.081131  -0.266412   0.000270
     3  C    0.026881  -0.025017  -1.267807  -0.490138  -0.193755  -0.000030
     4  C   -0.020238   0.358223  -1.229643  -0.389169  -0.148664  -0.000061
     5  C   -0.006272  -0.065278  -0.632473   0.239971   0.044817  -0.000343
     6  C   -0.005266   0.042009  -0.166661   0.563309  -0.323670   0.003413
     7  C   -0.001538  -0.004845  -0.198390  -0.148594  -1.050734  -0.010055
     8  C    0.000943   0.002159  -0.877420  -0.617866   0.427458   0.030600
     9  C    0.000881  -0.010270   0.500740   0.333529   1.615528  -0.010228
    10  C    0.000010  -0.000586   0.124414   1.077990  -2.017809  -0.040007
    11  C    0.000081  -0.000043  -0.022695  -0.117969  -1.737051   0.359009
    12  C   -0.000328   0.000100  -0.038623   0.004557  -0.560088  -0.071272
    13  C    0.000842  -0.000348  -0.149746  -0.520775  -0.655822  -0.025110
    14  C   -0.000070   0.000008  -0.014225  -0.158904   0.108573   0.029845
    15  C    0.000011  -0.000001  -0.001207  -0.013822  -0.189090   0.014318
    16  C    0.001611   0.000235   0.084160   0.211425  -0.075405  -0.009025
    17  C    0.000324   0.000021   0.021102   0.113104   0.026063   0.010780
    18  H    0.000002   0.000000   0.000054  -0.000041  -0.000009   0.000000
    19  H    0.529114  -0.007555   0.004453   0.000559  -0.000079   0.000000
    20  H   -0.007555   0.543146   0.023867   0.010734   0.000345   0.000000
    21  C    0.004453   0.023867   9.341873  -0.725716   0.149280   0.000234
[...]
 066,-0.00041470,0.00493269,-0.00511227,0.00005166,-0.01918858,-0.00879
 332,-0.00004252,0.03161806,0.02389193,0.00022593,-0.05717643,0.0189771
 6,-0.00104222,0.01767709,0.00093423,-0.00016312,-0.00714120,0.00792637
 ,-0.00019224,-0.00651687,-0.00342704,0.00008066,0.00468740,-0.00016043
 ,-0.00008747,-0.00089853,0.00419196,-0.00026609,0.00235261,-0.00123517
 ,-0.00000904,-0.00246676,-0.00224856,0.00026299,-0.00000851,0.00006286
 ,0.00000672,0.00007804,0.00001523,0.00001319,-0.00004558,0.00005933,-0
 .00000606,-0.00736044,0.00777921,-0.00043332,-0.11416959,-0.00271334,-
 0.00144389,-0.35572851,-0.09342768,-0.00182100,0.00004210,-0.00035894,
 -0.00000634,0.00002258,-0.00010091,0.00001625,-0.00006620,-0.00002798,
 0.00002432,-0.00010402,0.00008853,-0.00002040,-0.00013117,-0.00014010,
 0.00012530,0.00006618,0.00020549,0.00002814,-0.00002025,-0.00002602,-0
 .00007737,-0.00006538,0.00011319,-0.00007230,-0.00594143,-0.03815905,0
 .00072931,0.71755980,0.00227983,-0.00047786,0.00005527,-0.00062395,-0.
 00147592,-0.00003109,-0.00013611,-0.00096045,0.00007593,-0.00167663,0.
 00279546,-0.00006226,0.00617248,-0.00552190,0.00015007,0.00290921,-0.0
 0162210,0.00028294,0.00758798,-0.00450387,-0.00006035,-0.01888256,-0.0
 0448898,-0.00014981,0.03223266,-0.04298699,0.00190124,-0.00359605,0.02
 950914,-0.00066476,0.01704221,-0.00751981,0.00040408,-0.00555342,0.009
 02240,-0.00025067,-0.00824868,-0.00356496,0.00011520,0.00516006,-0.001
 09678,-0.00008898,-0.00116302,0.00460756,-0.00026130,0.00356983,-0.001
 61017,-0.00000749,-0.00292240,-0.00320023,0.00027170,0.00000873,0.0000
 1535,0.00002435,0.00002644,0.00002834,0.00000513,-0.00003270,0.0000319
 4,-0.00000248,-0.00256026,0.01374134,-0.00007396,-0.02766651,-0.230637
 21,0.00349194,-0.04797856,-0.14518077,0.00197580,0.00037807,-0.0001194
 1,-0.00003020,-0.00001937,-0.00008182,0.00001231,-0.00006783,-0.000039
 44,0.00005302,-0.00000191,0.00004471,-0.00001993,0.00001990,0.00009335
 ,0.00008128,0.00003441,0.00003696,-0.00005309,-0.00003789,-0.00000901,
 -0.00003754,-0.00001937,0.00006350,-0.00002202,-0.01668959,-0.01932952
 ,-0.00000498,-0.04603042,0.60860217,0.00001683,-0.00000515,0.00020752,
 -0.00002115,-0.00000442,-0.00026211,0.00000425,0.00010102,-0.00061777,
 0.00004745,0.00001834,-0.00056092,-0.00006672,0.00003703,-0.00118992,-
 0.00035607,0.00004110,0.00708642,-0.00009337,0.00001935,-0.00048985,0.
 00019178,0.00004220,-0.00208495,-0.00043420,0.00199140,0.00545640,-0.0
 0063841,-0.00057914,0.00411970,-0.00018990,0.00038721,0.00393722,0.000
 01816,-0.00014820,0.00021960,0.00010727,0.00004593,-0.00009074,-0.0000
 6178,0.00000689,-0.00058830,0.00000714,-0.00003904,0.00015093,-0.00003
 414,0.00002805,0.00030293,0.00003249,0.00002172,-0.00012679,-0.0000006
 4,-0.00000133,-0.00000443,0.00000524,-0.00000050,-0.00008481,-0.000000
 54,0.00000046,0.00005468,-0.00031024,-0.00010964,0.00469076,-0.0004463
 0,0.00418659,-0.06033093,-0.00349780,0.00117620,-0.05830949,-0.0000246
 9,-0.00001669,-0.00015952,0.00000052,-0.00000009,0.00000351,-0.0000002
 1,-0.00000194,-0.00003532,-0.00000132,0.00000524,0.00005510,-0.0000128
 0,-0.00000471,0.00000133,0.00000261,0.00000455,-0.00000542,-0.00000046
 ,0.00000454,0.00000033,0.00000399,-0.00000307,-0.00000328,0.00022682,-
 0.00068474,0.00023223,0.01136353,-0.01339302,0.13161984,-0.00002233,0.
 00024185,0.00000324,0.00006507,-0.00005471,-0.00000586,-0.00022953,-0.
 00085762,-0.00005211,0.00128337,-0.00105788,0.00008372,-0.01846732,-0.
 01269125,-0.00061107,-0.00274511,0.00422624,-0.00015856,-0.00043043,0.
 00006734,-0.00001001,-0.00018097,-0.00018748,0.00000969,0.00044102,0.0
 0067796,0.00003788,-0.00002868,0.00009164,-0.00000308,-0.00001979,-0.0
 0001482,-0.00000162,-0.00002914,-0.00003633,-0.00000058,0.00011669,-0.
 00011094,0.00000955,0.00000052,-0.00000789,0.00000019,0.00000480,-0.00
 001025,-0.00000148,-0.00003654,0.00001940,0.00000485,0.00000529,0.0000
 3411,-0.00000020,0.00000286,0.00000253,-0.00000180,-0.00003216,0.00003
 623,-0.00000331,-0.00000695,0.00099846,0.00001460,-0.28481080,-0.10563
 389,-0.00677225,0.00161688,0.00040047,-0.00022300,0.00010316,-0.000099
 57,0.00001986,-0.00000790,-0.00000654,0.00000120,-0.00000412,-0.000006
 03,0.00000122,-0.00000297,0.00000290,-0.00000063,-0.00000663,-0.000001
 43,0.00000024,-0.00001177,0.00000429,-0.00002668,-0.00001472,-0.000005
 89,-0.00000247,0.00000062,-0.00000062,0.00000802,0.00000551,-0.0000062
 3,0.00002629,0.00114664,0.00147869,-0.00009127,-0.00005591,0.00008701,
 -0.00002031,0.30136512,-0.00045309,0.00001067,-0.00001037,0.00013680,0
 .00038901,0.00000383,0.00071966,0.00038114,0.00002966,0.00001121,0.001
 31587,-0.00001129,0.01686427,0.01122089,0.00048467,0.00311421,-0.00206
 748,0.00009885,0.00020987,-0.00007267,0.00000110,0.00010854,0.00015721
 ,-0.00000404,0.00053137,-0.00067210,0.00001102,0.00009577,-0.00011749,
 0.00000450,0.00002415,0.00004140,-0.00000247,0.00001872,0.00000808,0.0
 0000146,-0.00001869,0.00007924,-0.00000361,0.00000280,0.00002312,-0.00
 000106,-0.00000658,0.00000358,-0.00000025,-0.00001171,-0.00001826,0.00
 000178,-0.00000785,0.00000876,0.00000175,0.00000234,0.00000143,0.00000
 103,-0.00001774,-0.00000423,0.00000051,-0.00058919,-0.00023624,-0.0000
 0482,-0.10350177,-0.10569594,-0.00268479,0.00091686,-0.00553357,0.0001
 6839,-0.00005515,-0.00052033,0.00001011,0.00000260,-0.00000378,0.00000
 077,0.00000313,-0.00000189,-0.00000016,-0.00000168,0.00000169,-0.00000
 072,-0.00000372,0.00000033,-0.00000081,-0.00000645,-0.00001234,0.00000
 502,0.00000103,0.00001018,-0.00000114,-0.00000090,-0.00000240,-0.00000
 183,0.00000578,0.00000410,-0.00000142,-0.02953116,-0.01011552,-0.00080
 068,-0.00132417,0.00042125,-0.00004411,0.11267579,0.11023088,-0.000033
 21,0.00000311,-0.00013062,0.00001697,0.00001873,0.00005537,-0.00002756
 ,-0.00006046,0.00064006,0.00013291,-0.00004626,-0.00238024,-0.00088302
 ,-0.00035044,0.00243300,-0.00017242,0.00022307,0.00398832,-0.00000476,
 0.00001351,0.00032046,-0.00000074,-0.00002722,-0.00053680,0.00007812,-
 0.00004778,-0.00103858,-0.00000312,0.00000584,0.00014205,-0.00000161,0
 .00000019,0.00001201,0.00001393,0.00000425,-0.00002282,-0.00000882,-0.
 00000804,-0.00031080,-0.00001207,0.00000782,0.00006201,0.00000144,-0.0
 0001351,-0.00000344,-0.00001296,-0.00001252,0.00001542,0.00001080,0.00
 000961,0.00001350,0.00000508,-0.00000067,0.00000657,-0.00000322,0.0000
 0007,0.00011307,-0.00000041,0.00002595,0.00030303,-0.00675073,-0.00289
 745,-0.03470283,-0.00024146,0.00014125,0.00856653,0.00000910,-0.000018
 40,-0.00046939,-0.00000019,-0.00000024,-0.00000385,0.00000008,0.000000
 12,-0.00000345,-0.00000071,0.00000031,0.00000200,-0.00000005,-0.000000
 35,-0.00000595,0.00001156,0.00000482,-0.00002450,-0.00000354,-0.000004
 20,-0.00000487,-0.00000090,-0.00000009,-0.00000294,-0.00001195,0.00000
 934,0.00000474,0.00016157,0.00028250,0.00367514,-0.00003010,0.00001177
 ,0.00041978,0.00755762,0.00279627,0.02433162,0.00020673,0.00004160,0.0
 0002130,-0.00005309,-0.00016598,-0.00000238,-0.00019247,0.00015682,0.0
 0000934,0.00009593,0.00005358,-0.00001177,0.00131268,-0.00142531,-0.00
 022928,0.00033020,-0.00080404,0.00004196,-0.00049007,-0.00021724,-0.00
 000207,-0.00010107,0.00142334,-0.00007004,-0.00420010,-0.00404115,-0.0
 0014483,0.00012343,0.00002209,-0.00000320,0.00000800,-0.00006239,0.000
 00559,-0.00001462,-0.00001820,-0.00000320,0.00005203,0.00016580,0.0000
 0068,0.00001722,0.00001854,-0.00000092,-0.00003235,-0.00000956,0.00000
 121,-0.00006800,-0.00003914,0.00000086,-0.00000047,0.00002705,-0.00000
 080,-0.00000006,0.00000607,-0.00000109,0.00001610,-0.00000780,0.000001
 94,0.00000590,0.00001598,-0.00000521,0.00457692,-0.00333063,0.00008437
 ,-0.01787937,0.01692523,-0.00087188,-0.00013727,-0.00029039,0.00000954
 ,-0.00003344,-0.00001828,0.00000183,-0.00000518,-0.00000921,0.00000074
 ,-0.00001083,0.00000297,-0.00000031,-0.00000680,-0.00000030,-0.0000010
 6,-0.00001472,-0.00002589,-0.00000256,-0.00000293,0.00001685,0.0000010
 5,-0.00000002,-0.00000196,0.00000204,0.00000521,-0.00000307,0.00000589
 ,-0.25510221,0.12483048,-0.00814495,0.00138045,0.00105257,0.00006168,0
 .00098723,0.00020977,0.00020529,0.26938844,0.00020934,-0.00047757,-0.0
 0001066,-0.00016913,-0.00021316,0.00000055,-0.00007621,0.00018861,-0.0
 0000635,0.00130449,0.00027523,0.00004557,-0.00211009,-0.00488004,0.000
 06314,-0.00047911,-0.00053754,-0.00001690,-0.00015044,-0.00019030,-0.0
 0000048,-0.00053805,0.00069495,-0.00002123,-0.00323245,-0.00100609,-0.
 00001153,-0.00001859,0.00019766,-0.00001126,0.00006381,-0.00003292,0.0
 0000223,-0.00003209,0.00003933,0.00000059,-0.00007170,0.00009792,-0.00
 000269,0.00002707,-0.00000886,-0.00000039,-0.00001316,0.00001980,-0.00
 000039,0.00000912,-0.00002129,-0.00000431,-0.00001128,-0.00002058,-0.0
 0000081,-0.00000489,0.00000125,-0.00000053,0.00013155,-0.00005977,0.00
 000074,-0.00003586,-0.00004364,0.00000137,0.02772168,-0.01372202,0.001
 04667,-0.01255252,0.01142782,-0.00053373,0.00027972,-0.00001920,0.0000
 0634,-0.00000784,-0.00000141,-0.00000009,-0.00000092,0.00000208,-0.000
 00018,-0.00000270,-0.00000218,0.00000092,0.00000379,0.00000116,0.00000
 009,0.00000491,-0.00000929,0.00001647,0.00000906,0.00000536,0.00000484
 ,0.00000031,0.00000160,-0.00000432,-0.00000447,0.00000116,-0.00001536,
 0.12259724,-0.13539543,0.00496986,0.00022291,0.00126811,-0.00004805,-0
 .00022736,0.00085065,-0.00007095,-0.13342998,0.14178034,0.00000360,0.0
 0001867,-0.00057819,0.00000474,0.00001580,0.00011631,0.00001995,-0.000
 00878,-0.00053953,-0.00004764,-0.00001479,0.00044910,-0.00020660,0.000
 10148,0.00869682,0.00006687,0.00003457,-0.00081110,-0.00001303,-0.0000
 1023,0.00000928,-0.00002644,0.00005576,0.00050526,-0.00014553,-0.00012
 993,0.00458203,0.00002848,-0.00001195,-0.00008665,-0.00001329,0.000003
 06,0.00002681,0.00000664,-0.00000819,-0.00001458,0.00000098,0.00000381
 ,-0.00008593,-0.00000421,0.00000087,-0.00000190,0.00000228,-0.00000329
 ,-0.00001081,-0.00000099,0.00000040,-0.00002026,0.00000130,0.00000375,
 0.00001066,0.00000026,0.00000031,0.00000017,-0.00000194,0.00000256,-0.
 00006283,-0.00000242,-0.00000114,0.00016931,-0.00025107,-0.00007382,0.
 00310270,-0.00067364,0.00031332,0.00232208,-0.00003025,-0.00000432,-0.
 00011569,-0.00000054,0.00000027,0.00001183,0.,0.00000007,0.00000443,-0
 .00000020,0.00000132,0.00000949,-0.00000032,-0.00000011,0.00000271,-0.
 00000873,0.00000174,-0.00000568,-0.00000198,-0.00000137,-0.00000024,0.
 00000116,0.00000061,0.00000163,0.00000233,-0.00000139,0.00000455,-0.00
 804298,0.00524933,-0.03495239,0.00011772,-0.00002673,-0.00213701,0.000
 20897,-0.00005060,-0.00550072,0.00902624,-0.00543248,0.02458786,0.0000
 1721,0.00000060,0.00000150,0.00003093,-0.00001127,0.00000069,-0.000087
 34,-0.00008003,0.00000003,-0.00002101,0.00003518,-0.00000065,0.0001923
 6,0.00001426,0.00000600,0.00038685,-0.00039820,0.00000679,0.00018323,0
 .00001051,0.00000641,-0.00015004,-0.00043788,0.00002201,0.00041031,-0.
 00210634,-0.00000758,-0.00355881,-0.00348140,-0.00010118,-0.00014211,0
 .00133105,-0.00006433,-0.00047289,-0.00013516,0.00004238,-0.00010433,-
 0.00006664,-0.00000179,0.00005894,0.00015462,-0.00000672,-0.00009402,0
 .00005460,-0.00000345,0.00007097,-0.00004095,-0.00000561,-0.00005745,-
 0.00005561,0.00000662,0.00000005,0.00000667,0.00000008,0.00000049,0.00
 000666,0.00000026,0.00000235,0.00000105,-0.00000025,-0.00004831,0.0003
 0121,-0.00000272,0.00867419,-0.00601700,0.00029246,-0.01859030,0.02208
 900,-0.00101512,-0.00002796,-0.00005104,-0.00000535,0.00000380,-0.0000
 1308,0.00000135,-0.00000702,0.00000534,0.00000085,-0.00001939,0.000013
 36,-0.00000206,-0.00001585,-0.00001998,0.00000524,0.00000209,0.0000228
 7,0.00000023,-0.00000140,-0.00000321,-0.00000085,0.00000482,0.00000322
 ,0.00000020,0.00099387,0.00016745,0.00005453,-0.20065082,0.13617819,-0
 .00669368,0.00000349,0.00002918,-0.00000082,-0.00012021,0.00056254,-0.
 00001681,0.21227139,-0.00006077,-0.00001892,-0.00000216,0.00018218,0.0
 0001054,0.00000509,-0.00001736,-0.00054217,-0.00000390,-0.00006444,-0.
 00000077,-0.00000128,-0.00003681,0.00011746,-0.00000266,0.00150917,0.0
 0007017,0.00007778,0.00024514,-0.00008210,-0.00001051,-0.00086913,0.00
 003203,-0.00003818,-0.00296538,-0.00561446,0.00011730,-0.00268720,-0.0
 0005844,0.00024473,0.00003354,0.00047827,-0.00000712,-0.00018567,0.000
 08113,-0.00002105,-0.00018899,-0.00005812,0.00000792,0.00004669,0.0000
 3808,-0.00000479,-0.00000594,0.00007409,-0.00000302,0.00008347,-0.0000
 2982,-0.00000930,-0.00005233,-0.00004105,0.00000672,-0.00000336,0.0000
 0152,0.00000054,-0.00000361,-0.00000513,-0.00000075,-0.00001652,-0.000
 03265,-0.00000046,-0.00023976,-0.00017276,-0.00000831,0.02337309,-0.01
 496731,0.00099390,-0.00911590,0.00929068,-0.00031690,0.00001226,-0.000
 00469,0.00000662,0.00000708,0.00000308,-0.00000076,0.00000148,-0.00000
 230,-0.00000092,-0.00000235,0.00000551,0.00000053,0.00000596,-0.000009
 56,0.00002831,0.00001317,0.00001427,0.00000604,-0.00000044,-0.00000041
 ,-0.00000901,-0.00000692,0.00000919,-0.00002406,0.00091140,0.00167847,
 -0.00003579,0.13882926,-0.18978632,0.00665295,-0.00002786,-0.00004479,
 0.00000185,-0.00102998,-0.00021252,-0.00003144,-0.14782225,0.19877918,
 0.00000515,-0.00000314,-0.00004456,-0.00000599,-0.00000039,0.00000533,
 0.00000969,0.00001807,-0.00006003,-0.00000491,0.00000630,0.00008582,0.
 00001316,-0.00002077,-0.00005799,-0.00006167,0.00001825,0.00030660,0.0
 0000704,-0.00001933,-0.00053404,0.00001700,-0.00004517,-0.00063874,0.0
 0006903,0.00014741,0.00387506,-0.00013727,0.00020836,0.00941273,-0.000
 02739,0.00007271,0.00037982,-0.00003581,-0.00005901,-0.00099799,-0.000
 00240,0.00000727,0.00015852,0.00001116,-0.00000478,-0.00008502,-0.0000
 0519,0.00001838,0.00009827,0.00001928,0.00000650,0.00006817,-0.0000106
 0,-0.00001461,-0.00001564,0.00000003,-0.00000008,-0.00000055,0.0000005
 9,0.00000088,-0.00003074,0.00000038,0.00000070,0.00001144,0.00000077,0
 .00002563,-0.00015414,-0.00047855,0.00053101,0.00251712,-0.00000302,0.
 00026274,0.00364223,0.00000651,0.00001008,0.00028075,-0.00000128,-0.00
 000103,-0.00002029,-0.00000054,-0.00000132,-0.00002016,0.00000035,0.00
 000085,0.00001645,-0.00000790,-0.00000190,0.00000588,-0.00000757,0.000
 00148,0.00000262,0.00000513,0.00000187,0.00000269,0.00000216,0.0000010
 0,0.00000275,0.00004008,-0.00009811,-0.00169090,-0.00690112,0.00652864
 ,-0.03552033,-0.00000182,0.00000205,0.00008052,0.00001694,0.00003235,0
 .00018713,0.00736752,-0.00741298,0.02464480,0.00008813,0.00002136,0.00
 000463,0.00007664,-0.00007115,0.00000472,-0.00019174,0.00035491,-0.000
 00584,0.00000703,0.00009218,0.00000101,-0.00014758,0.00001388,-0.00000
 444,0.00018610,0.00015904,0.00000642,0.00064267,0.00071210,-0.00004648
 ,-0.00409953,0.00282581,-0.00013559,-0.00068574,0.00018242,-0.00000006
 ,0.00842218,0.02366228,-0.00069527,0.00163373,0.00011491,-0.00000972,0
 .00001242,-0.00036775,0.00000415,0.00029491,0.00007538,0.00000386,-0.0
 0007619,0.00002601,-0.00000058,0.00002766,-0.00006481,0.00000216,-0.00
 008203,-0.00003922,0.00000531,0.00001733,0.00007863,-0.00000497,-0.000
 00097,-0.00000007,-0.00000085,0.00001350,0.00000269,-0.00000112,-0.000
 00488,0.00000217,-0.00000041,-0.00043668,-0.00018019,-0.00000729,-0.00
 546170,-0.00056889,-0.00021729,-0.06729815,-0.05052503,0.00117971,-0.0
 0028704,-0.00072365,0.00003354,-0.00002549,-0.00000347,0.00000122,-0.0
 0000289,-0.00000470,-0.00000053,0.00000161,-0.00000258,0.00000049,0.00
 000597,-0.00000184,-0.00000122,-0.00000182,-0.00000424,0.00000285,0.00
 000088,0.00000097,-0.00000020,-0.00000317,-0.00000518,-0.00000036,0.00
 069195,-0.00117065,0.00003943,-0.00325789,-0.03083234,0.00081494,-0.00
 000452,-0.00015400,-0.00000010,-0.00004116,0.00002129,-0.00000290,0.00
 086190,0.00014909,0.00010105,0.06912458,-0.00007337,-0.00001943,-0.000
 00393,-0.00002914,0.00007019,-0.00000844,0.00017802,-0.00038975,0.0000
 1002,0.00000629,-0.00006198,-0.00000041,0.00007839,0.00005018,0.000004
 59,-0.00011378,-0.00017920,-0.00001230,-0.00088456,-0.00015265,0.00004
 754,0.00393340,-0.00091621,0.00011950,0.00031785,0.00068579,-0.0000355
 4,-0.00599318,-0.01580629,0.00052779,-0.00098311,0.00103859,-0.0000628
 9,0.00039753,0.00004030,0.00000832,-0.00001766,0.00008156,-0.00000777,
 -0.00009375,-0.00008974,0.00000193,0.00003803,-0.00006876,0.00000817,0
 .00002957,0.00008335,-0.00000448,0.00007603,-0.00002503,-0.00000717,-0
 .00000184,-0.00000604,0.00000069,-0.00000990,-0.00001214,0.00000261,-0
 .00000723,-0.00000689,-0.00000006,-0.00023024,0.00003865,-0.00002482,-
 0.00128827,0.00149118,0.00021536,-0.05289116,-0.32278607,0.00793382,0.
 00094850,0.00009682,-0.00003103,0.00001559,0.00002156,-0.00000204,0.00
 001009,0.00000026,0.00000078,0.00001605,-0.00000415,0.00000109,0.00000
 969,0.00002412,0.00000594,0.00000611,-0.00001545,-0.00000095,0.0000002
 9,0.00000297,-0.00000148,-0.00000582,0.00000136,-0.00000999,0.00022908
 ,-0.00031682,0.00002858,0.00039394,-0.00606805,0.00031308,-0.00000030,
 -0.00004045,-0.00000176,-0.00003826,0.00000079,0.00000287,-0.00024752,
 0.00100066,-0.00021991,0.05622463,0.34223678,0.00000844,-0.00000172,-0
 .00003700,0.00000072,-0.00000158,-0.00031083,-0.00001496,0.00001682,0.
 00029735,-0.00000120,0.00000674,0.00001633,-0.00000245,-0.00000671,0.0
 0014566,0.00002426,0.00000356,-0.00052571,0.00006418,0.00002369,0.0005
 6081,-0.00028092,0.00011476,0.00353966,0.00008080,-0.00008018,-0.00093
 930,0.00002204,0.00101483,0.00229203,0.00009449,-0.00013587,-0.0019532
 7,-0.00004176,0.00004323,-0.00015566,-0.00002799,-0.00002418,-0.000014
 63,0.00001852,0.00000093,0.00000815,-0.00000441,0.00001662,0.00001498,
 0.00000486,-0.00001070,0.00004533,-0.00001044,-0.00000948,-0.00002243,
 0.00000157,0.00000045,0.00000152,-0.00000103,-0.00000062,0.00008382,-0
 .00000043,-0.00000022,0.00000318,0.00002797,0.00000186,-0.00058759,-0.
 00017182,0.00022678,0.00908624,0.00152111,0.00795711,-0.03496717,-0.00
 003103,0.00001452,0.00029865,0.00000019,0.00000057,0.00002112,-0.00000
 092,0.00000031,0.00000019,-0.00000078,0.00000019,-0.00000216,0.0000017
 5,-0.00000387,0.00000707,-0.00000093,0.00000130,-0.00000633,0.00000205
 ,-0.00000063,-0.00000099,-0.00000010,0.00000737,0.00000096,-0.00002937
 ,0.00002442,0.00040563,-0.00029393,-0.00020004,0.00404360,0.00000095,0
 .00000141,-0.00004340,-0.00000296,0.00000100,0.00012332,0.00011381,-0.
 00020497,-0.00591359,-0.00107027,-0.00879771,0.02448447\\-0.00001850,0
 .00001804,-0.00001215,0.00000209,-0.00001814,-0.00000605,-0.00000080,0
 .00000774,0.00000443,0.00002920,-0.00000942,-0.00001257,-0.00002763,-0
 .00001500,0.00000231,0.00001127,0.00000469,0.00000612,-0.00000713,0.00
 000033,-0.00001023,0.00000367,-0.00000969,0.00000669,0.00000791,-0.000
 00902,0.00002137,0.00000833,0.00003088,0.00000971,-0.00001660,-0.00001
 494,-0.00000151,0.00000821,0.00002395,0.00000532,0.00000452,0.00000566
 ,-0.00000959,0.00001703,-0.00002419,0.00000529,-0.00001827,0.00000221,
 0.00000112,-0.00000649,-0.00000957,0.00001632,0.00001183,0.00002704,0.
 00000232,0.00000743,-0.00000024,-0.00000491,0.00000475,-0.00000498,-0.
 00000362,-0.00000309,0.00000007,-0.00000501,0.00000651,0.00003638,-0.0
 0001422,-0.00002273,0.00001721,-0.00000668,-0.00003382,-0.00001685,0.0
 0000290,0.00000131,0.00000037,0.00000565,-0.00000324,0.00000375,0.0000
 0784,-0.00000226,-0.00000516,0.00000254,0.00000447,-0.00000085,0.00000
 530,0.00001444,-0.00000530,-0.00001477,-0.00001592,-0.00000014,0.00001
 168,0.00000273,-0.00000112,-0.00000318,-0.00000582,-0.00000041,-0.0000
 0356,0.00000161,-0.00003992,-0.00000677,0.00003791,0.00000759,-0.00000
 510,-0.00000043,-0.00000752,-0.00000368,-0.00000050,0.00000655,0.00000
 005,-0.00000783,-0.00000202,0.00000292,0.00000582,0.00000202,0.0000037
 3\\\@


 WORK FAITHFULLY FOR EIGHT HOURS A DAY AND DON'T WORRY.
 IN TIME YOU MAY BECOME BOSS AND WORK TWELVE HOURS A DAY
 AND HAVE ALL THE WORRY.
 Job cpu time:       3 days  2 hours 15 minutes  1.5 seconds.
 File lengths (MBytes):  RWF=   7869 Int=      0 D2E=      0 Chk=     37 Scr=      1
 Normal termination of Gaussian 09 at Sat Feb  1 21:11:21 2020.
