 Entering Gaussian System, Link 0=/share/apps/gaussian16/g16/g16
 Initial command:
 /share/apps/gaussian16/g16/l1.exe "/home/am2145//scratch/3536/Gau-22158.inp" -scrdir="/home/am2145//scratch/3536/"
 Entering Link 1 = /share/apps/gaussian16/g16/l1.exe PID=     22159.
  
 Copyright (c) 1988,1990,1992,1993,1995,1998,2003,2009,2016,
            Gaussian, Inc.  All Rights Reserved.
  
 This is part of the Gaussian(R) 16 program.  It is based on
 the Gaussian(R) 09 system (copyright 2009, Gaussian, Inc.),
 the Gaussian(R) 03 system (copyright 2003, Gaussian, Inc.),
 the Gaussian(R) 98 system (copyright 1998, Gaussian, Inc.),
 the Gaussian(R) 94 system (copyright 1995, Gaussian, Inc.),
 the Gaussian 92(TM) system (copyright 1992, Gaussian, Inc.),
 the Gaussian 90(TM) system (copyright 1990, Gaussian, Inc.),
 the Gaussian 88(TM) system (copyright 1988, Gaussian, Inc.),
 the Gaussian 86(TM) system (copyright 1986, Carnegie Mellon
 University), and the Gaussian 82(TM) system (copyright 1983,
 Carnegie Mellon University). Gaussian is a federally registered
 trademark of Gaussian, Inc.
  
 This software contains proprietary and confidential information,
 including trade secrets, belonging to Gaussian, Inc.
  
 This software is provided under written license and may be
 used, copied, transmitted, or stored only in accord with that
 written license.
  
 The following legend is applicable only to US Government
 contracts under FAR:
  
                    RESTRICTED RIGHTS LEGEND
  
 Use, reproduction and disclosure by the US Government is
 subject to restrictions as set forth in subparagraphs (a)
 and (c) of the Commercial Computer Software - Restricted
 Rights clause in FAR 52.227-19.
  
 Gaussian, Inc.
 340 Quinnipiac St., Bldg. 40, Wallingford CT 06492
  
  
 ---------------------------------------------------------------
 Warning -- This program may not be used in any manner that
 competes with the business of Gaussian, Inc. or will provide
 assistance to any competitor of Gaussian, Inc.  The licensee
 of this program is prohibited from giving any competitor of
 Gaussian, Inc. access to this program.  By using this program,
 the user acknowledges that Gaussian, Inc. is engaged in the
 business of creating and licensing software in the field of
 computational chemistry and represents and warrants to the
 licensee that it is not a competitor of Gaussian, Inc. and that
 it will not use this program in any manner prohibited above.
 ---------------------------------------------------------------
  

 Cite this work as:
 Gaussian 16, Revision A.03,
 M. J. Frisch, G. W. Trucks, H. B. Schlegel, G. E. Scuseria, 
 M. A. Robb, J. R. Cheeseman, G. Scalmani, V. Barone, 
 G. A. Petersson, H. Nakatsuji, X. Li, M. Caricato, A. V. Marenich, 
 J. Bloino, B. G. Janesko, R. Gomperts, B. Mennucci, H. P. Hratchian, 
 J. V. Ortiz, A. F. Izmaylov, J. L. Sonnenberg, D. Williams-Young, 
 F. Ding, F. Lipparini, F. Egidi, J. Goings, B. Peng, A. Petrone, 
 T. Henderson, D. Ranasinghe, V. G. Zakrzewski, J. Gao, N. Rega, 
 G. Zheng, W. Liang, M. Hada, M. Ehara, K. Toyota, R. Fukuda, 
 J. Hasegawa, M. Ishida, T. Nakajima, Y. Honda, O. Kitao, H. Nakai, 
 T. Vreven, K. Throssell, J. A. Montgomery, Jr., J. E. Peralta, 
 F. Ogliaro, M. J. Bearpark, J. J. Heyd, E. N. Brothers, K. N. Kudin, 
 V. N. Staroverov, T. A. Keith, R. Kobayashi, J. Normand, 
 K. Raghavachari, A. P. Rendell, J. C. Burant, S. S. Iyengar, 
 J. Tomasi, M. Cossi, J. M. Millam, M. Klene, C. Adamo, R. Cammi, 
 J. W. Ochterski, R. L. Martin, K. Morokuma, O. Farkas, 
 J. B. Foresman, and D. J. Fox, Gaussian, Inc., Wallingford CT, 2016.
 
 ******************************************
 Gaussian 16:  ES64L-G16RevA.03 25-Dec-2016
                25-Mar-2019 
 ******************************************
 %nprocshared=20
 Will use up to   20 processors via shared memory.
 %mem=100GB
 %chk=7-memb-3a.chk
 -------------------------------------------
 # opt freq b3lyp/6-311+g(d,p) int=grid=fine
 -------------------------------------------
 1/18=20,19=15,26=3,38=1/1,3;
 2/9=110,12=2,17=6,18=5,40=1/2;
 3/5=4,6=6,7=111,11=2,25=1,30=1,71=1,74=-5,75=-4/1,2,3;
 4//1;
 5/5=2,38=5/2;
 6/7=2,8=2,9=2,10=2,28=1/1;
 7//1,2,3,16;
 1/18=20,19=15,26=3/3(2);
 2/9=110/2;
 99//99;
 2/9=110/2;
 3/5=4,6=6,7=111,11=2,25=1,30=1,71=1,74=-5,75=-4/1,2,3;
 4/5=5,16=3,69=1/1;
 5/5=2,38=5/2;
 7//1,2,3,16;
 1/18=20,19=15,26=3/3(-5);
 2/9=110/2;
 6/7=2,8=2,9=2,10=2,19=2,28=1/1;
 99/9=1/99;
 ---------
 7-memb-3a
 ---------
 Symbolic Z-matrix:
 Charge =  0 Multiplicity = 2
 C                    -7.21418   0.16749   0.56621 
 C                    -5.9256    0.76435   0.46468 
 C                    -4.83726  -0.01953   0.14495 
 C                    -7.43312  -1.22505   0.39758 
 C                    -6.35772  -2.05001   0.13061 
 C                    -5.14161  -1.39348   0.00777 
 C                    -3.34743   0.15601   0.01556 
 C                    -2.80873  -1.15359  -0.11992 
 C                    -3.90052  -2.08848  -0.17162 
 C                    -1.49335  -1.56618  -0.15063 
 C                    -0.57967  -0.54149  -0.03974 
 C                    -1.00787   0.81672   0.05244 
 C                    -2.40645   1.21294   0.03264 
 C                    -0.00346   1.78735   0.1601 
 C                    -0.30426   3.14176   0.22289 
 C                    -2.67047   2.61952   0.01576 
 C                    -1.62512   3.55399   0.13673 
 H                    -5.83733   1.81972   0.67846 
 H                    -8.06435   0.80366   0.81057 
 H                    -8.4333   -1.63114   0.51371 
 C                    -6.3148   -3.53015   0.01421 
 C                    -3.76309  -3.52253  -0.21166 
 C                    -1.25449  -3.02855  -0.24933 
 H                     0.48135  -0.78154  -0.02959 
 H                     1.04537   1.49565   0.19337 
 H                    -1.83837   4.62173   0.12685 
 H                     0.49332   3.87548   0.30325 
 C                    -3.98107   3.21771  -0.23293 
 C                    -4.56858   3.2101   -1.52712 
 H                    -4.99872   3.18075  -2.50174 
 H                    -4.38355   3.87507   0.53089 
 C                    -5.032    -4.2568   -0.14447 
 C                    -2.37671  -3.99528  -0.27762 
 H                    -7.2348   -4.09365   0.10486 
 H                    -5.03349  -5.33894  -0.17327 
 H                    -2.16656  -5.0564   -0.31757 
 H                    -0.23713  -3.39819  -0.27489 
 

 GradGradGradGradGradGradGradGradGradGradGradGradGradGradGradGradGradGrad
 Berny optimization.
 Initialization pass.
                           ----------------------------
                           !    Initial Parameters    !
                           ! (Angstroms and Degrees)  !
 --------------------------                            --------------------------
 ! Name  Definition              Value          Derivative Info.                !
 --------------------------------------------------------------------------------
 ! R1    R(1,2)                  1.4237         estimate D2E/DX2                !
 ! R2    R(1,4)                  1.4197         estimate D2E/DX2                !
 ! R3    R(1,19)                 1.0896         estimate D2E/DX2                !
 ! R4    R(2,3)                  1.3788         estimate D2E/DX2                !
 ! R5    R(2,18)                 1.0804         estimate D2E/DX2                !
 ! R6    R(3,6)                  1.4139         estimate D2E/DX2                !
 ! R7    R(3,7)                  1.5057         estimate D2E/DX2                !
 ! R8    R(4,5)                  1.3814         estimate D2E/DX2                !
 ! R9    R(4,20)                 1.0857         estimate D2E/DX2                !
 ! R10   R(5,6)                  1.3875         estimate D2E/DX2                !
 ! R11   R(5,21)                 1.4853         estimate D2E/DX2                !
 ! R12   R(6,9)                  1.4337         estimate D2E/DX2                !
 ! R13   R(7,8)                  1.4225         estimate D2E/DX2                !
 ! R14   R(7,13)                 1.4152         estimate D2E/DX2                !
 ! R15   R(8,9)                  1.4383         estimate D2E/DX2                !
 ! R16   R(8,10)                 1.3789         estimate D2E/DX2                !
 ! R17   R(9,22)                 1.4412         estimate D2E/DX2                !
 ! R18   R(10,11)                1.3774         estimate D2E/DX2                !
 ! R19   R(10,23)                1.485          estimate D2E/DX2                !
 ! R20   R(11,12)                1.4271         estimate D2E/DX2                !
 ! R21   R(11,24)                1.0879         estimate D2E/DX2                !
 ! R22   R(12,13)                1.4538         estimate D2E/DX2                !
 ! R23   R(12,14)                1.4009         estimate D2E/DX2                !
 ! R24   R(13,16)                1.4312         estimate D2E/DX2                !
 ! R25   R(14,15)                1.3888         estimate D2E/DX2                !
 ! R26   R(14,25)                1.0891         estimate D2E/DX2                !
 ! R27   R(15,17)                1.3864         estimate D2E/DX2                !
 ! R28   R(15,27)                1.0867         estimate D2E/DX2                !
 ! R29   R(16,17)                1.4073         estimate D2E/DX2                !
 ! R30   R(16,28)                1.462          estimate D2E/DX2                !
 ! R31   R(17,26)                1.0889         estimate D2E/DX2                !
 ! R32   R(21,32)                1.4828         estimate D2E/DX2                !
 ! R33   R(21,34)                1.0827         estimate D2E/DX2                !
 ! R34   R(22,32)                1.4676         estimate D2E/DX2                !
 ! R35   R(22,33)                1.4663         estimate D2E/DX2                !
 ! R36   R(23,33)                1.4815         estimate D2E/DX2                !
 ! R37   R(23,37)                1.0827         estimate D2E/DX2                !
 ! R38   R(28,29)                1.4213         estimate D2E/DX2                !
 ! R39   R(28,31)                1.0851         estimate D2E/DX2                !
 ! R40   R(29,30)                1.0657         estimate D2E/DX2                !
 ! R41   R(32,35)                1.0825         estimate D2E/DX2                !
 ! R42   R(33,36)                1.0825         estimate D2E/DX2                !
 ! A1    A(2,1,4)              122.8412         estimate D2E/DX2                !
 ! A2    A(2,1,19)             118.5173         estimate D2E/DX2                !
 ! A3    A(4,1,19)             118.6202         estimate D2E/DX2                !
 ! A4    A(1,2,3)              119.5115         estimate D2E/DX2                !
 ! A5    A(1,2,18)             117.9915         estimate D2E/DX2                !
 ! A6    A(3,2,18)             122.461          estimate D2E/DX2                !
 ! A7    A(2,3,6)              113.8931         estimate D2E/DX2                !
 ! A8    A(2,3,7)              137.2773         estimate D2E/DX2                !
 ! A9    A(6,3,7)              108.5379         estimate D2E/DX2                !
 ! A10   A(1,4,5)              119.2527         estimate D2E/DX2                !
 ! A11   A(1,4,20)             119.7517         estimate D2E/DX2                !
 ! A12   A(5,4,20)             120.9611         estimate D2E/DX2                !
 ! A13   A(4,5,6)              114.6368         estimate D2E/DX2                !
 ! A14   A(4,5,21)             129.2523         estimate D2E/DX2                !
 ! A15   A(6,5,21)             116.0573         estimate D2E/DX2                !
 ! A16   A(3,6,5)              129.7835         estimate D2E/DX2                !
 ! A17   A(3,6,9)              107.269          estimate D2E/DX2                !
 ! A18   A(5,6,9)              122.7137         estimate D2E/DX2                !
 ! A19   A(3,7,8)              105.995          estimate D2E/DX2                !
 ! A20   A(3,7,13)             138.0666         estimate D2E/DX2                !
 ! A21   A(8,7,13)             115.9062         estimate D2E/DX2                !
 ! A22   A(7,8,9)              108.3222         estimate D2E/DX2                !
 ! A23   A(7,8,10)             129.7041         estimate D2E/DX2                !
 ! A24   A(9,8,10)             121.9259         estimate D2E/DX2                !
 ! A25   A(6,9,8)              109.7255         estimate D2E/DX2                !
 ! A26   A(6,9,22)             124.6377         estimate D2E/DX2                !
 ! A27   A(8,9,22)             125.1274         estimate D2E/DX2                !
 ! A28   A(8,10,11)            114.1044         estimate D2E/DX2                !
 ! A29   A(8,10,23)            116.7156         estimate D2E/DX2                !
 ! A30   A(11,10,23)           129.1429         estimate D2E/DX2                !
 ! A31   A(10,11,12)           120.9445         estimate D2E/DX2                !
 ! A32   A(10,11,24)           118.9189         estimate D2E/DX2                !
 ! A33   A(12,11,24)           120.1355         estimate D2E/DX2                !
 ! A34   A(11,12,13)           123.1736         estimate D2E/DX2                !
 ! A35   A(11,12,14)           116.6956         estimate D2E/DX2                !
 ! A36   A(13,12,14)           120.1302         estimate D2E/DX2                !
 ! A37   A(7,13,12)            115.8669         estimate D2E/DX2                !
 ! A38   A(7,13,16)            127.6739         estimate D2E/DX2                !
 ! A39   A(12,13,16)           116.4541         estimate D2E/DX2                !
 ! A40   A(12,14,15)           121.5925         estimate D2E/DX2                !
 ! A41   A(12,14,25)           120.4784         estimate D2E/DX2                !
 ! A42   A(15,14,25)           117.9288         estimate D2E/DX2                !
 ! A43   A(14,15,17)           119.5719         estimate D2E/DX2                !
 ! A44   A(14,15,27)           120.1871         estimate D2E/DX2                !
 ! A45   A(17,15,27)           120.2049         estimate D2E/DX2                !
 ! A46   A(13,16,17)           120.9653         estimate D2E/DX2                !
 ! A47   A(13,16,28)           124.7148         estimate D2E/DX2                !
 ! A48   A(17,16,28)           114.1302         estimate D2E/DX2                !
 ! A49   A(15,17,16)           121.0368         estimate D2E/DX2                !
 ! A50   A(15,17,26)           118.6024         estimate D2E/DX2                !
 ! A51   A(16,17,26)           120.3219         estimate D2E/DX2                !
 ! A52   A(5,21,32)            121.4474         estimate D2E/DX2                !
 ! A53   A(5,21,34)            119.1792         estimate D2E/DX2                !
 ! A54   A(32,21,34)           119.2771         estimate D2E/DX2                !
 ! A55   A(9,22,32)            114.4645         estimate D2E/DX2                !
 ! A56   A(9,22,33)            114.3457         estimate D2E/DX2                !
 ! A57   A(32,22,33)           131.1681         estimate D2E/DX2                !
 ! A58   A(10,23,33)           121.4678         estimate D2E/DX2                !
 ! A59   A(10,23,37)           119.2675         estimate D2E/DX2                !
 ! A60   A(33,23,37)           119.2448         estimate D2E/DX2                !
 ! A61   A(16,28,29)           121.551          estimate D2E/DX2                !
 ! A62   A(16,28,31)           117.4277         estimate D2E/DX2                !
 ! A63   A(29,28,31)           119.3971         estimate D2E/DX2                !
 ! A64   A(21,32,22)           120.5114         estimate D2E/DX2                !
 ! A65   A(21,32,35)           119.4409         estimate D2E/DX2                !
 ! A66   A(22,32,35)           120.008          estimate D2E/DX2                !
 ! A67   A(22,33,23)           120.3305         estimate D2E/DX2                !
 ! A68   A(22,33,36)           120.0852         estimate D2E/DX2                !
 ! A69   A(23,33,36)           119.5592         estimate D2E/DX2                !
 ! A70   L(28,29,30,1,-1)      179.5719         estimate D2E/DX2                !
 ! A71   L(28,29,30,1,-2)      181.3602         estimate D2E/DX2                !
 ! D1    D(4,1,2,3)              2.2717         estimate D2E/DX2                !
 ! D2    D(4,1,2,18)          -175.6016         estimate D2E/DX2                !
 ! D3    D(19,1,2,3)          -179.4343         estimate D2E/DX2                !
 ! D4    D(19,1,2,18)            2.6925         estimate D2E/DX2                !
 ! D5    D(2,1,4,5)              0.3839         estimate D2E/DX2                !
 ! D6    D(2,1,4,20)           178.2674         estimate D2E/DX2                !
 ! D7    D(19,1,4,5)          -177.9085         estimate D2E/DX2                !
 ! D8    D(19,1,4,20)           -0.0251         estimate D2E/DX2                !
 ! D9    D(1,2,3,6)             -2.706          estimate D2E/DX2                !
 ! D10   D(1,2,3,7)           -175.5565         estimate D2E/DX2                !
 ! D11   D(18,2,3,6)           175.0682         estimate D2E/DX2                !
 ! D12   D(18,2,3,7)             2.2178         estimate D2E/DX2                !
 ! D13   D(2,3,6,5)              0.861          estimate D2E/DX2                !
 ! D14   D(2,3,6,9)           -173.5984         estimate D2E/DX2                !
 ! D15   D(7,3,6,5)            175.7515         estimate D2E/DX2                !
 ! D16   D(7,3,6,9)              1.292          estimate D2E/DX2                !
 ! D17   D(2,3,7,8)            169.8277         estimate D2E/DX2                !
 ! D18   D(2,3,7,13)            -7.903          estimate D2E/DX2                !
 ! D19   D(6,3,7,8)             -3.279          estimate D2E/DX2                !
 ! D20   D(6,3,7,13)           178.9903         estimate D2E/DX2                !
 ! D21   D(1,4,5,6)             -2.1417         estimate D2E/DX2                !
 ! D22   D(1,4,5,21)           175.057          estimate D2E/DX2                !
 ! D23   D(20,4,5,6)          -179.9988         estimate D2E/DX2                !
 ! D24   D(20,4,5,21)           -2.8001         estimate D2E/DX2                !
 ! D25   D(4,5,6,3)              1.6375         estimate D2E/DX2                !
 ! D26   D(4,5,6,9)            175.3464         estimate D2E/DX2                !
 ! D27   D(21,5,6,3)          -175.9481         estimate D2E/DX2                !
 ! D28   D(21,5,6,9)            -2.2392         estimate D2E/DX2                !
 ! D29   D(4,5,21,32)         -173.7336         estimate D2E/DX2                !
 ! D30   D(4,5,21,34)            2.6727         estimate D2E/DX2                !
 ! D31   D(6,5,21,32)            3.432          estimate D2E/DX2                !
 ! D32   D(6,5,21,34)          179.8383         estimate D2E/DX2                !
 ! D33   D(3,6,9,8)              1.1782         estimate D2E/DX2                !
 ! D34   D(3,6,9,22)           173.3334         estimate D2E/DX2                !
 ! D35   D(5,6,9,8)           -173.7627         estimate D2E/DX2                !
 ! D36   D(5,6,9,22)            -1.6075         estimate D2E/DX2                !
 ! D37   D(3,7,8,9)              3.9404         estimate D2E/DX2                !
 ! D38   D(3,7,8,10)          -173.537          estimate D2E/DX2                !
 ! D39   D(13,7,8,9)          -177.7453         estimate D2E/DX2                !
 ! D40   D(13,7,8,10)            4.7773         estimate D2E/DX2                !
 ! D41   D(3,7,13,12)          171.3023         estimate D2E/DX2                !
 ! D42   D(3,7,13,16)           -9.5537         estimate D2E/DX2                !
 ! D43   D(8,7,13,12)           -6.2725         estimate D2E/DX2                !
 ! D44   D(8,7,13,16)          172.8715         estimate D2E/DX2                !
 ! D45   D(7,8,9,6)             -3.3137         estimate D2E/DX2                !
 ! D46   D(7,8,9,22)          -175.4216         estimate D2E/DX2                !
 ! D47   D(10,8,9,6)           174.3999         estimate D2E/DX2                !
 ! D48   D(10,8,9,22)            2.2919         estimate D2E/DX2                !
 ! D49   D(7,8,10,11)           -0.4109         estimate D2E/DX2                !
 ! D50   D(7,8,10,23)          177.5784         estimate D2E/DX2                !
 ! D51   D(9,8,10,11)         -177.5892         estimate D2E/DX2                !
 ! D52   D(9,8,10,23)            0.4001         estimate D2E/DX2                !
 ! D53   D(6,9,22,32)            4.0293         estimate D2E/DX2                !
 ! D54   D(6,9,22,33)         -174.4708         estimate D2E/DX2                !
 ! D55   D(8,9,22,32)          174.9912         estimate D2E/DX2                !
 ! D56   D(8,9,22,33)           -3.509          estimate D2E/DX2                !
 ! D57   D(8,10,11,12)          -1.9205         estimate D2E/DX2                !
 ! D58   D(8,10,11,24)         178.4692         estimate D2E/DX2                !
 ! D59   D(23,10,11,12)       -179.6046         estimate D2E/DX2                !
 ! D60   D(23,10,11,24)          0.785          estimate D2E/DX2                !
 ! D61   D(8,10,23,33)          -1.5393         estimate D2E/DX2                !
 ! D62   D(8,10,23,37)        -179.9042         estimate D2E/DX2                !
 ! D63   D(11,10,23,33)        176.094          estimate D2E/DX2                !
 ! D64   D(11,10,23,37)         -2.2708         estimate D2E/DX2                !
 ! D65   D(10,11,12,13)         -0.1929         estimate D2E/DX2                !
 ! D66   D(10,11,12,14)       -179.9077         estimate D2E/DX2                !
 ! D67   D(24,11,12,13)        179.4128         estimate D2E/DX2                !
 ! D68   D(24,11,12,14)         -0.302          estimate D2E/DX2                !
 ! D69   D(11,12,13,7)           4.5481         estimate D2E/DX2                !
 ! D70   D(11,12,13,16)       -174.6952         estimate D2E/DX2                !
 ! D71   D(14,12,13,7)        -175.7465         estimate D2E/DX2                !
 ! D72   D(14,12,13,16)          5.0102         estimate D2E/DX2                !
 ! D73   D(11,12,14,15)        178.3996         estimate D2E/DX2                !
 ! D74   D(11,12,14,25)         -1.3721         estimate D2E/DX2                !
 ! D75   D(13,12,14,15)         -1.3244         estimate D2E/DX2                !
 ! D76   D(13,12,14,25)        178.9039         estimate D2E/DX2                !
 ! D77   D(7,13,16,17)         175.2344         estimate D2E/DX2                !
 ! D78   D(7,13,16,28)         -10.0703         estimate D2E/DX2                !
 ! D79   D(12,13,16,17)         -5.6258         estimate D2E/DX2                !
 ! D80   D(12,13,16,28)        169.0695         estimate D2E/DX2                !
 ! D81   D(12,14,15,17)         -1.9964         estimate D2E/DX2                !
 ! D82   D(12,14,15,27)       -179.8181         estimate D2E/DX2                !
 ! D83   D(25,14,15,17)        177.781          estimate D2E/DX2                !
 ! D84   D(25,14,15,27)         -0.0408         estimate D2E/DX2                !
 ! D85   D(14,15,17,16)          1.4004         estimate D2E/DX2                !
 ! D86   D(14,15,17,26)       -176.3373         estimate D2E/DX2                !
 ! D87   D(27,15,17,16)        179.2218         estimate D2E/DX2                !
 ! D88   D(27,15,17,26)          1.4841         estimate D2E/DX2                !
 ! D89   D(13,16,17,15)          2.563          estimate D2E/DX2                !
 ! D90   D(13,16,17,26)       -179.738          estimate D2E/DX2                !
 ! D91   D(28,16,17,15)       -172.6603         estimate D2E/DX2                !
 ! D92   D(28,16,17,26)          5.0387         estimate D2E/DX2                !
 ! D93   D(13,16,28,29)        -72.0171         estimate D2E/DX2                !
 ! D94   D(13,16,28,31)        122.6047         estimate D2E/DX2                !
 ! D95   D(17,16,28,29)        102.9996         estimate D2E/DX2                !
 ! D96   D(17,16,28,31)        -62.3787         estimate D2E/DX2                !
 ! D97   D(5,21,32,22)          -0.9507         estimate D2E/DX2                !
 ! D98   D(5,21,32,35)         176.7571         estimate D2E/DX2                !
 ! D99   D(34,21,32,22)       -177.3535         estimate D2E/DX2                !
 ! D100  D(34,21,32,35)          0.3543         estimate D2E/DX2                !
 ! D101  D(9,22,32,21)          -2.6389         estimate D2E/DX2                !
 ! D102  D(9,22,32,35)         179.6662         estimate D2E/DX2                !
 ! D103  D(33,22,32,21)        175.5457         estimate D2E/DX2                !
 ! D104  D(33,22,32,35)         -2.1491         estimate D2E/DX2                !
 ! D105  D(9,22,33,23)           2.198          estimate D2E/DX2                !
 ! D106  D(9,22,33,36)        -179.63           estimate D2E/DX2                !
 ! D107  D(32,22,33,23)       -175.9884         estimate D2E/DX2                !
 ! D108  D(32,22,33,36)          2.1837         estimate D2E/DX2                !
 ! D109  D(10,23,33,22)          0.1691         estimate D2E/DX2                !
 ! D110  D(10,23,33,36)       -178.0126         estimate D2E/DX2                !
 ! D111  D(37,23,33,22)        178.5342         estimate D2E/DX2                !
 ! D112  D(37,23,33,36)          0.3526         estimate D2E/DX2                !
 --------------------------------------------------------------------------------
 Trust Radius=3.00D-01 FncErr=1.00D-07 GrdErr=1.00D-06 EigMax=2.50D+02 EigMin=1.00D-04
 Number of steps in this run=    222 maximum allowed number of steps=    222.
 GradGradGradGradGradGradGradGradGradGradGradGradGradGradGradGradGradGrad

                          Input orientation:                          
 ---------------------------------------------------------------------
 Center     Atomic      Atomic             Coordinates (Angstroms)
 Number     Number       Type             X           Y           Z
 ---------------------------------------------------------------------
      1          6           0       -7.214180    0.167490    0.566210
      2          6           0       -5.925600    0.764350    0.464680
      3          6           0       -4.837260   -0.019530    0.144950
      4          6           0       -7.433120   -1.225050    0.397580
      5          6           0       -6.357720   -2.050010    0.130610
      6          6           0       -5.141610   -1.393480    0.007770
      7          6           0       -3.347430    0.156010    0.015560
      8          6           0       -2.808730   -1.153590   -0.119920
      9          6           0       -3.900520   -2.088480   -0.171620
     10          6           0       -1.493350   -1.566180   -0.150630
     11          6           0       -0.579670   -0.541490   -0.039740
     12          6           0       -1.007870    0.816720    0.052440
     13          6           0       -2.406450    1.212940    0.032640
     14          6           0       -0.003460    1.787350    0.160100
     15          6           0       -0.304260    3.141760    0.222890
     16          6           0       -2.670470    2.619520    0.015760
     17          6           0       -1.625120    3.553990    0.136730
     18          1           0       -5.837330    1.819720    0.678460
     19          1           0       -8.064350    0.803660    0.810570
     20          1           0       -8.433300   -1.631140    0.513710
     21          6           0       -6.314800   -3.530150    0.014210
     22          6           0       -3.763090   -3.522530   -0.211660
     23          6           0       -1.254490   -3.028550   -0.249330
     24          1           0        0.481350   -0.781540   -0.029590
     25          1           0        1.045370    1.495650    0.193370
     26          1           0       -1.838370    4.621730    0.126850
     27          1           0        0.493320    3.875480    0.303250
     28          6           0       -3.981070    3.217710   -0.232930
     29          6           0       -4.568580    3.210100   -1.527120
     30          1           0       -4.998720    3.180750   -2.501740
     31          1           0       -4.383550    3.875070    0.530890
     32          6           0       -5.032000   -4.256800   -0.144470
     33          6           0       -2.376710   -3.995280   -0.277620
     34          1           0       -7.234800   -4.093650    0.104860
     35          1           0       -5.033490   -5.338940   -0.173270
     36          1           0       -2.166560   -5.056400   -0.317570
     37          1           0       -0.237130   -3.398190   -0.274890
 ---------------------------------------------------------------------
                    Distance matrix (angstroms):
                    1          2          3          4          5
     1  C    0.000000
     2  C    1.423724   0.000000
     3  C    2.421195   1.378833   0.000000
     4  C    1.419697   2.496964   2.873254   0.000000
     5  C    2.416729   2.866872   2.536701   1.381419   0.000000
     6  C    2.654059   2.340863   1.413926   2.330523   1.387460
     7  C    3.905778   2.686773   1.505706   4.329680   3.733846
     8  C    4.650163   3.706094   2.339056   4.653804   3.669014
     9  C    4.076044   3.555906   2.293088   3.680864   2.476016
    10  C    6.020579   5.045277   3.696110   5.974761   4.896456
    11  C    6.699743   5.526176   4.293440   6.901325   5.974154
    12  C    6.261289   4.935256   3.920727   6.750688   6.070020
    13  C    4.948932   3.573837   2.727716   5.598606   5.125327
    14  C    7.401578   6.017561   5.160491   8.020648   7.423127
    15  C    7.530680   6.108192   5.527017   8.361829   7.975423
    16  C    5.192374   3.773467   3.417053   6.132645   5.950925
    17  C    6.549078   5.136513   4.804993   7.525964   7.335009
    18  H    2.153643   1.080416   2.160466   3.449067   3.942811
    19  H    1.089593   2.166896   3.396292   2.164411   3.393872
    20  H    2.173495   3.468333   3.957875   1.085705   2.151802
    21  C    3.845274   4.335566   3.811125   2.590579   1.485330
    22  C    5.111883   4.848838   3.681307   4.372494   3.002927
    23  C    6.811584   6.059304   4.695306   6.468893   5.210072
    24  H    7.776684   6.609318   5.375754   7.938388   6.957554
    25  H    8.373959   7.014473   6.074821   8.906666   8.208617
    26  H    6.995186   5.630183   5.525845   8.096873   8.058328
    27  H    8.557096   7.134965   6.603881   9.426174   9.059690
    28  C    4.516134   3.207309   3.369804   5.661476   5.790466
    29  C    4.542984   3.433724   3.646713   5.619663   5.798090
    30  H    4.837387   3.936717   4.156059   5.808910   6.011406
    31  H    4.664747   3.472590   3.939887   5.943810   6.258126
    32  C    4.984107   5.136296   4.251605   3.905215   2.589039
    33  C    6.437532   5.983286   4.694620   5.804942   4.449626
    34  H    4.286092   5.044169   4.727395   2.890308   2.224050
    35  H    5.968502   6.201047   5.332532   4.796685   3.558509
    36  H    7.317688   6.973050   5.719845   6.551896   5.177361
    37  H    7.880403   7.087481   5.723007   7.546988   6.280417
                    6          7          8          9         10
     6  C    0.000000
     7  C    2.370667   0.000000
     8  C    2.348655   1.422535   0.000000
     9  C    1.433705   2.319198   1.438297   0.000000
    10  C    3.655779   2.535975   1.378912   2.463271   0.000000
    11  C    4.641060   2.854831   2.312964   3.665872   1.377352
    12  C    4.687727   2.431345   2.674869   4.105827   2.440316
    13  C    3.778246   1.415216   2.405321   3.629510   2.931015
    14  C    6.044954   3.723479   4.073951   5.506285   3.682728
    15  C    6.634353   4.268322   4.983966   6.359570   4.870128
    16  C    4.712830   2.554830   3.778079   4.869640   4.351251
    17  C    6.071227   3.811470   4.860876   6.091797   5.129920
    18  H    3.355370   3.067078   4.318611   4.443861   5.569728
    19  H    3.743571   4.827093   5.684908   5.163976   7.051105
    20  H    3.338814   5.413699   5.680258   4.607052   6.971978
    21  C    2.437576   4.732131   4.237754   2.818101   5.208717
    22  C    2.545844   3.708916   2.555601   1.441176   2.997124
    23  C    4.224838   3.819946   2.438828   2.809136   1.485033
    24  H    5.656284   3.942156   3.312281   4.574828   2.128321
    25  H    6.830830   4.595970   4.687292   6.118908   3.992272
    26  H    6.863551   4.715114   5.861469   7.026270   6.203730
    27  H    7.720213   5.354305   6.031099   7.422948   5.810725
    28  C    4.761078   3.136440   4.527186   5.307156   5.392692
    29  C    4.886430   3.632979   4.911117   5.509867   5.845050
    30  H    5.219352   4.267623   5.408847   5.865176   6.352061
    31  H    5.348451   3.894935   5.309523   6.024182   6.198784
    32  C    2.869459   4.726127   3.817518   2.445935   4.445393
    33  C    3.807293   4.273343   2.878665   2.443178   2.587852
    34  H    3.417863   5.760142   5.318324   3.900586   6.278346
    35  H    3.951091   5.750907   4.740207   3.442254   5.173666
    36  H    4.730090   5.354871   3.960224   3.440417   3.558471
    37  H    5.305910   4.731878   3.416924   3.891842   2.224812
                   11         12         13         14         15
    11  C    0.000000
    12  C    1.427090   0.000000
    13  C    2.533849   1.453757   0.000000
    14  C    2.407374   1.400911   2.473975   0.000000
    15  C    3.702858   2.435145   2.859326   1.388830   0.000000
    16  C    3.790318   2.452687   1.431244   2.797550   2.431992
    17  C    4.230492   2.807267   2.470188   2.398196   1.386372
    18  H    5.808107   4.972081   3.543473   5.856943   5.707031
    19  H    7.651986   7.097101   5.725777   8.146699   8.125951
    20  H    7.948154   7.832101   6.681552   9.103478   9.431142
    21  C    6.467358   6.860047   6.145929   8.254096   8.982456
    22  C    4.364667   5.146851   4.932021   6.516736   7.520977
    23  C    2.585494   3.864969   4.404175   4.992555   6.260883
    24  H    1.087883   2.186079   3.510158   2.621110   4.009141
    25  H    2.616302   2.167164   3.467105   1.089147   2.128861
    26  H    5.317040   3.895301   3.457085   3.376642   2.133783
    27  H    4.558352   3.416503   3.946013   2.151179   1.086709
    28  C    5.073306   3.832246   2.563017   4.245207   3.705735
    29  C    5.674340   4.571863   3.331112   5.070626   4.609949
    30  H    6.280487   5.295220   4.124951   5.829200   5.427991
    31  H    5.856716   4.580135   3.353224   4.866338   4.156106
    32  C    5.799805   6.478657   6.069838   7.868337   8.787785
    33  C    3.900590   5.013782   5.217538   6.265997   7.448684
    34  H    7.545164   7.930267   7.174822   9.321024  10.019854
    35  H    6.547509   7.358581   7.061931   8.729052   9.718273
    36  H    4.793727   5.997750   6.283695   7.193336   8.424374
    37  H    2.886757   4.297284   5.105198   5.208996   6.559210
                   16         17         18         19         20
    16  C    0.000000
    17  C    1.407347   0.000000
    18  H    3.332845   4.587361   0.000000
    19  H    5.746565   7.034348   2.451418   0.000000
    20  H    7.178180   8.566154   4.321416   2.480424   0.000000
    21  C    7.148397   8.496655   5.412053   4.740994   2.888560
    22  C    6.242621   7.400637   5.799519   6.185605   5.090617
    23  C    5.828891   6.604259   6.735647   7.885646   7.353251
    24  H    4.637158   4.823038   6.869760   8.731994   8.971509
    25  H    3.886142   3.372164   6.907380   9.156789   9.986221
    26  H    2.171077   1.088872   4.913982   7.335391   9.096216
    27  H    3.416087   2.149156   6.666638   9.106436  10.490553
    28  C    1.461968   2.408367   2.496139   4.856923   6.625041
    29  C    2.516363   3.398619   2.899563   4.845220   6.522166
    30  H    3.474699   4.299071   3.559402   5.100984   6.636533
    31  H    2.185499   2.804887   2.521848   4.802090   6.835139
    32  C    7.272295   8.526098   6.184648   5.976245   4.346968
    33  C    6.627816   7.597898   6.834047   7.520853   6.549629
    34  H    8.118356   9.484510   6.103268   5.016954   2.769028
    35  H    8.304016   9.528761   7.253828   6.919941   5.077246
    36  H    7.699661   8.639350   7.857968   8.390288   7.189956
    37  H    6.497573   7.101321   7.713475   8.949812   8.421494
                   21         22         23         24         25
    21  C    0.000000
    22  C    2.561699   0.000000
    23  C    5.091934   2.557051   0.000000
    24  H    7.331059   5.055833   2.847890   0.000000
    25  H    8.914195   6.961858   5.094480   2.356570   0.000000
    26  H    9.300767   8.375447   7.681745   5.882253   4.253558
    27  H   10.063667   8.550597   7.143236   4.668914   2.445490
    28  C    7.144298   6.743797   6.815444   5.995710   5.330321
    29  C    7.131336   6.907066   7.178906   6.608901   6.116850
    30  H    7.286855   7.190634   7.592629   7.200169   6.828924
    31  H    7.670330   7.460619   7.619693   6.757618   5.937064
    32  C    1.482827   1.467583   3.973560   6.518256   8.374917
    33  C    3.976187   1.466251   1.481467   4.307917   6.487124
    34  H    1.082659   3.532582   6.084735   8.398043   9.990462
    35  H    2.224551   2.216920   4.429958   7.155697   9.154157
    36  H    4.432540   2.216502   2.224568   5.036744   7.314842
    37  H    6.085973   3.528718   1.082732   2.724563   5.080723
                   26         27         28         29         30
    26  H    0.000000
    27  H    2.454544   0.000000
    28  C    2.586866   4.554154   0.000000
    29  C    3.490324   5.423635   1.421321   0.000000
    30  H    4.355883   6.205894   2.486861   1.065723   0.000000
    31  H    2.683038   4.882180   1.085142   2.170674   3.171334
    32  C    9.439342   9.841930   7.548548   7.607961   7.802242
    33  C    8.643279   8.397818   7.389397   7.634333   7.957201
    34  H   10.250843  11.102713   8.009797   7.944611   8.044334
    35  H   10.464885  10.755382   8.621334   8.668053   8.832219
    36  H    9.693886   9.340174   8.471157   8.692970   8.980110
    37  H    8.188069   7.333081   7.601906   7.999940   8.421048
                   31         32         33         34         35
    31  H    0.000000
    32  C    8.185592   0.000000
    33  C    8.162322   2.671458   0.000000
    34  H    8.474174   2.222861   4.874116   0.000000
    35  H    9.263706   1.082524   2.979059   2.544380   0.000000
    36  H    9.241541   2.979945   1.082467   5.176137   2.884430
    37  H    8.410850   4.872884   2.221334   7.042390   5.175124
                   36         37
    36  H    0.000000
    37  H    2.544441   0.000000
 Stoichiometry    C24H13(2)
 Framework group  C1[X(C24H13)]
 Deg. of freedom   105
 Full point group                 C1      NOp   1
 Largest Abelian subgroup         C1      NOp   1
 Largest concise Abelian subgroup C1      NOp   1
                         Standard orientation:                         
 ---------------------------------------------------------------------
 Center     Atomic      Atomic             Coordinates (Angstroms)
 Number     Number       Type             X           Y           Z
 ---------------------------------------------------------------------
      1          6           0        1.770900    3.295673   -0.488099
      2          6           0        0.536235    2.589860   -0.421615
      3          6           0        0.539503    1.241018   -0.135621
      4          6           0        3.029983    2.662274   -0.317641
      5          6           0        3.074961    1.301476   -0.084144
      6          6           0        1.833392    0.688742    0.005903
      7          6           0       -0.468954    0.126320   -0.048368
      8          6           0        0.283832   -1.075130    0.067532
      9          6           0        1.677672   -0.729427    0.147523
     10          6           0       -0.142951   -2.386308    0.059293
     11          6           0       -1.505875   -2.533411   -0.074484
     12          6           0       -2.362928   -1.394847   -0.150112
     13          6           0       -1.875287   -0.026678   -0.089055
     14          6           0       -3.734447   -1.647263   -0.283427
     15          6           0       -4.662668   -0.615388   -0.333335
     16          6           0       -2.868451    1.003493   -0.060215
     17          6           0       -4.234055    0.697106   -0.208119
     18          1           0       -0.371767    3.135298   -0.634523
     19          1           0        1.748854    4.363021   -0.706034
     20          1           0        3.942248    3.244214   -0.406375
     21          6           0        4.254352    0.405353    0.026338
     22          6           0        2.765798   -1.673870    0.179116
     23          6           0        0.908628   -3.431244    0.146531
     24          1           0       -1.925210   -3.536380   -0.115746
     25          1           0       -4.104311   -2.669673   -0.347612
     26          1           0       -4.980490    1.489635   -0.188792
     27          1           0       -5.721659   -0.837430   -0.434185
     28          6           0       -2.599574    2.411374    0.227753
     29          6           0       -2.270975    2.852869    1.538196
     30          1           0       -2.011403    3.161637    2.524629
     31          1           0       -2.891107    3.139492   -0.522171
     32          6           0        4.100530   -1.064615    0.145963
     33          6           0        2.346377   -3.078635    0.203892
     34          1           0        5.248027    0.830085   -0.039714
     35          1           0        4.982634   -1.691595    0.171400
     36          1           0        3.088515   -3.866054    0.234483
     37          1           0        0.619681   -4.474698    0.141807
 ---------------------------------------------------------------------
 Rotational constants (GHZ):           0.4121172           0.2322402           0.1529270
 Standard basis: 6-311+G(d,p) (5D, 7F)
 There are   630 symmetry adapted cartesian basis functions of A   symmetry.
 There are   606 symmetry adapted basis functions of A   symmetry.
   606 basis functions,   968 primitive gaussians,   630 cartesian basis functions
    79 alpha electrons       78 beta electrons
       nuclear repulsion energy      1795.4848628026 Hartrees.
 NAtoms=   37 NActive=   37 NUniq=   37 SFac= 1.00D+00 NAtFMM=   60 NAOKFM=F Big=F
 Integral buffers will be    131072 words long.
 Raffenetti 2 integral format.
 Two-electron integral symmetry is turned on.
 One-electron integrals computed using PRISM.
 NBasis=   606 RedAO= T EigKep=  1.07D-06  NBF=   606
 NBsUse=   592 1.00D-06 EigRej=  6.07D-07 NBFU=   592
 ExpMin= 4.38D-02 ExpMax= 4.56D+03 ExpMxC= 6.82D+02 IAcc=2 IRadAn=         4 AccDes= 0.00D+00
 Harris functional with IExCor=  402 and IRadAn=       4 diagonalized for initial guess.
 HarFok:  IExCor=  402 AccDes= 0.00D+00 IRadAn=         4 IDoV= 1 UseB2=F ITyADJ=14
 ICtDFT=  3500011 ScaDFX=  1.000000  1.000000  1.000000  1.000000
 FoFCou: FMM=F IPFlag=           0 FMFlag=      100000 FMFlg1=           0
         NFxFlg=           0 DoJE=T BraDBF=F KetDBF=T FulRan=T
         wScrn=  0.000000 ICntrl=       500 IOpCl=  0 I1Cent=   200000004 NGrid=           0
         NMat0=    1 NMatS0=      1 NMatT0=    0 NMatD0=    1 NMtDS0=    0 NMtDT0=    0
 Petite list used in FoFCou.
 Initial guess <Sx>= 0.0000 <Sy>= 0.0000 <Sz>= 0.5000 <S**2>= 0.7500 S= 0.5000
 Requested convergence on RMS density matrix=1.00D-08 within 128 cycles.
 Requested convergence on MAX density matrix=1.00D-06.
 Requested convergence on             energy=1.00D-06.
 No special actions if energy rises.
 Restarting incremental Fock formation.
 SCF Done:  E(UB3LYP) =  -922.454768245     A.U. after   26 cycles
            NFock= 26  Conv=0.91D-08     -V/T= 2.0056
 <Sx>= 0.0000 <Sy>= 0.0000 <Sz>= 0.5000 <S**2>= 0.7751 S= 0.5125
 <L.S>=  0.00000000000    
 Annihilation of the first spin contaminant:
 S**2 before annihilation     0.7751,   after     0.7502

 **********************************************************************

            Population analysis using the SCF density.

 **********************************************************************

 Orbital symmetries:
 Alpha Orbitals:
       Occupied  (A) (A) (A) (A) (A) (A) (A) (A) (A) (A) (A) (A)
                 (A) (A) (A) (A) (A) (A) (A) (A) (A) (A) (A) (A)
                 (A) (A) (A) (A) (A) (A) (A) (A) (A) (A) (A) (A)
                 (A) (A) (A) (A) (A) (A) (A) (A) (A) (A) (A) (A)
                 (A) (A) (A) (A) (A) (A) (A) (A) (A) (A) (A) (A)
                 (A) (A) (A) (A) (A) (A) (A) (A) (A) (A) (A) (A)
                 (A) (A) (A) (A) (A) (A) (A)
       Virtual   (A) (A) (A) (A) (A) (A) (A) (A) (A) (A) (A) (A)
                 (A) (A) (A) (A) (A) (A) (A) (A) (A) (A) (A) (A)
                 (A) (A) (A) (A) (A) (A) (A) (A) (A) (A) (A) (A)
                 (A) (A) (A) (A) (A) (A) (A) (A) (A) (A) (A) (A)
                 (A) (A) (A) (A) (A) (A) (A) (A) (A) (A) (A) (A)
                 (A) (A) (A) (A) (A) (A) (A) (A) (A) (A) (A) (A)
                 (A) (A) (A) (A) (A) (A) (A) (A) (A) (A) (A) (A)
                 (A) (A) (A) (A) (A) (A) (A) (A) (A) (A) (A) (A)
                 (A) (A) (A) (A) (A) (A) (A) (A) (A) (A) (A) (A)
                 (A) (A) (A) (A) (A) (A) (A) (A) (A) (A) (A) (A)
                 (A) (A) (A) (A) (A) (A) (A) (A) (A) (A) (A) (A)
                 (A) (A) (A) (A) (A) (A) (A) (A) (A) (A) (A) (A)
                 (A) (A) (A) (A) (A) (A) (A) (A) (A) (A) (A) (A)
                 (A) (A) (A) (A) (A) (A) (A) (A) (A) (A) (A) (A)
                 (A) (A) (A) (A) (A) (A) (A) (A) (A) (A) (A) (A)
                 (A) (A) (A) (A) (A) (A) (A) (A) (A) (A) (A) (A)
                 (A) (A) (A) (A) (A) (A) (A) (A) (A) (A) (A) (A)
                 (A) (A) (A) (A) (A) (A) (A) (A) (A) (A) (A) (A)
                 (A) (A) (A) (A) (A) (A) (A) (A) (A) (A) (A) (A)
                 (A) (A) (A) (A) (A) (A) (A) (A) (A) (A) (A) (A)
                 (A) (A) (A) (A) (A) (A) (A) (A) (A) (A) (A) (A)
                 (A) (A) (A) (A) (A) (A) (A) (A) (A) (A) (A) (A)
                 (A) (A) (A) (A) (A) (A) (A) (A) (A) (A) (A) (A)
                 (A) (A) (A) (A) (A) (A) (A) (A) (A) (A) (A) (A)
                 (A) (A) (A) (A) (A) (A) (A) (A) (A) (A) (A) (A)
                 (A) (A) (A) (A) (A) (A) (A) (A) (A) (A) (A) (A)
                 (A) (A) (A) (A) (A) (A) (A) (A) (A) (A) (A) (A)
                 (A) (A) (A) (A) (A) (A) (A) (A) (A) (A) (A) (A)
                 (A) (A) (A) (A) (A) (A) (A) (A) (A) (A) (A) (A)
                 (A) (A) (A) (A) (A) (A) (A) (A) (A) (A) (A) (A)
                 (A) (A) (A) (A) (A) (A) (A) (A) (A) (A) (A) (A)
                 (A) (A) (A) (A) (A) (A) (A) (A) (A) (A) (A) (A)
                 (A) (A) (A) (A) (A) (A) (A) (A) (A) (A) (A) (A)
                 (A) (A) (A) (A) (A) (A) (A) (A) (A) (A) (A) (A)
                 (A) (A) (A) (A) (A) (A) (A) (A) (A) (A) (A) (A)
                 (A) (A) (A) (A) (A) (A) (A) (A) (A) (A) (A) (A)
                 (A) (A) (A) (A) (A) (A) (A) (A) (A) (A) (A) (A)
                 (A) (A) (A) (A) (A) (A) (A) (A) (A) (A) (A) (A)
                 (A) (A) (A) (A) (A) (A) (A) (A) (A) (A) (A) (A)
                 (A) (A) (A) (A) (A) (A) (A) (A) (A) (A) (A) (A)
                 (A) (A) (A) (A) (A) (A) (A) (A) (A) (A) (A) (A)
                 (A) (A) (A) (A) (A) (A) (A) (A) (A) (A) (A) (A)
                 (A) (A) (A) (A) (A) (A) (A) (A) (A)
 Beta  Orbitals:
       Occupied  (A) (A) (A) (A) (A) (A) (A) (A) (A) (A) (A) (A)
                 (A) (A) (A) (A) (A) (A) (A) (A) (A) (A) (A) (A)
                 (A) (A) (A) (A) (A) (A) (A) (A) (A) (A) (A) (A)
                 (A) (A) (A) (A) (A) (A) (A) (A) (A) (A) (A) (A)
                 (A) (A) (A) (A) (A) (A) (A) (A) (A) (A) (A) (A)
                 (A) (A) (A) (A) (A) (A) (A) (A) (A) (A) (A) (A)
                 (A) (A) (A) (A) (A) (A)
       Virtual   (A) (A) (A) (A) (A) (A) (A) (A) (A) (A) (A) (A)
                 (A) (A) (A) (A) (A) (A) (A) (A) (A) (A) (A) (A)
                 (A) (A) (A) (A) (A) (A) (A) (A) (A) (A) (A) (A)
                 (A) (A) (A) (A) (A) (A) (A) (A) (A) (A) (A) (A)
                 (A) (A) (A) (A) (A) (A) (A) (A) (A) (A) (A) (A)
                 (A) (A) (A) (A) (A) (A) (A) (A) (A) (A) (A) (A)
                 (A) (A) (A) (A) (A) (A) (A) (A) (A) (A) (A) (A)
                 (A) (A) (A) (A) (A) (A) (A) (A) (A) (A) (A) (A)
                 (A) (A) (A) (A) (A) (A) (A) (A) (A) (A) (A) (A)
                 (A) (A) (A) (A) (A) (A) (A) (A) (A) (A) (A) (A)
                 (A) (A) (A) (A) (A) (A) (A) (A) (A) (A) (A) (A)
                 (A) (A) (A) (A) (A) (A) (A) (A) (A) (A) (A) (A)
                 (A) (A) (A) (A) (A) (A) (A) (A) (A) (A) (A) (A)
                 (A) (A) (A) (A) (A) (A) (A) (A) (A) (A) (A) (A)
                 (A) (A) (A) (A) (A) (A) (A) (A) (A) (A) (A) (A)
                 (A) (A) (A) (A) (A) (A) (A) (A) (A) (A) (A) (A)
                 (A) (A) (A) (A) (A) (A) (A) (A) (A) (A) (A) (A)
                 (A) (A) (A) (A) (A) (A) (A) (A) (A) (A) (A) (A)
                 (A) (A) (A) (A) (A) (A) (A) (A) (A) (A) (A) (A)
                 (A) (A) (A) (A) (A) (A) (A) (A) (A) (A) (A) (A)
                 (A) (A) (A) (A) (A) (A) (A) (A) (A) (A) (A) (A)
                 (A) (A) (A) (A) (A) (A) (A) (A) (A) (A) (A) (A)
                 (A) (A) (A) (A) (A) (A) (A) (A) (A) (A) (A) (A)
                 (A) (A) (A) (A) (A) (A) (A) (A) (A) (A) (A) (A)
                 (A) (A) (A) (A) (A) (A) (A) (A) (A) (A) (A) (A)
                 (A) (A) (A) (A) (A) (A) (A) (A) (A) (A) (A) (A)
                 (A) (A) (A) (A) (A) (A) (A) (A) (A) (A) (A) (A)
                 (A) (A) (A) (A) (A) (A) (A) (A) (A) (A) (A) (A)
                 (A) (A) (A) (A) (A) (A) (A) (A) (A) (A) (A) (A)
                 (A) (A) (A) (A) (A) (A) (A) (A) (A) (A) (A) (A)
                 (A) (A) (A) (A) (A) (A) (A) (A) (A) (A) (A) (A)
                 (A) (A) (A) (A) (A) (A) (A) (A) (A) (A) (A) (A)
                 (A) (A) (A) (A) (A) (A) (A) (A) (A) (A) (A) (A)
                 (A) (A) (A) (A) (A) (A) (A) (A) (A) (A) (A) (A)
                 (A) (A) (A) (A) (A) (A) (A) (A) (A) (A) (A) (A)
                 (A) (A) (A) (A) (A) (A) (A) (A) (A) (A) (A) (A)
                 (A) (A) (A) (A) (A) (A) (A) (A) (A) (A) (A) (A)
                 (A) (A) (A) (A) (A) (A) (A) (A) (A) (A) (A) (A)
                 (A) (A) (A) (A) (A) (A) (A) (A) (A) (A) (A) (A)
                 (A) (A) (A) (A) (A) (A) (A) (A) (A) (A) (A) (A)
                 (A) (A) (A) (A) (A) (A) (A) (A) (A) (A) (A) (A)
                 (A) (A) (A) (A) (A) (A) (A) (A) (A) (A) (A) (A)
                 (A) (A) (A) (A) (A) (A) (A) (A) (A) (A)
 The electronic state is 2-A.
 Alpha  occ. eigenvalues --  -10.21174 -10.20999 -10.20754 -10.20606 -10.20566
 Alpha  occ. eigenvalues --  -10.20498 -10.20480 -10.20373 -10.19917 -10.19734
 Alpha  occ. eigenvalues --  -10.19598 -10.19337 -10.19203 -10.19058 -10.19052
 Alpha  occ. eigenvalues --  -10.18622 -10.18566 -10.18490 -10.18475 -10.18369
 Alpha  occ. eigenvalues --  -10.18032 -10.18021 -10.17564 -10.17068  -0.91012
 Alpha  occ. eigenvalues --   -0.88074  -0.85493  -0.82618  -0.81670  -0.79403
 Alpha  occ. eigenvalues --   -0.78384  -0.76237  -0.74269  -0.72584  -0.71601
 Alpha  occ. eigenvalues --   -0.70184  -0.66244  -0.64128  -0.62837  -0.62453
 Alpha  occ. eigenvalues --   -0.60600  -0.59404  -0.57408  -0.55921  -0.53120
 Alpha  occ. eigenvalues --   -0.52472  -0.50750  -0.49739  -0.48600  -0.48047
 Alpha  occ. eigenvalues --   -0.47213  -0.46033  -0.44735  -0.44148  -0.43838
 Alpha  occ. eigenvalues --   -0.43050  -0.42474  -0.42389  -0.41488  -0.40620
 Alpha  occ. eigenvalues --   -0.39525  -0.39120  -0.38702  -0.37650  -0.36284
 Alpha  occ. eigenvalues --   -0.35419  -0.35365  -0.33854  -0.33739  -0.33171
 Alpha  occ. eigenvalues --   -0.31709  -0.29141  -0.28375  -0.27237  -0.25573
 Alpha  occ. eigenvalues --   -0.22831  -0.22468  -0.22104  -0.20282
 Alpha virt. eigenvalues --   -0.09912  -0.05642  -0.04520  -0.02322  -0.02147
 Alpha virt. eigenvalues --    0.00058   0.00533   0.00743   0.00808   0.01047
 Alpha virt. eigenvalues --    0.01878   0.02005   0.02175   0.03081   0.03468
 Alpha virt. eigenvalues --    0.03577   0.03841   0.04621   0.05363   0.05492
 Alpha virt. eigenvalues --    0.05883   0.06218   0.06406   0.06973   0.07847
 Alpha virt. eigenvalues --    0.08040   0.08101   0.08460   0.08901   0.08954
 Alpha virt. eigenvalues --    0.09571   0.10090   0.10516   0.10869   0.11047
 Alpha virt. eigenvalues --    0.11219   0.11910   0.11985   0.12856   0.13252
 Alpha virt. eigenvalues --    0.13643   0.14031   0.14269   0.14377   0.14729
 Alpha virt. eigenvalues --    0.15229   0.15307   0.15671   0.15922   0.16229
 Alpha virt. eigenvalues --    0.16562   0.17022   0.17234   0.17376   0.17585
 Alpha virt. eigenvalues --    0.17877   0.17886   0.18181   0.18493   0.18631
 Alpha virt. eigenvalues --    0.18970   0.19190   0.19461   0.19575   0.19960
 Alpha virt. eigenvalues --    0.20173   0.20212   0.20568   0.20959   0.21075
 Alpha virt. eigenvalues --    0.21434   0.21644   0.21798   0.22268   0.22507
 Alpha virt. eigenvalues --    0.22925   0.23016   0.23505   0.23623   0.23717
 Alpha virt. eigenvalues --    0.23898   0.24132   0.24943   0.25094   0.25119
 Alpha virt. eigenvalues --    0.25761   0.25954   0.26174   0.26692   0.26801
 Alpha virt. eigenvalues --    0.27241   0.27510   0.27527   0.27913   0.28399
 Alpha virt. eigenvalues --    0.28879   0.29200   0.29633   0.29973   0.30152
 Alpha virt. eigenvalues --    0.30779   0.31077   0.31288   0.32127   0.32406
 Alpha virt. eigenvalues --    0.32578   0.32786   0.33214   0.33523   0.33882
 Alpha virt. eigenvalues --    0.34171   0.35411   0.36010   0.36143   0.36983
 Alpha virt. eigenvalues --    0.37319   0.38592   0.39280   0.39470   0.40485
 Alpha virt. eigenvalues --    0.41049   0.41129   0.42099   0.42523   0.43024
 Alpha virt. eigenvalues --    0.43446   0.44691   0.45157   0.47236   0.47688
 Alpha virt. eigenvalues --    0.49056   0.50211   0.51314   0.51630   0.52173
 Alpha virt. eigenvalues --    0.52438   0.52757   0.53485   0.53878   0.54338
 Alpha virt. eigenvalues --    0.54636   0.55062   0.55456   0.56092   0.56283
 Alpha virt. eigenvalues --    0.56614   0.57242   0.57669   0.58092   0.58797
 Alpha virt. eigenvalues --    0.59104   0.59415   0.60149   0.60755   0.61197
 Alpha virt. eigenvalues --    0.61441   0.61947   0.62284   0.62930   0.63129
 Alpha virt. eigenvalues --    0.64005   0.64140   0.64833   0.65021   0.65142
 Alpha virt. eigenvalues --    0.66276   0.66905   0.67275   0.67391   0.67920
 Alpha virt. eigenvalues --    0.68177   0.68447   0.68832   0.69346   0.69863
 Alpha virt. eigenvalues --    0.70501   0.70760   0.71145   0.71396   0.72117
 Alpha virt. eigenvalues --    0.72489   0.72746   0.73201   0.73915   0.74398
 Alpha virt. eigenvalues --    0.75001   0.75495   0.75589   0.76240   0.76384
 Alpha virt. eigenvalues --    0.77100   0.77708   0.78478   0.79455   0.80013
 Alpha virt. eigenvalues --    0.81438   0.82321   0.82945   0.83823   0.84318
 Alpha virt. eigenvalues --    0.84907   0.86088   0.87459   0.87618   0.88771
 Alpha virt. eigenvalues --    0.89392   0.89798   0.91101   0.91594   0.92264
 Alpha virt. eigenvalues --    0.92946   0.93619   0.94007   0.94071   0.94293
 Alpha virt. eigenvalues --    0.94724   0.95396   0.95841   0.96070   0.96445
 Alpha virt. eigenvalues --    0.96793   0.97558   0.98227   0.99060   0.99196
 Alpha virt. eigenvalues --    1.00676   1.01029   1.01413   1.02592   1.03426
 Alpha virt. eigenvalues --    1.03607   1.03792   1.04634   1.05071   1.05829
 Alpha virt. eigenvalues --    1.06748   1.07071   1.07568   1.08267   1.09033
 Alpha virt. eigenvalues --    1.09435   1.10209   1.10900   1.12234   1.13750
 Alpha virt. eigenvalues --    1.14133   1.16056   1.16362   1.16618   1.18644
 Alpha virt. eigenvalues --    1.20824   1.21135   1.22393   1.24995   1.26755
 Alpha virt. eigenvalues --    1.27635   1.29501   1.31777   1.34216   1.35333
 Alpha virt. eigenvalues --    1.36277   1.36587   1.37928   1.38859   1.39218
 Alpha virt. eigenvalues --    1.42246   1.43208   1.44404   1.45179   1.45550
 Alpha virt. eigenvalues --    1.46938   1.47611   1.48022   1.48905   1.49065
 Alpha virt. eigenvalues --    1.49765   1.50073   1.50500   1.51220   1.52198
 Alpha virt. eigenvalues --    1.53969   1.54654   1.54747   1.54868   1.55925
 Alpha virt. eigenvalues --    1.56753   1.57301   1.57910   1.59880   1.61387
 Alpha virt. eigenvalues --    1.61815   1.62628   1.63966   1.64638   1.65533
 Alpha virt. eigenvalues --    1.66877   1.67530   1.68731   1.69844   1.70534
 Alpha virt. eigenvalues --    1.71659   1.71778   1.73241   1.74163   1.74836
 Alpha virt. eigenvalues --    1.75250   1.75641   1.75809   1.76935   1.77215
 Alpha virt. eigenvalues --    1.79078   1.79535   1.80980   1.81443   1.82876
 Alpha virt. eigenvalues --    1.83917   1.84829   1.84909   1.85191   1.86497
 Alpha virt. eigenvalues --    1.87227   1.87915   1.88541   1.89213   1.89555
 Alpha virt. eigenvalues --    1.90481   1.91609   1.92118   1.92503   1.93450
 Alpha virt. eigenvalues --    1.94843   1.96068   1.96332   1.96910   1.97651
 Alpha virt. eigenvalues --    1.97762   1.98965   1.99537   1.99773   2.00550
 Alpha virt. eigenvalues --    2.01504   2.03295   2.03759   2.04939   2.05650
 Alpha virt. eigenvalues --    2.07440   2.08959   2.09414   2.09853   2.11104
 Alpha virt. eigenvalues --    2.13250   2.14145   2.15812   2.17001   2.18914
 Alpha virt. eigenvalues --    2.19033   2.19536   2.20222   2.21315   2.22714
 Alpha virt. eigenvalues --    2.23942   2.24352   2.26798   2.28659   2.29563
 Alpha virt. eigenvalues --    2.33351   2.34093   2.36102   2.36931   2.38156
 Alpha virt. eigenvalues --    2.40173   2.40652   2.42219   2.42965   2.43469
 Alpha virt. eigenvalues --    2.44162   2.45533   2.47991   2.50932   2.51973
 Alpha virt. eigenvalues --    2.55554   2.56727   2.57688   2.60070   2.62318
 Alpha virt. eigenvalues --    2.62580   2.64419   2.65283   2.66335   2.67111
 Alpha virt. eigenvalues --    2.68209   2.69129   2.70535   2.70974   2.71356
 Alpha virt. eigenvalues --    2.71752   2.72036   2.72747   2.73223   2.73422
 Alpha virt. eigenvalues --    2.74332   2.74566   2.75587   2.76070   2.76332
 Alpha virt. eigenvalues --    2.76934   2.77181   2.78453   2.78888   2.79825
 Alpha virt. eigenvalues --    2.80642   2.81654   2.82117   2.82943   2.83827
 Alpha virt. eigenvalues --    2.85167   2.85593   2.86136   2.87091   2.87802
 Alpha virt. eigenvalues --    2.88545   2.89470   2.90807   2.91626   2.92625
 Alpha virt. eigenvalues --    2.92979   2.95271   2.98116   2.99653   3.00429
 Alpha virt. eigenvalues --    3.03035   3.03998   3.07399   3.10561   3.10934
 Alpha virt. eigenvalues --    3.11469   3.11748   3.13348   3.13493   3.14097
 Alpha virt. eigenvalues --    3.20271   3.21328   3.22811   3.25033   3.25882
 Alpha virt. eigenvalues --    3.28577   3.31023   3.33442   3.34904   3.37374
 Alpha virt. eigenvalues --    3.39217   3.39837   3.40393   3.41643   3.43054
 Alpha virt. eigenvalues --    3.43653   3.45588   3.47481   3.50364   3.53465
 Alpha virt. eigenvalues --    3.55766   3.57470   3.60458   3.60804   3.66188
 Alpha virt. eigenvalues --    3.69620   3.74423   3.79191   3.81203   3.83636
 Alpha virt. eigenvalues --    3.88618   4.00686   4.03719   4.04859   4.05090
 Alpha virt. eigenvalues --    4.06250   4.09713   4.13777   4.21808   4.23650
 Alpha virt. eigenvalues --    4.27527   4.34760   4.56516   4.68691   4.72713
 Alpha virt. eigenvalues --    4.75519   4.82063   4.82295   4.84559  23.41782
 Alpha virt. eigenvalues --   23.61220  23.72324  23.76405  23.80863  23.83336
 Alpha virt. eigenvalues --   23.86695  23.87482  23.90830  23.91562  23.92339
 Alpha virt. eigenvalues --   23.94762  23.96348  23.99243  23.99483  24.03341
 Alpha virt. eigenvalues --   24.06082  24.06472  24.07696  24.12226  24.16424
 Alpha virt. eigenvalues --   24.17734  24.17987  24.18888
  Beta  occ. eigenvalues --  -10.21321 -10.20756 -10.20608 -10.20564 -10.20500
  Beta  occ. eigenvalues --  -10.20490 -10.20372 -10.19784 -10.19729 -10.19592
  Beta  occ. eigenvalues --  -10.19521 -10.19334 -10.19202 -10.19063 -10.19051
  Beta  occ. eigenvalues --  -10.18622 -10.18566 -10.18513 -10.18479 -10.18378
  Beta  occ. eigenvalues --  -10.18030 -10.18016 -10.17568 -10.17068  -0.91007
  Beta  occ. eigenvalues --   -0.88056  -0.85470  -0.82612  -0.81602  -0.79194
  Beta  occ. eigenvalues --   -0.78352  -0.76234  -0.73813  -0.72462  -0.71485
  Beta  occ. eigenvalues --   -0.69591  -0.66198  -0.63710  -0.62838  -0.61868
  Beta  occ. eigenvalues --   -0.60061  -0.59058  -0.57116  -0.55468  -0.53123
  Beta  occ. eigenvalues --   -0.52392  -0.50677  -0.49737  -0.48555  -0.47915
  Beta  occ. eigenvalues --   -0.46712  -0.45839  -0.44646  -0.44009  -0.43666
  Beta  occ. eigenvalues --   -0.43035  -0.42449  -0.42388  -0.41458  -0.40618
  Beta  occ. eigenvalues --   -0.39525  -0.39088  -0.38690  -0.37575  -0.36260
  Beta  occ. eigenvalues --   -0.35392  -0.35293  -0.33839  -0.33739  -0.33158
  Beta  occ. eigenvalues --   -0.31686  -0.29137  -0.28083  -0.27161  -0.25086
  Beta  occ. eigenvalues --   -0.22816  -0.22379  -0.20190
  Beta virt. eigenvalues --   -0.09908  -0.07108  -0.05573  -0.03893  -0.02282
  Beta virt. eigenvalues --   -0.01847   0.00115   0.00562   0.00759   0.00828
  Beta virt. eigenvalues --    0.01090   0.01901   0.02030   0.02408   0.03129
  Beta virt. eigenvalues --    0.03470   0.03659   0.03947   0.04640   0.05386
  Beta virt. eigenvalues --    0.05509   0.06006   0.06338   0.06433   0.07056
  Beta virt. eigenvalues --    0.07857   0.08068   0.08164   0.08514   0.09017
  Beta virt. eigenvalues --    0.09329   0.09726   0.10144   0.10579   0.10988
  Beta virt. eigenvalues --    0.11086   0.11320   0.11991   0.12063   0.12911
  Beta virt. eigenvalues --    0.13306   0.13672   0.14095   0.14303   0.14489
  Beta virt. eigenvalues --    0.14750   0.15253   0.15358   0.15780   0.15930
  Beta virt. eigenvalues --    0.16281   0.16649   0.17125   0.17323   0.17462
  Beta virt. eigenvalues --    0.17588   0.17893   0.17961   0.18238   0.18506
  Beta virt. eigenvalues --    0.18679   0.18968   0.19217   0.19534   0.19670
  Beta virt. eigenvalues --    0.20044   0.20196   0.20211   0.20574   0.20990
  Beta virt. eigenvalues --    0.21071   0.21485   0.21654   0.21850   0.22316
  Beta virt. eigenvalues --    0.22534   0.22926   0.23017   0.23533   0.23626
  Beta virt. eigenvalues --    0.23721   0.23907   0.24157   0.24965   0.25101
  Beta virt. eigenvalues --    0.25264   0.25771   0.25987   0.26193   0.26707
  Beta virt. eigenvalues --    0.26841   0.27315   0.27552   0.27602   0.27965
  Beta virt. eigenvalues --    0.28532   0.28972   0.29258   0.29652   0.29975
  Beta virt. eigenvalues --    0.30174   0.30846   0.31083   0.31317   0.32162
  Beta virt. eigenvalues --    0.32441   0.32623   0.32928   0.33278   0.33564
  Beta virt. eigenvalues --    0.33973   0.34306   0.35499   0.36035   0.36212
  Beta virt. eigenvalues --    0.37074   0.37565   0.38763   0.39423   0.39528
  Beta virt. eigenvalues --    0.40559   0.41149   0.41228   0.42188   0.42578
  Beta virt. eigenvalues --    0.43076   0.43484   0.44735   0.45194   0.47255
  Beta virt. eigenvalues --    0.47716   0.49056   0.50283   0.51352   0.51764
  Beta virt. eigenvalues --    0.52279   0.52586   0.52933   0.53570   0.53989
  Beta virt. eigenvalues --    0.54354   0.54771   0.55117   0.55459   0.56124
  Beta virt. eigenvalues --    0.56426   0.56647   0.57463   0.57908   0.58121
  Beta virt. eigenvalues --    0.58931   0.59194   0.59544   0.60254   0.60872
  Beta virt. eigenvalues --    0.61523   0.61599   0.62176   0.62451   0.63089
  Beta virt. eigenvalues --    0.63222   0.64042   0.64717   0.64928   0.65189
  Beta virt. eigenvalues --    0.65526   0.66374   0.67109   0.67362   0.67465
  Beta virt. eigenvalues --    0.67937   0.68353   0.68982   0.69220   0.69436
  Beta virt. eigenvalues --    0.69912   0.70647   0.70941   0.71372   0.71527
  Beta virt. eigenvalues --    0.72244   0.72598   0.72928   0.73351   0.74229
  Beta virt. eigenvalues --    0.74463   0.75047   0.75502   0.75720   0.76303
  Beta virt. eigenvalues --    0.76510   0.77196   0.77734   0.78624   0.79472
  Beta virt. eigenvalues --    0.80014   0.81799   0.82344   0.82965   0.83846
  Beta virt. eigenvalues --    0.84453   0.84932   0.86213   0.87491   0.87622
  Beta virt. eigenvalues --    0.88801   0.89482   0.89819   0.91361   0.91611
  Beta virt. eigenvalues --    0.92518   0.92962   0.93642   0.94060   0.94116
  Beta virt. eigenvalues --    0.94330   0.94720   0.95438   0.95849   0.96103
  Beta virt. eigenvalues --    0.96505   0.96906   0.97587   0.98275   0.99119
  Beta virt. eigenvalues --    0.99182   1.00699   1.01046   1.01470   1.02740
  Beta virt. eigenvalues --    1.03510   1.03715   1.03939   1.04875   1.05162
  Beta virt. eigenvalues --    1.05867   1.06756   1.07219   1.07691   1.08361
  Beta virt. eigenvalues --    1.09073   1.09457   1.10349   1.10928   1.12351
  Beta virt. eigenvalues --    1.13861   1.14210   1.16225   1.16396   1.16630
  Beta virt. eigenvalues --    1.19086   1.20904   1.21509   1.22433   1.25228
  Beta virt. eigenvalues --    1.27211   1.28161   1.29614   1.31954   1.34422
  Beta virt. eigenvalues --    1.35846   1.36427   1.37198   1.38160   1.39935
  Beta virt. eigenvalues --    1.40298   1.43155   1.43472   1.44782   1.45496
  Beta virt. eigenvalues --    1.46300   1.47262   1.47626   1.48056   1.49028
  Beta virt. eigenvalues --    1.49900   1.49985   1.50521   1.51229   1.52133
  Beta virt. eigenvalues --    1.52609   1.54082   1.54749   1.54824   1.54941
  Beta virt. eigenvalues --    1.56173   1.57063   1.57445   1.57923   1.59950
  Beta virt. eigenvalues --    1.61562   1.61813   1.62653   1.63993   1.64692
  Beta virt. eigenvalues --    1.65663   1.66900   1.67580   1.68968   1.69932
  Beta virt. eigenvalues --    1.70659   1.71785   1.71990   1.73299   1.74162
  Beta virt. eigenvalues --    1.75026   1.75292   1.75809   1.75944   1.76937
  Beta virt. eigenvalues --    1.77256   1.79187   1.79602   1.81039   1.81489
  Beta virt. eigenvalues --    1.82859   1.83925   1.84843   1.85026   1.85298
  Beta virt. eigenvalues --    1.86618   1.87473   1.87966   1.88718   1.89263
  Beta virt. eigenvalues --    1.89780   1.90495   1.91742   1.92187   1.92581
  Beta virt. eigenvalues --    1.93470   1.94856   1.96111   1.96379   1.96945
  Beta virt. eigenvalues --    1.97666   1.97790   1.98988   1.99630   1.99817
  Beta virt. eigenvalues --    2.00583   2.01535   2.03325   2.03805   2.04947
  Beta virt. eigenvalues --    2.05667   2.07447   2.09354   2.09436   2.09898
  Beta virt. eigenvalues --    2.11109   2.13280   2.14198   2.15869   2.17092
  Beta virt. eigenvalues --    2.18923   2.19205   2.19567   2.20330   2.21481
  Beta virt. eigenvalues --    2.22799   2.23957   2.24545   2.26905   2.28697
  Beta virt. eigenvalues --    2.29678   2.33382   2.34107   2.36106   2.37615
  Beta virt. eigenvalues --    2.38172   2.40189   2.40677   2.42221   2.42977
  Beta virt. eigenvalues --    2.43537   2.44172   2.45566   2.48170   2.51016
  Beta virt. eigenvalues --    2.51987   2.55688   2.56788   2.57690   2.60360
  Beta virt. eigenvalues --    2.62365   2.63015   2.64767   2.66380   2.66454
  Beta virt. eigenvalues --    2.67138   2.68497   2.69306   2.70602   2.71023
  Beta virt. eigenvalues --    2.71436   2.71764   2.72068   2.72766   2.73262
  Beta virt. eigenvalues --    2.73461   2.74373   2.74606   2.75672   2.76096
  Beta virt. eigenvalues --    2.76388   2.76983   2.77211   2.78532   2.78925
  Beta virt. eigenvalues --    2.80051   2.81196   2.81872   2.82135   2.83256
  Beta virt. eigenvalues --    2.84153   2.85245   2.85714   2.86363   2.87195
  Beta virt. eigenvalues --    2.88501   2.89044   2.89590   2.91569   2.91734
  Beta virt. eigenvalues --    2.92984   2.94104   2.96106   2.98225   2.99672
  Beta virt. eigenvalues --    3.00465   3.03208   3.04812   3.07438   3.10550
  Beta virt. eigenvalues --    3.10984   3.11531   3.12030   3.13344   3.13404
  Beta virt. eigenvalues --    3.14046   3.20246   3.21334   3.22830   3.25040
  Beta virt. eigenvalues --    3.25959   3.28812   3.31023   3.33446   3.34922
  Beta virt. eigenvalues --    3.37399   3.39225   3.39946   3.40398   3.41658
  Beta virt. eigenvalues --    3.43068   3.43829   3.45714   3.48096   3.50429
  Beta virt. eigenvalues --    3.53505   3.55768   3.57543   3.60481   3.60807
  Beta virt. eigenvalues --    3.66180   3.69609   3.74439   3.79193   3.81214
  Beta virt. eigenvalues --    3.84303   3.88728   4.00688   4.03718   4.04859
  Beta virt. eigenvalues --    4.05089   4.06249   4.09716   4.13778   4.21808
  Beta virt. eigenvalues --    4.23669   4.27529   4.34761   4.56525   4.68691
  Beta virt. eigenvalues --    4.72713   4.75521   4.82070   4.82299   4.84564
  Beta virt. eigenvalues --   23.41792  23.61289  23.72607  23.76552  23.80904
  Beta virt. eigenvalues --   23.83341  23.86698  23.87484  23.90830  23.91563
  Beta virt. eigenvalues --   23.92339  23.94823  23.96348  23.99247  23.99531
  Beta virt. eigenvalues --   24.03355  24.06120  24.06469  24.07698  24.12226
  Beta virt. eigenvalues --   24.16828  24.17759  24.18085  24.19232
          Condensed to atoms (all electrons):
               1          2          3          4          5          6
     1  C   10.022070  -0.574566  -2.112271   0.625999  -0.401505   0.600224
     2  C   -0.574566  11.906109  -2.601094  -1.885108   0.600930  -1.499135
     3  C   -2.112271  -2.601094  11.273246   1.565601  -0.167645   1.534076
     4  C    0.625999  -1.885108   1.565601  10.598926  -1.934026  -0.222824
     5  C   -0.401505   0.600930  -0.167645  -1.934026  11.230828   1.951901
     6  C    0.600224  -1.499135   1.534076  -0.222824   1.951901  10.485724
     7  C   -0.933080   0.513531  -0.759745  -0.129705  -0.342224  -0.823157
     8  C   -0.111229  -0.844315  -0.582275  -0.215792  -0.183869  -1.234992
     9  C   -0.263615   0.047433  -0.890868  -0.795168  -1.455398   0.061995
    10  C   -0.068530   0.461373  -1.196651  -0.224941  -0.588092  -2.033287
    11  C   -0.015879   0.225225  -0.125729   0.020948  -0.054109  -0.318292
    12  C   -0.026321  -0.138235  -0.766921  -0.085294   0.094176  -0.482940
    13  C    0.193499   0.663415  -0.526899   0.071013  -0.065767  -0.229051
    14  C    0.037841  -0.102046   0.505379  -0.005260   0.040915   0.085527
    15  C   -0.017882  -0.009104   0.080458   0.001070   0.011617  -0.080020
    16  C   -0.276238  -0.252506   0.586861   0.079138  -0.043523   0.352266
    17  C   -0.164969  -0.537394   0.180068   0.024569  -0.055676   0.067097
    18  H   -0.022855   0.403721  -0.069852  -0.011142  -0.025776   0.040571
    19  H    0.425628  -0.063292   0.004104  -0.042874   0.004405   0.000111
    20  H    0.041295  -0.030115  -0.016596   0.334660  -0.061020   0.028552
    21  C   -0.295908   0.219349  -1.564147  -1.361853  -4.279010  -3.506055
    22  C    0.464826   0.589915  -0.375683  -0.584985  -0.181785  -1.114049
    23  C    0.042443  -0.354692   0.006529  -0.063256   0.215278   1.120550
    24  H   -0.000042  -0.000788  -0.001264  -0.000072  -0.000204   0.003092
    25  H   -0.000002   0.000175  -0.000445  -0.000004  -0.000008  -0.000295
    26  H   -0.000284  -0.001384   0.002291  -0.000011   0.000073  -0.000181
    27  H    0.000006  -0.000132  -0.000074   0.000000  -0.000011   0.000070
    28  C   -0.229309  -0.508814   0.574786  -0.005600   0.042895  -0.050656
    29  C   -0.051099   0.034604  -0.010009  -0.009685  -0.018662   0.017201
    30  H    0.010442   0.017642  -0.020712   0.000093   0.000006   0.000580
    31  H   -0.007474  -0.025685   0.019424   0.000139   0.000638  -0.001151
    32  C   -0.290888  -0.019748   0.637063   0.567113   1.042011   3.961660
    33  C    0.098808   0.353000   0.173875  -0.065625   0.329637  -2.766479
    34  H    0.000848   0.007358  -0.002671   0.070572  -0.097925   0.014829
    35  H   -0.000157   0.000809  -0.004083   0.002941  -0.049945  -0.028429
    36  H    0.000139  -0.000120   0.003304  -0.000033   0.009390   0.006280
    37  H   -0.000033   0.000507   0.004475   0.000068   0.000771  -0.004455
               7          8          9         10         11         12
     1  C   -0.933080  -0.111229  -0.263615  -0.068530  -0.015879  -0.026321
     2  C    0.513531  -0.844315   0.047433   0.461373   0.225225  -0.138235
     3  C   -0.759745  -0.582275  -0.890868  -1.196651  -0.125729  -0.766921
     4  C   -0.129705  -0.215792  -0.795168  -0.224941   0.020948  -0.085294
     5  C   -0.342224  -0.183869  -1.455398  -0.588092  -0.054109   0.094176
     6  C   -0.823157  -1.234992   0.061995  -2.033287  -0.318292  -0.482940
     7  C    7.891947   0.308332  -0.026412   1.225063   0.646438   0.165661
     8  C    0.308332   7.572377   0.909990   0.987067   0.187019  -0.278173
     9  C   -0.026412   0.909990   9.464138  -1.083763  -0.767904  -0.797842
    10  C    1.225063   0.987067  -1.083763  12.139242   1.925743  -0.826766
    11  C    0.646438   0.187019  -0.767904   1.925743   8.192582   1.138370
    12  C    0.165661  -0.278173  -0.797842  -0.826766   1.138370  12.458049
    13  C    1.151557  -0.553129  -0.318887  -0.670722   0.076798   0.699248
    14  C   -0.439329  -0.355492   0.330779  -0.854979  -2.237338  -2.116362
    15  C   -0.151288  -0.301209  -0.076876  -0.268308  -0.843499  -1.036906
    16  C   -0.492168   0.137258  -0.313307  -1.178291  -0.885409  -1.016578
    17  C   -0.769948   0.431909  -0.086467  -0.152091   0.072086   1.001110
    18  H    0.010990   0.004603  -0.001703   0.003787  -0.000555   0.001079
    19  H   -0.000159   0.003315   0.004482   0.000424   0.000050  -0.000239
    20  H   -0.000895   0.004654  -0.000449   0.000092  -0.000041   0.000152
    21  C    0.677530   0.780122   2.664939   1.085970   0.038560   0.099343
    22  C   -0.251405   0.385455   1.492373   0.467199  -0.246730  -0.400766
    23  C   -1.221104   0.153798   2.279611  -3.462113  -1.747164  -1.122408
    24  H   -0.018209   0.034196  -0.002612  -0.056937   0.344856  -0.081974
    25  H    0.002650   0.008133   0.001959   0.069467   0.155398  -0.087584
    26  H   -0.004887   0.000763  -0.000269   0.000216   0.003681   0.002413
    27  H    0.000093   0.002775   0.000207   0.004241   0.011283   0.049790
    28  C    0.045724  -0.250863   0.017295  -0.081354  -0.233594  -1.042717
    29  C    0.074953   0.009475  -0.001016  -0.007997  -0.005315   0.049943
    30  H    0.004791  -0.002189   0.000438   0.000245  -0.000102  -0.003179
    31  H   -0.001888   0.001747  -0.000975  -0.000861  -0.001178  -0.011683
    32  C   -0.269438  -1.945008  -1.706798  -1.556211  -0.108528  -0.237957
    33  C   -0.273248   1.002725  -2.598255   1.720541   0.479059   0.203197
    34  H    0.004280  -0.002096  -0.018669   0.000842   0.000201   0.000022
    35  H    0.005231  -0.003257   0.048978   0.017241   0.000811   0.000021
    36  H    0.000328  -0.009748   0.035897  -0.018747   0.000114   0.002207
    37  H   -0.000526   0.013843  -0.026227  -0.042749   0.066660   0.030448
              13         14         15         16         17         18
     1  C    0.193499   0.037841  -0.017882  -0.276238  -0.164969  -0.022855
     2  C    0.663415  -0.102046  -0.009104  -0.252506  -0.537394   0.403721
     3  C   -0.526899   0.505379   0.080458   0.586861   0.180068  -0.069852
     4  C    0.071013  -0.005260   0.001070   0.079138   0.024569  -0.011142
     5  C   -0.065767   0.040915   0.011617  -0.043523  -0.055676  -0.025776
     6  C   -0.229051   0.085527  -0.080020   0.352266   0.067097   0.040571
     7  C    1.151557  -0.439329  -0.151288  -0.492168  -0.769948   0.010990
     8  C   -0.553129  -0.355492  -0.301209   0.137258   0.431909   0.004603
     9  C   -0.318887   0.330779  -0.076876  -0.313307  -0.086467  -0.001703
    10  C   -0.670722  -0.854979  -0.268308  -1.178291  -0.152091   0.003787
    11  C    0.076798  -2.237338  -0.843499  -0.885409   0.072086  -0.000555
    12  C    0.699248  -2.116362  -1.036906  -1.016578   1.001110   0.001079
    13  C    7.980956  -0.578211   0.602916   1.257385  -2.050733   0.008309
    14  C   -0.578211  10.451982   0.807493   0.936436  -0.966293  -0.000675
    15  C    0.602916   0.807493   7.453948  -0.449685   0.605087  -0.000233
    16  C    1.257385   0.936436  -0.449685  11.464766  -1.533046  -0.017920
    17  C   -2.050733  -0.966293   0.605087  -1.533046  10.026206   0.007951
    18  H    0.008309  -0.000675  -0.000233  -0.017920   0.007951   0.530908
    19  H    0.002001  -0.000070   0.000017   0.000120   0.000069  -0.007567
    20  H   -0.000111   0.000008  -0.000000  -0.000283  -0.000023  -0.000294
    21  C   -0.047447  -0.019347   0.002962  -0.001745  -0.003878  -0.003898
    22  C   -0.198387  -0.086554  -0.028180  -0.097356  -0.003449   0.001322
    23  C   -0.676750   0.186999  -0.201451   0.055608   0.074276   0.000490
    24  H   -0.018107   0.063132   0.022916  -0.000877   0.007978   0.000000
    25  H   -0.001535   0.309913  -0.060370  -0.038368  -0.030705  -0.000000
    26  H    0.025376  -0.004001  -0.024790  -0.042765   0.353789  -0.000006
    27  H   -0.019519  -0.053777   0.343458  -0.000527   0.000484   0.000000
    28  C   -0.737464   0.385144  -0.027304  -1.914919  -0.615849   0.023843
    29  C    0.061533   0.009655  -0.008331  -0.056389   0.225896  -0.007354
    30  H    0.013038   0.000426  -0.000462  -0.011824  -0.013520  -0.000009
    31  H   -0.019654   0.002249   0.005238  -0.149682   0.027658   0.000206
    32  C   -0.040678   0.016141  -0.006272   0.087887   0.015034  -0.002177
    33  C    0.127285  -0.135733   0.026093  -0.281921  -0.044469   0.000344
    34  H   -0.000101   0.000002   0.000001   0.000054  -0.000001  -0.000001
    35  H   -0.000155  -0.000027   0.000001   0.000030   0.000001   0.000000
    36  H    0.000352   0.000241  -0.000018   0.000281   0.000015   0.000000
    37  H    0.009682   0.004038   0.000687   0.000130  -0.000113  -0.000000
              19         20         21         22         23         24
     1  C    0.425628   0.041295  -0.295908   0.464826   0.042443  -0.000042
     2  C   -0.063292  -0.030115   0.219349   0.589915  -0.354692  -0.000788
     3  C    0.004104  -0.016596  -1.564147  -0.375683   0.006529  -0.001264
     4  C   -0.042874   0.334660  -1.361853  -0.584985  -0.063256  -0.000072
     5  C    0.004405  -0.061020  -4.279010  -0.181785   0.215278  -0.000204
     6  C    0.000111   0.028552  -3.506055  -1.114049   1.120550   0.003092
     7  C   -0.000159  -0.000895   0.677530  -0.251405  -1.221104  -0.018209
     8  C    0.003315   0.004654   0.780122   0.385455   0.153798   0.034196
     9  C    0.004482  -0.000449   2.664939   1.492373   2.279611  -0.002612
    10  C    0.000424   0.000092   1.085970   0.467199  -3.462113  -0.056937
    11  C    0.000050  -0.000041   0.038560  -0.246730  -1.747164   0.344856
    12  C   -0.000239   0.000152   0.099343  -0.400766  -1.122408  -0.081974
    13  C    0.002001  -0.000111  -0.047447  -0.198387  -0.676750  -0.018107
    14  C   -0.000070   0.000008  -0.019347  -0.086554   0.186999   0.063132
    15  C    0.000017  -0.000000   0.002962  -0.028180  -0.201451   0.022916
    16  C    0.000120  -0.000283  -0.001745  -0.097356   0.055608  -0.000877
    17  C    0.000069  -0.000023  -0.003878  -0.003449   0.074276   0.007978
    18  H   -0.007567  -0.000294  -0.003898   0.001322   0.000490   0.000000
[...]
 0.00170903,-0.02107454,-0.01742623,-0.00009796,0.00416085,0.05020979,0
 .00177519,0.01163331,-0.04719719,-0.00402247,0.00774612,0.02303985,0.0
 0222241,0.00543885,-0.01350817,-0.00157220,-0.00974274,-0.00620462,-0.
 00065796,0.00275191,0.00610754,0.00134701,0.00418372,-0.00454713,0.000
 23370,0.00060905,0.00478910,0.00040312,-0.00526721,-0.00098435,-0.0007
 2193,-0.00005506,-0.00002462,0.00001535,0.00004748,0.00004149,-0.00004
 169,0.00002726,-0.00008690,0.00003237,0.00973504,-0.01329759,-0.001698
 54,-0.21220142,0.03349658,0.01167550,-0.27117183,-0.10412158,0.0010780
 1,-0.00008722,0.00041155,0.00025820,-0.00010622,0.00005437,-0.00000849
 ,-0.00006384,-0.00004262,-0.00012999,0.00005264,-0.00008078,-0.0000541
 7,0.00009764,-0.00008593,-0.00004871,-0.00002545,-0.00009278,-0.000016
 05,-0.00008488,0.00000303,0.00005570,0.00009907,-0.00001453,-0.0000409
 2,-0.03992009,0.00483708,0.00358604,0.60097255,0.00034300,0.00129486,0
 .00011968,-0.00141274,-0.00030433,0.00014909,0.00244774,-0.00050627,-0
 .00055792,0.00107940,-0.00066419,-0.00034690,-0.00137937,0.00009012,0.
 00017499,-0.00065370,-0.00541683,0.00026333,-0.00155286,0.00117392,0.0
 0053166,-0.00717630,-0.00267190,0.00032807,0.04163237,-0.01435128,-0.0
 0433481,-0.02468013,-0.03928366,-0.00262772,0.00719470,0.00221053,0.00
 039264,-0.00007396,-0.00355808,-0.00051046,-0.00140943,-0.00045542,-0.
 00016565,0.00101540,0.00073082,0.00028138,0.00083446,-0.00073574,0.000
 08524,-0.00008138,0.00024683,-0.00026507,-0.00049795,-0.00039423,-0.00
 013393,0.00005707,-0.00006811,-0.00003658,0.00002627,0.00006389,-0.000
 00014,0.00001939,-0.00006533,0.00000331,-0.00328112,-0.00372104,0.0003
 3440,0.05869022,-0.13375566,-0.00534010,-0.14949616,-0.23280846,-0.003
 05232,-0.00030304,-0.00001903,0.00002660,-0.00001510,0.00004872,-0.000
 01440,-0.00001861,-0.00002344,0.00003220,0.00000177,-0.00009706,-0.000
 02708,-0.00017616,0.00002127,-0.00004926,0.00019486,0.00000053,0.00003
 508,-0.00007959,-0.00001807,0.00003885,0.00000927,-0.00002885,0.000020
 27,-0.01665366,0.01499431,0.00158120,0.03151302,0.72832134,-0.00007132
 ,-0.00022437,0.00019051,0.00019659,0.00001069,-0.00024598,-0.00015623,
 0.00024181,-0.00047086,-0.00031413,0.00027790,-0.00062677,-0.00012352,
 -0.00057426,-0.00115680,0.00155134,-0.00086244,0.00710137,-0.00005454,
 -0.00043069,-0.00060652,0.00009315,0.00088484,-0.00225724,0.00086854,-
 0.00229096,0.00511075,-0.00144189,-0.00140247,0.00423291,-0.00011078,-
 0.00115122,0.00381966,-0.00011242,0.00031933,0.00038344,0.00030771,0.0
 0023165,-0.00000584,-0.00001079,-0.00013317,-0.00066526,-0.00014445,0.
 00016494,0.00016479,-0.00005679,-0.00022392,0.00016266,0.00026648,0.00
 001517,-0.00006403,-0.00002048,0.00005406,-0.00009890,-0.00000720,-0.0
 0000247,-0.00001863,-0.00000294,0.00000157,0.00007426,-0.00005107,0.00
 090234,0.00469258,0.01131264,-0.00498197,-0.06097421,0.00029427,-0.003
 56059,-0.05832215,0.00006781,0.00002691,-0.00017221,0.00000699,0.00000
 267,-0.00000794,0.00000945,0.00000455,-0.00001848,-0.00001226,-0.00000
 730,0.00005460,-0.00003793,-0.00000492,-0.00001146,0.00000024,0.000014
 59,0.00001634,0.00000149,0.00000041,-0.00000499,0.00000130,-0.00000002
 ,-0.00000157,0.00356038,-0.00031856,-0.00009560,-0.02083734,0.02669191
 ,0.13373822,-0.00008574,-0.00035417,-0.00005338,0.00027136,-0.00005637
 ,-0.00006525,0.00017933,0.00046056,0.00013277,0.00077196,0.00025122,-0
 .00047990,0.00443428,0.00233808,-0.00019908,0.00109019,0.00068821,0.00
 045761,-0.00004415,-0.00003711,0.00006310,0.00001348,-0.00002702,-0.00
 009415,0.00021508,0.00063407,-0.00015462,-0.00000093,0.00008206,0.0000
 2821,0.00002630,-0.00001252,0.00000645,-0.00002072,0.00000176,0.000001
 13,0.00003524,0.00004807,-0.00005098,0.00001426,-0.00000088,0.00001050
 ,-0.00000162,-0.00000573,0.00000133,-0.00001164,-0.00001979,-0.0000156
 4,0.00001666,-0.00001809,-0.00000150,0.00000674,-0.00001786,0.00000491
 ,0.00000176,-0.00004601,0.00000477,0.00000151,-0.00059838,-0.00002265,
 -0.24573067,-0.12454171,0.02761544,-0.00261291,0.00368227,0.00184369,-
 0.00040641,0.00026507,-0.00004826,-0.00000678,0.00000226,-0.00000407,-
 0.00000380,0.00000326,-0.00000251,0.00000064,-0.00000562,0.00000251,-0
 .00000386,-0.00000528,-0.00000148,-0.00001639,0.00000429,0.00000644,0.
 00000773,-0.00000829,0.00001019,-0.00000052,0.00000583,-0.00001267,0.0
 0000144,-0.00000206,-0.00000188,-0.01915357,-0.01641779,0.00288252,-0.
 00026636,-0.00115733,0.00007505,0.26064806,0.00031744,0.00006378,-0.00
 004439,-0.00017952,0.00008606,0.00003483,-0.00112481,0.00030282,0.0003
 7549,-0.00064295,0.00171116,0.00049603,-0.02701530,-0.01201256,0.00394
 751,0.00162239,-0.00598803,-0.00116259,-0.00020345,-0.00051332,-0.0000
 5783,-0.00032587,-0.00007568,0.00007059,0.00090427,-0.00035914,-0.0001
 2618,0.00008540,-0.00013890,-0.00002414,-0.00004670,-0.00001377,-0.000
 00557,-0.00004529,-0.00000822,0.00000568,-0.00007270,0.00016765,0.0000
 3511,-0.00002063,-0.00000016,-0.00001018,-0.00001380,0.00002037,0.0000
 0086,-0.00001048,-0.00003291,-0.00000256,0.00004012,-0.00000264,0.0000
 0345,0.00008034,-0.00002267,-0.00002681,0.00002172,-0.00003571,-0.0000
 1506,0.00095961,-0.00020474,-0.00028918,-0.12661468,-0.14071314,0.0146
 6842,0.00311800,-0.00096436,-0.00082157,0.00022190,-0.00000320,0.00001
 820,-0.00000778,-0.00000487,-0.00000246,-0.00000649,-0.00000253,-0.000
 00146,-0.00000043,-0.00000355,0.00000134,-0.00000313,-0.00000226,-0.00
 000050,0.00000366,-0.00000018,0.00000691,-0.00001178,-0.00001096,0.000
 00533,0.00000018,0.00000480,-0.00001324,0.00000079,0.00000043,-0.00000
 250,0.01424530,0.01057047,-0.00192540,0.00022673,0.00062692,-0.0000128
 2,0.13459994,0.14655287,0.00013389,0.00023946,-0.00017017,-0.00021693,
 -0.00001019,0.00002378,0.00011603,-0.00010080,0.00052510,-0.00065776,0
 .00004820,-0.00220475,-0.00167275,0.00000225,0.00283246,0.00007524,-0.
 00073905,0.00396675,-0.00002363,-0.00005798,0.00034131,-0.00008762,-0.
 00004417,-0.00057611,0.00013676,-0.00036552,-0.00103814,0.00006881,-0.
 00003212,0.00015689,-0.00001750,-0.00004074,0.00000150,-0.00001076,-0.
 00000413,-0.00002001,-0.00003352,0.00007013,-0.00030859,-0.00002345,-0
 .00002030,0.00005812,-0.00001489,0.00001092,-0.00000381,0.00000060,0.0
 0000856,-0.00000451,0.00000861,0.00000580,0.00001511,0.00001646,-0.000
 01427,0.00006585,0.00002244,-0.00000897,0.00009248,0.00010601,0.000059
 56,0.00031344,0.02813859,0.01367082,-0.03854600,0.00187646,-0.00095033
 ,0.00830670,0.00009806,-0.00002780,-0.00046778,-0.00000018,-0.00000114
 ,-0.00000390,-0.00000152,-0.00000110,-0.00000423,0.00000008,0.00000005
 ,0.00000168,0.00000026,0.00000146,-0.00000511,0.00002871,-0.00000183,0
 .00000129,-0.00000335,-0.00001446,-0.00000139,0.00000583,-0.00000053,0
 .00000224,-0.00000256,-0.00000513,0.00000344,0.00366449,0.00320011,0.0
 0330801,0.00014215,0.00033445,0.00041741,-0.03095930,-0.01539633,0.028
 26975,-0.00024379,0.00038781,0.00002890,-0.00027965,-0.00000395,0.0000
 7359,0.00012079,-0.00027485,-0.00014312,0.00084524,0.00089562,-0.00003
 944,-0.00448745,0.00153016,0.00209664,-0.00086089,0.00031335,0.0000160
 5,-0.00042765,-0.00019311,0.00000696,0.00084337,-0.00113273,0.00002301
 ,-0.00501309,-0.00264927,0.00093738,0.00017330,-0.00006994,-0.00000756
 ,-0.00001650,0.00008541,0.00000400,-0.00000178,-0.00004214,-0.00000439
 ,0.00012790,-0.00010075,-0.00003957,0.00001815,0.00001959,0.00000542,-
 0.00001163,-0.00002607,-0.00000525,-0.00005866,-0.00001026,-0.00000297
 ,-0.00000349,-0.00000508,0.00000522,0.00000995,-0.00000489,0.00000736,
 0.00002279,0.00014376,0.00001505,-0.00002874,-0.00002065,0.00002697,0.
 00259281,0.02877197,0.00114362,0.00509026,-0.02656058,-0.00111317,-0.0
 0004883,0.00024822,-0.00000448,-0.00002236,-0.00001469,-0.00000249,-0.
 00000437,-0.00000130,-0.00000050,-0.00000357,-0.00000615,-0.00000311,0
 .00000046,-0.00000072,0.00000029,-0.00000236,0.00000917,-0.00000266,0.
 00001647,-0.00000776,0.00000077,-0.00000579,-0.00000055,0.00000258,0.0
 0000052,-0.00000504,0.00000240,-0.05764852,-0.00075707,0.00286880,0.00
 185264,-0.00010654,-0.00039705,0.00075792,-0.00015317,-0.00094594,0.05
 706065,0.00030250,-0.00008321,-0.00006008,-0.00000841,0.00004306,0.000
 00323,-0.00002312,-0.00009265,0.00004097,-0.00042304,-0.00049716,0.000
 03901,0.00230054,0.00119200,-0.00060206,-0.00006422,0.00061970,0.00004
 853,-0.00024337,-0.00025265,-0.00001086,0.00082375,-0.00028435,0.00000
 231,-0.00349559,0.00002347,0.00004230,-0.00001168,0.00014723,0.0000201
 7,-0.00004376,-0.00000344,-0.00000960,-0.00003963,0.00001882,0.0000128
 9,0.00012916,0.00002890,-0.00000664,0.00001980,-0.00000347,0.00000322,
 -0.00002415,-0.00001182,-0.00000368,-0.00004954,-0.00004292,-0.0000177
 3,0.00003008,-0.00001449,0.00000101,0.00000309,-0.00001756,-0.00001162
 ,-0.00000894,-0.00006946,-0.00000918,0.00004137,0.00000375,-0.00001177
 ,-0.00200870,-0.01142978,-0.00025403,0.00248931,-0.01184584,-0.0006856
 3,-0.00035185,-0.00010081,0.00002099,-0.00002559,-0.00001206,-0.000007
 25,-0.00000916,0.00000198,-0.00000283,-0.00000088,-0.00001014,-0.00000
 027,-0.00000468,-0.00000608,-0.00000098,-0.00002590,0.00000847,0.00000
 914,0.00001565,-0.00001272,0.00001400,-0.00000135,0.00000779,-0.000017
 29,0.00000219,-0.00000419,-0.00000157,0.00147146,-0.33217146,-0.011469
 14,0.00079453,0.00077612,0.00010356,0.00030638,0.00096225,0.00017140,-
 0.00098916,0.35308582,-0.00012579,0.00009677,-0.00067503,0.00002206,-0
 .00003454,0.00018023,-0.00011379,0.00009014,-0.00065997,0.00004816,-0.
 00007151,0.00043199,0.00206664,-0.00052931,0.00849132,-0.00030879,0.00
 002283,-0.00077901,0.00007642,-0.00001060,-0.00000923,-0.00005503,0.00
 024649,0.00050100,0.00122737,-0.00027823,0.00440033,-0.00004331,-0.000
 10192,-0.00008593,0.00001271,0.00003749,0.00003311,-0.00000424,-0.0000
 2757,-0.00000896,-0.00002252,0.00003225,-0.00007509,0.00000456,0.00000
 832,-0.00000204,-0.00000332,-0.00000547,-0.00000797,-0.00000547,-0.000
 00111,-0.00002561,-0.00000289,0.00001000,0.00001152,0.00002539,-0.0000
 1459,0.00009551,-0.00001795,-0.00000083,-0.00007303,0.00004452,-0.0000
 2265,0.00017014,0.00063397,-0.00504243,0.00294180,0.00052165,0.0037009
 9,0.00239160,0.00003124,0.00010120,-0.00011974,-0.00000035,-0.00000023
 ,0.00001171,-0.00000081,0.00000003,0.00000314,0.00000072,0.00000033,0.
 00000554,-0.00000055,-0.00000022,0.00000194,0.00001915,0.00000547,0.00
 000234,-0.00001317,-0.00000480,-0.00000158,0.00000350,0.00000245,0.000
 00150,-0.00000081,-0.00000052,-0.00000047,0.00201981,-0.01100521,-0.03
 535210,-0.00050056,0.00001275,-0.00207330,-0.00097883,0.00026708,-0.00
 538242,-0.00462357,0.01263994,0.02537846,-0.00003484,0.00003103,0.0000
 0796,0.00011473,0.00014160,0.00000985,-0.00052997,0.00010944,0.0000734
 3,0.00000430,-0.00006797,0.00000693,0.00013789,0.00001028,-0.00003653,
 0.00075095,0.00140476,-0.00011148,0.00011421,0.00030789,0.00002397,-0.
 00060073,-0.00059528,-0.00000938,-0.00620471,0.00109235,0.00082457,-0.
 00382708,-0.00252430,0.00030397,0.00090096,-0.00063043,-0.00001566,-0.
 00020722,-0.00033282,-0.00014555,-0.00018912,-0.00013743,-0.00001989,0
 .00013105,-0.00000338,0.00001717,0.00004696,-0.00009850,0.00000854,0.0
 0002792,0.00011759,0.00000611,-0.00010001,-0.00003023,-0.00001657,-0.0
 0005271,0.00003722,0.00002572,-0.00000472,0.00000054,-0.00000036,-0.00
 002874,0.00001107,0.00000728,-0.00010526,-0.00021131,0.00000194,-0.000
 39982,0.02903571,0.00107893,0.00718725,-0.02539446,-0.00123188,-0.0000
 3117,0.00000891,0.00002290,0.00000088,0.00000936,-0.00000055,0.0000005
 5,-0.00000224,-0.00000183,0.00000339,-0.00001615,-0.00000370,-0.000011
 09,-0.00000256,-0.00000491,0.00002231,-0.00000031,0.,-0.00000851,-0.00
 000205,0.00000714,0.00000285,-0.00000410,0.00000152,0.00196091,0.00034
 244,-0.00031283,-0.06849887,0.05478459,0.00413390,-0.00002889,-0.00000
 775,0.00000587,-0.00034712,-0.00082365,0.00006228,0.06887335,0.0000386
 1,0.00002415,-0.00000270,-0.00007111,-0.00004535,0.00000523,0.00016856
 ,-0.00013935,-0.00003333,0.00002636,-0.00001466,-0.00002114,0.00004299
 ,0.00019338,0.00001210,-0.00058589,-0.00023987,0.00011744,0.00006010,-
 0.00002334,0.00001816,-0.00016287,0.00048583,0.00007088,0.00204326,0.0
 0103783,-0.00041880,-0.00332992,0.00022660,-0.00031496,0.00067112,-0.0
 0059316,-0.00001879,-0.00031022,-0.00017902,-0.00003054,-0.00000751,0.
 00003401,-0.00000826,0.00010939,-0.00003158,0.00001492,-0.00003220,-0.
 00007368,-0.00001486,-0.00000653,0.00002161,-0.00000471,-0.00003357,-0
 .00000194,-0.00000371,0.00001827,-0.00001419,-0.00001068,0.00001133,-0
 .00000531,-0.00000032,0.00002158,-0.00000189,-0.00000486,0.00034292,-0
 .00011167,-0.00004339,-0.00025604,-0.00598671,-0.00020348,0.00580438,-
 0.01646570,-0.00109444,-0.00005050,-0.00000347,-0.00000870,-0.00001067
 ,0.00000656,-0.00000057,0.00000146,-0.00001018,-0.00000177,-0.00000071
 ,-0.00001700,-0.00000340,-0.00001898,0.00000394,0.00001210,0.00001206,
 -0.00001583,0.00001326,0.00000020,0.00000798,-0.00001762,0.00000447,-0
 .00000416,-0.00000235,-0.00047021,0.00071125,0.00018669,0.05216942,-0.
 32132116,-0.01466510,0.00004937,-0.00000934,-0.00001336,0.00072475,0.0
 0006834,-0.00011391,-0.05670955,0.34153533,0.00000258,-0.00001671,-0.0
 0001938,-0.00000939,0.00000144,-0.00004678,-0.00001092,-0.00004176,-0.
 00003575,-0.00000294,0.00003288,0.00004034,0.00003356,-0.00006029,-0.0
 0005824,-0.00004739,0.00004026,0.00032619,-0.00002572,-0.00004208,-0.0
 0054561,0.00007214,0.00015270,-0.00065933,0.00067335,-0.00065727,0.003
 80766,0.00046018,-0.00028926,0.00946122,-0.00018062,0.00011127,0.00036
 864,0.00018477,0.00019293,-0.00095295,0.00002998,0.00001882,0.00013801
 ,-0.00002826,-0.00003661,-0.00009766,-0.00003811,0.00003848,0.00009575
 ,-0.00001690,-0.00004734,0.00008401,0.00005623,0.00000175,-0.00000923,
 0.00000582,0.00000313,-0.00000041,-0.00000005,0.00000047,-0.00000034,0
 .00000341,-0.00000148,0.00000414,-0.00004320,0.00009218,-0.00013702,-0
 .00061534,-0.00139372,0.00256706,-0.00036489,-0.00026564,0.00375523,-0
 .00002757,-0.00004411,0.00027579,0.00000303,0.00000425,-0.00002095,0.0
 0000427,0.00000147,-0.00001421,-0.00000404,0.00000010,0.00001623,0.000
 00279,-0.00000002,-0.00000560,-0.00000562,0.00000549,-0.00000080,0.000
 00080,-0.00000032,0.00000347,-0.00000135,-0.00000195,0.00000054,-0.000
 20468,0.00000438,-0.00168423,0.00472372,-0.01442222,-0.03625163,0.0000
 1736,-0.00000464,0.00008062,0.00005106,0.00001632,0.00015900,-0.004487
 63,0.01630650,0.02529452,-0.00001032,-0.00000334,0.00000396,0.00002130
 ,-0.00000509,-0.00000885,-0.00008698,0.00009838,0.00003810,0.00000750,
 0.00001353,0.00000105,0.00003348,-0.00004400,-0.00000195,-0.00003719,0
 .00004483,-0.00002650,-0.00001559,-0.00047310,-0.00006017,0.00125752,0
 .00057082,0.00013636,0.00049056,-0.00044929,-0.00006106,-0.00101075,-0
 .00008939,0.00004648,0.00080265,-0.00048271,-0.00009358,0.00005927,0.0
 0039852,0.00001150,0.00016954,0.00006054,0.00001557,-0.00012062,-0.000
 07468,-0.00001622,-0.00005518,0.00009764,-0.00000644,0.00002951,-0.000
 04948,0.00001661,0.00006058,0.00005202,0.00001736,-0.00000257,0.000006
 22,0.00000096,-0.00001032,0.00000538,0.00000406,-0.00000851,-0.0000047
 0,0.00000124,-0.00028292,-0.00033140,0.00001619,-0.00128051,-0.0039390
 4,0.00013019,-0.29664700,0.09119447,0.01197563,0.00007640,0.00067484,0
 .00011934,0.00001309,-0.00000909,0.00000330,0.00000176,0.00000834,0.00
 000016,0.00000324,0.00001444,0.00000279,0.00002127,-0.00000554,-0.0000
 0721,-0.00001222,0.00001218,-0.00001354,0.00000101,-0.00000681,0.00001
 334,-0.00000392,0.00000301,0.00000313,-0.00046894,0.00096241,0.0000611
 1,-0.01903364,0.01036162,0.00121578,-0.00009903,0.00005894,0.00002632,
 -0.00001701,-0.00005339,0.00000158,0.00093015,-0.00026415,-0.00021040,
 0.31522443,0.00007339,0.00007317,-0.00001463,-0.00001988,0.00014012,0.
 00003739,0.00025079,-0.00050033,-0.00010540,0.00008986,-0.00004906,-0.
 00002899,-0.00010245,-0.00013202,-0.00001576,0.00032359,0.00008008,0.0
 0002061,0.00113642,0.00049933,0.00008515,-0.00057645,-0.00620582,-0.00
 076356,-0.00056667,-0.00049431,0.00002423,0.02950580,-0.00655327,-0.00
 096934,0.00064530,0.00184127,0.00045820,-0.00039118,-0.00002014,0.0000
 5718,0.00014789,0.00020651,-0.00001299,0.00005639,-0.00003489,-0.00000
 086,-0.00000236,0.00000158,0.00000427,-0.00010649,-0.00002536,-0.00002
 338,0.00004089,-0.00007045,-0.00000454,-0.00000750,-0.00000202,0.00000
 217,0.00001895,0.00001181,-0.00000507,0.00000474,-0.00000390,0.0000012
 4,-0.00026553,-0.00012093,0.00007972,-0.00313417,-0.00262498,-0.000384
 19,0.09352769,-0.09277006,-0.00614352,-0.00095090,-0.00025339,-0.00018
 037,-0.00002673,-0.00001612,-0.00001334,-0.00000799,-0.00000493,0.0000
 0062,-0.00000379,-0.00000627,-0.00000055,-0.00002182,0.00001325,-0.000
 00411,0.00001366,-0.00000249,0.00000568,-0.00000490,0.00000243,-0.0000
 0596,-0.00000237,-0.00000251,0.00000065,-0.00044964,0.00082084,0.00003
 486,-0.02090724,0.00966794,0.00089834,-0.00009070,0.00005326,0.0000270
 5,0.00000661,-0.00002145,-0.00000888,0.00014971,0.00095174,0.00030060,
 -0.09835293,0.09555136,-0.00001397,-0.00001928,-0.00003366,-0.00004230
 ,0.00006512,-0.00029196,0.00002403,-0.00004584,0.00029616,-0.00000478,
 0.00001998,0.00002260,0.00004604,-0.00003399,0.00014860,-0.00012174,0.
 00004598,-0.00053465,0.00006693,-0.00015865,0.00056064,0.00025651,-0.0
 0046548,0.00340931,-0.00008106,-0.00033744,-0.00097578,0.00173835,0.00
 059360,0.00229457,0.00010708,0.00008922,-0.00191923,-0.00013494,0.0002
 3520,-0.00015021,0.00013488,0.00007021,-0.00000404,-0.00003335,-0.0000
 8163,0.00000263,-0.00004998,0.00005503,0.00001066,-0.00000766,-0.00004
 247,0.00004857,0.00006056,0.00000924,-0.00001518,0.00000339,-0.0000067
 7,0.00000811,0.00001878,-0.00001240,0.00007536,0.00000280,0.00000126,-
 0.00000107,-0.00013154,0.00000546,-0.00056763,0.00016274,-0.00041873,0
 .00905543,0.01156011,-0.00702369,-0.03516757,-0.00013859,-0.00005394,0
 .00028987,-0.00000523,-0.00000516,0.00001921,0.00000017,0.00000148,0.0
 0000120,-0.00000100,0.00000101,-0.00000084,0.00001158,-0.00000271,0.00
 000511,-0.00000453,-0.00000151,-0.00000401,0.00000121,-0.00000067,-0.0
 0000018,-0.00000483,-0.00000222,0.00000123,-0.00004016,0.00012459,0.00
 044786,0.00020652,0.00044746,0.00399086,-0.00001781,0.00000857,-0.0000
 4699,0.00001921,-0.00000679,0.00011931,-0.00023122,0.00029846,-0.00593
 831,-0.01335620,0.00664748,0.02484400\\-0.00000626,-0.00000247,0.00000
 286,0.00001061,0.00000042,0.00000525,-0.00000353,0.00000119,-0.0000129
 4,0.00000313,0.00000312,0.00000587,0.00000249,0.00000268,0.00000318,-0
 .00000896,-0.00000050,0.00000041,0.00000250,0.00001465,0.00000917,0.00
 001367,-0.00001358,0.00000694,-0.00000213,0.00000992,0.00000405,-0.000
 01088,-0.00000486,0.00000142,0.00000304,0.00001354,-0.00000367,0.00000
 176,-0.00000620,-0.00000329,-0.00001244,-0.00000143,-0.00000096,-0.000
 00014,0.00000196,-0.00000578,0.00000866,-0.00000820,-0.00000208,-0.000
 00113,0.00000267,-0.00000084,-0.00000938,0.00000759,-0.00000902,-0.000
 00190,-0.00000441,0.00000294,0.00000145,0.00000223,0.00000478,-0.00000
 009,0.00000135,0.00000394,-0.00000474,0.00000029,0.00000101,0.00000086
 ,-0.00000659,-0.00000216,0.00000065,0.00000215,-0.00001998,-0.00000076
 ,-0.00000460,-0.00000332,0.00000124,-0.00000340,-0.00000125,0.00000625
 ,-0.00000171,-0.00000002,0.00000138,-0.00000022,-0.00000449,0.00003927
 ,-0.00001622,0.00000393,-0.00000384,0.00003010,0.00001227,-0.00000619,
 -0.00001781,-0.00000364,-0.00000890,-0.00000154,0.00000143,-0.00000286
 ,0.00000098,-0.00000796,-0.00000536,0.00000025,0.00000380,0.00000018,0
 .00000073,0.00000306,-0.00000317,0.00000098,0.00000576,-0.00000113,0.0
 0000005,-0.00000123,-0.00000335,-0.00000311,0.00000056\\\@


 SCIENCE AND PEACE WILL TRIUMPH OVER IGNORANCE AND WAR

                          -- PASTEUR
 Job cpu time:       1 days  1 hours 24 minutes 14.2 seconds.
 Elapsed time:       0 days  1 hours 16 minutes 12.9 seconds.
 File lengths (MBytes):  RWF=   2406 Int=      0 D2E=      0 Chk=     42 Scr=      1
 Normal termination of Gaussian 16 at Mon Mar 25 18:38:18 2019.
