 Entering Gaussian System, Link 0=g09
 Initial command:
 /usr/local/Cluster-Apps/gaussian/g09/l1.exe "/rds/user/am2145/hpc-work/scratch/19184515/Gau-174493.inp" -scrdir="/rds/user/am2145/hpc-work/scratch/19184515/"
 Entering Link 1 = /usr/local/Cluster-Apps/gaussian/g09/l1.exe PID=    174494.
  
 Copyright (c) 1988,1990,1992,1993,1995,1998,2003,2009,2013,
            Gaussian, Inc.  All Rights Reserved.
  
 This is part of the Gaussian(R) 09 program.  It is based on
 the Gaussian(R) 03 system (copyright 2003, Gaussian, Inc.),
 the Gaussian(R) 98 system (copyright 1998, Gaussian, Inc.),
 the Gaussian(R) 94 system (copyright 1995, Gaussian, Inc.),
 the Gaussian 92(TM) system (copyright 1992, Gaussian, Inc.),
 the Gaussian 90(TM) system (copyright 1990, Gaussian, Inc.),
 the Gaussian 88(TM) system (copyright 1988, Gaussian, Inc.),
 the Gaussian 86(TM) system (copyright 1986, Carnegie Mellon
 University), and the Gaussian 82(TM) system (copyright 1983,
 Carnegie Mellon University). Gaussian is a federally registered
 trademark of Gaussian, Inc.
  
 This software contains proprietary and confidential information,
 including trade secrets, belonging to Gaussian, Inc.
  
 This software is provided under written license and may be
 used, copied, transmitted, or stored only in accord with that
 written license.
  
 The following legend is applicable only to US Government
 contracts under FAR:
  
                    RESTRICTED RIGHTS LEGEND
  
 Use, reproduction and disclosure by the US Government is
 subject to restrictions as set forth in subparagraphs (a)
 and (c) of the Commercial Computer Software - Restricted
 Rights clause in FAR 52.227-19.
  
 Gaussian, Inc.
 340 Quinnipiac St., Bldg. 40, Wallingford CT 06492
  
  
 ---------------------------------------------------------------
 Warning -- This program may not be used in any manner that
 competes with the business of Gaussian, Inc. or will provide
 assistance to any competitor of Gaussian, Inc.  The licensee
 of this program is prohibited from giving any competitor of
 Gaussian, Inc. access to this program.  By using this program,
 the user acknowledges that Gaussian, Inc. is engaged in the
 business of creating and licensing software in the field of
 computational chemistry and represents and warrants to the
 licensee that it is not a competitor of Gaussian, Inc. and that
 it will not use this program in any manner prohibited above.
 ---------------------------------------------------------------
  

 Cite this work as:
 Gaussian 09, Revision D.01,
 M. J. Frisch, G. W. Trucks, H. B. Schlegel, G. E. Scuseria, 
 M. A. Robb, J. R. Cheeseman, G. Scalmani, V. Barone, B. Mennucci, 
 G. A. Petersson, H. Nakatsuji, M. Caricato, X. Li, H. P. Hratchian, 
 A. F. Izmaylov, J. Bloino, G. Zheng, J. L. Sonnenberg, M. Hada, 
 M. Ehara, K. Toyota, R. Fukuda, J. Hasegawa, M. Ishida, T. Nakajima, 
 Y. Honda, O. Kitao, H. Nakai, T. Vreven, J. A. Montgomery, Jr., 
 J. E. Peralta, F. Ogliaro, M. Bearpark, J. J. Heyd, E. Brothers, 
 K. N. Kudin, V. N. Staroverov, T. Keith, R. Kobayashi, J. Normand, 
 K. Raghavachari, A. Rendell, J. C. Burant, S. S. Iyengar, J. Tomasi, 
 M. Cossi, N. Rega, J. M. Millam, M. Klene, J. E. Knox, J. B. Cross, 
 V. Bakken, C. Adamo, J. Jaramillo, R. Gomperts, R. E. Stratmann, 
 O. Yazyev, A. J. Austin, R. Cammi, C. Pomelli, J. W. Ochterski, 
 R. L. Martin, K. Morokuma, V. G. Zakrzewski, G. A. Voth, 
 P. Salvador, J. J. Dannenberg, S. Dapprich, A. D. Daniels, 
 O. Farkas, J. B. Foresman, J. V. Ortiz, J. Cioslowski, 
 and D. J. Fox, Gaussian, Inc., Wallingford CT, 2013.
 
 ******************************************
 Gaussian 09:  ES64L-G09RevD.01 24-Apr-2013
                 1-Feb-2020 
 ******************************************
 %NProcShared=20
 Will use up to   20 processors via shared memory.
 %mem=64GB
 %Chk=AS2b_Hmig.chk
 ------------------------------
 #n opt freq b3lyp/6-311+g(d,p)
 ------------------------------
 1/14=-1,18=20,19=15,26=3,38=1/1,3;
 2/9=110,12=2,17=6,18=5,40=1/2;
 3/5=4,6=6,7=111,11=2,16=1,25=1,30=1,71=1,74=-5/1,2,3;
 4//1;
 5/5=2,38=5/2;
 6/7=2,8=2,9=2,10=2,28=1/1;
 7//1,2,3,16;
 1/14=-1,18=20,19=15,26=3/3(2);
 2/9=110/2;
 99//99;
 2/9=110/2;
 3/5=4,6=6,7=111,11=2,16=1,25=1,30=1,71=1,74=-5/1,2,3;
 4/5=5,16=3,69=1/1;
 5/5=2,38=5/2;
 7//1,2,3,16;
 1/14=-1,18=20,19=15,26=3/3(-5);
 2/9=110/2;
 6/7=2,8=2,9=2,10=2,19=2,28=1/1;
 99/9=1/99;
 ---------
 AS2b_Hmig
 ---------
 Symbolic Z-matrix:
 Charge =  0 Multiplicity = 2
 C                    -2.11752   2.90168  -0.03642 
 C                    -0.75247   2.44037  -0.03021 
 C                    -0.55354   1.05867  -0.02294 
 C                    -3.23059   2.08566  -0.0271 
 C                    -3.06168   0.67198  -0.01218 
 C                    -1.73491   0.26134  -0.01264 
 C                     0.58718   0.07218  -0.01401 
 C                    -0.00699  -1.20164  -0.00201 
 C                    -1.40484  -1.09048  -0.00105 
 C                     0.607    -2.46214   0.01077 
 C                     2.00336  -2.44212   0.01146 
 C                     2.70152  -1.21162   0.0006 
 C                     2.00011   0.08222  -0.01218 
 C                     4.13041  -1.20119   0.003 
 C                     4.85762  -0.0414   -0.00579 
 C                     2.84186   1.20284  -0.02058 
 C                     4.19214   1.22292  -0.01767 
 H                    -2.27963   3.97228  -0.06417 
 H                    -4.22061   2.52948  -0.03728 
 C                    -4.03531  -0.38894  -0.001 
 C                    -2.30036  -2.13608   0.01129 
 C                    -0.30734  -3.59163   0.02305 
 H                     2.57937  -3.36236   0.0211 
 H                     4.64311  -2.15707   0.0123 
 H                     1.20792   5.31415   0.10198 
 H                     4.76184   2.1458   -0.0235 
 H                     5.94168  -0.07121  -0.0033 
 C                     0.36531   3.38939  -0.03734 
 C                     0.30535   4.71527   0.12451 
 H                     1.34483   2.93753  -0.17799 
 H                    -0.62162   5.25136   0.29318 
 C                    -3.67964  -1.72904   0.0106 
 C                    -1.67606  -3.44532   0.0233 
 H                    -5.08951  -0.13096  -0.00096 
 H                    -4.46384  -2.47893   0.01958 
 H                    -2.29809  -4.3345    0.03321 
 H                     0.11085  -4.59296   0.03294 
 

 GradGradGradGradGradGradGradGradGradGradGradGradGradGradGradGradGradGrad
 Berny optimization.
 Initialization pass.
                           ----------------------------
                           !    Initial Parameters    !
                           ! (Angstroms and Degrees)  !
 --------------------------                            --------------------------
 ! Name  Definition              Value          Derivative Info.                !
 --------------------------------------------------------------------------------
 ! R1    R(1,2)                  1.4409         estimate D2E/DX2                !
 ! R2    R(1,4)                  1.3802         estimate D2E/DX2                !
 ! R3    R(1,18)                 1.0832         estimate D2E/DX2                !
 ! R4    R(2,3)                  1.396          estimate D2E/DX2                !
 ! R5    R(2,28)                 1.4663         estimate D2E/DX2                !
 ! R6    R(3,6)                  1.4253         estimate D2E/DX2                !
 ! R7    R(3,7)                  1.5081         estimate D2E/DX2                !
 ! R8    R(4,5)                  1.4238         estimate D2E/DX2                !
 ! R9    R(4,19)                 1.085          estimate D2E/DX2                !
 ! R10   R(5,6)                  1.3889         estimate D2E/DX2                !
 ! R11   R(5,20)                 1.44           estimate D2E/DX2                !
 ! R12   R(6,9)                  1.3916         estimate D2E/DX2                !
 ! R13   R(7,8)                  1.4056         estimate D2E/DX2                !
 ! R14   R(7,13)                 1.413          estimate D2E/DX2                !
 ! R15   R(8,9)                  1.4023         estimate D2E/DX2                !
 ! R16   R(8,10)                 1.4021         estimate D2E/DX2                !
 ! R17   R(9,21)                 1.3767         estimate D2E/DX2                !
 ! R18   R(10,11)                1.3965         estimate D2E/DX2                !
 ! R19   R(10,22)                1.4532         estimate D2E/DX2                !
 ! R20   R(11,12)                1.4148         estimate D2E/DX2                !
 ! R21   R(11,23)                1.0857         estimate D2E/DX2                !
 ! R22   R(12,13)                1.4718         estimate D2E/DX2                !
 ! R23   R(12,14)                1.4289         estimate D2E/DX2                !
 ! R24   R(13,16)                1.4016         estimate D2E/DX2                !
 ! R25   R(14,15)                1.369          estimate D2E/DX2                !
 ! R26   R(14,24)                1.0847         estimate D2E/DX2                !
 ! R27   R(15,17)                1.4288         estimate D2E/DX2                !
 ! R28   R(15,27)                1.0845         estimate D2E/DX2                !
 ! R29   R(16,17)                1.3504         estimate D2E/DX2                !
 ! R30   R(17,26)                1.0846         estimate D2E/DX2                !
 ! R31   R(20,32)                1.3865         estimate D2E/DX2                !
 ! R32   R(20,34)                1.0853         estimate D2E/DX2                !
 ! R33   R(21,32)                1.4381         estimate D2E/DX2                !
 ! R34   R(21,33)                1.4505         estimate D2E/DX2                !
 ! R35   R(22,33)                1.3765         estimate D2E/DX2                !
 ! R36   R(22,37)                1.0852         estimate D2E/DX2                !
 ! R37   R(25,29)                1.0834         estimate D2E/DX2                !
 ! R38   R(28,29)                1.3371         estimate D2E/DX2                !
 ! R39   R(28,30)                1.0879         estimate D2E/DX2                !
 ! R40   R(29,31)                1.084          estimate D2E/DX2                !
 ! R41   R(32,35)                1.0851         estimate D2E/DX2                !
 ! R42   R(33,36)                1.0852         estimate D2E/DX2                !
 ! A1    A(2,1,4)              125.0782         estimate D2E/DX2                !
 ! A2    A(2,1,18)             117.2798         estimate D2E/DX2                !
 ! A3    A(4,1,18)             117.6364         estimate D2E/DX2                !
 ! A4    A(1,2,3)              116.866          estimate D2E/DX2                !
 ! A5    A(1,2,28)             120.9935         estimate D2E/DX2                !
 ! A6    A(3,2,28)             122.1399         estimate D2E/DX2                !
 ! A7    A(2,3,6)              115.8246         estimate D2E/DX2                !
 ! A8    A(2,3,7)              139.0466         estimate D2E/DX2                !
 ! A9    A(6,3,7)              105.1275         estimate D2E/DX2                !
 ! A10   A(1,4,5)              119.4347         estimate D2E/DX2                !
 ! A11   A(1,4,19)             119.6012         estimate D2E/DX2                !
 ! A12   A(5,4,19)             120.9631         estimate D2E/DX2                !
 ! A13   A(4,5,6)              114.0094         estimate D2E/DX2                !
 ! A14   A(4,5,20)             130.6451         estimate D2E/DX2                !
 ! A15   A(6,5,20)             115.3452         estimate D2E/DX2                !
 ! A16   A(3,6,5)              128.7853         estimate D2E/DX2                !
 ! A17   A(3,6,9)              110.2973         estimate D2E/DX2                !
 ! A18   A(5,6,9)              120.9174         estimate D2E/DX2                !
 ! A19   A(3,7,8)              105.8487         estimate D2E/DX2                !
 ! A20   A(3,7,13)             138.7392         estimate D2E/DX2                !
 ! A21   A(8,7,13)             115.412          estimate D2E/DX2                !
 ! A22   A(7,8,9)              110.4594         estimate D2E/DX2                !
 ! A23   A(7,8,10)             129.0248         estimate D2E/DX2                !
 ! A24   A(9,8,10)             120.5156         estimate D2E/DX2                !
 ! A25   A(6,9,8)              108.267          estimate D2E/DX2                !
 ! A26   A(6,9,21)             125.702          estimate D2E/DX2                !
 ! A27   A(8,9,21)             126.0309         estimate D2E/DX2                !
 ! A28   A(8,10,11)            115.1485         estimate D2E/DX2                !
 ! A29   A(8,10,22)            115.0414         estimate D2E/DX2                !
 ! A30   A(11,10,22)           129.8101         estimate D2E/DX2                !
 ! A31   A(10,11,12)           120.3898         estimate D2E/DX2                !
 ! A32   A(10,11,23)           121.2214         estimate D2E/DX2                !
 ! A33   A(12,11,23)           118.3888         estimate D2E/DX2                !
 ! A34   A(11,12,13)           121.9696         estimate D2E/DX2                !
 ! A35   A(11,12,14)           119.986          estimate D2E/DX2                !
 ! A36   A(13,12,14)           118.0443         estimate D2E/DX2                !
 ! A37   A(7,13,12)            118.0552         estimate D2E/DX2                !
 ! A38   A(7,13,16)            127.3177         estimate D2E/DX2                !
 ! A39   A(12,13,16)           114.6271         estimate D2E/DX2                !
 ! A40   A(12,14,15)           122.5052         estimate D2E/DX2                !
 ! A41   A(12,14,24)           117.7891         estimate D2E/DX2                !
 ! A42   A(15,14,24)           119.7058         estimate D2E/DX2                !
 ! A43   A(14,15,17)           120.153          estimate D2E/DX2                !
 ! A44   A(14,15,27)           120.5116         estimate D2E/DX2                !
 ! A45   A(17,15,27)           119.3355         estimate D2E/DX2                !
 ! A46   A(13,16,17)           127.7621         estimate D2E/DX2                !
 ! A47   A(15,17,16)           116.9084         estimate D2E/DX2                !
 ! A48   A(15,17,26)           120.5537         estimate D2E/DX2                !
 ! A49   A(16,17,26)           122.5379         estimate D2E/DX2                !
 ! A50   A(5,20,32)            122.5948         estimate D2E/DX2                !
 ! A51   A(5,20,34)            118.7914         estimate D2E/DX2                !
 ! A52   A(32,20,34)           118.6138         estimate D2E/DX2                !
 ! A53   A(9,21,32)            114.1357         estimate D2E/DX2                !
 ! A54   A(9,21,33)            113.9301         estimate D2E/DX2                !
 ! A55   A(32,21,33)           131.9342         estimate D2E/DX2                !
 ! A56   A(10,22,33)           122.888          estimate D2E/DX2                !
 ! A57   A(10,22,37)           118.3448         estimate D2E/DX2                !
 ! A58   A(33,22,37)           118.7672         estimate D2E/DX2                !
 ! A59   A(2,28,29)            127.3743         estimate D2E/DX2                !
 ! A60   A(2,28,30)            114.72           estimate D2E/DX2                !
 ! A61   A(29,28,30)           117.8996         estimate D2E/DX2                !
 ! A62   A(25,29,28)           120.5485         estimate D2E/DX2                !
 ! A63   A(25,29,31)           116.2475         estimate D2E/DX2                !
 ! A64   A(28,29,31)           123.2011         estimate D2E/DX2                !
 ! A65   A(20,32,21)           121.3049         estimate D2E/DX2                !
 ! A66   A(20,32,35)           118.8572         estimate D2E/DX2                !
 ! A67   A(21,32,35)           119.8379         estimate D2E/DX2                !
 ! A68   A(21,33,22)           121.5939         estimate D2E/DX2                !
 ! A69   A(21,33,36)           119.5339         estimate D2E/DX2                !
 ! A70   A(22,33,36)           118.8722         estimate D2E/DX2                !
 ! D1    D(4,1,2,3)              0.4368         estimate D2E/DX2                !
 ! D2    D(4,1,2,28)          -179.8271         estimate D2E/DX2                !
 ! D3    D(18,1,2,3)          -178.685          estimate D2E/DX2                !
 ! D4    D(18,1,2,28)            1.0511         estimate D2E/DX2                !
 ! D5    D(2,1,4,5)             -0.1024         estimate D2E/DX2                !
 ! D6    D(2,1,4,19)          -179.7353         estimate D2E/DX2                !
 ! D7    D(18,1,4,5)           179.0165         estimate D2E/DX2                !
 ! D8    D(18,1,4,19)           -0.6164         estimate D2E/DX2                !
 ! D9    D(1,2,3,6)             -0.4412         estimate D2E/DX2                !
 ! D10   D(1,2,3,7)           -179.9519         estimate D2E/DX2                !
 ! D11   D(28,2,3,6)           179.826          estimate D2E/DX2                !
 ! D12   D(28,2,3,7)             0.3153         estimate D2E/DX2                !
 ! D13   D(1,2,28,29)            9.4324         estimate D2E/DX2                !
 ! D14   D(1,2,28,30)         -171.4911         estimate D2E/DX2                !
 ! D15   D(3,2,28,29)         -170.8456         estimate D2E/DX2                !
 ! D16   D(3,2,28,30)            8.2309         estimate D2E/DX2                !
 ! D17   D(2,3,6,5)              0.1773         estimate D2E/DX2                !
 ! D18   D(2,3,6,9)           -179.7755         estimate D2E/DX2                !
 ! D19   D(7,3,6,5)            179.845          estimate D2E/DX2                !
 ! D20   D(7,3,6,9)             -0.1077         estimate D2E/DX2                !
 ! D21   D(2,3,7,8)            179.6522         estimate D2E/DX2                !
 ! D22   D(2,3,7,13)            -0.2099         estimate D2E/DX2                !
 ! D23   D(6,3,7,8)              0.1085         estimate D2E/DX2                !
 ! D24   D(6,3,7,13)          -179.7535         estimate D2E/DX2                !
 ! D25   D(1,4,5,6)             -0.1828         estimate D2E/DX2                !
 ! D26   D(1,4,5,20)          -179.9654         estimate D2E/DX2                !
 ! D27   D(19,4,5,6)           179.4451         estimate D2E/DX2                !
 ! D28   D(19,4,5,20)           -0.3375         estimate D2E/DX2                !
 ! D29   D(4,5,6,3)              0.1498         estimate D2E/DX2                !
 ! D30   D(4,5,6,9)           -179.9019         estimate D2E/DX2                !
 ! D31   D(20,5,6,3)           179.9673         estimate D2E/DX2                !
 ! D32   D(20,5,6,9)            -0.0844         estimate D2E/DX2                !
 ! D33   D(4,5,20,32)          179.8751         estimate D2E/DX2                !
 ! D34   D(4,5,20,34)           -0.1674         estimate D2E/DX2                !
 ! D35   D(6,5,20,32)            0.0948         estimate D2E/DX2                !
 ! D36   D(6,5,20,34)         -179.9476         estimate D2E/DX2                !
 ! D37   D(3,6,9,8)              0.0662         estimate D2E/DX2                !
 ! D38   D(3,6,9,21)           179.9755         estimate D2E/DX2                !
 ! D39   D(5,6,9,8)           -179.8909         estimate D2E/DX2                !
 ! D40   D(5,6,9,21)             0.0184         estimate D2E/DX2                !
 ! D41   D(3,7,8,9)             -0.0732         estimate D2E/DX2                !
 ! D42   D(3,7,8,10)          -179.938          estimate D2E/DX2                !
 ! D43   D(13,7,8,9)           179.8261         estimate D2E/DX2                !
 ! D44   D(13,7,8,10)           -0.0388         estimate D2E/DX2                !
 ! D45   D(3,7,13,12)          179.9056         estimate D2E/DX2                !
 ! D46   D(3,7,13,16)           -0.0585         estimate D2E/DX2                !
 ! D47   D(8,7,13,12)            0.0526         estimate D2E/DX2                !
 ! D48   D(8,7,13,16)         -179.9116         estimate D2E/DX2                !
 ! D49   D(7,8,9,6)              0.008          estimate D2E/DX2                !
 ! D50   D(7,8,9,21)          -179.9009         estimate D2E/DX2                !
 ! D51   D(10,8,9,6)           179.8862         estimate D2E/DX2                !
 ! D52   D(10,8,9,21)           -0.0228         estimate D2E/DX2                !
 ! D53   D(7,8,10,11)           -0.0075         estimate D2E/DX2                !
 ! D54   D(7,8,10,22)          179.9159         estimate D2E/DX2                !
 ! D55   D(9,8,10,11)         -179.8605         estimate D2E/DX2                !
 ! D56   D(9,8,10,22)            0.0629         estimate D2E/DX2                !
 ! D57   D(6,9,21,32)            0.0417         estimate D2E/DX2                !
 ! D58   D(6,9,21,33)         -179.9275         estimate D2E/DX2                !
 ! D59   D(8,9,21,32)          179.9352         estimate D2E/DX2                !
 ! D60   D(8,9,21,33)           -0.0339         estimate D2E/DX2                !
 ! D61   D(8,10,11,12)           0.0372         estimate D2E/DX2                !
 ! D62   D(8,10,11,23)         179.9859         estimate D2E/DX2                !
 ! D63   D(22,10,11,12)       -179.8726         estimate D2E/DX2                !
 ! D64   D(22,10,11,23)          0.0761         estimate D2E/DX2                !
 ! D65   D(8,10,22,33)          -0.0495         estimate D2E/DX2                !
 ! D66   D(8,10,22,37)         179.9819         estimate D2E/DX2                !
 ! D67   D(11,10,22,33)        179.8603         estimate D2E/DX2                !
 ! D68   D(11,10,22,37)         -0.1083         estimate D2E/DX2                !
 ! D69   D(10,11,12,13)         -0.0212         estimate D2E/DX2                !
 ! D70   D(10,11,12,14)        179.9259         estimate D2E/DX2                !
 ! D71   D(23,11,12,13)       -179.9714         estimate D2E/DX2                !
 ! D72   D(23,11,12,14)         -0.0243         estimate D2E/DX2                !
 ! D73   D(11,12,13,7)          -0.0269         estimate D2E/DX2                !
 ! D74   D(11,12,13,16)        179.9418         estimate D2E/DX2                !
 ! D75   D(14,12,13,7)        -179.9749         estimate D2E/DX2                !
 ! D76   D(14,12,13,16)         -0.0063         estimate D2E/DX2                !
 ! D77   D(11,12,14,15)       -179.9343         estimate D2E/DX2                !
 ! D78   D(11,12,14,24)          0.0587         estimate D2E/DX2                !
 ! D79   D(13,12,14,15)          0.0149         estimate D2E/DX2                !
 ! D80   D(13,12,14,24)       -179.9921         estimate D2E/DX2                !
 ! D81   D(7,13,16,17)         179.9329         estimate D2E/DX2                !
 ! D82   D(12,13,16,17)         -0.0323         estimate D2E/DX2                !
 ! D83   D(12,14,15,17)          0.0113         estimate D2E/DX2                !
 ! D84   D(12,14,15,27)        179.979          estimate D2E/DX2                !
 ! D85   D(24,14,15,17)       -179.9816         estimate D2E/DX2                !
 ! D86   D(24,14,15,27)         -0.0138         estimate D2E/DX2                !
 ! D87   D(14,15,17,16)         -0.0454         estimate D2E/DX2                !
 ! D88   D(14,15,17,26)        179.9277         estimate D2E/DX2                !
 ! D89   D(27,15,17,16)        179.9865         estimate D2E/DX2                !
 ! D90   D(27,15,17,26)         -0.0404         estimate D2E/DX2                !
 ! D91   D(13,16,17,15)          0.0584         estimate D2E/DX2                !
 ! D92   D(13,16,17,26)       -179.9141         estimate D2E/DX2                !
 ! D93   D(5,20,32,21)          -0.0378         estimate D2E/DX2                !
 ! D94   D(5,20,32,35)         179.9442         estimate D2E/DX2                !
 ! D95   D(34,20,32,21)       -179.9954         estimate D2E/DX2                !
 ! D96   D(34,20,32,35)         -0.0134         estimate D2E/DX2                !
 ! D97   D(9,21,32,20)          -0.0308         estimate D2E/DX2                !
 ! D98   D(9,21,32,35)         179.9873         estimate D2E/DX2                !
 ! D99   D(33,21,32,20)        179.9313         estimate D2E/DX2                !
 ! D100  D(33,21,32,35)         -0.0506         estimate D2E/DX2                !
 ! D101  D(9,21,33,22)           0.0473         estimate D2E/DX2                !
 ! D102  D(9,21,33,36)        -179.9813         estimate D2E/DX2                !
 ! D103  D(32,21,33,22)       -179.9148         estimate D2E/DX2                !
 ! D104  D(32,21,33,36)          0.0566         estimate D2E/DX2                !
 ! D105  D(10,22,33,21)         -0.0065         estimate D2E/DX2                !
 ! D106  D(10,22,33,36)       -179.9781         estimate D2E/DX2                !
 ! D107  D(37,22,33,21)        179.9619         estimate D2E/DX2                !
 ! D108  D(37,22,33,36)         -0.0096         estimate D2E/DX2                !
 ! D109  D(2,28,29,25)         179.8264         estimate D2E/DX2                !
 ! D110  D(2,28,29,31)           0.4732         estimate D2E/DX2                !
 ! D111  D(30,28,29,25)          0.7756         estimate D2E/DX2                !
 ! D112  D(30,28,29,31)       -178.5776         estimate D2E/DX2                !
 --------------------------------------------------------------------------------
 Trust Radius=3.00D-01 FncErr=1.00D-07 GrdErr=1.00D-06
 Number of steps in this run=    222 maximum allowed number of steps=    222.
 GradGradGradGradGradGradGradGradGradGradGradGradGradGradGradGradGradGrad

                          Input orientation:                          
 ---------------------------------------------------------------------
 Center     Atomic      Atomic             Coordinates (Angstroms)
 Number     Number       Type             X           Y           Z
 ---------------------------------------------------------------------
      1          6           0       -2.117520    2.901680   -0.036420
      2          6           0       -0.752470    2.440370   -0.030210
      3          6           0       -0.553540    1.058670   -0.022940
      4          6           0       -3.230590    2.085660   -0.027100
      5          6           0       -3.061680    0.671980   -0.012180
      6          6           0       -1.734910    0.261340   -0.012640
      7          6           0        0.587180    0.072180   -0.014010
      8          6           0       -0.006990   -1.201640   -0.002010
      9          6           0       -1.404840   -1.090480   -0.001050
     10          6           0        0.607000   -2.462140    0.010770
     11          6           0        2.003360   -2.442120    0.011460
     12          6           0        2.701520   -1.211620    0.000600
     13          6           0        2.000110    0.082220   -0.012180
     14          6           0        4.130410   -1.201190    0.003000
     15          6           0        4.857620   -0.041400   -0.005790
     16          6           0        2.841860    1.202840   -0.020580
     17          6           0        4.192140    1.222920   -0.017670
     18          1           0       -2.279630    3.972280   -0.064170
     19          1           0       -4.220610    2.529480   -0.037280
     20          6           0       -4.035310   -0.388940   -0.001000
     21          6           0       -2.300360   -2.136080    0.011290
     22          6           0       -0.307340   -3.591630    0.023050
     23          1           0        2.579370   -3.362360    0.021100
     24          1           0        4.643110   -2.157070    0.012300
     25          1           0        1.207920    5.314150    0.101980
     26          1           0        4.761840    2.145800   -0.023500
     27          1           0        5.941680   -0.071210   -0.003300
     28          6           0        0.365310    3.389390   -0.037340
     29          6           0        0.305350    4.715270    0.124510
     30          1           0        1.344830    2.937530   -0.177990
     31          1           0       -0.621620    5.251360    0.293180
     32          6           0       -3.679640   -1.729040    0.010600
     33          6           0       -1.676060   -3.445320    0.023300
     34          1           0       -5.089510   -0.130960   -0.000960
     35          1           0       -4.463840   -2.478930    0.019580
     36          1           0       -2.298090   -4.334500    0.033210
     37          1           0        0.110850   -4.592960    0.032940
 ---------------------------------------------------------------------
                    Distance matrix (angstroms):
                    1          2          3          4          5
     1  C    0.000000
     2  C    1.440905   0.000000
     3  C    2.417209   1.395966   0.000000
     4  C    1.380181   2.503379   2.867285   0.000000
     5  C    2.421485   2.908604   2.537797   1.423813   0.000000
     6  C    2.668024   2.390328   1.425299   2.359112   1.388864
     7  C    3.914329   2.720891   1.508139   4.316207   3.697829
     8  C    4.614407   3.717630   2.325544   4.604190   3.583530
     9  C    4.055429   3.590730   2.311717   3.663592   2.418989
    10  C    6.016295   5.087676   3.707303   5.950716   4.825189
    11  C    6.748344   5.606696   4.335257   6.920731   5.945823
    12  C    6.335910   5.026731   3.968650   6.786955   6.063216
    13  C    4.990473   3.624623   2.733990   5.601269   5.096031
    14  C    7.474739   6.091353   5.200676   8.061551   7.432036
    15  C    7.570683   6.134565   5.521875   8.363252   7.951369
    16  C    5.242305   3.801418   3.398460   6.136291   5.927366
    17  C    6.529196   5.092299   4.748524   7.472706   7.274714
    18  H    1.083159   2.163358   3.386770   2.113063   3.392092
    19  H    2.135772   3.469292   3.951062   1.084997   2.189533
    20  C    3.808852   4.333923   3.770780   2.602288   1.440011
    21  C    5.041303   4.831312   3.641288   4.323181   2.909529
    22  C    6.741169   6.048636   4.657040   6.385885   5.076022
    23  H    7.829577   6.691447   5.418724   7.964853   6.935305
    24  H    8.443900   7.088762   6.111252   8.944130   8.207796
    25  H    4.110683   3.481266   4.607326   5.490007   6.308111
    26  H    6.920774   5.522176   5.425414   7.992657   7.961139
    27  H    8.590103   7.149853   6.592791   9.422483   9.033986
    28  C    2.530278   1.466329   2.505344   3.824959   4.373695
    29  C    3.030727   2.513581   3.759010   4.409162   5.263437
    30  H    3.465429   2.160480   2.675437   4.656492   4.957574
    31  H    2.804880   2.832555   4.205142   4.114725   5.197871
    32  C    4.887330   5.094504   4.188670   3.841224   2.479373
    33  C    6.362614   5.957955   4.641995   5.745506   4.344348
    34  H    4.246279   5.042074   4.689427   2.893038   2.181039
    35  H    5.870206   6.162488   5.273222   4.728485   3.448956
    36  H    7.238767   6.949232   5.668588   6.487808   5.064580
    37  H    7.819212   7.086398   5.690822   7.468118   6.147079
                    6          7          8          9         10
     6  C    0.000000
     7  C    2.329782   0.000000
     8  C    2.264096   1.405631   0.000000
     9  C    1.391581   2.306532   1.402263   0.000000
    10  C    3.591996   2.534519   1.402144   2.434972   0.000000
    11  C    4.613452   2.885813   2.362304   3.666458   1.396504
    12  C    4.674580   2.473619   2.708530   4.108147   2.439450
    13  C    3.739313   1.412967   2.382614   3.601254   2.900871
    14  C    6.044933   3.765135   4.137403   5.536359   3.742255
    15  C    6.599481   4.271958   5.001060   6.349724   4.891628
    16  C    4.672613   2.522304   3.727977   4.826402   4.292745
    17  C    6.004547   3.784171   4.848859   6.056260   5.141372
    18  H    3.751060   4.840650   5.651390   5.138169   7.052660
    19  H    3.365081   5.399418   5.628241   4.586282   6.944379
    20  C    2.390573   4.645451   4.109482   2.722413   5.084225
    21  C    2.463317   3.635236   2.476469   1.376731   2.925587
    22  C    4.109088   3.771610   2.408919   2.731454   1.453243
    23  H    5.634301   3.970657   3.370238   4.586487   2.168120
    24  H    6.821178   4.628263   4.747260   6.141294   4.047623
    25  H    5.848442   5.279869   6.628902   6.917833   7.800007
    26  H    6.764545   4.661306   5.826453   6.964334   6.204594
    27  H    7.683795   5.356430   6.055126   7.416891   5.845986
    28  C    3.767789   3.324703   4.606236   4.817051   5.856717
    29  C    4.900915   4.653698   5.926499   6.053697   7.184646
    30  H    4.083397   2.968359   4.357880   4.880252   5.453115
    31  H    5.121840   5.327238   6.488923   6.396791   7.815839
    32  C    2.782827   4.631496   3.710346   2.362755   4.348876
    33  C    3.707301   4.182876   2.796522   2.370533   2.485792
    34  H    3.377481   5.680339   5.194070   3.807555   6.155060
    35  H    3.867451   5.658807   4.636318   3.359420   5.070875
    36  H    4.630445   5.267432   3.881390   3.364927   3.456267
    37  H    5.193567   4.689630   3.393547   3.816522   2.187933
                   11         12         13         14         15
    11  C    0.000000
    12  C    1.414806   0.000000
    13  C    2.524453   1.471788   0.000000
    14  C    2.462584   1.428930   2.487077   0.000000
    15  C    3.729686   2.453207   2.860190   1.368950   0.000000
    16  C    3.740300   2.418628   1.401572   2.727687   2.368890
    17  C    4.268972   2.854692   2.471077   2.424984   1.428814
    18  H    7.713252   7.189497   5.783722   8.237592   8.188612
    19  H    7.965989   7.868491   6.684839   9.146532   9.435289
    20  C    6.378185   6.786876   6.053793   8.206019   8.899720
    21  C    4.314588   5.086604   4.838951   6.498376   7.458194
    22  C    2.580861   3.836429   4.338518   5.040658   6.267518
    23  H    1.085690   2.154303   3.493105   2.660208   4.027396
    24  H    2.655096   2.159580   3.464169   1.084737   2.126594
    25  H    7.797477   6.695281   5.292796   7.141456   6.481808
    26  H    5.353452   3.939260   3.447556   3.406134   2.189368
    27  H    4.596933   3.434994   3.944565   2.134852   1.084473
    28  C    6.057400   5.160292   3.689252   5.937258   5.652625
    29  C    7.356919   6.394139   4.935185   7.046300   6.585290
    30  H    5.423116   4.368976   2.934226   4.992115   4.609053
    31  H    8.133850   7.273168   5.804026   8.018815   7.623960
    32  C    5.727563   6.402111   5.961606   7.827871   8.702483
    33  C    3.813749   4.914584   5.095000   6.225080   7.367258
    34  H    7.459921   7.865620   7.092833   9.281828   9.947534
    35  H    6.467310   7.276594   6.952924   8.688730   9.634927
    36  H    4.699367   5.894874   6.163116   7.151514   8.344844
    37  H    2.864990   4.259821   5.042683   5.259455   6.576475
                   16         17         18         19         20
    16  C    0.000000
    17  C    1.350432   0.000000
    18  H    5.822487   7.031710   0.000000
    19  H    7.186010   8.513627   2.418636   0.000000
    20  C    7.059009   8.383872   4.701770   2.924522   0.000000
    21  C    6.131218   7.310012   6.108861   5.045510   2.462255
    22  C    5.736402   6.589907   7.817306   7.265350   4.914831
    23  H    4.572930   4.860794   8.798528   8.997606   7.252290
    24  H    3.812424   3.410074   9.246573  10.026552   8.856717
    25  H    4.425794   5.065377   3.740485   6.102681   7.747729
    26  H    2.139043   1.084573   7.274612   8.990651   9.155068
    27  H    3.351475   2.176205   9.162066  10.489847   9.982048
    28  C    3.303722   4.397568   2.708540   4.665845   5.800220
    29  C    4.334985   5.227223   2.696248   5.028734   6.701495
    30  H    2.296743   3.327576   3.770991   5.582152   6.327925
    31  H    5.337102   6.284683   2.124321   4.524441   6.599455
    32  C    7.150305   8.407127   5.871173   4.293010   1.386544
    33  C    6.482200   7.498661   7.442630   6.494354   3.861102
    34  H    8.042763   9.379888   4.973530   2.798973   1.085307
    35  H    8.181094   9.414408   6.811453   5.014635   2.133570
    36  H    7.555403   8.544624   8.307371   7.128483   4.311212
    37  H    6.407229   7.105206   8.893096   8.336404   5.904708
                   21         22         23         24         25
    21  C    0.000000
    22  C    2.467973   0.000000
    23  H    5.031463   2.895801   0.000000
    24  H    6.943502   5.154128   2.389942   0.000000
    25  H    8.235422   9.034111   8.784603   8.223606   0.000000
    26  H    8.258957   7.656165   5.924947   4.304657   4.762828
    27  H    8.496771   7.172468   4.705039   2.457100   7.170890
    28  C    6.135062   7.013611   7.105745   7.004660   2.105731
    29  C    7.330999   8.330082   8.392256   8.127596   1.083419
    30  H    6.250180   6.737953   6.422798   6.072052   2.396967
    31  H    7.581022   8.852695   9.193288   9.092915   1.840575
    32  C    1.438087   3.852506   6.468620   8.333749   8.573396
    33  C    1.450519   1.376518   4.256239   6.449156   9.222356
    34  H    3.435115   5.903047   8.321908   9.941287   8.325710
    35  H    2.190493   4.302860   7.098398   9.112639   9.638866
    36  H    2.198530   2.124863   4.973411   7.274744  10.266123
    37  H    3.442479   1.085192   2.758280   5.145422   9.967906
                   26         27         28         29         30
    26  H    0.000000
    27  H    2.511486   0.000000
    28  C    4.569046   6.562988   0.000000
    29  C    5.146298   7.395603   1.337067   0.000000
    30  H    3.510934   5.496732   1.087851   2.081438   0.000000
    31  H    6.223056   8.455446   2.133121   1.084027   3.072904
    32  C    9.288387   9.763114   6.523975   7.577747   6.859864
    33  C    8.526979   8.331584   7.133311   8.398301   7.064493
    34  H   10.111045  11.031352   6.492245   7.253013   7.130757
    35  H   10.320037  10.680472   7.600073   8.632074   7.944666
    36  H    9.583325   9.277434   8.170505   9.417249   8.136209
    37  H    8.188149   7.378761   7.986714   9.310712   7.633838
                   31         32         33         34         35
    31  H    0.000000
    32  C    7.626095   0.000000
    33  C    8.764526   2.638202   0.000000
    34  H    7.001280   2.131133   4.757858   0.000000
    35  H    8.636834   1.085074   2.950532   2.429989   0.000000
    36  H    9.734827   2.949172   1.085201   5.046082   2.851982
    37  H    9.874962   4.750826   2.123727   6.852323   5.039553
                   36         37
    36  H    0.000000
    37  H    2.422766   0.000000
 Stoichiometry    C24H13(2)
 Framework group  C1[X(C24H13)]
 Deg. of freedom   105
 Full point group                 C1      NOp   1
 Largest Abelian subgroup         C1      NOp   1
 Largest concise Abelian subgroup C1      NOp   1
                         Standard orientation:                         
 ---------------------------------------------------------------------
 Center     Atomic      Atomic             Coordinates (Angstroms)
 Number     Number       Type             X           Y           Z
 ---------------------------------------------------------------------
      1          6           0       -2.117518    2.901681   -0.036419
      2          6           0       -0.752468    2.440370   -0.030209
      3          6           0       -0.553539    1.058670   -0.022939
      4          6           0       -3.230588    2.085661   -0.027099
      5          6           0       -3.061679    0.671981   -0.012179
      6          6           0       -1.734910    0.261340   -0.012639
      7          6           0        0.587180    0.072179   -0.014009
      8          6           0       -0.006991   -1.201641   -0.002009
      9          6           0       -1.404840   -1.090480   -0.001049
     10          6           0        0.606999   -2.462141    0.010771
     11          6           0        2.003359   -2.442122    0.011461
     12          6           0        2.701519   -1.211623    0.000601
     13          6           0        2.000110    0.082218   -0.012179
     14          6           0        4.130409   -1.201193    0.003001
     15          6           0        4.857620   -0.041404   -0.005789
     16          6           0        2.841861    1.202837   -0.020579
     17          6           0        4.192141    1.222917   -0.017669
     18          1           0       -2.279627    3.972281   -0.064169
     19          1           0       -4.220608    2.529482   -0.037279
     20          6           0       -4.035310   -0.388938   -0.000999
     21          6           0       -2.300361   -2.136079    0.011291
     22          6           0       -0.307342   -3.591631    0.023051
     23          1           0        2.579368   -3.362362    0.021101
     24          1           0        4.643109   -2.157074    0.012301
     25          1           0        1.207924    5.314148    0.101981
     26          1           0        4.761842    2.145796   -0.023499
     27          1           0        5.941680   -0.071215   -0.003299
     28          6           0        0.365312    3.389389   -0.037339
     29          6           0        0.305353    4.715269    0.124511
     30          1           0        1.344832    2.937528   -0.177989
     31          1           0       -0.621616    5.251360    0.293181
     32          6           0       -3.679641   -1.729038    0.010601
     33          6           0       -1.676062   -3.445320    0.023301
     34          1           0       -5.089510   -0.130958   -0.000959
     35          1           0       -4.463841   -2.478928    0.019581
     36          1           0       -2.298092   -4.334499    0.033211
     37          1           0        0.110847   -4.592961    0.032941
 ---------------------------------------------------------------------
 Rotational constants (GHZ):      0.3510015      0.2559644      0.1480576
 Standard basis: 6-311+G(d,p) (5D, 7F)
 There are   630 symmetry adapted cartesian basis functions of A   symmetry.
 There are   606 symmetry adapted basis functions of A   symmetry.
   606 basis functions,   968 primitive gaussians,   630 cartesian basis functions
    79 alpha electrons       78 beta electrons
       nuclear repulsion energy      1795.1527615517 Hartrees.
 NAtoms=   37 NActive=   37 NUniq=   37 SFac= 1.00D+00 NAtFMM=   60 NAOKFM=F Big=F
 Integral buffers will be    131072 words long.
 Raffenetti 2 integral format.
 Two-electron integral symmetry is turned on.
 One-electron integrals computed using PRISM.
 NBasis=   606 RedAO= T EigKep=  1.10D-06  NBF=   606
 NBsUse=   590 1.00D-06 EigRej=  6.37D-07 NBFU=   590
 ExpMin= 4.38D-02 ExpMax= 4.56D+03 ExpMxC= 6.82D+02 IAcc=2 IRadAn=         4 AccDes= 0.00D+00
 Harris functional with IExCor=  402 and IRadAn=       4 diagonalized for initial guess.
 HarFok:  IExCor=  402 AccDes= 0.00D+00 IRadAn=         4 IDoV= 1 UseB2=F ITyADJ=14
 ICtDFT=  3500011 ScaDFX=  1.000000  1.000000  1.000000  1.000000
 FoFCou: FMM=F IPFlag=           0 FMFlag=      100000 FMFlg1=           0
         NFxFlg=           0 DoJE=T BraDBF=F KetDBF=T FulRan=T
         wScrn=  0.000000 ICntrl=     500 IOpCl=  0 I1Cent=   200000004 NGrid=           0
         NMat0=    1 NMatS0=      1 NMatT0=    0 NMatD0=    1 NMtDS0=    0 NMtDT0=    0
 Petite list used in FoFCou.
 Initial guess <Sx>= 0.0000 <Sy>= 0.0000 <Sz>= 0.5000 <S**2>= 0.7500 S= 0.5000
 Requested convergence on RMS density matrix=1.00D-08 within 128 cycles.
 Requested convergence on MAX density matrix=1.00D-06.
 Requested convergence on             energy=1.00D-06.
 No special actions if energy rises.
 Restarting incremental Fock formation.
 SCF Done:  E(UB3LYP) =  -922.521087093     A.U. after   23 cycles
            NFock= 23  Conv=0.74D-08     -V/T= 2.0044
 <Sx>= 0.0000 <Sy>= 0.0000 <Sz>= 0.5000 <S**2>= 0.7608 S= 0.5054
 <L.S>= 0.000000000000E+00
 Annihilation of the first spin contaminant:
 S**2 before annihilation     0.7608,   after     0.7501

 **********************************************************************

            Population analysis using the SCF density.

 **********************************************************************

 Orbital symmetries:
 Alpha Orbitals:
       Occupied  (A) (A) (A) (A) (A) (A) (A) (A) (A) (A) (A) (A)
                 (A) (A) (A) (A) (A) (A) (A) (A) (A) (A) (A) (A)
                 (A) (A) (A) (A) (A) (A) (A) (A) (A) (A) (A) (A)
                 (A) (A) (A) (A) (A) (A) (A) (A) (A) (A) (A) (A)
                 (A) (A) (A) (A) (A) (A) (A) (A) (A) (A) (A) (A)
                 (A) (A) (A) (A) (A) (A) (A) (A) (A) (A) (A) (A)
                 (A) (A) (A) (A) (A) (A) (A)
       Virtual   (A) (A) (A) (A) (A) (A) (A) (A) (A) (A) (A) (A)
                 (A) (A) (A) (A) (A) (A) (A) (A) (A) (A) (A) (A)
                 (A) (A) (A) (A) (A) (A) (A) (A) (A) (A) (A) (A)
                 (A) (A) (A) (A) (A) (A) (A) (A) (A) (A) (A) (A)
                 (A) (A) (A) (A) (A) (A) (A) (A) (A) (A) (A) (A)
                 (A) (A) (A) (A) (A) (A) (A) (A) (A) (A) (A) (A)
                 (A) (A) (A) (A) (A) (A) (A) (A) (A) (A) (A) (A)
                 (A) (A) (A) (A) (A) (A) (A) (A) (A) (A) (A) (A)
                 (A) (A) (A) (A) (A) (A) (A) (A) (A) (A) (A) (A)
                 (A) (A) (A) (A) (A) (A) (A) (A) (A) (A) (A) (A)
                 (A) (A) (A) (A) (A) (A) (A) (A) (A) (A) (A) (A)
                 (A) (A) (A) (A) (A) (A) (A) (A) (A) (A) (A) (A)
                 (A) (A) (A) (A) (A) (A) (A) (A) (A) (A) (A) (A)
                 (A) (A) (A) (A) (A) (A) (A) (A) (A) (A) (A) (A)
                 (A) (A) (A) (A) (A) (A) (A) (A) (A) (A) (A) (A)
                 (A) (A) (A) (A) (A) (A) (A) (A) (A) (A) (A) (A)
                 (A) (A) (A) (A) (A) (A) (A) (A) (A) (A) (A) (A)
                 (A) (A) (A) (A) (A) (A) (A) (A) (A) (A) (A) (A)
                 (A) (A) (A) (A) (A) (A) (A) (A) (A) (A) (A) (A)
                 (A) (A) (A) (A) (A) (A) (A) (A) (A) (A) (A) (A)
                 (A) (A) (A) (A) (A) (A) (A) (A) (A) (A) (A) (A)
                 (A) (A) (A) (A) (A) (A) (A) (A) (A) (A) (A) (A)
                 (A) (A) (A) (A) (A) (A) (A) (A) (A) (A) (A) (A)
                 (A) (A) (A) (A) (A) (A) (A) (A) (A) (A) (A) (A)
                 (A) (A) (A) (A) (A) (A) (A) (A) (A) (A) (A) (A)
                 (A) (A) (A) (A) (A) (A) (A) (A) (A) (A) (A) (A)
                 (A) (A) (A) (A) (A) (A) (A) (A) (A) (A) (A) (A)
                 (A) (A) (A) (A) (A) (A) (A) (A) (A) (A) (A) (A)
                 (A) (A) (A) (A) (A) (A) (A) (A) (A) (A) (A) (A)
                 (A) (A) (A) (A) (A) (A) (A) (A) (A) (A) (A) (A)
                 (A) (A) (A) (A) (A) (A) (A) (A) (A) (A) (A) (A)
                 (A) (A) (A) (A) (A) (A) (A) (A) (A) (A) (A) (A)
                 (A) (A) (A) (A) (A) (A) (A) (A) (A) (A) (A) (A)
                 (A) (A) (A) (A) (A) (A) (A) (A) (A) (A) (A) (A)
                 (A) (A) (A) (A) (A) (A) (A) (A) (A) (A) (A) (A)
                 (A) (A) (A) (A) (A) (A) (A) (A) (A) (A) (A) (A)
                 (A) (A) (A) (A) (A) (A) (A) (A) (A) (A) (A) (A)
                 (A) (A) (A) (A) (A) (A) (A) (A) (A) (A) (A) (A)
                 (A) (A) (A) (A) (A) (A) (A) (A) (A) (A) (A) (A)
                 (A) (A) (A) (A) (A) (A) (A) (A) (A) (A) (A) (A)
                 (A) (A) (A) (A) (A) (A) (A) (A) (A) (A) (A) (A)
                 (A) (A) (A) (A) (A) (A) (A) (A) (A) (A) (A) (A)
                 (A) (A) (A) (A) (A) (A) (A)
 Beta  Orbitals:
       Occupied  (A) (A) (A) (A) (A) (A) (A) (A) (A) (A) (A) (A)
                 (A) (A) (A) (A) (A) (A) (A) (A) (A) (A) (A) (A)
                 (A) (A) (A) (A) (A) (A) (A) (A) (A) (A) (A) (A)
                 (A) (A) (A) (A) (A) (A) (A) (A) (A) (A) (A) (A)
                 (A) (A) (A) (A) (A) (A) (A) (A) (A) (A) (A) (A)
                 (A) (A) (A) (A) (A) (A) (A) (A) (A) (A) (A) (A)
                 (A) (A) (A) (A) (A) (A)
       Virtual   (A) (A) (A) (A) (A) (A) (A) (A) (A) (A) (A) (A)
                 (A) (A) (A) (A) (A) (A) (A) (A) (A) (A) (A) (A)
                 (A) (A) (A) (A) (A) (A) (A) (A) (A) (A) (A) (A)
                 (A) (A) (A) (A) (A) (A) (A) (A) (A) (A) (A) (A)
                 (A) (A) (A) (A) (A) (A) (A) (A) (A) (A) (A) (A)
                 (A) (A) (A) (A) (A) (A) (A) (A) (A) (A) (A) (A)
                 (A) (A) (A) (A) (A) (A) (A) (A) (A) (A) (A) (A)
                 (A) (A) (A) (A) (A) (A) (A) (A) (A) (A) (A) (A)
                 (A) (A) (A) (A) (A) (A) (A) (A) (A) (A) (A) (A)
                 (A) (A) (A) (A) (A) (A) (A) (A) (A) (A) (A) (A)
                 (A) (A) (A) (A) (A) (A) (A) (A) (A) (A) (A) (A)
                 (A) (A) (A) (A) (A) (A) (A) (A) (A) (A) (A) (A)
                 (A) (A) (A) (A) (A) (A) (A) (A) (A) (A) (A) (A)
                 (A) (A) (A) (A) (A) (A) (A) (A) (A) (A) (A) (A)
                 (A) (A) (A) (A) (A) (A) (A) (A) (A) (A) (A) (A)
                 (A) (A) (A) (A) (A) (A) (A) (A) (A) (A) (A) (A)
                 (A) (A) (A) (A) (A) (A) (A) (A) (A) (A) (A) (A)
                 (A) (A) (A) (A) (A) (A) (A) (A) (A) (A) (A) (A)
                 (A) (A) (A) (A) (A) (A) (A) (A) (A) (A) (A) (A)
                 (A) (A) (A) (A) (A) (A) (A) (A) (A) (A) (A) (A)
                 (A) (A) (A) (A) (A) (A) (A) (A) (A) (A) (A) (A)
                 (A) (A) (A) (A) (A) (A) (A) (A) (A) (A) (A) (A)
                 (A) (A) (A) (A) (A) (A) (A) (A) (A) (A) (A) (A)
                 (A) (A) (A) (A) (A) (A) (A) (A) (A) (A) (A) (A)
                 (A) (A) (A) (A) (A) (A) (A) (A) (A) (A) (A) (A)
                 (A) (A) (A) (A) (A) (A) (A) (A) (A) (A) (A) (A)
                 (A) (A) (A) (A) (A) (A) (A) (A) (A) (A) (A) (A)
                 (A) (A) (A) (A) (A) (A) (A) (A) (A) (A) (A) (A)
                 (A) (A) (A) (A) (A) (A) (A) (A) (A) (A) (A) (A)
                 (A) (A) (A) (A) (A) (A) (A) (A) (A) (A) (A) (A)
                 (A) (A) (A) (A) (A) (A) (A) (A) (A) (A) (A) (A)
                 (A) (A) (A) (A) (A) (A) (A) (A) (A) (A) (A) (A)
                 (A) (A) (A) (A) (A) (A) (A) (A) (A) (A) (A) (A)
                 (A) (A) (A) (A) (A) (A) (A) (A) (A) (A) (A) (A)
                 (A) (A) (A) (A) (A) (A) (A) (A) (A) (A) (A) (A)
                 (A) (A) (A) (A) (A) (A) (A) (A) (A) (A) (A) (A)
                 (A) (A) (A) (A) (A) (A) (A) (A) (A) (A) (A) (A)
                 (A) (A) (A) (A) (A) (A) (A) (A) (A) (A) (A) (A)
                 (A) (A) (A) (A) (A) (A) (A) (A) (A) (A) (A) (A)
                 (A) (A) (A) (A) (A) (A) (A) (A) (A) (A) (A) (A)
                 (A) (A) (A) (A) (A) (A) (A) (A) (A) (A) (A) (A)
                 (A) (A) (A) (A) (A) (A) (A) (A) (A) (A) (A) (A)
                 (A) (A) (A) (A) (A) (A) (A) (A)
 The electronic state is 2-A.
 Alpha  occ. eigenvalues --  -10.20950 -10.20500 -10.20490 -10.20354 -10.19916
 Alpha  occ. eigenvalues --  -10.19629 -10.19615 -10.19571 -10.19362 -10.19322
 Alpha  occ. eigenvalues --  -10.19248 -10.19139 -10.19111 -10.19103 -10.19039
 Alpha  occ. eigenvalues --  -10.19003 -10.18923 -10.18580 -10.18534 -10.18377
 Alpha  occ. eigenvalues --  -10.17554 -10.17383 -10.16908 -10.16781  -0.92117
 Alpha  occ. eigenvalues --   -0.88470  -0.86294  -0.84301  -0.82087  -0.80839
 Alpha  occ. eigenvalues --   -0.78625  -0.77347  -0.75377  -0.73188  -0.72716
 Alpha  occ. eigenvalues --   -0.71735  -0.66720  -0.64868  -0.63786  -0.62183
 Alpha  occ. eigenvalues --   -0.60545  -0.58452  -0.57922  -0.56785  -0.53199
 Alpha  occ. eigenvalues --   -0.52656  -0.51220  -0.49853  -0.49365  -0.47899
 Alpha  occ. eigenvalues --   -0.47679  -0.45647  -0.44578  -0.44436  -0.43560
 Alpha  occ. eigenvalues --   -0.43370  -0.42597  -0.42457  -0.41030  -0.40823
 Alpha  occ. eigenvalues --   -0.40066  -0.39962  -0.39808  -0.37804  -0.37596
 Alpha  occ. eigenvalues --   -0.35872  -0.35393  -0.35048  -0.33891  -0.33541
 Alpha  occ. eigenvalues --   -0.32639  -0.31657  -0.28689  -0.28322  -0.25641
 Alpha  occ. eigenvalues --   -0.24917  -0.23318  -0.22724  -0.21203
 Alpha virt. eigenvalues --   -0.09726  -0.05958  -0.03935  -0.02702   0.00091
 Alpha virt. eigenvalues --    0.00149   0.00634   0.00814   0.01208   0.01709
 Alpha virt. eigenvalues --    0.01837   0.02147   0.03090   0.03302   0.03488
 Alpha virt. eigenvalues --    0.03964   0.05063   0.05176   0.05309   0.05658
 Alpha virt. eigenvalues --    0.05961   0.06433   0.06557   0.07444   0.07640
 Alpha virt. eigenvalues --    0.07700   0.08347   0.08922   0.09078   0.09890
 Alpha virt. eigenvalues --    0.10000   0.10404   0.10720   0.10989   0.11133
 Alpha virt. eigenvalues --    0.11350   0.12488   0.12690   0.12879   0.13293
 Alpha virt. eigenvalues --    0.13374   0.13766   0.14243   0.14534   0.14863
 Alpha virt. eigenvalues --    0.15326   0.15481   0.15992   0.16164   0.16595
 Alpha virt. eigenvalues --    0.16797   0.17230   0.17513   0.17699   0.17836
 Alpha virt. eigenvalues --    0.18253   0.18482   0.18728   0.18823   0.19043
 Alpha virt. eigenvalues --    0.19172   0.19612   0.19863   0.20315   0.20574
 Alpha virt. eigenvalues --    0.20636   0.20913   0.21255   0.21653   0.21822
 Alpha virt. eigenvalues --    0.22136   0.22391   0.22410   0.22952   0.23142
 Alpha virt. eigenvalues --    0.23221   0.23340   0.23575   0.23803   0.24423
 Alpha virt. eigenvalues --    0.24815   0.24977   0.25322   0.25409   0.25782
 Alpha virt. eigenvalues --    0.26228   0.26594   0.26915   0.27417   0.27848
 Alpha virt. eigenvalues --    0.28198   0.28298   0.28473   0.28953   0.29153
 Alpha virt. eigenvalues --    0.29763   0.29984   0.30303   0.30572   0.30995
 Alpha virt. eigenvalues --    0.31338   0.32064   0.32655   0.33197   0.33687
 Alpha virt. eigenvalues --    0.34283   0.34815   0.35303   0.36057   0.36838
 Alpha virt. eigenvalues --    0.36932   0.37456   0.37905   0.38200   0.40150
 Alpha virt. eigenvalues --    0.40326   0.40760   0.41324   0.41481   0.42155
 Alpha virt. eigenvalues --    0.43269   0.43832   0.44557   0.44819   0.46207
 Alpha virt. eigenvalues --    0.47617   0.47882   0.48467   0.49479   0.50037
 Alpha virt. eigenvalues --    0.50784   0.51378   0.52135   0.52336   0.52904
 Alpha virt. eigenvalues --    0.53243   0.53432   0.53795   0.53943   0.54477
 Alpha virt. eigenvalues --    0.55167   0.55669   0.55991   0.56446   0.56766
 Alpha virt. eigenvalues --    0.57069   0.57719   0.58359   0.58920   0.59238
 Alpha virt. eigenvalues --    0.59524   0.59841   0.60225   0.61090   0.61944
 Alpha virt. eigenvalues --    0.62064   0.62577   0.62932   0.63862   0.64098
 Alpha virt. eigenvalues --    0.64596   0.64663   0.65110   0.65416   0.65568
 Alpha virt. eigenvalues --    0.66433   0.66766   0.67120   0.67752   0.68130
 Alpha virt. eigenvalues --    0.68643   0.69005   0.69168   0.69753   0.70788
 Alpha virt. eigenvalues --    0.70951   0.71409   0.71757   0.72072   0.72172
 Alpha virt. eigenvalues --    0.73974   0.74478   0.75216   0.75472   0.75997
 Alpha virt. eigenvalues --    0.76146   0.76975   0.77097   0.77456   0.79752
 Alpha virt. eigenvalues --    0.80018   0.81358   0.82317   0.83184   0.83571
 Alpha virt. eigenvalues --    0.84559   0.84933   0.86751   0.87595   0.87978
 Alpha virt. eigenvalues --    0.89316   0.89829   0.90170   0.90456   0.91390
 Alpha virt. eigenvalues --    0.91575   0.91846   0.93278   0.93946   0.94938
 Alpha virt. eigenvalues --    0.95086   0.95507   0.95983   0.96011   0.96141
 Alpha virt. eigenvalues --    0.96765   0.97361   0.97934   0.98292   0.98600
 Alpha virt. eigenvalues --    0.98654   0.99385   0.99849   1.00406   1.01787
 Alpha virt. eigenvalues --    1.02296   1.02458   1.03697   1.04115   1.04657
 Alpha virt. eigenvalues --    1.05175   1.05424   1.05893   1.06943   1.07381
 Alpha virt. eigenvalues --    1.07749   1.08321   1.08775   1.10421   1.11799
 Alpha virt. eigenvalues --    1.12824   1.13179   1.14074   1.14953   1.15215
 Alpha virt. eigenvalues --    1.15653   1.16178   1.18021   1.18426   1.18946
 Alpha virt. eigenvalues --    1.20784   1.21876   1.24966   1.26230   1.28220
 Alpha virt. eigenvalues --    1.30429   1.32959   1.33370   1.35567   1.38037
 Alpha virt. eigenvalues --    1.40386   1.40477   1.41802   1.43242   1.44883
 Alpha virt. eigenvalues --    1.45570   1.46398   1.47098   1.47392   1.48325
 Alpha virt. eigenvalues --    1.48733   1.48976   1.49342   1.50465   1.50508
 Alpha virt. eigenvalues --    1.52030   1.52594   1.53089   1.55241   1.56244
 Alpha virt. eigenvalues --    1.57415   1.57665   1.57929   1.58426   1.58730
 Alpha virt. eigenvalues --    1.58978   1.59992   1.61827   1.62619   1.64649
 Alpha virt. eigenvalues --    1.65731   1.66434   1.66992   1.68237   1.69771
 Alpha virt. eigenvalues --    1.70346   1.70562   1.72278   1.72540   1.73670
 Alpha virt. eigenvalues --    1.73913   1.74731   1.74748   1.75743   1.76062
 Alpha virt. eigenvalues --    1.77612   1.79885   1.80688   1.81544   1.82621
 Alpha virt. eigenvalues --    1.82924   1.83700   1.84293   1.84409   1.85514
 Alpha virt. eigenvalues --    1.86237   1.86791   1.87452   1.89027   1.89178
 Alpha virt. eigenvalues --    1.89792   1.90298   1.90614   1.91700   1.92054
 Alpha virt. eigenvalues --    1.92502   1.92821   1.94453   1.94680   1.95669
 Alpha virt. eigenvalues --    1.97356   1.97870   1.98347   1.99331   2.01355
 Alpha virt. eigenvalues --    2.01544   2.02528   2.03335   2.03845   2.04855
 Alpha virt. eigenvalues --    2.05234   2.07308   2.08105   2.08813   2.09780
 Alpha virt. eigenvalues --    2.10305   2.11891   2.12822   2.14271   2.15248
 Alpha virt. eigenvalues --    2.16203   2.17455   2.19790   2.20729   2.21639
 Alpha virt. eigenvalues --    2.22735   2.24800   2.25150   2.25497   2.26966
 Alpha virt. eigenvalues --    2.27884   2.29348   2.30774   2.32946   2.35548
 Alpha virt. eigenvalues --    2.37882   2.39914   2.40756   2.41930   2.43425
 Alpha virt. eigenvalues --    2.44044   2.44631   2.45337   2.45976   2.46846
 Alpha virt. eigenvalues --    2.48550   2.51240   2.54788   2.57148   2.58074
 Alpha virt. eigenvalues --    2.58658   2.61560   2.61952   2.62418   2.63303
 Alpha virt. eigenvalues --    2.64637   2.65176   2.66139   2.67297   2.69442
 Alpha virt. eigenvalues --    2.69543   2.70864   2.71699   2.72386   2.73363
 Alpha virt. eigenvalues --    2.73745   2.73989   2.74131   2.74381   2.74664
 Alpha virt. eigenvalues --    2.75390   2.76110   2.76440   2.76909   2.78300
 Alpha virt. eigenvalues --    2.78450   2.78998   2.79346   2.79955   2.81857
 Alpha virt. eigenvalues --    2.82232   2.82530   2.83100   2.84432   2.85136
 Alpha virt. eigenvalues --    2.86361   2.86705   2.89515   2.89789   2.89853
 Alpha virt. eigenvalues --    2.90583   2.92241   2.93058   2.93483   2.97631
 Alpha virt. eigenvalues --    2.97715   2.99883   3.01519   3.05058   3.07379
 Alpha virt. eigenvalues --    3.09355   3.10032   3.12743   3.13309   3.13808
 Alpha virt. eigenvalues --    3.17453   3.20136   3.21118   3.21874   3.23680
 Alpha virt. eigenvalues --    3.26138   3.28104   3.29106   3.33804   3.34375
 Alpha virt. eigenvalues --    3.38285   3.39366   3.41194   3.43433   3.44770
 Alpha virt. eigenvalues --    3.45455   3.46142   3.48064   3.48611   3.50335
 Alpha virt. eigenvalues --    3.51679   3.54049   3.56030   3.58719   3.60807
 Alpha virt. eigenvalues --    3.62732   3.65215   3.66300   3.73345   3.77990
 Alpha virt. eigenvalues --    3.80780   3.83076   3.84471   3.89101   4.02295
 Alpha virt. eigenvalues --    4.05359   4.06623   4.06934   4.07709   4.11095
 Alpha virt. eigenvalues --    4.12784   4.21804   4.27310   4.34530   4.48580
 Alpha virt. eigenvalues --    4.57067   4.76484   4.78041   4.78957   4.80628
 Alpha virt. eigenvalues --    4.86483   4.87969  23.38316  23.59769  23.73696
 Alpha virt. eigenvalues --   23.80617  23.83107  23.83537  23.84869  23.88337
 Alpha virt. eigenvalues --   23.92194  23.94416  23.97883  23.99221  24.02145
 Alpha virt. eigenvalues --   24.06601  24.07990  24.10231  24.11939  24.13850
 Alpha virt. eigenvalues --   24.14460  24.15153  24.15684  24.20284  24.21185
 Alpha virt. eigenvalues --   24.24807
  Beta  occ. eigenvalues --  -10.20938 -10.20376 -10.20349 -10.19850 -10.19636
  Beta  occ. eigenvalues --  -10.19616 -10.19557 -10.19374 -10.19317 -10.19252
  Beta  occ. eigenvalues --  -10.19162 -10.19141 -10.19104 -10.19037 -10.18936
  Beta  occ. eigenvalues --  -10.18919 -10.18856 -10.18648 -10.18533 -10.18296
  Beta  occ. eigenvalues --  -10.17553 -10.17403 -10.16909 -10.16774  -0.92068
  Beta  occ. eigenvalues --   -0.88066  -0.86131  -0.84133  -0.82024  -0.80639
  Beta  occ. eigenvalues --   -0.78519  -0.76747  -0.75197  -0.73171  -0.72674
  Beta  occ. eigenvalues --   -0.71322  -0.66580  -0.64729  -0.63681  -0.61865
  Beta  occ. eigenvalues --   -0.60393  -0.58246  -0.57336  -0.56552  -0.52851
  Beta  occ. eigenvalues --   -0.52543  -0.51097  -0.49704  -0.49169  -0.47695
  Beta  occ. eigenvalues --   -0.47347  -0.45428  -0.44500  -0.44242  -0.43521
  Beta  occ. eigenvalues --   -0.43321  -0.42485  -0.42294  -0.40853  -0.40750
  Beta  occ. eigenvalues --   -0.39824  -0.39659  -0.39139  -0.37552  -0.37396
  Beta  occ. eigenvalues --   -0.35767  -0.35265  -0.34981  -0.33869  -0.33442
  Beta  occ. eigenvalues --   -0.32573  -0.31556  -0.28684  -0.27975  -0.25619
  Beta  occ. eigenvalues --   -0.23339  -0.22656  -0.20996
  Beta virt. eigenvalues --   -0.09909  -0.09650  -0.05946  -0.03953  -0.02292
  Beta virt. eigenvalues --    0.00163   0.00353   0.00642   0.00825   0.01315
  Beta virt. eigenvalues --    0.01718   0.01882   0.02212   0.03190   0.03328
  Beta virt. eigenvalues --    0.03530   0.03986   0.05129   0.05234   0.05328
  Beta virt. eigenvalues --    0.05682   0.06018   0.06479   0.06552   0.07476
  Beta virt. eigenvalues --    0.07659   0.07745   0.08360   0.08927   0.09082
  Beta virt. eigenvalues --    0.09936   0.10019   0.10429   0.10828   0.11052
  Beta virt. eigenvalues --    0.11226   0.11393   0.12571   0.12779   0.12900
  Beta virt. eigenvalues --    0.13322   0.13381   0.13786   0.14303   0.14634
  Beta virt. eigenvalues --    0.14907   0.15364   0.15538   0.16012   0.16266
  Beta virt. eigenvalues --    0.16656   0.16836   0.17346   0.17513   0.17731
  Beta virt. eigenvalues --    0.17908   0.18298   0.18511   0.18810   0.18885
  Beta virt. eigenvalues --    0.19093   0.19238   0.19716   0.19909   0.20396
  Beta virt. eigenvalues --    0.20612   0.20642   0.20950   0.21308   0.21744
  Beta virt. eigenvalues --    0.21941   0.22171   0.22427   0.22440   0.22973
  Beta virt. eigenvalues --    0.23200   0.23239   0.23432   0.23605   0.23854
  Beta virt. eigenvalues --    0.24471   0.24872   0.25175   0.25340   0.25483
  Beta virt. eigenvalues --    0.25938   0.26265   0.26652   0.26943   0.27485
  Beta virt. eigenvalues --    0.27966   0.28256   0.28450   0.28536   0.29003
  Beta virt. eigenvalues --    0.29299   0.29839   0.30040   0.30405   0.30675
  Beta virt. eigenvalues --    0.31190   0.31401   0.32180   0.32722   0.33255
  Beta virt. eigenvalues --    0.33858   0.34323   0.34852   0.35408   0.36275
  Beta virt. eigenvalues --    0.36944   0.37003   0.37824   0.38114   0.38327
  Beta virt. eigenvalues --    0.40184   0.40344   0.41128   0.41425   0.41517
  Beta virt. eigenvalues --    0.42213   0.43411   0.43880   0.44590   0.44951
  Beta virt. eigenvalues --    0.46300   0.47676   0.47909   0.48531   0.49634
  Beta virt. eigenvalues --    0.50082   0.50859   0.51495   0.52208   0.52380
  Beta virt. eigenvalues --    0.52955   0.53439   0.53520   0.53889   0.54131
  Beta virt. eigenvalues --    0.54863   0.55252   0.55732   0.56089   0.56519
  Beta virt. eigenvalues --    0.56796   0.57132   0.57827   0.58423   0.58964
  Beta virt. eigenvalues --    0.59410   0.59599   0.59916   0.60368   0.61197
  Beta virt. eigenvalues --    0.61961   0.62281   0.62614   0.63014   0.63922
  Beta virt. eigenvalues --    0.64242   0.64745   0.64803   0.65196   0.65467
  Beta virt. eigenvalues --    0.65753   0.66609   0.66921   0.67340   0.68033
  Beta virt. eigenvalues --    0.68442   0.68889   0.69082   0.69305   0.69818
  Beta virt. eigenvalues --    0.70870   0.70999   0.71464   0.71819   0.72211
  Beta virt. eigenvalues --    0.72322   0.74042   0.74636   0.75518   0.75665
  Beta virt. eigenvalues --    0.76025   0.76405   0.77101   0.77253   0.77649
  Beta virt. eigenvalues --    0.79913   0.80363   0.81551   0.82753   0.83324
  Beta virt. eigenvalues --    0.83734   0.84935   0.85133   0.86975   0.87786
  Beta virt. eigenvalues --    0.88089   0.89413   0.89912   0.90313   0.90553
  Beta virt. eigenvalues --    0.91516   0.91769   0.91903   0.93351   0.94022
  Beta virt. eigenvalues --    0.95000   0.95163   0.95572   0.96074   0.96159
  Beta virt. eigenvalues --    0.96239   0.96833   0.97426   0.97992   0.98358
  Beta virt. eigenvalues --    0.98752   0.98958   0.99528   0.99932   1.00466
  Beta virt. eigenvalues --    1.01863   1.02391   1.02536   1.03912   1.04560
  Beta virt. eigenvalues --    1.04704   1.05282   1.05468   1.05997   1.06984
  Beta virt. eigenvalues --    1.07488   1.08240   1.08711   1.08810   1.10495
  Beta virt. eigenvalues --    1.11894   1.12940   1.13305   1.14320   1.15052
  Beta virt. eigenvalues --    1.15283   1.15816   1.16230   1.18166   1.18486
  Beta virt. eigenvalues --    1.19065   1.21104   1.23851   1.25284   1.26425
  Beta virt. eigenvalues --    1.28556   1.30498   1.32990   1.33569   1.35625
  Beta virt. eigenvalues --    1.38386   1.40536   1.40691   1.41862   1.43313
  Beta virt. eigenvalues --    1.45018   1.45736   1.46581   1.47188   1.47436
  Beta virt. eigenvalues --    1.48350   1.48747   1.49033   1.49457   1.50478
  Beta virt. eigenvalues --    1.50655   1.52280   1.52616   1.53534   1.55282
  Beta virt. eigenvalues --    1.56348   1.57437   1.57742   1.58271   1.58769
  Beta virt. eigenvalues --    1.58812   1.59464   1.60439   1.62012   1.62894
  Beta virt. eigenvalues --    1.64964   1.65830   1.66641   1.67086   1.68308
  Beta virt. eigenvalues --    1.69846   1.70577   1.70658   1.72549   1.72588
  Beta virt. eigenvalues --    1.73731   1.74014   1.74839   1.75251   1.75882
  Beta virt. eigenvalues --    1.76390   1.77990   1.79983   1.80732   1.81645
  Beta virt. eigenvalues --    1.82762   1.83048   1.83717   1.84435   1.84560
  Beta virt. eigenvalues --    1.85539   1.86431   1.86883   1.87482   1.89047
  Beta virt. eigenvalues --    1.89321   1.89858   1.90431   1.90712   1.91820
  Beta virt. eigenvalues --    1.92106   1.92934   1.93222   1.94875   1.95048
  Beta virt. eigenvalues --    1.95818   1.97476   1.97963   1.98597   1.99614
  Beta virt. eigenvalues --    2.01571   2.01639   2.02785   2.03610   2.04016
  Beta virt. eigenvalues --    2.04985   2.05513   2.07415   2.08195   2.08821
  Beta virt. eigenvalues --    2.09893   2.10449   2.12196   2.12867   2.14345
  Beta virt. eigenvalues --    2.15292   2.16295   2.17502   2.19951   2.20896
  Beta virt. eigenvalues --    2.21680   2.22988   2.24893   2.25405   2.25579
  Beta virt. eigenvalues --    2.27172   2.28019   2.29467   2.31060   2.33023
  Beta virt. eigenvalues --    2.35822   2.37997   2.40445   2.40822   2.42074
  Beta virt. eigenvalues --    2.43598   2.44102   2.44791   2.45570   2.46129
  Beta virt. eigenvalues --    2.46878   2.48650   2.51482   2.54938   2.57422
  Beta virt. eigenvalues --    2.58132   2.58853   2.61855   2.62159   2.62537
  Beta virt. eigenvalues --    2.63488   2.64714   2.65310   2.66172   2.67596
  Beta virt. eigenvalues --    2.69461   2.69805   2.70906   2.72065   2.72435
  Beta virt. eigenvalues --    2.73532   2.73832   2.74029   2.74142   2.74514
  Beta virt. eigenvalues --    2.74839   2.75445   2.76131   2.76457   2.76977
  Beta virt. eigenvalues --    2.78394   2.78669   2.79212   2.79532   2.80111
  Beta virt. eigenvalues --    2.81955   2.82269   2.82603   2.83403   2.84421
  Beta virt. eigenvalues --    2.85374   2.86423   2.86865   2.89641   2.89917
  Beta virt. eigenvalues --    2.89972   2.90653   2.92319   2.93096   2.93543
  Beta virt. eigenvalues --    2.97677   2.98263   2.99922   3.01533   3.05145
  Beta virt. eigenvalues --    3.07582   3.09442   3.11160   3.12755   3.13313
  Beta virt. eigenvalues --    3.14229   3.18139   3.20983   3.21390   3.22120
  Beta virt. eigenvalues --    3.23720   3.26414   3.28235   3.29495   3.33989
  Beta virt. eigenvalues --    3.34422   3.38380   3.39482   3.41456   3.43488
  Beta virt. eigenvalues --    3.44856   3.45520   3.46380   3.48122   3.48735
  Beta virt. eigenvalues --    3.50396   3.51789   3.54125   3.56317   3.58926
  Beta virt. eigenvalues --    3.61272   3.62995   3.65392   3.66357   3.73657
  Beta virt. eigenvalues --    3.78028   3.80794   3.83099   3.84494   3.89450
  Beta virt. eigenvalues --    4.02384   4.05401   4.06634   4.06940   4.07766
  Beta virt. eigenvalues --    4.11134   4.12969   4.21825   4.27349   4.34562
  Beta virt. eigenvalues --    4.48671   4.57141   4.76571   4.78135   4.79091
  Beta virt. eigenvalues --    4.80709   4.86519   4.87983  23.38424  23.60059
  Beta virt. eigenvalues --   23.73789  23.80727  23.83152  23.83663  23.84912
  Beta virt. eigenvalues --   23.88342  23.92389  23.94498  23.97949  23.99232
  Beta virt. eigenvalues --   24.02185  24.06594  24.08014  24.10233  24.11939
  Beta virt. eigenvalues --   24.13856  24.14463  24.15338  24.15687  24.20917
  Beta virt. eigenvalues --   24.21199  24.24850
          Condensed to atoms (all electrons):
               1          2          3          4          5          6
     1  C   12.168618  -4.022473   0.417021   1.403650  -1.368941   1.781838
     2  C   -4.022473  14.120885   1.452540  -2.864890   0.310067  -0.639040
     3  C    0.417021   1.452540   8.001175  -0.216053   0.219888   0.471257
     4  C    1.403650  -2.864890  -0.216053   9.291976  -0.447090  -0.601007
     5  C   -1.368941   0.310067   0.219888  -0.447090  10.096096  -0.038285
     6  C    1.781838  -0.639040   0.471257  -0.601007  -0.038285   8.553695
     7  C   -1.349196   0.893638  -0.348149  -0.516278  -0.172537  -0.659984
     8  C   -0.166997   0.068759   0.207169  -0.112565   0.512470   0.184783
     9  C   -0.481122   0.191740  -0.342316  -0.323713  -0.414844   0.358771
    10  C   -0.354560   0.320865  -0.394272  -0.122873  -0.730830   0.148855
    11  C   -0.078581   0.027258   0.117451   0.008077  -0.074302  -0.211376
    12  C   -0.104100  -0.034758  -0.850848  -0.136194   0.113827   0.232445
    13  C    0.040536   0.082456   0.731711  -0.007108  -0.097818  -0.334561
    14  C    0.055140   0.066688   0.349338  -0.019214   0.038480  -0.008895
    15  C   -0.020649  -0.015852   0.047832   0.001668   0.004233  -0.075370
    16  C    0.002433   0.109195  -0.013931  -0.004478   0.114960  -0.086291
    17  C   -0.085413   0.323917  -0.396220  -0.002480  -0.017444   0.228878
    18  H    0.378169  -0.187206  -0.014342   0.042998   0.012235  -0.022838
    19  H    0.032639  -0.031380  -0.006278   0.389730  -0.085500   0.041717
    20  C   -0.712284   0.357599  -1.305586  -0.305942  -2.593207  -0.818885
    21  C    0.127001  -0.729275  -0.409562   0.158634   0.800397   1.223598
    22  C    0.151757  -0.413876  -0.173184  -0.021807   0.396455  -0.305496
    23  H   -0.000039  -0.000036  -0.005939  -0.000048  -0.000306   0.005066
    24  H   -0.000019  -0.000336   0.001442  -0.000007  -0.000012  -0.000503
    25  H   -0.004455   0.101070   0.003388   0.003019   0.000041   0.005619
    26  H   -0.000515  -0.000031   0.000749  -0.000017   0.000058  -0.000183
    27  H   -0.000008  -0.000029  -0.000467  -0.000003  -0.000006   0.000149
    28  C   -0.731437  -4.348910  -1.986923   0.923924   0.248035  -2.391748
    29  C   -0.268341  -0.159917  -0.416806   0.055037  -0.114701   0.080011
    30  H   -0.041915   0.098329   0.050739  -0.012737   0.004349  -0.003475
    31  H    0.026749  -0.080244  -0.009428   0.007532   0.003053  -0.008641
    32  C    0.010125   0.007765  -0.641182  -0.131095  -1.557260   0.201494
    33  C   -0.149802   0.198414   1.154494   0.030236   0.416492  -1.291458
    34  H   -0.002120   0.017068  -0.011410   0.016435  -0.130716   0.017382
    35  H   -0.002099   0.001880  -0.003689  -0.001167  -0.051172   0.008009
    36  H    0.000463  -0.001342   0.001791   0.000469   0.014970  -0.018116
    37  H   -0.000099   0.000344   0.007828   0.000035   0.000999  -0.007038
               7          8          9         10         11         12
     1  C   -1.349196  -0.166997  -0.481122  -0.354560  -0.078581  -0.104100
     2  C    0.893638   0.068759   0.191740   0.320865   0.027258  -0.034758
     3  C   -0.348149   0.207169  -0.342316  -0.394272   0.117451  -0.850848
     4  C   -0.516278  -0.112565  -0.323713  -0.122873   0.008077  -0.136194
     5  C   -0.172537   0.512470  -0.414844  -0.730830  -0.074302   0.113827
     6  C   -0.659984   0.184783   0.358771   0.148855  -0.211376   0.232445
     7  C    8.343898  -0.723866  -0.039900   1.266042   0.776134  -1.037759
     8  C   -0.723866   7.435279   0.267814  -0.276697  -0.021353   0.648192
     9  C   -0.039900   0.267814   7.313626  -0.637186  -0.737491  -0.514821
    10  C    1.266042  -0.276697  -0.637186  10.211503   1.541486  -1.159787
    11  C    0.776134  -0.021353  -0.737491   1.541486   7.389515   0.681095
    12  C   -1.037759   0.648192  -0.514821  -1.159787   0.681095  13.048073
    13  C    1.575961  -0.911375  -0.286238  -0.349137   0.657818  -1.088850
    14  C   -0.425811  -0.941673   0.264829  -0.313292  -1.656070  -2.887074
    15  C   -0.246186  -0.163146  -0.076922  -0.393156  -0.513354  -0.809110
    16  C   -0.309985  -0.253545  -0.286614  -0.506761  -0.552753  -1.069045
    17  C   -0.991715   0.818470  -0.034084  -0.171799  -0.195715   2.235903
    18  H   -0.007706   0.000713   0.003540   0.000191   0.000073  -0.000730
    19  H   -0.003146   0.002247  -0.015320  -0.000811  -0.000057   0.000108
    20  C    0.333990  -0.881388   1.195102   0.353888  -0.030173   0.012901
    21  C   -0.203538  -0.320561   0.836986   0.621011  -0.366478   0.278828
    22  C   -1.104661   0.378825   1.647777  -2.461296  -1.708428  -0.972810
    23  H   -0.021073   0.036506  -0.010060  -0.040956   0.358522  -0.038315
    24  H    0.004364   0.000616   0.001266   0.054572   0.106073  -0.141799
    25  H    0.001676   0.000131   0.000114   0.000022   0.000016   0.000302
    26  H   -0.011133   0.003906  -0.000344  -0.000714   0.001494   0.016569
    27  H   -0.000155   0.002812   0.000185   0.004915   0.008769   0.046401
    28  C    1.219173  -0.596448  -0.127733   0.315928   0.137992  -0.538274
    29  C    0.206183  -0.100614  -0.042268   0.002169   0.023323  -0.094532
    30  H    0.015182   0.004164   0.003007  -0.001238  -0.001330   0.002923
    31  H   -0.000640   0.000094  -0.000041   0.000024  -0.000028  -0.000216
    32  C    0.184374  -0.883709  -0.304197   0.403065   0.061978   0.096624
    33  C   -0.413584   1.717277  -1.376381  -1.457112   0.296230  -0.749718
    34  H    0.004963  -0.000394   0.007465   0.003877   0.000295   0.000133
    35  H    0.004135  -0.018090   0.041391   0.011446   0.000282  -0.000345
    36  H   -0.002819   0.003545   0.037424  -0.039324  -0.005696   0.002035
    37  H   -0.004889   0.024729  -0.012965  -0.104984   0.063900   0.018634
              13         14         15         16         17         18
     1  C    0.040536   0.055140  -0.020649   0.002433  -0.085413   0.378169
     2  C    0.082456   0.066688  -0.015852   0.109195   0.323917  -0.187206
     3  C    0.731711   0.349338   0.047832  -0.013931  -0.396220  -0.014342
     4  C   -0.007108  -0.019214   0.001668  -0.004478  -0.002480   0.042998
     5  C   -0.097818   0.038480   0.004233   0.114960  -0.017444   0.012235
     6  C   -0.334561  -0.008895  -0.075370  -0.086291   0.228878  -0.022838
     7  C    1.575961  -0.425811  -0.246186  -0.309985  -0.991715  -0.007706
     8  C   -0.911375  -0.941673  -0.163146  -0.253545   0.818470   0.000713
     9  C   -0.286238   0.264829  -0.076922  -0.286614  -0.034084   0.003540
    10  C   -0.349137  -0.313292  -0.393156  -0.506761  -0.171799   0.000191
    11  C    0.657818  -1.656070  -0.513354  -0.552753  -0.195715   0.000073
    12  C   -1.088850  -2.887074  -0.809110  -1.069045   2.235903  -0.000730
    13  C    7.911376  -0.710147   0.479023   0.738750  -1.900444  -0.000296
    14  C   -0.710147  11.563943   0.454761   1.679447  -1.425360  -0.000103
    15  C    0.479023   0.454761   6.755190  -0.088716   0.796699   0.000028
    16  C    0.738750   1.679447  -0.088716   9.901693  -2.844887   0.000536
    17  C   -1.900444  -1.425360   0.796699  -2.844887  10.296883   0.000305
    18  H   -0.000296  -0.000103   0.000028   0.000536   0.000305   0.561445
    19  H    0.000158   0.000009  -0.000001  -0.000184  -0.000015  -0.009339
    20  C   -0.092180  -0.020361   0.000168   0.099280   0.012820   0.004804
    21  C   -0.416740  -0.104093  -0.016395   0.067665   0.060373   0.000061
    22  C   -0.741930   0.186043  -0.190948  -0.205650   0.035331  -0.000112
    23  H   -0.031527   0.016430   0.008637   0.002076   0.006297   0.000000
    24  H    0.024887   0.336439  -0.031852  -0.011282  -0.021895   0.000000
    25  H    0.001745  -0.000215  -0.000401   0.001125   0.000796   0.000176
    26  H    0.025025  -0.031651  -0.002522  -0.102464   0.439517   0.000000
    27  H   -0.013143  -0.045904   0.368288   0.009746  -0.039344   0.000000
    28  C    0.361894  -0.097414   0.044092   0.005577  -0.708900   0.110194
    29  C    0.154772  -0.008515  -0.014701  -0.097332  -0.331501   0.011561
    30  H    0.017486   0.004559  -0.005001   0.021898  -0.039507  -0.000316
    31  H   -0.000236   0.000055   0.000042  -0.002526   0.000440   0.001600
    32  C   -0.088756   0.017900   0.002534  -0.007750  -0.008459  -0.001888
    33  C    0.405073  -0.175627  -0.007138  -0.226821  -0.044927   0.000164
    34  H   -0.000249   0.000005   0.000001   0.000020  -0.000005  -0.000003
    35  H   -0.000095  -0.000039  -0.000001   0.000092   0.000007   0.000000
    36  H   -0.000438   0.000432  -0.000014   0.000061   0.000007   0.000000
    37  H    0.011741   0.006858   0.000969  -0.000619  -0.000303   0.000000
              19         20         21         22         23         24
     1  C    0.032639  -0.712284   0.127001   0.151757  -0.000039  -0.000019
     2  C   -0.031380   0.357599  -0.729275  -0.413876  -0.000036  -0.000336
     3  C   -0.006278  -1.305586  -0.409562  -0.173184  -0.005939   0.001442
     4  C    0.389730  -0.305942   0.158634  -0.021807  -0.000048  -0.000007
     5  C   -0.085500  -2.593207   0.800397   0.396455  -0.000306  -0.000012
     6  C    0.041717  -0.818885   1.223598  -0.305496   0.005066  -0.000503
     7  C   -0.003146   0.333990  -0.203538  -1.104661  -0.021073   0.004364
     8  C    0.002247  -0.881388  -0.320561   0.378825   0.036506   0.000616
     9  C   -0.015320   1.195102   0.836986   1.647777  -0.010060   0.001266
    10  C   -0.000811   0.353888   0.621011  -2.461296  -0.040956   0.054572
    11  C   -0.000057  -0.030173  -0.366478  -1.708428   0.358522   0.106073
    12  C    0.000108   0.012901   0.278828  -0.972810  -0.038315  -0.141799
    13  C    0.000158  -0.092180  -0.416740  -0.741930  -0.031527   0.024887
    14  C    0.000009  -0.020361  -0.104093   0.186043   0.016430   0.336439
    15  C   -0.000001   0.000168  -0.016395  -0.190948   0.008637  -0.031852
    16  C   -0.000184   0.099280   0.067665  -0.205650   0.002076  -0.011282
    17  C   -0.000015   0.012820   0.060373   0.035331   0.006297  -0.021895
    18  H   -0.009339   0.004804   0.000061  -0.000112   0.000000   0.000000
    19  H    0.545632  -0.000708   0.007378   0.000251   0.000000   0.000000
    20  C   -0.000708  11.178268  -1.638532  -0.152484   0.000294   0.000003
    21  C    0.007378  -1.638532  10.988306  -0.557130   0.015713  -0.000033
[...]
 -0.00057789,0.00000096,0.00000063,-0.00015423,0.00023472,-0.00064942,-
 0.05915072,0.00011804,-0.00016133,-0.06030406,-0.00002629,-0.00002558,
 0.00392654,-0.00000015,-0.00000038,0.00009108,0.00000002,-0.00000014,0
 .00000724,-0.00000003,-0.00000011,-0.00002070,0.00000019,-0.00000005,0
 .00001223,0.00000002,0.00000018,-0.00000607,-0.00000023,-0.00000552,0.
 00017291,-0.00000270,0.00000145,0.00000899,-0.00000060,-0.00000047,-0.
 00000871,-0.00000005,0.00000016,-0.00000559,-0.00015043,0.00126216,0.1
 3131012,0.00267556,0.00139453,0.00000192,-0.00178819,0.00158913,0.0000
 0471,0.00086091,-0.00146038,-0.00000423,-0.00051380,-0.00351397,-0.000
 00852,0.00351793,0.00628520,0.00001213,-0.00330606,-0.00161359,0.00000
 273,0.00529664,0.00689802,0.00001383,-0.02392439,0.00451068,0.00001997
 ,0.04016744,-0.00788040,-0.00003694,-0.05049066,-0.03529633,-0.0000543
 6,0.01999093,0.00474047,0.00000441,-0.00629950,-0.01106715,-0.00002291
 ,-0.00860670,0.00225001,0.00000871,0.00546859,0.00172110,0.00000151,-0
 .00007050,-0.00517149,-0.00001197,0.00274666,0.00210747,0.00000398,-0.
 00360832,0.00218702,0.00000661,0.00007240,-0.00000598,-0.00000001,-0.0
 0004682,-0.00008683,-0.00000015,-0.00568341,-0.01160456,-0.00002109,-0
 .12478506,0.02441815,0.00009091,-0.37447935,0.04718547,0.00026433,0.00
 002442,0.00038461,0.00000063,-0.00000945,0.00011042,0.00000024,0.00001
 481,0.00001741,0.00000015,-0.00008802,0.00004050,0.00000009,-0.0000672
 2,-0.00011623,-0.00000022,-0.00030582,-0.00024857,-0.00000075,0.000190
 70,0.00015246,0.00000009,0.00006552,0.00006858,0.00000030,0.00001783,-
 0.00007050,-0.00000015,-0.01700413,0.03848368,0.00009688,0.69434391,-0
 .00111335,-0.00053273,-0.00000121,0.00003941,-0.00052633,-0.00000071,0
 .00097828,-0.00164582,-0.00000309,0.00090005,0.00180828,0.00000559,-0.
 00499667,-0.00496423,-0.00000622,-0.00290519,-0.00304164,-0.00002175,-
 0.00547328,-0.00415688,-0.00000679,0.01466463,-0.00002806,-0.00000095,
 -0.01543459,-0.05079923,-0.00012061,-0.01291165,0.02334723,0.00005024,
 -0.01121038,-0.01004937,-0.00002715,0.00250825,0.00792195,0.00001675,0
 .00699377,-0.00141044,-0.00000612,-0.00376697,-0.00194616,-0.00000161,
 0.00024189,0.00373101,0.00000826,-0.00277650,-0.00191376,-0.00000378,0
 .00279870,-0.00205913,-0.00000585,0.00000678,0.00002545,0.00000013,0.0
 0000907,0.00001382,-0.00000019,-0.00117499,0.01195210,0.00001769,0.048
 67466,-0.21919407,-0.00038707,0.00180157,-0.12589172,-0.00015411,-0.00
 033377,-0.00011678,0.00000033,0.00004075,-0.00004832,-0.00000010,0.000
 00844,-0.00000007,-0.00000002,0.00005706,-0.00002388,0.00000002,-0.000
 03368,0.00002104,-0.00000006,0.00003302,-0.00003758,0.00000006,0.00000
 593,-0.00001492,-0.00000008,0.00001900,0.00000846,0.,0.00000236,-0.000
 01298,0.,0.01707032,-0.00809356,-0.00002765,0.06354744,0.63004494,-0.0
 0000384,-0.00000238,0.00017810,0.00000094,-0.00000173,-0.00014966,0.00
 000150,-0.00000141,-0.00059947,0.00000187,0.00000789,-0.00076283,-0.00
 001378,-0.00001196,-0.00113376,-0.00000077,-0.00002323,0.00709962,-0.0
 0001534,-0.00001197,-0.00039920,0.00004431,0.00000295,-0.00222833,-0.0
 0005315,-0.00012239,0.00542578,-0.00000304,0.00006093,0.00394136,-0.00
 003367,-0.00003421,0.00400987,0.00000903,0.00002305,0.00020918,0.00002
 027,-0.00000445,0.00001608,-0.00001157,-0.00000385,-0.00061472,0.00000
 067,0.00001079,0.00012657,-0.00000773,-0.00000573,0.00012623,0.0000082
 0,-0.00000570,-0.00003608,-0.00000009,0.00000014,-0.00002957,0.0000001
 0,-0.00000013,0.00008933,0.00000341,0.00002238,0.00478827,0.00014455,-
 0.00037422,-0.06015057,0.00016214,-0.00017653,-0.05818081,-0.00000083,
 -0.00000012,-0.00014914,0.00000011,-0.00000016,-0.00000379,0.00000002,
 -0.00000003,0.00001259,0.00000017,0.,-0.00003161,-0.00000002,-0.000000
 03,0.00005984,0.00000016,0.00000039,-0.00013480,-0.00000005,-0.0000001
 2,0.00002978,-0.00000001,-0.00000004,0.00000806,0.00000002,0.00000002,
 0.00000554,0.00004841,-0.00004012,-0.00007301,-0.00013976,0.00110197,0
 .13171998,-0.00004217,-0.00028081,-0.00000075,0.00004765,0.00003167,-0
 .00000002,-0.00009774,0.00090396,0.00000268,0.00109071,0.00091388,0.00
 000023,-0.01676063,0.00728935,0.00002831,-0.00140982,-0.00411276,-0.00
 000661,-0.00039792,-0.00014043,0.,-0.00019505,0.00010768,0.00000005,0.
 00070044,-0.00044885,-0.00000208,0.00000945,-0.00006747,-0.00000009,-0
 .00002134,-0.00000448,0.,-0.00003086,0.00003255,0.00000009,0.00006895,
 0.00011073,0.00000003,-0.00000623,0.00000325,0.00000004,0.00000045,0.0
 0001102,0.00000003,-0.00002538,-0.00001589,-0.00000003,0.00000549,-0.0
 0002689,-0.00000006,-0.00003213,-0.00004966,-0.00000004,0.00004738,-0.
 00094808,-0.00000220,-0.31765739,0.06317272,0.00031129,0.00158438,0.00
 103146,0.00000640,0.00004469,0.00020924,0.00000018,-0.00000879,0.00000
 565,0.00000002,-0.00000504,0.00000523,0.00000001,-0.00000248,-0.000011
 94,-0.00000003,-0.00000207,-0.00000305,0.,-0.00000760,0.00000112,0.,0.
 00009857,-0.00005197,-0.00000009,-0.00006500,-0.00005213,-0.00000009,0
 .00000054,0.00000800,0.00000001,0.00000398,-0.00000095,0.,-0.00468904,
 -0.00038812,0.00000385,-0.00026612,-0.00022577,-0.00000008,0.33707982,
 0.00046627,0.00001506,0.00000014,-0.00023005,0.00031466,0.00000093,-0.
 00069170,0.00061254,0.00000039,-0.00001737,0.00150506,0.00000936,-0.02
 238793,0.00947611,0.00002970,-0.00320691,-0.00354286,-0.00001659,-0.00
 031526,-0.00016644,-0.00000099,-0.00017523,0.00015849,0.00000178,-0.00
 024885,-0.00088569,0.00000038,-0.00008033,-0.00016325,-0.00000072,-0.0
 0003003,0.00004142,0.00000008,-0.00002738,0.00000250,0.00000003,0.0000
 1218,0.00011837,0.00000104,-0.00000663,0.00002125,-0.00000006,0.000003
 05,0.00000741,0.,0.00000289,-0.00000858,-0.00000003,0.00001276,0.00000
 192,0.00000001,0.00001305,-0.00001026,-0.00000028,0.00067379,-0.000323
 28,-0.00000185,0.06101383,-0.07260465,-0.00012411,0.00051815,-0.005527
 91,-0.00003280,0.00017828,-0.00046378,0.,-0.00000367,-0.00000277,0.,-0
 .00000403,-0.00000145,0.,0.00000481,-0.00000486,0.00000001,-0.00000022
 ,0.00000093,0.,0.00000224,0.00000091,0.,0.00006437,-0.00000853,-0.0000
 0020,-0.00000577,-0.00002458,-0.00000006,0.00001654,0.00000619,0.00000
 004,-0.00000020,-0.00000782,-0.00000003,0.03064344,-0.00428286,-0.0000
 3614,0.00118858,0.00063846,-0.00000034,-0.06731061,0.07427962,0.000001
 22,0.00000058,-0.00014361,-0.00000070,0.00000087,-0.00003472,-0.000001
 21,-0.00000079,0.00064189,-0.00000223,0.00000882,-0.00243342,-0.000040
 97,0.00001272,0.00240501,-0.00000445,-0.00001573,0.00423919,-0.0000004
 4,-0.00000096,0.00029951,-0.00000054,0.00000157,-0.00056106,-0.0000016
 6,0.00000040,-0.00099671,-0.00000008,-0.00000070,0.00016143,-0.0000001
 0,0.00000006,0.00000474,-0.00000005,0.00000002,0.00000011,-0.00000009,
 0.00000100,-0.00032752,0.,-0.00000008,0.00005043,0.,0.00000001,0.00000
 712,0.,-0.00000002,-0.00000143,0.00000004,0.00000002,-0.00000343,0.000
 00011,-0.00000028,0.00011071,0.00000177,-0.00000092,0.00028689,0.00030
 613,-0.00012599,-0.03467123,0.00000510,-0.00003316,0.00844304,0.000000
 11,-0.00000017,-0.00048061,0.,0.,-0.00000111,0.,0.,-0.00000274,0.00000
 001,0.,-0.00000485,0.,0.,-0.00000064,0.,0.,-0.00000195,0.00000014,-0.0
 0000007,0.00006138,0.00000004,-0.00000006,-0.00000716,0.00000005,0.000
 00002,-0.00000463,0.,-0.00000003,0.00000938,0.00007638,-0.00001771,0.0
 0355858,0.00000337,0.00000053,0.00047023,-0.00033807,0.00015571,0.0243
 2822,0.00016963,0.00008450,-0.00000026,-0.00011928,0.00015340,0.000000
 53,-0.00011384,-0.00022816,-0.00000091,0.00036141,-0.00000271,0.000000
 08,0.00038523,0.00247867,0.00001063,0.00004296,0.00089346,0.00000162,-
 0.00057989,0.00014994,0.00000062,0.00008523,-0.00155142,-0.00000316,-0
 .00546404,0.00320753,0.00001291,0.00012925,-0.00003588,-0.00000018,-0.
 00000169,0.00005812,0.00000014,-0.00001892,0.00001993,0.00000005,0.000
 08552,-0.00017717,-0.00000053,0.00001016,-0.00001609,-0.00000004,-0.00
 003506,0.00001395,0.00000004,-0.00008254,0.00001399,0.00000005,0.00000
 293,-0.00002339,-0.00000005,0.00003950,0.00002632,0.00000002,-0.000001
 30,-0.00001260,0.00000006,0.00856350,0.00776296,0.00001490,-0.01586039
 ,-0.02248283,-0.00004132,-0.00014086,0.00026628,0.00000062,-0.00003738
 ,0.00001054,0.00000005,-0.00000695,0.00000665,0.00000002,-0.00000226,-
 0.00000307,0.00000002,-0.00000862,-0.00000324,0.,-0.00000609,-0.000000
 46,0.,0.00000315,0.00000784,0.00000002,0.00000779,-0.00001200,-0.00000
 002,0.00000591,0.00000903,0.00000004,0.00000390,-0.00000313,-0.0000000
 3,-0.20302530,-0.13843097,-0.00022476,0.00162917,-0.00097889,-0.000004
 34,0.00097443,-0.00020745,-0.00000424,0.21324380,0.00001083,-0.0005066
 5,0.00000024,0.00018998,-0.00010586,-0.00000078,0.00000197,0.00017339,
 0.00000201,-0.00132128,-0.00000132,-0.00000029,0.00316585,-0.00406344,
 -0.00003149,0.00054767,-0.00024327,0.00000113,0.00008439,-0.00013910,-
 0.00000034,0.00043816,0.00049056,-0.00000032,0.00234587,0.00030726,-0.
 00001154,0.00001686,0.00020276,0.00000067,-0.00006446,-0.00003912,-0.0
 0000015,0.00002037,0.00005378,0.00000015,0.00005715,0.00006799,0.00000
 034,-0.00002182,-0.00001595,-0.00000002,0.00000130,0.00001925,0.000000
 06,-0.00000967,-0.00001739,0.00000005,0.00001202,-0.00001597,-0.000000
 08,-0.00012097,-0.00008600,-0.00000004,0.00004481,-0.00003156,-0.00000
 045,-0.02328582,-0.01754521,-0.00003456,0.00698142,0.00945773,0.000012
 30,-0.00031972,-0.00002475,0.00000035,0.00000062,0.00000255,-0.0000000
 1,-0.00000078,0.00000359,0.,-0.00000984,-0.00000220,-0.00000006,0.0000
 0139,-0.00000243,-0.00000002,-0.00000525,0.00000120,0.,0.00001636,0.00
 000994,-0.00000016,-0.00002617,-0.00003109,0.,-0.00001436,-0.00000693,
 -0.00000003,0.00000051,0.00001433,0.00000010,-0.13618881,-0.18788727,-
 0.00027742,-0.00014525,0.00101469,0.00000751,0.00026264,0.00088056,0.0
 0001455,0.14794464,0.19818400,-0.00000042,0.00000034,-0.00064515,0.000
 00061,-0.00000058,0.00017504,-0.00000034,0.00000206,-0.00069266,-0.000
 00288,-0.00000107,0.00046216,0.00001202,-0.00003095,0.00864069,0.00000
 071,0.00000118,-0.00084478,0.00000054,-0.00000043,-0.00000442,0.000001
 31,0.00000088,0.00053514,0.00001101,-0.00001267,0.00467386,-0.00000020
 ,0.00000066,-0.00009940,-0.00000007,-0.00000017,0.00003503,0.,0.000000
 11,-0.00001128,0.00000005,0.00000048,-0.00008719,-0.00000003,0.,-0.000
 00484,0.,0.00000002,-0.00000589,0.00000002,0.00000004,-0.00003661,0.00
 000002,-0.00000004,0.00001315,-0.00000030,-0.00000002,-0.00004791,0.00
 000019,-0.00000046,0.00015491,-0.00005720,-0.00005310,0.00312555,0.000
 02814,0.00002924,0.00237640,-0.00000060,0.00000009,-0.00010822,0.00000
 003,-0.00000002,0.00000909,0.,0.,0.00000386,-0.00000001,-0.00000005,0.
 00002182,0.00000001,-0.00000002,0.00000704,0.,0.,0.00000336,-0.0000000
 4,-0.00000034,0.00008954,-0.00000012,0.00000002,-0.00001293,-0.0000000
 3,-0.00000004,0.00000252,0.,0.00000008,-0.00003384,-0.00022028,-0.0002
 7536,-0.03463954,-0.00000265,0.00000792,-0.00218281,-0.00000312,0.0000
 1481,-0.00543012,0.00023474,0.00031897,0.02425633,0.00001951,0.0000220
 0,0.00000001,0.00008030,0.00003857,0.00000003,-0.00018367,0.00014985,0
 .00000047,-0.00002183,-0.00004750,-0.00000006,0.00019749,-0.00000113,-
 0.00000014,0.00065060,0.00048723,0.00000092,0.00022194,0.00006982,-0.0
 0000023,-0.00040660,0.00035259,0.00000066,-0.00085356,0.00309907,0.000
 00950,-0.00463671,0.00252609,0.00001284,0.00014057,-0.00139917,-0.0000
 0307,-0.00053402,0.00001680,-0.00000029,-0.00013523,0.00003160,0.00000
 023,0.00009228,-0.00013657,-0.00000040,-0.00007637,-0.00007934,-0.0000
 0010,0.00007903,0.00005043,0.00000012,-0.00008602,0.00004950,0.0000001
 5,-0.00000052,-0.00000546,0.,0.00000122,0.00000762,0.00000002,-0.00004
 625,-0.00028126,-0.00000070,0.01119657,0.01130320,0.00002121,-0.014980
 30,-0.02700993,-0.00005194,-0.00003508,0.00004332,0.00000027,0.0000023
 0,0.00001246,0.00000001,-0.00000170,0.00000150,0.,-0.00000439,-0.00000
 397,-0.00000002,-0.00001606,-0.00001674,-0.00000002,-0.00001181,0.0000
 1933,0.00000002,0.00000500,-0.00000511,0.,0.00000099,0.00000460,0.0000
 0002,0.00000246,-0.00000298,0.,0.00122871,-0.00026695,-0.00000216,-0.1
 4641531,-0.12727896,-0.00023297,0.00000150,-0.00001970,0.,-0.00019541,
 -0.00058012,-0.00000114,0.15388788,0.00001607,-0.00005287,-0.00000007,
 -0.00016954,0.00003437,0.00000028,0.00021972,-0.00049862,-0.00000135,0
 .00003892,0.00002101,-0.00000009,0.00004633,0.00012776,0.00000038,-0.0
 0149945,-0.00008563,0.00000010,-0.00022567,-0.00013220,0.00000111,0.00
 079238,0.00031743,0.00000180,0.00401577,-0.00446183,-0.00002140,0.0017
 6878,0.00099837,-0.00002007,-0.00010864,0.00017629,-0.00000035,0.00007
 566,0.00013218,0.00000257,0.00018169,-0.00001049,-0.00000048,-0.000045
 11,-0.00000741,0.00000018,-0.00002903,0.00006838,-0.00000004,-0.000069
 05,-0.00003497,-0.00000024,0.00005663,-0.00002341,-0.00000005,0.000005
 36,-0.00000909,-0.00000003,0.00001708,-0.00003410,-0.00000010,0.000263
 80,-0.00017120,-0.00000018,-0.01813288,-0.01741016,-0.00003601,0.00420
 356,0.00562530,0.00000214,-0.00001824,0.00000162,-0.00000064,-0.000007
 29,0.00000372,0.00000006,-0.00000567,-0.00001089,-0.00000001,-0.000001
 66,-0.00000386,0.00000003,-0.00000197,0.00000357,-0.00000003,0.0000548
 3,-0.00004317,-0.00000013,-0.00003810,-0.00002897,-0.00000004,-0.00000
 598,0.00000013,0.,0.00000365,0.00000599,0.,-0.00098401,0.00144888,0.00
 000780,-0.12995624,-0.24390629,-0.00040854,0.00003793,-0.00004278,-0.0
 0000030,0.00103190,-0.00012055,-0.00000129,0.13863245,0.25708782,0.000
 00001,-0.00000009,-0.00002675,-0.00000046,0.00000025,-0.00006861,0.000
 00052,-0.00000122,0.00000046,0.00000015,-0.00000002,0.00004978,-0.0000
 0006,0.00000031,-0.00004993,-0.00000347,-0.00000107,0.00031756,-0.0000
 0091,0.00000099,-0.00057644,0.00000181,0.00000189,-0.00063862,0.000011
 14,-0.00002080,0.00385751,0.00001116,-0.00002061,0.00946912,-0.0000001
 8,0.00000041,0.00035911,0.00000011,0.00000266,-0.00101079,0.00000061,-
 0.00000047,0.00017015,-0.00000021,0.00000025,-0.00008219,0.00000003,0.
 ,0.00009478,-0.00000019,-0.00000032,0.00008656,0.00000018,-0.00000006,
 -0.00001828,0.00000001,-0.00000001,-0.00000069,0.00000004,-0.00000009,
 0.00000295,0.00000058,0.00000024,-0.00015013,-0.00004593,-0.00005023,0
 .00264084,0.00001830,0.00001794,0.00375772,0.00000009,-0.00000069,0.00
 028998,-0.00000003,0.00000005,-0.00002147,-0.00000001,-0.00000002,-0.0
 0000017,0.,0.00000003,-0.00001591,0.00000001,-0.00000002,0.00001744,0.
 00000013,-0.00000010,0.00000147,-0.00000008,-0.00000008,0.00000365,-0.
 00000001,0.,0.00000071,0.,0.00000001,0.00000221,-0.00000373,0.00000717
 ,-0.00168772,-0.00023825,-0.00041049,-0.03535282,0.00000013,-0.0000002
 7,0.00007950,0.00000255,-0.00000039,0.00017325,0.00024971,0.00045908,0
 .02428428,0.00007628,-0.00000065,-0.00000005,0.00005240,0.00005836,-0.
 00000001,-0.00013632,-0.00029373,-0.00000052,0.00002523,-0.00007730,-0
 .00000020,-0.00013103,-0.00004631,0.00000004,0.00021171,-0.00009495,-0
 .00000059,0.00059990,-0.00059152,-0.00000132,-0.00265223,-0.00319644,-
 0.00000443,-0.00055427,-0.00041727,-0.00000114,0.01084636,-0.01834454,
 -0.00004574,0.00143150,-0.00002768,-0.00000157,0.00003329,0.00034915,0
 .00000074,0.00026905,-0.00001262,-0.00000015,-0.00008212,-0.00002262,0
 .,0.00002522,0.00006982,0.00000015,-0.00006831,0.00001792,0.00000007,0
 .00003387,-0.00006373,-0.00000017,0.00001333,0.00000199,0.00000004,-0.
 00000578,-0.00000177,0.,-0.00049564,0.00007554,0.00000018,-0.00548968,
 -0.00090466,0.00000521,-0.09702180,0.09586663,0.00024865,-0.00019985,0
 .00064750,0.00000171,-0.00002007,-0.00000576,0.,0.00000250,0.00000151,
 0.00000001,-0.00000179,0.00000380,0.00000002,0.00000340,0.00000368,0.,
 -0.00001460,0.00000776,0.00000003,0.00001575,0.00001203,0.,0.00000700,
 0.00000531,0.00000002,-0.00000044,-0.00000309,0.,0.00047221,0.00133712
 ,0.00000300,-0.00932458,0.03021330,0.00007516,-0.00003562,0.00015510,0
 .00000037,-0.00004365,-0.00003049,0.00000002,0.00083252,-0.00016396,-0
 .00000375,0.10132630,0.00007169,-0.00001782,0.,0.00005503,0.00012033,0
 .00000086,-0.00014383,-0.00048329,-0.00000169,0.00000717,-0.00007260,-
 0.00000024,-0.00012233,0.00002248,-0.00000022,0.00019603,-0.00015827,0
 .00000083,0.00106194,-0.00007805,-0.00000190,-0.00432343,-0.00244965,-
 0.00001177,-0.00053052,0.00052018,0.00000357,0.01135255,-0.01820827,-0
 .00005191,0.00105681,0.00121168,0.00000675,-0.00040060,0.00002751,0.00
 000063,0.00003467,0.00007310,0.00000018,0.00009629,-0.00006269,-0.0000
 0023,-0.00001438,-0.00007360,-0.00000017,-0.00004161,0.00009143,0.0000
 0013,-0.00008831,-0.00004395,-0.00000002,0.00001701,-0.00001249,-0.000
 00023,0.00000671,-0.00000667,-0.00000003,0.00012729,0.00011036,0.00000
 157,-0.00014987,0.00159310,-0.00001698,0.09819042,-0.29321554,-0.00063
 718,-0.00103204,0.00002285,-0.00000023,-0.00002408,0.00001565,0.,-0.00
 000325,-0.00000384,-0.00000001,-0.00000866,0.00000096,-0.00000002,-0.0
 0001461,-0.00000540,0.,0.00000854,0.00000278,0.,-0.00000738,-0.0000155
 7,0.,0.00000275,0.00001007,0.00000002,0.00000416,-0.00000245,0.,-0.000
 06169,-0.00010830,-0.00000121,-0.00104344,-0.00011346,-0.00000861,0.00
 000178,-0.00000912,0.00000009,0.00002980,0.00000249,-0.00000030,0.0002
 1685,0.00103567,0.00001576,-0.10452745,0.31028036,0.00000018,0.0000000
 3,-0.00003373,-0.00000006,0.00000094,-0.00026941,-0.00000009,-0.000001
 59,0.00026145,-0.00000003,-0.00000024,0.00001644,-0.00000012,-0.000000
 23,0.00016255,0.00000004,0.00000097,-0.00055107,0.00000228,-0.00000124
 ,0.00060474,-0.00000665,-0.00001217,0.00349016,-0.00000154,0.00000348,
 -0.00095701,0.00002237,-0.00003698,0.00231080,0.00000068,0.00000696,-0
 .00190602,-0.00000095,0.00000044,-0.00016287,0.00000001,0.00000015,-0.
 00001534,0.00000020,-0.00000019,0.00001725,-0.00000004,-0.00000015,0.0
 0000034,-0.00000007,0.00000010,0.00004007,-0.00000020,-0.00000006,-0.0
 0001748,0.00000007,-0.00000024,0.00008277,0.00000002,-0.00000002,0.000
 00047,0.00000010,0.00000157,-0.00061057,0.00000692,-0.00001679,0.00910
 452,0.00025327,-0.00063643,-0.03438592,-0.00000213,-0.00000092,0.00028
 242,-0.00000003,-0.00000001,0.00002117,0.,-0.00000001,0.00000295,-0.00
 000001,-0.00000003,0.00001092,-0.00000004,0.,-0.00000346,0.00000001,0.
 00000008,-0.00002692,-0.00000002,-0.00000005,0.00000291,0.,0.,0.000006
 30,0.,0.,0.00000155,-0.00000017,-0.00000171,0.00044741,0.00000447,-0.0
 0002386,0.00389658,-0.00000001,0.00000004,-0.00005044,0.00000016,-0.00
 000028,0.00012886,-0.00000290,0.00001592,-0.00595855,-0.00027575,0.000
 70255,0.02405616\\0.00000078,-0.00000100,0.00000048,-0.00000027,0.0000
 0221,-0.00000041,0.00000080,0.00000023,0.00000203,-0.00000258,-0.00000
 038,-0.00000002,0.00000127,-0.00000141,-0.00000104,-0.00000160,-0.0000
 0088,0.00000033,0.00000032,-0.00000004,-0.00000152,0.00000043,-0.00000
 079,-0.00000247,0.00000071,-0.00000068,-0.00000236,0.00000157,0.000001
 66,0.00000013,0.00000099,0.00000074,0.00000082,-0.00000091,0.00000010,
 0.00000037,0.00000040,0.00000021,0.00000139,0.00000247,0.00000178,-0.0
 0000011,0.00000063,0.00000069,0.00000016,-0.00000021,0.00000113,-0.000
 00055,-0.00000080,0.00000335,0.00000011,-0.00000281,-0.00000170,0.0000
 0012,-0.00000127,-0.00000174,0.00000017,-0.00000042,-0.00000161,0.0000
 0089,0.00000019,-0.00000179,0.00000021,0.00000077,-0.00000137,0.000000
 81,0.00000158,0.00000102,-0.00000016,0.00000085,0.00000143,-0.00000011
 ,-0.00000165,0.00000134,-0.00000007,-0.00000050,0.00000179,-0.00000006
 ,0.00000004,0.00000215,-0.00000008,-0.00000229,-0.00000284,-0.00000015
 ,-0.00000165,0.00000177,-0.00000041,-0.00000075,0.00000014,0.00000041,
 -0.00000077,0.00000088,0.00000033,0.00000051,-0.00000019,0.00000054,0.
 00000071,0.00000012,0.00000075,-0.00000041,-0.00000156,-0.00000004,0.0
 0000072,-0.00000242,-0.00000010,0.00000198,-0.00000156,-0.00000014,0.0
 0000118,-0.00000079,-0.00000026\\\@


 LOGIC IS A SYSTEMATIC METHOD OF COMING TO THE
 WRONG CONCLUSION WITH CONFIDENCE.
 Job cpu time:       1 days 14 hours 49 minutes 41.5 seconds.
 File lengths (MBytes):  RWF=   4395 Int=      0 D2E=      0 Chk=     37 Scr=      1
 Normal termination of Gaussian 09 at Sat Feb  1 19:57:05 2020.
