 Entering Gaussian System, Link 0=/share/apps/gaussian16/g16/g16
 Initial command:
 /share/apps/gaussian16/g16/l1.exe "/home/am2145//scratch/3537/Gau-4813.inp" -scrdir="/home/am2145//scratch/3537/"
 Entering Link 1 = /share/apps/gaussian16/g16/l1.exe PID=      4814.
  
 Copyright (c) 1988,1990,1992,1993,1995,1998,2003,2009,2016,
            Gaussian, Inc.  All Rights Reserved.
  
 This is part of the Gaussian(R) 16 program.  It is based on
 the Gaussian(R) 09 system (copyright 2009, Gaussian, Inc.),
 the Gaussian(R) 03 system (copyright 2003, Gaussian, Inc.),
 the Gaussian(R) 98 system (copyright 1998, Gaussian, Inc.),
 the Gaussian(R) 94 system (copyright 1995, Gaussian, Inc.),
 the Gaussian 92(TM) system (copyright 1992, Gaussian, Inc.),
 the Gaussian 90(TM) system (copyright 1990, Gaussian, Inc.),
 the Gaussian 88(TM) system (copyright 1988, Gaussian, Inc.),
 the Gaussian 86(TM) system (copyright 1986, Carnegie Mellon
 University), and the Gaussian 82(TM) system (copyright 1983,
 Carnegie Mellon University). Gaussian is a federally registered
 trademark of Gaussian, Inc.
  
 This software contains proprietary and confidential information,
 including trade secrets, belonging to Gaussian, Inc.
  
 This software is provided under written license and may be
 used, copied, transmitted, or stored only in accord with that
 written license.
  
 The following legend is applicable only to US Government
 contracts under FAR:
  
                    RESTRICTED RIGHTS LEGEND
  
 Use, reproduction and disclosure by the US Government is
 subject to restrictions as set forth in subparagraphs (a)
 and (c) of the Commercial Computer Software - Restricted
 Rights clause in FAR 52.227-19.
  
 Gaussian, Inc.
 340 Quinnipiac St., Bldg. 40, Wallingford CT 06492
  
  
 ---------------------------------------------------------------
 Warning -- This program may not be used in any manner that
 competes with the business of Gaussian, Inc. or will provide
 assistance to any competitor of Gaussian, Inc.  The licensee
 of this program is prohibited from giving any competitor of
 Gaussian, Inc. access to this program.  By using this program,
 the user acknowledges that Gaussian, Inc. is engaged in the
 business of creating and licensing software in the field of
 computational chemistry and represents and warrants to the
 licensee that it is not a competitor of Gaussian, Inc. and that
 it will not use this program in any manner prohibited above.
 ---------------------------------------------------------------
  

 Cite this work as:
 Gaussian 16, Revision A.03,
 M. J. Frisch, G. W. Trucks, H. B. Schlegel, G. E. Scuseria, 
 M. A. Robb, J. R. Cheeseman, G. Scalmani, V. Barone, 
 G. A. Petersson, H. Nakatsuji, X. Li, M. Caricato, A. V. Marenich, 
 J. Bloino, B. G. Janesko, R. Gomperts, B. Mennucci, H. P. Hratchian, 
 J. V. Ortiz, A. F. Izmaylov, J. L. Sonnenberg, D. Williams-Young, 
 F. Ding, F. Lipparini, F. Egidi, J. Goings, B. Peng, A. Petrone, 
 T. Henderson, D. Ranasinghe, V. G. Zakrzewski, J. Gao, N. Rega, 
 G. Zheng, W. Liang, M. Hada, M. Ehara, K. Toyota, R. Fukuda, 
 J. Hasegawa, M. Ishida, T. Nakajima, Y. Honda, O. Kitao, H. Nakai, 
 T. Vreven, K. Throssell, J. A. Montgomery, Jr., J. E. Peralta, 
 F. Ogliaro, M. J. Bearpark, J. J. Heyd, E. N. Brothers, K. N. Kudin, 
 V. N. Staroverov, T. A. Keith, R. Kobayashi, J. Normand, 
 K. Raghavachari, A. P. Rendell, J. C. Burant, S. S. Iyengar, 
 J. Tomasi, M. Cossi, J. M. Millam, M. Klene, C. Adamo, R. Cammi, 
 J. W. Ochterski, R. L. Martin, K. Morokuma, O. Farkas, 
 J. B. Foresman, and D. J. Fox, Gaussian, Inc., Wallingford CT, 2016.
 
 ******************************************
 Gaussian 16:  ES64L-G16RevA.03 25-Dec-2016
                25-Mar-2019 
 ******************************************
 %nprocshared=20
 Will use up to   20 processors via shared memory.
 %mem=100GB
 %chk=7-memb-3b.chk
 -------------------------------------------
 # opt freq b3lyp/6-311+g(d,p) int=grid=fine
 -------------------------------------------
 1/18=20,19=15,26=3,38=1/1,3;
 2/9=110,12=2,17=6,18=5,40=1/2;
 3/5=4,6=6,7=111,11=2,25=1,30=1,71=1,74=-5,75=-4/1,2,3;
 4//1;
 5/5=2,38=5/2;
 6/7=2,8=2,9=2,10=2,28=1/1;
 7//1,2,3,16;
 1/18=20,19=15,26=3/3(2);
 2/9=110/2;
 99//99;
 2/9=110/2;
 3/5=4,6=6,7=111,11=2,25=1,30=1,71=1,74=-5,75=-4/1,2,3;
 4/5=5,16=3,69=1/1;
 5/5=2,38=5/2;
 7//1,2,3,16;
 1/18=20,19=15,26=3/3(-5);
 2/9=110/2;
 6/7=2,8=2,9=2,10=2,19=2,28=1/1;
 99/9=1/99;
 ---------
 7-memb-3b
 ---------
 Symbolic Z-matrix:
 Charge =  0 Multiplicity = 2
 C                    -7.18628   0.3313   -0.02445 
 C                    -5.82005   0.9468    0.05121 
 C                    -4.73363   0.13928  -0.04522 
 C                    -7.44006  -0.99667  -0.08637 
 C                    -6.32971  -1.93479  -0.07938 
 C                    -5.0213   -1.31277  -0.05971 
 C                    -3.24507   0.26944  -0.02836 
 C                    -2.77046  -1.13324   0.06779 
 C                    -3.89577  -2.02986   0.02387 
 C                    -1.50639  -1.59767   0.13843 
 C                    -0.48889  -0.56134   0.12119 
 C                    -0.86505   0.84907  -0.04469 
 C                    -2.31853   1.24817  -0.15361 
 C                     0.07734   1.81539  -0.1014 
 C                    -0.25836   3.22213  -0.27585 
 C                    -2.59131   2.64416  -0.46341 
 C                    -1.52742   3.62926  -0.44789 
 H                    -8.02302   1.02597  -0.00909 
 H                    -8.45295  -1.37986  -0.12502 
 C                    -6.37131  -3.4076   -0.05972 
 C                    -3.83391  -3.47684   0.07248 
 C                    -1.32953  -3.06293   0.20607 
 H                     0.55417  -0.8433    0.19414 
 H                     1.13423   1.57836  -0.0241 
 H                    -3.51621   2.92112  -0.94942 
 H                    -1.779     4.67281  -0.59857 
 H                     0.5575    3.93809  -0.27227 
 C                    -5.71852   2.37735   0.25385 
 C                    -5.30962   2.89941   1.51036 
 H                    -6.22461   3.0299   -0.44973 
 H                    -4.98297   3.2711    2.45403 
 C                    -5.11829  -4.18287   0.01991 
 C                    -2.4707   -4.00234   0.17178 
 H                    -7.32235  -3.92447  -0.05618 
 H                    -5.15283  -5.26328   0.06666 
 H                    -2.29364  -5.0689    0.21385 
 H                    -0.32642  -3.46909   0.26333 
 

 GradGradGradGradGradGradGradGradGradGradGradGradGradGradGradGradGradGrad
 Berny optimization.
 Initialization pass.
                           ----------------------------
                           !    Initial Parameters    !
                           ! (Angstroms and Degrees)  !
 --------------------------                            --------------------------
 ! Name  Definition              Value          Derivative Info.                !
 --------------------------------------------------------------------------------
 ! R1    R(1,2)                  1.5004         estimate D2E/DX2                !
 ! R2    R(1,4)                  1.3534         estimate D2E/DX2                !
 ! R3    R(1,18)                 1.0876         estimate D2E/DX2                !
 ! R4    R(2,3)                  1.3571         estimate D2E/DX2                !
 ! R5    R(2,28)                 1.4484         estimate D2E/DX2                !
 ! R6    R(3,6)                  1.4803         estimate D2E/DX2                !
 ! R7    R(3,7)                  1.4943         estimate D2E/DX2                !
 ! R8    R(4,5)                  1.4536         estimate D2E/DX2                !
 ! R9    R(4,19)                 1.0836         estimate D2E/DX2                !
 ! R10   R(5,6)                  1.4489         estimate D2E/DX2                !
 ! R11   R(5,20)                 1.4735         estimate D2E/DX2                !
 ! R12   R(6,9)                  1.3372         estimate D2E/DX2                !
 ! R13   R(7,8)                  1.4839         estimate D2E/DX2                !
 ! R14   R(7,13)                 1.3535         estimate D2E/DX2                !
 ! R15   R(8,9)                  1.4395         estimate D2E/DX2                !
 ! R16   R(8,10)                 1.3485         estimate D2E/DX2                !
 ! R17   R(9,21)                 1.4491         estimate D2E/DX2                !
 ! R18   R(10,11)                1.4524         estimate D2E/DX2                !
 ! R19   R(10,22)                1.4774         estimate D2E/DX2                !
 ! R20   R(11,12)                1.4691         estimate D2E/DX2                !
 ! R21   R(11,23)                1.083          estimate D2E/DX2                !
 ! R22   R(12,13)                1.5112         estimate D2E/DX2                !
 ! R23   R(12,14)                1.351          estimate D2E/DX2                !
 ! R24   R(13,16)                1.4557         estimate D2E/DX2                !
 ! R25   R(14,15)                1.4567         estimate D2E/DX2                !
 ! R26   R(14,24)                1.0859         estimate D2E/DX2                !
 ! R27   R(15,17)                1.3438         estimate D2E/DX2                !
 ! R28   R(15,27)                1.0855         estimate D2E/DX2                !
 ! R29   R(16,17)                1.45           estimate D2E/DX2                !
 ! R30   R(16,25)                1.0809         estimate D2E/DX2                !
 ! R31   R(17,26)                1.084          estimate D2E/DX2                !
 ! R32   R(20,32)                1.4756         estimate D2E/DX2                !
 ! R33   R(20,34)                1.0824         estimate D2E/DX2                !
 ! R34   R(21,32)                1.4666         estimate D2E/DX2                !
 ! R35   R(21,33)                1.4644         estimate D2E/DX2                !
 ! R36   R(22,33)                1.4785         estimate D2E/DX2                !
 ! R37   R(22,37)                1.0837         estimate D2E/DX2                !
 ! R38   R(28,29)                1.4208         estimate D2E/DX2                !
 ! R39   R(28,30)                1.0849         estimate D2E/DX2                !
 ! R40   R(29,31)                1.0655         estimate D2E/DX2                !
 ! R41   R(32,35)                1.082          estimate D2E/DX2                !
 ! R42   R(33,36)                1.082          estimate D2E/DX2                !
 ! A1    A(2,1,4)              125.1393         estimate D2E/DX2                !
 ! A2    A(2,1,18)             115.9644         estimate D2E/DX2                !
 ! A3    A(4,1,18)             118.8868         estimate D2E/DX2                !
 ! A4    A(1,2,3)              118.7695         estimate D2E/DX2                !
 ! A5    A(1,2,28)             118.4284         estimate D2E/DX2                !
 ! A6    A(3,2,28)             122.7879         estimate D2E/DX2                !
 ! A7    A(2,3,6)              115.3909         estimate D2E/DX2                !
 ! A8    A(2,3,7)              138.1442         estimate D2E/DX2                !
 ! A9    A(6,3,7)              106.2079         estimate D2E/DX2                !
 ! A10   A(1,4,5)              119.3264         estimate D2E/DX2                !
 ! A11   A(1,4,19)             121.5918         estimate D2E/DX2                !
 ! A12   A(5,4,19)             119.0743         estimate D2E/DX2                !
 ! A13   A(4,5,6)              114.3809         estimate D2E/DX2                !
 ! A14   A(4,5,20)             128.5762         estimate D2E/DX2                !
 ! A15   A(6,5,20)             117.0274         estimate D2E/DX2                !
 ! A16   A(3,6,5)              126.6359         estimate D2E/DX2                !
 ! A17   A(3,6,9)              111.2135         estimate D2E/DX2                !
 ! A18   A(5,6,9)              122.0556         estimate D2E/DX2                !
 ! A19   A(3,7,8)              103.7094         estimate D2E/DX2                !
 ! A20   A(3,7,13)             138.0581         estimate D2E/DX2                !
 ! A21   A(8,7,13)             118.0707         estimate D2E/DX2                !
 ! A22   A(7,8,9)              109.6798         estimate D2E/DX2                !
 ! A23   A(7,8,10)             128.957          estimate D2E/DX2                !
 ! A24   A(9,8,10)             121.3224         estimate D2E/DX2                !
 ! A25   A(6,9,8)              109.0192         estimate D2E/DX2                !
 ! A26   A(6,9,21)             124.9955         estimate D2E/DX2                !
 ! A27   A(8,9,21)             125.9836         estimate D2E/DX2                !
 ! A28   A(8,10,11)            114.2246         estimate D2E/DX2                !
 ! A29   A(8,10,22)            117.1397         estimate D2E/DX2                !
 ! A30   A(11,10,22)           128.6315         estimate D2E/DX2                !
 ! A31   A(10,11,12)           120.4622         estimate D2E/DX2                !
 ! A32   A(10,11,23)           119.2201         estimate D2E/DX2                !
 ! A33   A(12,11,23)           120.2769         estimate D2E/DX2                !
 ! A34   A(11,12,13)           120.5271         estimate D2E/DX2                !
 ! A35   A(11,12,14)           120.8529         estimate D2E/DX2                !
 ! A36   A(13,12,14)           118.6199         estimate D2E/DX2                !
 ! A37   A(7,13,12)            117.4354         estimate D2E/DX2                !
 ! A38   A(7,13,16)            125.7913         estimate D2E/DX2                !
 ! A39   A(12,13,16)           116.6678         estimate D2E/DX2                !
 ! A40   A(12,14,15)           122.3449         estimate D2E/DX2                !
 ! A41   A(12,14,24)           121.3199         estimate D2E/DX2                !
 ! A42   A(15,14,24)           116.3343         estimate D2E/DX2                !
 ! A43   A(14,15,17)           121.7037         estimate D2E/DX2                !
 ! A44   A(14,15,27)           117.6035         estimate D2E/DX2                !
 ! A45   A(17,15,27)           120.6902         estimate D2E/DX2                !
 ! A46   A(13,16,17)           120.7791         estimate D2E/DX2                !
 ! A47   A(13,16,25)           120.1152         estimate D2E/DX2                !
 ! A48   A(17,16,25)           117.2939         estimate D2E/DX2                !
 ! A49   A(15,17,16)           119.2379         estimate D2E/DX2                !
 ! A50   A(15,17,26)           121.9136         estimate D2E/DX2                !
 ! A51   A(16,17,26)           118.8335         estimate D2E/DX2                !
 ! A52   A(5,20,32)            120.1243         estimate D2E/DX2                !
 ! A53   A(5,20,34)            120.1408         estimate D2E/DX2                !
 ! A54   A(32,20,34)           119.6714         estimate D2E/DX2                !
 ! A55   A(9,21,32)            116.2388         estimate D2E/DX2                !
 ! A56   A(9,21,33)            113.5997         estimate D2E/DX2                !
 ! A57   A(32,21,33)           130.1612         estimate D2E/DX2                !
 ! A58   A(10,22,33)           122.4584         estimate D2E/DX2                !
 ! A59   A(10,22,37)           119.0065         estimate D2E/DX2                !
 ! A60   A(33,22,37)           118.5239         estimate D2E/DX2                !
 ! A61   A(2,28,29)            120.453          estimate D2E/DX2                !
 ! A62   A(2,28,30)            118.0764         estimate D2E/DX2                !
 ! A63   A(29,28,30)           119.1301         estimate D2E/DX2                !
 ! A64   A(20,32,21)           119.5156         estimate D2E/DX2                !
 ! A65   A(20,32,35)           119.9903         estimate D2E/DX2                !
 ! A66   A(21,32,35)           120.4724         estimate D2E/DX2                !
 ! A67   A(21,33,22)           119.4781         estimate D2E/DX2                !
 ! A68   A(21,33,36)           120.5789         estimate D2E/DX2                !
 ! A69   A(22,33,36)           119.9419         estimate D2E/DX2                !
 ! A70   L(28,29,31,10,-1)     178.4861         estimate D2E/DX2                !
 ! A71   L(28,29,31,10,-2)     180.0841         estimate D2E/DX2                !
 ! D1    D(4,1,2,3)              5.0777         estimate D2E/DX2                !
 ! D2    D(4,1,2,28)          -173.5906         estimate D2E/DX2                !
 ! D3    D(18,1,2,3)          -176.0593         estimate D2E/DX2                !
 ! D4    D(18,1,2,28)            5.2724         estimate D2E/DX2                !
 ! D5    D(2,1,4,5)              0.1006         estimate D2E/DX2                !
 ! D6    D(2,1,4,19)           179.0976         estimate D2E/DX2                !
 ! D7    D(18,1,4,5)          -178.7319         estimate D2E/DX2                !
 ! D8    D(18,1,4,19)            0.2651         estimate D2E/DX2                !
 ! D9    D(1,2,3,6)             -6.8692         estimate D2E/DX2                !
 ! D10   D(1,2,3,7)            179.9817         estimate D2E/DX2                !
 ! D11   D(28,2,3,6)           171.7378         estimate D2E/DX2                !
 ! D12   D(28,2,3,7)            -1.4113         estimate D2E/DX2                !
 ! D13   D(1,2,28,29)          106.5642         estimate D2E/DX2                !
 ! D14   D(1,2,28,30)          -55.9196         estimate D2E/DX2                !
 ! D15   D(3,2,28,29)          -72.0473         estimate D2E/DX2                !
 ! D16   D(3,2,28,30)          125.4689         estimate D2E/DX2                !
 ! D17   D(2,3,6,5)              4.7968         estimate D2E/DX2                !
 ! D18   D(2,3,6,9)           -171.6927         estimate D2E/DX2                !
 ! D19   D(7,3,6,5)           -179.9579         estimate D2E/DX2                !
 ! D20   D(7,3,6,9)              3.5527         estimate D2E/DX2                !
 ! D21   D(2,3,7,8)            169.4939         estimate D2E/DX2                !
 ! D22   D(2,3,7,13)           -15.5253         estimate D2E/DX2                !
 ! D23   D(6,3,7,8)             -4.0625         estimate D2E/DX2                !
 ! D24   D(6,3,7,13)           170.9182         estimate D2E/DX2                !
 ! D25   D(1,4,5,6)             -2.4339         estimate D2E/DX2                !
 ! D26   D(1,4,5,20)           176.0788         estimate D2E/DX2                !
 ! D27   D(19,4,5,6)           178.5436         estimate D2E/DX2                !
 ! D28   D(19,4,5,20)           -2.9437         estimate D2E/DX2                !
 ! D29   D(4,5,6,3)              0.0704         estimate D2E/DX2                !
 ! D30   D(4,5,6,9)            176.2085         estimate D2E/DX2                !
 ! D31   D(20,5,6,3)          -178.6243         estimate D2E/DX2                !
 ! D32   D(20,5,6,9)            -2.4862         estimate D2E/DX2                !
 ! D33   D(4,5,20,32)         -176.6097         estimate D2E/DX2                !
 ! D34   D(4,5,20,34)            0.4845         estimate D2E/DX2                !
 ! D35   D(6,5,20,32)            1.8696         estimate D2E/DX2                !
 ! D36   D(6,5,20,34)          178.9638         estimate D2E/DX2                !
 ! D37   D(3,6,9,8)             -1.3802         estimate D2E/DX2                !
 ! D38   D(3,6,9,21)           178.1654         estimate D2E/DX2                !
 ! D39   D(5,6,9,8)           -178.0566         estimate D2E/DX2                !
 ! D40   D(5,6,9,21)             1.489          estimate D2E/DX2                !
 ! D41   D(3,7,8,9)              3.4335         estimate D2E/DX2                !
 ! D42   D(3,7,8,10)          -178.8995         estimate D2E/DX2                !
 ! D43   D(13,7,8,9)          -172.7666         estimate D2E/DX2                !
 ! D44   D(13,7,8,10)            4.9004         estimate D2E/DX2                !
 ! D45   D(3,7,13,12)          179.4557         estimate D2E/DX2                !
 ! D46   D(3,7,13,16)           -4.4176         estimate D2E/DX2                !
 ! D47   D(8,7,13,12)           -6.0722         estimate D2E/DX2                !
 ! D48   D(8,7,13,16)          170.0545         estimate D2E/DX2                !
 ! D49   D(7,8,9,6)             -1.3864         estimate D2E/DX2                !
 ! D50   D(7,8,9,21)           179.0737         estimate D2E/DX2                !
 ! D51   D(10,8,9,6)          -179.2628         estimate D2E/DX2                !
 ! D52   D(10,8,9,21)            1.1972         estimate D2E/DX2                !
 ! D53   D(7,8,10,11)            0.2519         estimate D2E/DX2                !
 ! D54   D(7,8,10,22)         -179.0599         estimate D2E/DX2                !
 ! D55   D(9,8,10,11)          177.6803         estimate D2E/DX2                !
 ! D56   D(9,8,10,22)           -1.6315         estimate D2E/DX2                !
 ! D57   D(6,9,21,32)            0.2113         estimate D2E/DX2                !
 ! D58   D(6,9,21,33)         -179.6251         estimate D2E/DX2                !
 ! D59   D(8,9,21,32)          179.6804         estimate D2E/DX2                !
 ! D60   D(8,9,21,33)           -0.156          estimate D2E/DX2                !
 ! D61   D(8,10,11,12)          -3.5246         estimate D2E/DX2                !
 ! D62   D(8,10,11,23)         178.7911         estimate D2E/DX2                !
 ! D63   D(22,10,11,12)        175.6914         estimate D2E/DX2                !
 ! D64   D(22,10,11,23)         -1.993          estimate D2E/DX2                !
 ! D65   D(8,10,22,33)           1.2178         estimate D2E/DX2                !
 ! D66   D(8,10,22,37)         179.979          estimate D2E/DX2                !
 ! D67   D(11,10,22,33)       -177.9787         estimate D2E/DX2                !
 ! D68   D(11,10,22,37)          0.7824         estimate D2E/DX2                !
 ! D69   D(10,11,12,13)          2.0513         estimate D2E/DX2                !
 ! D70   D(10,11,12,14)       -178.0331         estimate D2E/DX2                !
 ! D71   D(23,11,12,13)        179.7112         estimate D2E/DX2                !
 ! D72   D(23,11,12,14)         -0.3732         estimate D2E/DX2                !
 ! D73   D(11,12,13,7)           3.0711         estimate D2E/DX2                !
 ! D74   D(11,12,13,16)       -173.4136         estimate D2E/DX2                !
 ! D75   D(14,12,13,7)        -176.8464         estimate D2E/DX2                !
 ! D76   D(14,12,13,16)          6.6689         estimate D2E/DX2                !
 ! D77   D(11,12,14,15)        179.497          estimate D2E/DX2                !
 ! D78   D(11,12,14,24)         -0.1397         estimate D2E/DX2                !
 ! D79   D(13,12,14,15)         -0.5858         estimate D2E/DX2                !
 ! D80   D(13,12,14,24)        179.7775         estimate D2E/DX2                !
 ! D81   D(7,13,16,17)         174.1172         estimate D2E/DX2                !
 ! D82   D(7,13,16,25)         -21.6233         estimate D2E/DX2                !
 ! D83   D(12,13,16,17)         -9.7296         estimate D2E/DX2                !
 ! D84   D(12,13,16,25)        154.5299         estimate D2E/DX2                !
 ! D85   D(12,14,15,17)         -2.9102         estimate D2E/DX2                !
 ! D86   D(12,14,15,27)        177.6781         estimate D2E/DX2                !
 ! D87   D(24,14,15,17)        176.7436         estimate D2E/DX2                !
 ! D88   D(24,14,15,27)         -2.6682         estimate D2E/DX2                !
 ! D89   D(14,15,17,16)         -0.1323         estimate D2E/DX2                !
 ! D90   D(14,15,17,26)       -178.7052         estimate D2E/DX2                !
 ! D91   D(27,15,17,16)        179.2615         estimate D2E/DX2                !
 ! D92   D(27,15,17,26)          0.6886         estimate D2E/DX2                !
 ! D93   D(13,16,17,15)          6.6297         estimate D2E/DX2                !
 ! D94   D(13,16,17,26)       -174.7531         estimate D2E/DX2                !
 ! D95   D(25,16,17,15)       -158.0591         estimate D2E/DX2                !
 ! D96   D(25,16,17,26)         20.5582         estimate D2E/DX2                !
 ! D97   D(5,20,32,21)          -0.3011         estimate D2E/DX2                !
 ! D98   D(5,20,32,35)         178.0128         estimate D2E/DX2                !
 ! D99   D(34,20,32,21)       -177.409          estimate D2E/DX2                !
 ! D100  D(34,20,32,35)          0.9049         estimate D2E/DX2                !
 ! D101  D(9,21,32,20)          -0.7662         estimate D2E/DX2                !
 ! D102  D(9,21,32,35)        -179.0718         estimate D2E/DX2                !
 ! D103  D(33,21,32,20)        179.0377         estimate D2E/DX2                !
 ! D104  D(33,21,32,35)          0.7321         estimate D2E/DX2                !
 ! D105  D(9,21,33,22)          -0.2705         estimate D2E/DX2                !
 ! D106  D(9,21,33,36)        -179.8916         estimate D2E/DX2                !
 ! D107  D(32,21,33,22)        179.9215         estimate D2E/DX2                !
 ! D108  D(32,21,33,36)          0.3003         estimate D2E/DX2                !
 ! D109  D(10,22,33,21)         -0.2426         estimate D2E/DX2                !
 ! D110  D(10,22,33,36)        179.381          estimate D2E/DX2                !
 ! D111  D(37,22,33,21)       -179.0095         estimate D2E/DX2                !
 ! D112  D(37,22,33,36)          0.6141         estimate D2E/DX2                !
 --------------------------------------------------------------------------------
 Trust Radius=3.00D-01 FncErr=1.00D-07 GrdErr=1.00D-06 EigMax=2.50D+02 EigMin=1.00D-04
 Number of steps in this run=    222 maximum allowed number of steps=    222.
 GradGradGradGradGradGradGradGradGradGradGradGradGradGradGradGradGradGrad

                          Input orientation:                          
 ---------------------------------------------------------------------
 Center     Atomic      Atomic             Coordinates (Angstroms)
 Number     Number       Type             X           Y           Z
 ---------------------------------------------------------------------
      1          6           0       -7.186280    0.331300   -0.024450
      2          6           0       -5.820050    0.946800    0.051210
      3          6           0       -4.733630    0.139280   -0.045220
      4          6           0       -7.440060   -0.996670   -0.086370
      5          6           0       -6.329710   -1.934790   -0.079380
      6          6           0       -5.021300   -1.312770   -0.059710
      7          6           0       -3.245070    0.269440   -0.028360
      8          6           0       -2.770460   -1.133240    0.067790
      9          6           0       -3.895770   -2.029860    0.023870
     10          6           0       -1.506390   -1.597670    0.138430
     11          6           0       -0.488890   -0.561340    0.121190
     12          6           0       -0.865050    0.849070   -0.044690
     13          6           0       -2.318530    1.248170   -0.153610
     14          6           0        0.077340    1.815390   -0.101400
     15          6           0       -0.258360    3.222130   -0.275850
     16          6           0       -2.591310    2.644160   -0.463410
     17          6           0       -1.527420    3.629260   -0.447890
     18          1           0       -8.023020    1.025970   -0.009090
     19          1           0       -8.452950   -1.379860   -0.125020
     20          6           0       -6.371310   -3.407600   -0.059720
     21          6           0       -3.833910   -3.476840    0.072480
     22          6           0       -1.329530   -3.062930    0.206070
     23          1           0        0.554170   -0.843300    0.194140
     24          1           0        1.134230    1.578360   -0.024100
     25          1           0       -3.516210    2.921120   -0.949420
     26          1           0       -1.779000    4.672810   -0.598570
     27          1           0        0.557500    3.938090   -0.272270
     28          6           0       -5.718520    2.377350    0.253850
     29          6           0       -5.309620    2.899410    1.510360
     30          1           0       -6.224610    3.029900   -0.449730
     31          1           0       -4.982970    3.271100    2.454030
     32          6           0       -5.118290   -4.182870    0.019910
     33          6           0       -2.470700   -4.002340    0.171780
     34          1           0       -7.322350   -3.924470   -0.056180
     35          1           0       -5.152830   -5.263280    0.066660
     36          1           0       -2.293640   -5.068900    0.213850
     37          1           0       -0.326420   -3.469090    0.263330
 ---------------------------------------------------------------------
                    Distance matrix (angstroms):
                    1          2          3          4          5
     1  C    0.000000
     2  C    1.500383   0.000000
     3  C    2.460243   1.357091   0.000000
     4  C    1.353419   2.533858   2.935445   0.000000
     5  C    2.423199   2.929227   2.617328   1.453615   0.000000
     6  C    2.718703   2.399158   1.480342   2.439473   1.448873
     7  C    3.941697   2.663770   1.494335   4.382276   3.791601
     8  C    4.653263   3.691455   2.342246   4.674140   3.651356
     9  C    4.050292   3.544588   2.326360   3.693457   2.437983
    10  C    6.000717   5.008952   3.669578   5.968264   4.839990
    11  C    6.758184   5.540817   4.305389   6.967880   6.003480
    12  C    6.342432   4.956891   3.933156   6.829294   6.132992
    13  C    4.955030   3.520429   2.659717   5.592307   5.121163
    14  C    7.414083   5.962965   5.094893   8.026158   7.423922
    15  C    7.511070   6.018014   5.439228   8.331326   7.968294
    16  C    5.162921   3.683833   3.322475   6.075210   5.923673
    17  C    6.563424   5.086390   4.756247   7.515932   7.359106
    18  H    1.087629   2.205217   3.406994   2.106392   3.411501
    19  H    2.131346   3.518034   4.018395   1.083639   2.195035
    20  C    3.826852   4.390557   3.906733   2.637332   1.473529
    21  C    5.074417   4.849103   3.728227   4.379588   2.937686
    22  C    6.773142   6.022183   4.680298   6.457053   5.133808
    23  H    7.832115   6.622354   5.383641   8.000620   6.975240
    24  H    8.413444   6.983305   6.041786   8.952827   8.249587
    25  H    4.586082   3.194821   3.168331   5.611643   5.679138
    26  H    6.958233   5.534930   5.439571   8.028260   8.039832
    27  H    8.546138   7.051638   6.517558   9.399329   9.053264
    28  C    2.533395   1.448394   2.463414   3.803086   4.367968
    29  C    3.531669   2.490450   3.220235   4.718873   5.190120
    30  H    2.896224   2.180348   3.277550   4.221684   4.979594
    31  H    4.431688   3.446247   4.014563   5.541190   5.944171
    32  C    4.965509   5.177544   4.339722   3.943828   2.555633
    33  C    6.407467   5.977179   4.724506   5.813367   4.385180
    34  H    4.258063   5.098795   4.818263   2.930321   2.223668
    35  H    5.953364   6.245840   5.419954   4.843429   3.533443
    36  H    7.290876   6.975003   5.757240   6.569538   5.118446
    37  H    7.847513   7.051599   5.704300   7.539166   6.205725
                    6          7          8          9         10
     6  C    0.000000
     7  C    2.378942   0.000000
     8  C    2.261585   1.483917   0.000000
     9  C    1.337169   2.390171   1.439507   0.000000
    10  C    3.531999   2.556741   1.348539   2.430854   0.000000
    11  C    4.597838   2.882549   2.352761   3.711180   1.452440
    12  C    4.684890   2.449639   2.751871   4.180694   2.536018
    13  C    3.724540   1.353542   2.434003   3.642069   2.973830
    14  C    5.981910   3.665202   4.102805   5.530573   3.770238
    15  C    6.580094   4.207145   5.039641   6.395622   4.995966
    16  C    4.661021   2.501193   3.818772   4.877040   4.419546
    17  C    6.064779   3.796672   4.948988   6.152827   5.259754
    18  H    3.805600   4.837511   5.679567   5.135502   7.026501
    19  H    3.432927   5.463657   5.691106   4.605709   6.954965
    20  C    2.492156   4.826488   4.260879   2.834335   5.194474
    21  C    2.471956   3.793615   2.573598   1.449117   2.992153
    22  C    4.094248   3.850836   2.412282   2.772367   1.477444
    23  H    5.600956   3.965088   3.339640   4.608566   2.195014
    24  H    6.800768   4.570728   4.754768   6.190513   4.133577
    25  H    4.580688   2.820155   4.246021   5.059996   5.063818
    26  H    6.828620   4.675914   5.927668   7.056482   6.319526
    27  H    7.664184   5.289426   6.075306   7.452231   5.922242
    28  C    3.768477   3.262036   4.588019   4.774810   5.792767
    29  C    4.504521   3.680593   4.979017   5.339132   6.047353
    30  H    4.523146   4.083546   5.434217   5.590077   6.634903
    31  H    5.228023   4.265269   5.476089   5.931935   6.415102
    32  C    2.872842   4.830564   3.849005   2.475888   4.443324
    33  C    3.713884   4.346011   2.886591   2.437905   2.591031
    34  H    3.480779   5.849262   5.340977   3.916300   6.267157
    35  H    3.954719   5.853167   4.767905   3.469443   5.170916
    36  H    4.650105   5.427869   3.967129   3.440738   3.560181
    37  H    5.176482   4.751864   3.386409   3.856032   2.215884
                   11         12         13         14         15
    11  C    0.000000
    12  C    1.469105   0.000000
    13  C    2.587938   1.511208   0.000000
    14  C    2.453367   1.350959   2.462653   0.000000
    15  C    3.811224   2.460269   2.855829   1.456724   0.000000
    16  C    3.877777   2.525401   1.455738   2.817730   2.410785
    17  C    4.354713   2.886306   2.526271   2.446515   1.343825
    18  H    7.700626   7.160244   5.710645   8.139259   8.073675
    19  H    8.009797   7.908907   6.673715   9.109118   9.399594
    20  C    6.537338   6.959768   6.173333   8.298581   9.020432
    21  C    4.437530   5.247986   4.967214   6.582994   7.601453
    22  C    2.640423   3.947451   4.437688   5.086436   6.393875
    23  H    1.082958   2.221563   3.570376   2.717231   4.172387
    24  H    2.689599   2.128241   3.470929   1.085898   2.169024
    25  H    4.736919   3.484333   2.206017   3.854268   3.340343
    26  H    5.438636   3.970274   3.495317   3.443548   2.126256
    27  H    4.636228   3.408443   3.939708   2.183027   1.085467
    28  C    6.000211   5.097150   3.605690   5.833866   5.550458
    29  C    6.094754   5.135784   3.800264   5.726448   5.367487
    30  H    6.791277   5.800428   4.303453   6.427359   5.971878
    31  H    6.350314   5.391391   4.241612   5.852867   5.456792
    32  C    5.878527   6.588979   6.112689   7.936524   8.862303
    33  C    3.971223   5.114797   5.262783   6.357131   7.568870
    34  H    7.618286   8.030164   7.197493   9.365012  10.050975
    35  H    6.622956   7.467147   7.104981   8.802868   9.801803
    36  H    4.856316   6.093446   6.327797   7.287961   8.551219
    37  H    2.915752   4.362511   5.137595   5.312417   6.713253
                   16         17         18         19         20
    16  C    0.000000
    17  C    1.450009   0.000000
    18  H    5.685809   7.011596   0.000000
    19  H    7.118010   8.553274   2.446691   0.000000
    20  C    7.146689   8.551687   4.731517   2.906754   0.000000
    21  C    6.268802   7.489148   6.150658   5.076599   2.541785
    22  C    5.883126   6.726978   7.846541   7.327036   5.060532
    23  H    4.742235   4.974838   8.780869   9.028730   7.389340
    24  H    3.899817   3.386764   9.173908  10.033707   9.010782
    25  H    1.080904   2.169857   4.978670   6.599202   6.999704
    26  H    2.189415   1.083971   7.254979   9.022232   9.309817
    27  H    3.409662   2.114973   9.065044  10.463770  10.100136
    28  C    3.219486   4.430015   2.684415   4.662325   5.830104
    29  C    3.368995   4.321164   3.630571   5.555821   6.585644
    30  H    3.653745   4.735275   2.728402   4.951456   6.450972
    31  H    3.824205   4.526615   4.511039   6.350094   7.269901
    32  C    7.295722   8.610607   5.964085   4.358650   1.475616
    33  C    6.677872   7.714602   7.492988   6.538563   3.952476
    34  H    8.105275   9.528562   5.000001   2.785325   1.082425
    35  H    8.328863   9.616945   6.913638   5.099851   2.223559
    36  H    7.748457   8.756882   8.367971   7.187555   4.411593
    37  H    6.559703   7.234280   8.917255   8.399773   6.053828
                   21         22         23         24         25
    21  C    0.000000
    22  C    2.541867   0.000000
    23  H    5.119139   2.911224   0.000000
    24  H    7.088497   5.259721   2.499707   0.000000
    25  H    6.486841   6.474997   5.660970   4.928064   0.000000
    26  H    8.431474   7.790452   6.041485   4.288653   2.491869
    27  H    8.624646   7.266634   4.804086   2.441830   4.252984
    28  C    6.152738   6.990148   7.051439   6.904768   2.567823
    29  C    6.700879   7.286411   7.079855   6.754476   3.044225
    30  H    6.951677   7.843115   7.833780   7.512700   2.756257
    31  H    7.247538   7.649894   7.259154   6.813709   3.722545
    32  C    1.466586   3.955202   6.584822   8.502218   7.346627
    33  C    1.464361   1.478491   4.373771   6.646661   7.091155
    34  H    3.519395   6.060109   8.461432  10.089396   7.883317
    35  H    2.220575   4.413456   7.219579   9.292115   8.408053
    36  H    2.219701   2.225642   5.095695   7.482846   8.166290
    37  H    3.512687   1.083732   2.770379   5.262401   7.244329
                   26         27         28         29         30
    26  H    0.000000
    27  H    2.470935   0.000000
    28  C    4.638488   6.488539   0.000000
    29  C    4.478595   6.219302   1.420761   0.000000
    30  H    4.741809   6.844948   1.084884   2.167069   0.000000
    31  H    4.642045   6.210829   2.486084   1.065536   3.167281
    32  C    9.484537   9.912111   6.591774   7.239940   7.312220
    33  C    8.736711   8.509853   7.159296   7.581914   7.995656
    34  H   10.243834  11.133669   6.510094   7.284948   7.051466
    35  H   10.514330  10.834572   7.663829   8.290860   8.378079
    36  H    9.789065   9.459978   8.196221   8.618065   9.026817
    37  H    8.315251   7.478937   7.953345   8.182002   8.805338
                   31         32         33         34         35
    31  H    0.000000
    32  C    7.842507   0.000000
    33  C    8.026400   2.658080   0.000000
    34  H    7.971830   2.220460   4.857627   0.000000
    35  H    8.863635   1.081972   2.965610   2.552316   0.000000
    36  H    9.044695   2.966700   1.081975   5.164355   2.869567
    37  H    8.480141   4.850851   2.211487   7.018012   5.152866
                   36         37
    36  H    0.000000
    37  H    2.536098   0.000000
 Stoichiometry    C24H13(2)
 Framework group  C1[X(C24H13)]
 Deg. of freedom   105
 Full point group                 C1      NOp   1
 Largest Abelian subgroup         C1      NOp   1
 Largest concise Abelian subgroup C1      NOp   1
                         Standard orientation:                         
 ---------------------------------------------------------------------
 Center     Atomic      Atomic             Coordinates (Angstroms)
 Number     Number       Type             X           Y           Z
 ---------------------------------------------------------------------
      1          6           0       -1.859253    3.143731   -0.171136
      2          6           0       -0.509301    2.499488   -0.053954
      3          6           0       -0.423729    1.146492   -0.115407
      4          6           0       -3.036313    2.479149   -0.238983
      5          6           0       -3.037043    1.026166   -0.196132
      6          6           0       -1.718340    0.428900   -0.136719
      7          6           0        0.635437    0.094235   -0.052490
      8          6           0       -0.131920   -1.170846    0.060398
      9          6           0       -1.541865   -0.891170   -0.017165
     10          6           0        0.327181   -2.434001    0.170956
     11          6           0        1.775489   -2.542718    0.183835
     12          6           0        2.613569   -1.349546    0.004299
     13          6           0        1.983121    0.015144   -0.150311
     14          6           0        3.960696   -1.447056   -0.024505
     15          6           0        4.822228   -0.287358   -0.211345
     16          6           0        2.879584    1.116520   -0.470465
     17          6           0        4.318052    0.940134   -0.423326
     18          1           0       -1.868476    4.231258   -0.182792
     19          1           0       -3.981596    3.004388   -0.308530
     20          6           0       -4.189459    0.108123   -0.175635
     21          6           0       -2.608370   -1.870834    0.035445
     22          6           0       -0.679481   -3.512803    0.246187
     23          1           0        2.231412   -3.519320    0.289570
     24          1           0        4.459782   -2.405121    0.085942
     25          1           0        2.503872    1.989477   -0.985381
     26          1           0        4.955914    1.801845   -0.583266
     27          1           0        5.895335   -0.448301   -0.183455
     28          6           0        0.645271    3.349987    0.149665
     29          6           0        1.284041    3.405604    1.417514
     30          1           0        0.830737    4.140114   -0.570248
     31          1           0        1.760809    3.419286    2.370337
     32          6           0       -3.975134   -1.346934   -0.055983
     33          6           0       -2.132528   -3.248389    0.177819
     34          1           0       -5.197782    0.500922   -0.200897
     35          1           0       -4.823720   -2.016513   -0.008759
     36          1           0       -2.833974   -4.070723    0.226919
     37          1           0       -0.343914   -4.539423    0.335178
 ---------------------------------------------------------------------
 Rotational constants (GHZ):           0.3815527           0.2431974           0.1522919
 Standard basis: 6-311+G(d,p) (5D, 7F)
 There are   630 symmetry adapted cartesian basis functions of A   symmetry.
 There are   606 symmetry adapted basis functions of A   symmetry.
   606 basis functions,   968 primitive gaussians,   630 cartesian basis functions
    79 alpha electrons       78 beta electrons
       nuclear repulsion energy      1788.0099937369 Hartrees.
 NAtoms=   37 NActive=   37 NUniq=   37 SFac= 1.00D+00 NAtFMM=   60 NAOKFM=F Big=F
 Integral buffers will be    131072 words long.
 Raffenetti 2 integral format.
 Two-electron integral symmetry is turned on.
 One-electron integrals computed using PRISM.
 NBasis=   606 RedAO= T EigKep=  1.12D-06  NBF=   606
 NBsUse=   592 1.00D-06 EigRej=  6.77D-07 NBFU=   592
 ExpMin= 4.38D-02 ExpMax= 4.56D+03 ExpMxC= 6.82D+02 IAcc=2 IRadAn=         4 AccDes= 0.00D+00
 Harris functional with IExCor=  402 and IRadAn=       4 diagonalized for initial guess.
 HarFok:  IExCor=  402 AccDes= 0.00D+00 IRadAn=         4 IDoV= 1 UseB2=F ITyADJ=14
 ICtDFT=  3500011 ScaDFX=  1.000000  1.000000  1.000000  1.000000
 FoFCou: FMM=F IPFlag=           0 FMFlag=      100000 FMFlg1=           0
         NFxFlg=           0 DoJE=T BraDBF=F KetDBF=T FulRan=T
         wScrn=  0.000000 ICntrl=       500 IOpCl=  0 I1Cent=   200000004 NGrid=           0
         NMat0=    1 NMatS0=      1 NMatT0=    0 NMatD0=    1 NMtDS0=    0 NMtDT0=    0
 Petite list used in FoFCou.
 Initial guess <Sx>= 0.0000 <Sy>= 0.0000 <Sz>= 0.5000 <S**2>= 0.7500 S= 0.5000
 Requested convergence on RMS density matrix=1.00D-08 within 128 cycles.
 Requested convergence on MAX density matrix=1.00D-06.
 Requested convergence on             energy=1.00D-06.
 No special actions if energy rises.
 Restarting incremental Fock formation.
 SCF Done:  E(UB3LYP) =  -922.422943460     A.U. after   31 cycles
            NFock= 31  Conv=0.88D-08     -V/T= 2.0059
 <Sx>= 0.0000 <Sy>= 0.0000 <Sz>= 0.5000 <S**2>= 0.7751 S= 0.5124
 <L.S>=  0.00000000000    
 Annihilation of the first spin contaminant:
 S**2 before annihilation     0.7751,   after     0.7502

 **********************************************************************

            Population analysis using the SCF density.

 **********************************************************************

 Orbital symmetries:
 Alpha Orbitals:
       Occupied  (A) (A) (A) (A) (A) (A) (A) (A) (A) (A) (A) (A)
                 (A) (A) (A) (A) (A) (A) (A) (A) (A) (A) (A) (A)
                 (A) (A) (A) (A) (A) (A) (A) (A) (A) (A) (A) (A)
                 (A) (A) (A) (A) (A) (A) (A) (A) (A) (A) (A) (A)
                 (A) (A) (A) (A) (A) (A) (A) (A) (A) (A) (A) (A)
                 (A) (A) (A) (A) (A) (A) (A) (A) (A) (A) (A) (A)
                 (A) (A) (A) (A) (A) (A) (A)
       Virtual   (A) (A) (A) (A) (A) (A) (A) (A) (A) (A) (A) (A)
                 (A) (A) (A) (A) (A) (A) (A) (A) (A) (A) (A) (A)
                 (A) (A) (A) (A) (A) (A) (A) (A) (A) (A) (A) (A)
                 (A) (A) (A) (A) (A) (A) (A) (A) (A) (A) (A) (A)
                 (A) (A) (A) (A) (A) (A) (A) (A) (A) (A) (A) (A)
                 (A) (A) (A) (A) (A) (A) (A) (A) (A) (A) (A) (A)
                 (A) (A) (A) (A) (A) (A) (A) (A) (A) (A) (A) (A)
                 (A) (A) (A) (A) (A) (A) (A) (A) (A) (A) (A) (A)
                 (A) (A) (A) (A) (A) (A) (A) (A) (A) (A) (A) (A)
                 (A) (A) (A) (A) (A) (A) (A) (A) (A) (A) (A) (A)
                 (A) (A) (A) (A) (A) (A) (A) (A) (A) (A) (A) (A)
                 (A) (A) (A) (A) (A) (A) (A) (A) (A) (A) (A) (A)
                 (A) (A) (A) (A) (A) (A) (A) (A) (A) (A) (A) (A)
                 (A) (A) (A) (A) (A) (A) (A) (A) (A) (A) (A) (A)
                 (A) (A) (A) (A) (A) (A) (A) (A) (A) (A) (A) (A)
                 (A) (A) (A) (A) (A) (A) (A) (A) (A) (A) (A) (A)
                 (A) (A) (A) (A) (A) (A) (A) (A) (A) (A) (A) (A)
                 (A) (A) (A) (A) (A) (A) (A) (A) (A) (A) (A) (A)
                 (A) (A) (A) (A) (A) (A) (A) (A) (A) (A) (A) (A)
                 (A) (A) (A) (A) (A) (A) (A) (A) (A) (A) (A) (A)
                 (A) (A) (A) (A) (A) (A) (A) (A) (A) (A) (A) (A)
                 (A) (A) (A) (A) (A) (A) (A) (A) (A) (A) (A) (A)
                 (A) (A) (A) (A) (A) (A) (A) (A) (A) (A) (A) (A)
                 (A) (A) (A) (A) (A) (A) (A) (A) (A) (A) (A) (A)
                 (A) (A) (A) (A) (A) (A) (A) (A) (A) (A) (A) (A)
                 (A) (A) (A) (A) (A) (A) (A) (A) (A) (A) (A) (A)
                 (A) (A) (A) (A) (A) (A) (A) (A) (A) (A) (A) (A)
                 (A) (A) (A) (A) (A) (A) (A) (A) (A) (A) (A) (A)
                 (A) (A) (A) (A) (A) (A) (A) (A) (A) (A) (A) (A)
                 (A) (A) (A) (A) (A) (A) (A) (A) (A) (A) (A) (A)
                 (A) (A) (A) (A) (A) (A) (A) (A) (A) (A) (A) (A)
                 (A) (A) (A) (A) (A) (A) (A) (A) (A) (A) (A) (A)
                 (A) (A) (A) (A) (A) (A) (A) (A) (A) (A) (A) (A)
                 (A) (A) (A) (A) (A) (A) (A) (A) (A) (A) (A) (A)
                 (A) (A) (A) (A) (A) (A) (A) (A) (A) (A) (A) (A)
                 (A) (A) (A) (A) (A) (A) (A) (A) (A) (A) (A) (A)
                 (A) (A) (A) (A) (A) (A) (A) (A) (A) (A) (A) (A)
                 (A) (A) (A) (A) (A) (A) (A) (A) (A) (A) (A) (A)
                 (A) (A) (A) (A) (A) (A) (A) (A) (A) (A) (A) (A)
                 (A) (A) (A) (A) (A) (A) (A) (A) (A) (A) (A) (A)
                 (A) (A) (A) (A) (A) (A) (A) (A) (A) (A) (A) (A)
                 (A) (A) (A) (A) (A) (A) (A) (A) (A) (A) (A) (A)
                 (A) (A) (A) (A) (A) (A) (A) (A) (A)
 Beta  Orbitals:
       Occupied  (A) (A) (A) (A) (A) (A) (A) (A) (A) (A) (A) (A)
                 (A) (A) (A) (A) (A) (A) (A) (A) (A) (A) (A) (A)
                 (A) (A) (A) (A) (A) (A) (A) (A) (A) (A) (A) (A)
                 (A) (A) (A) (A) (A) (A) (A) (A) (A) (A) (A) (A)
                 (A) (A) (A) (A) (A) (A) (A) (A) (A) (A) (A) (A)
                 (A) (A) (A) (A) (A) (A) (A) (A) (A) (A) (A) (A)
                 (A) (A) (A) (A) (A) (A)
       Virtual   (A) (A) (A) (A) (A) (A) (A) (A) (A) (A) (A) (A)
                 (A) (A) (A) (A) (A) (A) (A) (A) (A) (A) (A) (A)
                 (A) (A) (A) (A) (A) (A) (A) (A) (A) (A) (A) (A)
                 (A) (A) (A) (A) (A) (A) (A) (A) (A) (A) (A) (A)
                 (A) (A) (A) (A) (A) (A) (A) (A) (A) (A) (A) (A)
                 (A) (A) (A) (A) (A) (A) (A) (A) (A) (A) (A) (A)
                 (A) (A) (A) (A) (A) (A) (A) (A) (A) (A) (A) (A)
                 (A) (A) (A) (A) (A) (A) (A) (A) (A) (A) (A) (A)
                 (A) (A) (A) (A) (A) (A) (A) (A) (A) (A) (A) (A)
                 (A) (A) (A) (A) (A) (A) (A) (A) (A) (A) (A) (A)
                 (A) (A) (A) (A) (A) (A) (A) (A) (A) (A) (A) (A)
                 (A) (A) (A) (A) (A) (A) (A) (A) (A) (A) (A) (A)
                 (A) (A) (A) (A) (A) (A) (A) (A) (A) (A) (A) (A)
                 (A) (A) (A) (A) (A) (A) (A) (A) (A) (A) (A) (A)
                 (A) (A) (A) (A) (A) (A) (A) (A) (A) (A) (A) (A)
                 (A) (A) (A) (A) (A) (A) (A) (A) (A) (A) (A) (A)
                 (A) (A) (A) (A) (A) (A) (A) (A) (A) (A) (A) (A)
                 (A) (A) (A) (A) (A) (A) (A) (A) (A) (A) (A) (A)
                 (A) (A) (A) (A) (A) (A) (A) (A) (A) (A) (A) (A)
                 (A) (A) (A) (A) (A) (A) (A) (A) (A) (A) (A) (A)
                 (A) (A) (A) (A) (A) (A) (A) (A) (A) (A) (A) (A)
                 (A) (A) (A) (A) (A) (A) (A) (A) (A) (A) (A) (A)
                 (A) (A) (A) (A) (A) (A) (A) (A) (A) (A) (A) (A)
                 (A) (A) (A) (A) (A) (A) (A) (A) (A) (A) (A) (A)
                 (A) (A) (A) (A) (A) (A) (A) (A) (A) (A) (A) (A)
                 (A) (A) (A) (A) (A) (A) (A) (A) (A) (A) (A) (A)
                 (A) (A) (A) (A) (A) (A) (A) (A) (A) (A) (A) (A)
                 (A) (A) (A) (A) (A) (A) (A) (A) (A) (A) (A) (A)
                 (A) (A) (A) (A) (A) (A) (A) (A) (A) (A) (A) (A)
                 (A) (A) (A) (A) (A) (A) (A) (A) (A) (A) (A) (A)
                 (A) (A) (A) (A) (A) (A) (A) (A) (A) (A) (A) (A)
                 (A) (A) (A) (A) (A) (A) (A) (A) (A) (A) (A) (A)
                 (A) (A) (A) (A) (A) (A) (A) (A) (A) (A) (A) (A)
                 (A) (A) (A) (A) (A) (A) (A) (A) (A) (A) (A) (A)
                 (A) (A) (A) (A) (A) (A) (A) (A) (A) (A) (A) (A)
                 (A) (A) (A) (A) (A) (A) (A) (A) (A) (A) (A) (A)
                 (A) (A) (A) (A) (A) (A) (A) (A) (A) (A) (A) (A)
                 (A) (A) (A) (A) (A) (A) (A) (A) (A) (A) (A) (A)
                 (A) (A) (A) (A) (A) (A) (A) (A) (A) (A) (A) (A)
                 (A) (A) (A) (A) (A) (A) (A) (A) (A) (A) (A) (A)
                 (A) (A) (A) (A) (A) (A) (A) (A) (A) (A) (A) (A)
                 (A) (A) (A) (A) (A) (A) (A) (A) (A) (A) (A) (A)
                 (A) (A) (A) (A) (A) (A) (A) (A) (A) (A)
 The electronic state is 2-A.
 Alpha  occ. eigenvalues --  -10.21541 -10.21059 -10.20878 -10.20663 -10.20530
 Alpha  occ. eigenvalues --  -10.20527 -10.20485 -10.20285 -10.20228 -10.20171
 Alpha  occ. eigenvalues --  -10.20091 -10.20059 -10.19711 -10.19568 -10.19461
 Alpha  occ. eigenvalues --  -10.18967 -10.18892 -10.18634 -10.18378 -10.18285
 Alpha  occ. eigenvalues --  -10.18026 -10.17935 -10.17553 -10.17456  -0.90821
 Alpha  occ. eigenvalues --   -0.86899  -0.85202  -0.82824  -0.80983  -0.79715
 Alpha  occ. eigenvalues --   -0.77613  -0.76677  -0.74751  -0.72179  -0.71366
 Alpha  occ. eigenvalues --   -0.69963  -0.66368  -0.64117  -0.62795  -0.62460
 Alpha  occ. eigenvalues --   -0.60167  -0.58739  -0.58100  -0.55680  -0.52736
 Alpha  occ. eigenvalues --   -0.51835  -0.51176  -0.49068  -0.48796  -0.48487
 Alpha  occ. eigenvalues --   -0.47111  -0.46049  -0.44905  -0.44093  -0.43436
 Alpha  occ. eigenvalues --   -0.42939  -0.42429  -0.42225  -0.41989  -0.40394
 Alpha  occ. eigenvalues --   -0.40017  -0.38777  -0.38337  -0.37344  -0.36017
 Alpha  occ. eigenvalues --   -0.35322  -0.35039  -0.34272  -0.33754  -0.32447
 Alpha  occ. eigenvalues --   -0.31539  -0.29287  -0.28216  -0.27572  -0.25656
 Alpha  occ. eigenvalues --   -0.23402  -0.22156  -0.21937  -0.19679
 Alpha virt. eigenvalues --   -0.10234  -0.06140  -0.04032  -0.03648  -0.02136
 Alpha virt. eigenvalues --    0.00042   0.00454   0.00799   0.00922   0.01118
 Alpha virt. eigenvalues --    0.01848   0.01859   0.02182   0.03137   0.03530
 Alpha virt. eigenvalues --    0.03641   0.03999   0.04581   0.05285   0.05473
 Alpha virt. eigenvalues --    0.05895   0.06228   0.06625   0.06784   0.07695
 Alpha virt. eigenvalues --    0.07783   0.08144   0.08324   0.08557   0.08884
 Alpha virt. eigenvalues --    0.09575   0.10175   0.10577   0.10856   0.11172
 Alpha virt. eigenvalues --    0.11333   0.11396   0.12048   0.12603   0.13032
 Alpha virt. eigenvalues --    0.13269   0.13462   0.14022   0.14317   0.14635
 Alpha virt. eigenvalues --    0.14928   0.15415   0.15782   0.15987   0.16535
 Alpha virt. eigenvalues --    0.16736   0.16825   0.17072   0.17081   0.17317
 Alpha virt. eigenvalues --    0.17490   0.17727   0.18141   0.18200   0.18654
 Alpha virt. eigenvalues --    0.18757   0.18979   0.19187   0.19477   0.19773
 Alpha virt. eigenvalues --    0.19800   0.19997   0.20244   0.20434   0.20915
 Alpha virt. eigenvalues --    0.21463   0.21504   0.21771   0.22061   0.22368
 Alpha virt. eigenvalues --    0.22498   0.22626   0.23005   0.23063   0.23578
 Alpha virt. eigenvalues --    0.23866   0.24235   0.24469   0.24629   0.25061
 Alpha virt. eigenvalues --    0.25388   0.25705   0.26150   0.26421   0.26565
 Alpha virt. eigenvalues --    0.27163   0.27203   0.27436   0.27728   0.28122
 Alpha virt. eigenvalues --    0.28744   0.28941   0.29296   0.29536   0.29874
 Alpha virt. eigenvalues --    0.30138   0.31012   0.31211   0.31411   0.31731
 Alpha virt. eigenvalues --    0.32236   0.32918   0.33194   0.33494   0.34112
 Alpha virt. eigenvalues --    0.34703   0.34847   0.35528   0.36596   0.36766
 Alpha virt. eigenvalues --    0.37428   0.38570   0.38729   0.39172   0.39708
 Alpha virt. eigenvalues --    0.40446   0.40614   0.41657   0.42286   0.42948
 Alpha virt. eigenvalues --    0.43938   0.44640   0.45136   0.47146   0.47964
 Alpha virt. eigenvalues --    0.48704   0.48927   0.49857   0.50084   0.51638
 Alpha virt. eigenvalues --    0.52104   0.52426   0.53088   0.53651   0.54238
 Alpha virt. eigenvalues --    0.54509   0.54860   0.55295   0.55608   0.56224
 Alpha virt. eigenvalues --    0.56503   0.56698   0.57202   0.57861   0.58242
 Alpha virt. eigenvalues --    0.58943   0.59289   0.59831   0.60079   0.60359
 Alpha virt. eigenvalues --    0.61512   0.62356   0.62429   0.62910   0.63172
 Alpha virt. eigenvalues --    0.63678   0.64033   0.64087   0.64169   0.65093
 Alpha virt. eigenvalues --    0.65450   0.66312   0.67136   0.67339   0.67374
 Alpha virt. eigenvalues --    0.67824   0.67881   0.68415   0.69331   0.69490
 Alpha virt. eigenvalues --    0.69903   0.70268   0.70619   0.71303   0.72131
 Alpha virt. eigenvalues --    0.72185   0.72378   0.72715   0.74055   0.74324
 Alpha virt. eigenvalues --    0.74717   0.75330   0.75497   0.75800   0.76375
 Alpha virt. eigenvalues --    0.77387   0.78062   0.78364   0.79779   0.80421
 Alpha virt. eigenvalues --    0.81715   0.81967   0.82777   0.83141   0.84016
 Alpha virt. eigenvalues --    0.84973   0.86294   0.86565   0.87191   0.88071
 Alpha virt. eigenvalues --    0.88344   0.89364   0.89702   0.90151   0.91036
 Alpha virt. eigenvalues --    0.91879   0.92697   0.93319   0.93959   0.94384
 Alpha virt. eigenvalues --    0.94591   0.94866   0.95545   0.96179   0.96569
 Alpha virt. eigenvalues --    0.97020   0.97222   0.98014   0.98962   0.99328
 Alpha virt. eigenvalues --    1.00745   1.00813   1.01029   1.01984   1.02564
 Alpha virt. eigenvalues --    1.03693   1.04214   1.04274   1.05052   1.05327
 Alpha virt. eigenvalues --    1.06202   1.06959   1.07838   1.08335   1.08757
 Alpha virt. eigenvalues --    1.09440   1.10722   1.11864   1.12879   1.13495
 Alpha virt. eigenvalues --    1.14413   1.14711   1.15652   1.17362   1.18189
 Alpha virt. eigenvalues --    1.19351   1.20118   1.24162   1.24881   1.26527
 Alpha virt. eigenvalues --    1.28252   1.30197   1.30757   1.32590   1.34872
 Alpha virt. eigenvalues --    1.36268   1.37809   1.38192   1.38927   1.39473
 Alpha virt. eigenvalues --    1.40909   1.42572   1.43845   1.45290   1.45967
 Alpha virt. eigenvalues --    1.46274   1.46420   1.47071   1.47638   1.47914
 Alpha virt. eigenvalues --    1.48182   1.49513   1.50540   1.50725   1.51171
 Alpha virt. eigenvalues --    1.51648   1.53371   1.54731   1.55765   1.56176
 Alpha virt. eigenvalues --    1.57163   1.57798   1.58259   1.59411   1.60558
 Alpha virt. eigenvalues --    1.61795   1.62309   1.63713   1.64291   1.64852
 Alpha virt. eigenvalues --    1.66004   1.66426   1.67199   1.68177   1.69267
 Alpha virt. eigenvalues --    1.71076   1.71553   1.72597   1.73258   1.74001
 Alpha virt. eigenvalues --    1.74564   1.75721   1.76619   1.77726   1.78602
 Alpha virt. eigenvalues --    1.79420   1.79977   1.80265   1.81770   1.82399
 Alpha virt. eigenvalues --    1.83072   1.83473   1.84367   1.85413   1.85899
 Alpha virt. eigenvalues --    1.86237   1.86695   1.87699   1.88188   1.89084
 Alpha virt. eigenvalues --    1.90430   1.90936   1.91376   1.92558   1.93166
 Alpha virt. eigenvalues --    1.93315   1.94288   1.95224   1.96227   1.97040
 Alpha virt. eigenvalues --    1.98088   1.98900   1.99826   2.00892   2.00963
 Alpha virt. eigenvalues --    2.01888   2.02476   2.03162   2.04315   2.05002
 Alpha virt. eigenvalues --    2.06608   2.08181   2.08594   2.10284   2.11906
 Alpha virt. eigenvalues --    2.12359   2.13094   2.13356   2.15947   2.17843
 Alpha virt. eigenvalues --    2.18192   2.18648   2.20156   2.21383   2.21904
 Alpha virt. eigenvalues --    2.22306   2.23839   2.25424   2.26479   2.27333
 Alpha virt. eigenvalues --    2.32499   2.34061   2.35510   2.37219   2.38691
 Alpha virt. eigenvalues --    2.39913   2.40390   2.40735   2.41483   2.42952
 Alpha virt. eigenvalues --    2.44769   2.45414   2.47596   2.51603   2.51752
 Alpha virt. eigenvalues --    2.53001   2.55004   2.57557   2.58943   2.61415
 Alpha virt. eigenvalues --    2.62395   2.62547   2.63234   2.65161   2.66018
 Alpha virt. eigenvalues --    2.66584   2.68743   2.69719   2.70039   2.70431
 Alpha virt. eigenvalues --    2.71002   2.71527   2.71998   2.72510   2.72870
 Alpha virt. eigenvalues --    2.73326   2.74371   2.74958   2.75233   2.75848
 Alpha virt. eigenvalues --    2.76218   2.76713   2.77538   2.77810   2.78536
 Alpha virt. eigenvalues --    2.79695   2.80531   2.81645   2.82067   2.82410
 Alpha virt. eigenvalues --    2.83551   2.84159   2.85327   2.86495   2.86830
 Alpha virt. eigenvalues --    2.87364   2.89219   2.89942   2.91290   2.92117
 Alpha virt. eigenvalues --    2.94239   2.95220   2.97028   2.98781   2.99732
 Alpha virt. eigenvalues --    3.01301   3.04350   3.07701   3.08459   3.09390
 Alpha virt. eigenvalues --    3.10695   3.10994   3.11383   3.12372   3.13667
 Alpha virt. eigenvalues --    3.14177   3.16305   3.18674   3.21096   3.23914
 Alpha virt. eigenvalues --    3.28583   3.29150   3.31389   3.33327   3.33804
 Alpha virt. eigenvalues --    3.36959   3.37369   3.38239   3.39762   3.41055
 Alpha virt. eigenvalues --    3.42839   3.45457   3.48458   3.49735   3.52166
 Alpha virt. eigenvalues --    3.53888   3.55085   3.59054   3.60062   3.62723
 Alpha virt. eigenvalues --    3.66044   3.73874   3.79596   3.82378   3.85380
 Alpha virt. eigenvalues --    3.86774   4.01062   4.01955   4.04532   4.04676
 Alpha virt. eigenvalues --    4.05701   4.06957   4.14694   4.16738   4.20076
 Alpha virt. eigenvalues --    4.26868   4.34069   4.53265   4.68804   4.71465
 Alpha virt. eigenvalues --    4.72436   4.75275   4.77501   4.79749  23.40510
 Alpha virt. eigenvalues --   23.62660  23.68151  23.74682  23.75771  23.79767
 Alpha virt. eigenvalues --   23.81458  23.83325  23.84465  23.86910  23.87955
 Alpha virt. eigenvalues --   23.89768  23.92524  23.93395  23.93837  23.94046
 Alpha virt. eigenvalues --   24.09677  24.16735  24.18739  24.19898  24.20164
 Alpha virt. eigenvalues --   24.22897  24.23428  24.26565
  Beta  occ. eigenvalues --  -10.21373 -10.20878 -10.20532 -10.20530 -10.20526
  Beta  occ. eigenvalues --  -10.20484 -10.20287 -10.20231 -10.20178 -10.20093
  Beta  occ. eigenvalues --  -10.20058 -10.19880 -10.19710 -10.19582 -10.19455
  Beta  occ. eigenvalues --  -10.18978 -10.18895 -10.18635 -10.18379 -10.18287
  Beta  occ. eigenvalues --  -10.18025 -10.17937 -10.17550 -10.17455  -0.90813
  Beta  occ. eigenvalues --   -0.86892  -0.85150  -0.82791  -0.80937  -0.79535
  Beta  occ. eigenvalues --   -0.77514  -0.76648  -0.74497  -0.71826  -0.71009
  Beta  occ. eigenvalues --   -0.69846  -0.66028  -0.63649  -0.62798  -0.62104
  Beta  occ. eigenvalues --   -0.59655  -0.58148  -0.57686  -0.55626  -0.52689
  Beta  occ. eigenvalues --   -0.51615  -0.51126  -0.48959  -0.48780  -0.48387
  Beta  occ. eigenvalues --   -0.46534  -0.45871  -0.44861  -0.44073  -0.43406
  Beta  occ. eigenvalues --   -0.42916  -0.42330  -0.42182  -0.41969  -0.40361
  Beta  occ. eigenvalues --   -0.40018  -0.38739  -0.38292  -0.37356  -0.35978
  Beta  occ. eigenvalues --   -0.35271  -0.34996  -0.34255  -0.33739  -0.32422
  Beta  occ. eigenvalues --   -0.31512  -0.29197  -0.27973  -0.27553  -0.25240
  Beta  occ. eigenvalues --   -0.23042  -0.21897  -0.19680
  Beta virt. eigenvalues --   -0.10203  -0.07230  -0.05741  -0.04012  -0.03093
  Beta virt. eigenvalues --   -0.01936   0.00054   0.00456   0.00821   0.00937
  Beta virt. eigenvalues --    0.01145   0.01864   0.01908   0.02414   0.03177
  Beta virt. eigenvalues --    0.03530   0.03760   0.04023   0.04665   0.05321
  Beta virt. eigenvalues --    0.05477   0.05963   0.06256   0.06715   0.06944
  Beta virt. eigenvalues --    0.07719   0.07923   0.08154   0.08334   0.08691
  Beta virt. eigenvalues --    0.09259   0.09609   0.10241   0.10623   0.10876
  Beta virt. eigenvalues --    0.11228   0.11386   0.11653   0.12107   0.12764
  Beta virt. eigenvalues --    0.13026   0.13279   0.13496   0.14092   0.14356
  Beta virt. eigenvalues --    0.14736   0.14988   0.15511   0.15812   0.16011
  Beta virt. eigenvalues --    0.16517   0.16790   0.16877   0.17094   0.17278
  Beta virt. eigenvalues --    0.17324   0.17538   0.17933   0.18176   0.18233
  Beta virt. eigenvalues --    0.18650   0.18799   0.18980   0.19238   0.19497
  Beta virt. eigenvalues --    0.19804   0.19822   0.19991   0.20240   0.20473
  Beta virt. eigenvalues --    0.20916   0.21485   0.21573   0.21763   0.22105
  Beta virt. eigenvalues --    0.22457   0.22534   0.22663   0.23016   0.23103
  Beta virt. eigenvalues --    0.23575   0.23883   0.24249   0.24525   0.24623
  Beta virt. eigenvalues --    0.25128   0.25393   0.25710   0.26242   0.26456
  Beta virt. eigenvalues --    0.26653   0.27203   0.27271   0.27449   0.27792
  Beta virt. eigenvalues --    0.28125   0.28806   0.28987   0.29377   0.29551
  Beta virt. eigenvalues --    0.29928   0.30148   0.31085   0.31407   0.31560
  Beta virt. eigenvalues --    0.31761   0.32384   0.32924   0.33277   0.33556
  Beta virt. eigenvalues --    0.34231   0.34731   0.34879   0.35566   0.36726
  Beta virt. eigenvalues --    0.37023   0.37530   0.38694   0.38727   0.39269
  Beta virt. eigenvalues --    0.39788   0.40498   0.40652   0.41717   0.42299
  Beta virt. eigenvalues --    0.42992   0.43974   0.44678   0.45153   0.47188
  Beta virt. eigenvalues --    0.47983   0.48754   0.48981   0.49953   0.50128
  Beta virt. eigenvalues --    0.51757   0.52149   0.52500   0.53173   0.53809
  Beta virt. eigenvalues --    0.54250   0.54629   0.54921   0.55331   0.55703
  Beta virt. eigenvalues --    0.56345   0.56529   0.56836   0.57250   0.58230
  Beta virt. eigenvalues --    0.58278   0.59071   0.59286   0.59948   0.60405
  Beta virt. eigenvalues --    0.60792   0.61919   0.62421   0.62614   0.62977
  Beta virt. eigenvalues --    0.63255   0.63860   0.64096   0.64165   0.64588
  Beta virt. eigenvalues --    0.65118   0.65585   0.66815   0.67311   0.67343
  Beta virt. eigenvalues --    0.67516   0.67882   0.68133   0.68494   0.69394
  Beta virt. eigenvalues --    0.69699   0.70165   0.70398   0.71177   0.71571
  Beta virt. eigenvalues --    0.72176   0.72352   0.72410   0.72986   0.74172
  Beta virt. eigenvalues --    0.74400   0.74860   0.75450   0.75649   0.75902
  Beta virt. eigenvalues --    0.76463   0.77481   0.78168   0.78403   0.79898
  Beta virt. eigenvalues --    0.80483   0.81754   0.82106   0.82859   0.83416
  Beta virt. eigenvalues --    0.84167   0.85332   0.86369   0.86647   0.87191
  Beta virt. eigenvalues --    0.88098   0.88424   0.89366   0.89752   0.90237
  Beta virt. eigenvalues --    0.91070   0.91919   0.92746   0.93327   0.93975
  Beta virt. eigenvalues --    0.94407   0.94621   0.94899   0.95593   0.96177
  Beta virt. eigenvalues --    0.96579   0.97030   0.97290   0.98021   0.98999
  Beta virt. eigenvalues --    0.99536   1.00777   1.00909   1.01056   1.02027
  Beta virt. eigenvalues --    1.02641   1.03760   1.04266   1.04389   1.05051
  Beta virt. eigenvalues --    1.05442   1.06259   1.07112   1.07954   1.08388
  Beta virt. eigenvalues --    1.08799   1.09582   1.10850   1.11894   1.13080
  Beta virt. eigenvalues --    1.13613   1.14517   1.14744   1.15677   1.17456
  Beta virt. eigenvalues --    1.18337   1.19737   1.20156   1.24292   1.25575
  Beta virt. eigenvalues --    1.26872   1.28420   1.30358   1.30820   1.32868
  Beta virt. eigenvalues --    1.34952   1.37526   1.38421   1.38896   1.39529
  Beta virt. eigenvalues --    1.39863   1.42501   1.43004   1.44623   1.45318
  Beta virt. eigenvalues --    1.46061   1.46367   1.46717   1.47083   1.47743
  Beta virt. eigenvalues --    1.48473   1.48861   1.49894   1.50547   1.50784
  Beta virt. eigenvalues --    1.51530   1.52563   1.53777   1.55152   1.55871
  Beta virt. eigenvalues --    1.56258   1.57426   1.57823   1.58334   1.59474
  Beta virt. eigenvalues --    1.60612   1.61961   1.62360   1.63880   1.64518
  Beta virt. eigenvalues --    1.64914   1.66123   1.66652   1.67264   1.68183
  Beta virt. eigenvalues --    1.69298   1.71170   1.71618   1.72619   1.73425
  Beta virt. eigenvalues --    1.74036   1.74676   1.75729   1.76707   1.78045
  Beta virt. eigenvalues --    1.78773   1.79511   1.79998   1.80319   1.81861
  Beta virt. eigenvalues --    1.82457   1.83190   1.83602   1.84415   1.85559
  Beta virt. eigenvalues --    1.85919   1.86287   1.86725   1.87771   1.88249
  Beta virt. eigenvalues --    1.89363   1.90529   1.90996   1.91443   1.92602
  Beta virt. eigenvalues --    1.93174   1.93360   1.94334   1.95272   1.96250
  Beta virt. eigenvalues --    1.97075   1.98127   1.98913   1.99874   2.00901
  Beta virt. eigenvalues --    2.00980   2.01909   2.02500   2.03213   2.04344
  Beta virt. eigenvalues --    2.05093   2.06667   2.08324   2.08739   2.10306
  Beta virt. eigenvalues --    2.11921   2.12540   2.13105   2.13434   2.16090
  Beta virt. eigenvalues --    2.17865   2.18214   2.18754   2.20236   2.21511
  Beta virt. eigenvalues --    2.22019   2.22323   2.24021   2.25497   2.26555
  Beta virt. eigenvalues --    2.27473   2.32621   2.34077   2.35629   2.37478
  Beta virt. eigenvalues --    2.38742   2.40139   2.40457   2.40751   2.41488
  Beta virt. eigenvalues --    2.42977   2.44776   2.45452   2.47599   2.51606
  Beta virt. eigenvalues --    2.51760   2.53319   2.55004   2.57603   2.59001
  Beta virt. eigenvalues --    2.62119   2.62487   2.62710   2.64014   2.65434
  Beta virt. eigenvalues --    2.66072   2.66706   2.69031   2.69791   2.70092
  Beta virt. eigenvalues --    2.70485   2.71086   2.71640   2.72057   2.72546
  Beta virt. eigenvalues --    2.72882   2.73352   2.74404   2.74964   2.75345
  Beta virt. eigenvalues --    2.75959   2.76219   2.76712   2.77600   2.77915
  Beta virt. eigenvalues --    2.79215   2.79763   2.80679   2.81673   2.82180
  Beta virt. eigenvalues --    2.82573   2.83716   2.84549   2.85608   2.86657
  Beta virt. eigenvalues --    2.87341   2.87589   2.89352   2.90858   2.91834
  Beta virt. eigenvalues --    2.92754   2.95231   2.95616   2.97266   2.98794
  Beta virt. eigenvalues --    3.00090   3.01762   3.04709   3.07807   3.08495
  Beta virt. eigenvalues --    3.09485   3.10511   3.11031   3.11361   3.12536
  Beta virt. eigenvalues --    3.13676   3.14173   3.16349   3.18697   3.21125
  Beta virt. eigenvalues --    3.23919   3.28671   3.29174   3.31427   3.33347
  Beta virt. eigenvalues --    3.33874   3.37089   3.37417   3.38286   3.39834
  Beta virt. eigenvalues --    3.41057   3.43218   3.45461   3.48880   3.49736
  Beta virt. eigenvalues --    3.52340   3.53979   3.55086   3.59055   3.60074
  Beta virt. eigenvalues --    3.62737   3.66042   3.73880   3.79883   3.82375
  Beta virt. eigenvalues --    3.85619   3.87046   4.01062   4.01968   4.04531
  Beta virt. eigenvalues --    4.04677   4.05702   4.06961   4.14695   4.16754
  Beta virt. eigenvalues --    4.20078   4.26869   4.34078   4.53266   4.68803
  Beta virt. eigenvalues --    4.71470   4.72439   4.75276   4.77506   4.79748
  Beta virt. eigenvalues --   23.40528  23.62713  23.68403  23.74687  23.75840
  Beta virt. eigenvalues --   23.79796  23.81610  23.83350  23.84475  23.86916
  Beta virt. eigenvalues --   23.87955  23.89769  23.92521  23.93394  23.93833
  Beta virt. eigenvalues --   23.94045  24.10101  24.16899  24.18837  24.19904
  Beta virt. eigenvalues --   24.20242  24.23055  24.23435  24.26632
          Condensed to atoms (all electrons):
               1          2          3          4          5          6
     1  C   13.711766  -2.899000  -1.446079  -1.305164  -0.346933   2.753971
     2  C   -2.899000  11.488368   1.564198  -0.991589  -0.419897  -0.622593
     3  C   -1.446079   1.564198   7.721427   1.743549  -0.617896  -0.444939
     4  C   -1.305164  -0.991589   1.743549  12.820155  -2.636819  -2.857741
     5  C   -0.346933  -0.419897  -0.617896  -2.636819  11.664252   1.452010
     6  C    2.753971  -0.622593  -0.444939  -2.857741   1.452010   9.018734
     7  C   -1.692335   1.242419   0.991356   0.310706  -0.283167  -0.911205
     8  C    0.417982  -0.350463  -0.605281  -0.140273   0.452469   0.417060
     9  C    0.241804   0.152359  -0.812207  -1.337289  -0.209016   0.552934
    10  C   -0.067730   0.040696  -0.885465  -0.315284  -0.648132   0.442490
    11  C   -0.016544   0.138520   0.315905  -0.085033  -0.254869  -0.146405
    12  C   -0.239544  -0.697218  -1.045248   0.025370   0.151214   0.141770
    13  C   -0.466586   0.259004   0.954551   0.574361   0.099875  -0.253844
    14  C    0.044634   0.020535  -0.014895  -0.003481   0.018800   0.015725
    15  C   -0.007013  -0.028454   0.148422  -0.002574   0.002462  -0.061892
    16  C   -0.809649  -0.450405   0.393339   0.415383   0.039965  -0.716223
    17  C   -0.172644  -0.187831  -0.218047   0.047145  -0.051003  -0.005085
    18  H    0.294565  -0.026022   0.051221   0.035306  -0.034662  -0.019292
    19  H    0.061662  -0.035146  -0.018552   0.329965  -0.062152   0.046312
    20  C   -0.441698   0.113919  -1.204888  -0.326325  -3.349477  -1.518222
    21  C    0.407258  -0.696515  -0.143750   0.516184  -0.438180  -0.597896
    22  C    0.182749  -0.208520  -0.190491  -0.145133   0.116370  -0.326280
    23  H    0.000008  -0.000398  -0.002687  -0.000051  -0.000145   0.002983
    24  H   -0.000047  -0.000674  -0.000160   0.000000   0.000037  -0.000060
    25  H    0.014319   0.022874   0.009087  -0.000593  -0.001710   0.000264
    26  H    0.000549   0.000638   0.004573  -0.000042   0.000046  -0.000713
    27  H    0.000020   0.000193   0.000094  -0.000002  -0.000014  -0.000005
    28  C   -1.826825  -1.829549  -0.788619   0.119333   0.126837  -1.598117
    29  C    0.332909   0.009801   0.033286  -0.018468   0.017802   0.064163
    30  H    0.025654  -0.167009  -0.022159   0.003086   0.006913  -0.012608
    31  H   -0.004728  -0.026802  -0.002711   0.000870  -0.001300  -0.004953
    32  C   -0.071850   0.450276   0.253295  -0.782362   0.190368   1.629826
    33  C   -0.127393  -0.041040   0.212202   0.269585   0.528205  -0.378509
    34  H   -0.002443   0.015929  -0.003718   0.028815  -0.069131   0.025247
    35  H   -0.000870   0.000716  -0.003667   0.009488  -0.044407  -0.015451
    36  H    0.000449  -0.000454   0.002998  -0.000332   0.009315  -0.011131
    37  H   -0.000084   0.000321   0.005577   0.000068   0.000724  -0.001223
               7          8          9         10         11         12
     1  C   -1.692335   0.417982   0.241804  -0.067730  -0.016544  -0.239544
     2  C    1.242419  -0.350463   0.152359   0.040696   0.138520  -0.697218
     3  C    0.991356  -0.605281  -0.812207  -0.885465   0.315905  -1.045248
     4  C    0.310706  -0.140273  -1.337289  -0.315284  -0.085033   0.025370
     5  C   -0.283167   0.452469  -0.209016  -0.648132  -0.254869   0.151214
     6  C   -0.911205   0.417060   0.552934   0.442490  -0.146405   0.141770
     7  C    8.855243   0.161382  -0.793854  -0.212092   0.533572  -1.215873
     8  C    0.161382   8.196043   0.459480   0.604593  -1.188989   0.394610
     9  C   -0.793854   0.459480   7.611184   0.231588  -0.730205  -0.498501
    10  C   -0.212092   0.604593   0.231588  11.051257   1.107244  -1.873562
    11  C    0.533572  -1.188989  -0.730205   1.107244   9.687782  -0.274649
    12  C   -1.215873   0.394610  -0.498501  -1.873562  -0.274649  14.426508
    13  C    3.432364   0.742610  -0.690380  -1.612186  -1.250457  -1.742555
    14  C   -1.108112  -0.600129   0.272230   0.054554  -0.566526  -0.695048
    15  C    0.064813   0.001675  -0.095377  -0.796221  -1.417470  -0.658126
    16  C   -2.647048  -2.633977  -0.281441   0.158672   0.678442  -0.651686
    17  C   -0.031179  -0.182024  -0.003988   0.273318   0.559157   0.728277
    18  H    0.004806   0.000906  -0.003752  -0.000068  -0.000036   0.000290
    19  H   -0.003804   0.003181  -0.009361  -0.000133   0.000002   0.000119
    20  C    0.025718  -0.165580   1.607711   0.585028  -0.001170   0.161502
    21  C   -0.471184   0.260709   1.373016   0.480961   0.051600  -0.018669
    22  C   -1.282531  -0.037315   1.414526  -1.877037  -1.222442  -0.338562
    23  H   -0.022807   0.025574  -0.006321  -0.067403   0.318925  -0.018079
    24  H   -0.011403   0.004202   0.001713   0.046369   0.098915  -0.106582
    25  H    0.025313   0.015838   0.000017  -0.000408   0.002183  -0.039278
    26  H    0.003620   0.002786  -0.000396  -0.002593  -0.006209  -0.039906
    27  H    0.004114   0.001252   0.000219   0.005014   0.016770   0.048137
    28  C    0.654751  -0.405927  -0.137013   0.089308   0.065581   0.063554
    29  C    0.042573   0.049423  -0.002340  -0.011347  -0.000865  -0.085177
    30  H    0.008217   0.000366   0.000338   0.000050  -0.000449  -0.000491
    31  H    0.002020  -0.003483  -0.000251   0.000110   0.000678   0.000114
    32  C    0.365747  -0.925902  -1.276256  -0.245424   0.206432  -0.315518
    33  C   -0.184740   0.950805  -0.910594  -0.786717  -0.379939  -0.320557
    34  H    0.004762  -0.000604  -0.005933   0.001175   0.000125  -0.000005
    35  H    0.002486  -0.008279   0.039427   0.012325   0.000450   0.000277
    36  H   -0.000005  -0.001602   0.025389  -0.018332  -0.002040   0.000598
    37  H    0.003379   0.026911  -0.011952  -0.058648   0.048722   0.002550
              13         14         15         16         17         18
     1  C   -0.466586   0.044634  -0.007013  -0.809649  -0.172644   0.294565
     2  C    0.259004   0.020535  -0.028454  -0.450405  -0.187831  -0.026022
     3  C    0.954551  -0.014895   0.148422   0.393339  -0.218047   0.051221
     4  C    0.574361  -0.003481  -0.002574   0.415383   0.047145   0.035306
     5  C    0.099875   0.018800   0.002462   0.039965  -0.051003  -0.034662
     6  C   -0.253844   0.015725  -0.061892  -0.716223  -0.005085  -0.019292
     7  C    3.432364  -1.108112   0.064813  -2.647048  -0.031179   0.004806
     8  C    0.742610  -0.600129   0.001675  -2.633977  -0.182024   0.000906
     9  C   -0.690380   0.272230  -0.095377  -0.281441  -0.003988  -0.003752
    10  C   -1.612186   0.054554  -0.796221   0.158672   0.273318  -0.000068
    11  C   -1.250457  -0.566526  -1.417470   0.678442   0.559157  -0.000036
    12  C   -1.742555  -0.695048  -0.658126  -0.651686   0.728277   0.000290
    13  C   15.606805  -3.282593   1.093745  -5.159083  -1.308923   0.005294
    14  C   -3.282593   9.171579   0.621634   2.471458  -0.942830  -0.000032
    15  C    1.093745   0.621634   7.622483  -0.116235  -0.239024   0.000011
    16  C   -5.159083   2.471458  -0.116235  16.188055  -0.690060  -0.000316
    17  C   -1.308923  -0.942830  -0.239024  -0.690060   8.557168   0.000097
    18  H    0.005294  -0.000032   0.000011  -0.000316   0.000097   0.544120
    19  H   -0.000597   0.000007   0.000000  -0.000557  -0.000030  -0.009523
    20  C   -0.165754  -0.012820   0.002546  -0.111824  -0.007742   0.009813
    21  C   -0.411064  -0.038835  -0.007031  -0.254732   0.009188   0.001599
    22  C   -0.880325   0.268632  -0.096256  -0.319353   0.021706  -0.000054
    23  H   -0.037043   0.062776   0.018949   0.001073  -0.001809  -0.000000
    24  H   -0.014820   0.402971  -0.087031  -0.003639  -0.004396  -0.000000
    25  H    0.087307  -0.022988   0.004321   0.273233  -0.054698  -0.000010
    26  H    0.102803  -0.024875   0.007774  -0.079834   0.376240   0.000000
    27  H    0.006733  -0.059665   0.325317  -0.023586   0.017784  -0.000000
    28  C   -0.490969  -0.009193   0.115465   0.734583   0.062970   0.018307
    29  C    0.156390  -0.036451  -0.017081  -0.172002  -0.094299   0.002190
    30  H    0.007132   0.000359  -0.000029  -0.012512  -0.018056   0.001295
    31  H   -0.010732  -0.000084   0.000003   0.010724   0.006785  -0.000021
    32  C    0.011216   0.012753  -0.000571   0.076170   0.000474  -0.002071
    33  C    0.381408  -0.104212  -0.026219   0.090210   0.020559   0.000182
    34  H    0.000095   0.000002   0.000001   0.000089  -0.000002   0.000000
    35  H   -0.000336  -0.000014   0.000001  -0.000032  -0.000000  -0.000000
    36  H   -0.000114   0.000200  -0.000001   0.000038  -0.000003  -0.000000
    37  H    0.013777   0.001901   0.000351   0.001065   0.000002  -0.000000
              19         20         21         22         23         24
     1  C    0.061662  -0.441698   0.407258   0.182749   0.000008  -0.000047
     2  C   -0.035146   0.113919  -0.696515  -0.208520  -0.000398  -0.000674
     3  C   -0.018552  -1.204888  -0.143750  -0.190491  -0.002687  -0.000160
     4  C    0.329965  -0.326325   0.516184  -0.145133  -0.000051   0.000000
     5  C   -0.062152  -3.349477  -0.438180   0.116370  -0.000145   0.000037
     6  C    0.046312  -1.518222  -0.597896  -0.326280   0.002983  -0.000060
     7  C   -0.003804   0.025718  -0.471184  -1.282531  -0.022807  -0.011403
     8  C    0.003181  -0.165580   0.260709  -0.037315   0.025574   0.004202
     9  C   -0.009361   1.607711   1.373016   1.414526  -0.006321   0.001713
    10  C   -0.000133   0.585028   0.480961  -1.877037  -0.067403   0.046369
    11  C    0.000002  -0.001170   0.051600  -1.222442   0.318925   0.098915
    12  C    0.000119   0.161502  -0.018669  -0.338562  -0.018079  -0.106582
    13  C   -0.000597  -0.165754  -0.411064  -0.880325  -0.037043  -0.014820
    14  C    0.000007  -0.012820  -0.038835   0.268632   0.062776   0.402971
    15  C    0.000000   0.002546  -0.007031  -0.096256   0.018949  -0.087031
    16  C   -0.000557  -0.111824  -0.254732  -0.319353   0.001073  -0.003639
    17  C   -0.000030  -0.007742   0.009188   0.021706  -0.001809  -0.004396
    18  H   -0.009523   0.009813   0.001599  -0.000054  -0.000000  -0.000000
[...]
 01114812,-0.00069398,-0.02213721,-0.01708689,0.00026060,0.00695661,0.0
 4926774,-0.00075150,0.00948488,-0.04877146,0.00164576,0.00883703,0.023
 07683,-0.00152298,0.00497442,-0.01391772,0.00121138,-0.00987135,-0.005
 85029,0.00047808,0.00301429,0.00638363,-0.00063833,0.00440684,-0.00464
 619,0.00087898,0.00083039,0.00448987,-0.00079251,-0.00554174,-0.001035
 07,-0.00002418,0.00005801,0.00004116,0.00005102,0.00001580,-0.00009045
 ,0.00002942,0.00950639,-0.01401033,0.00036755,-0.20926607,0.03609492,-
 0.00900448,-0.27711501,-0.10205562,-0.00759344,-0.00006237,0.00045059,
 0.00011419,-0.00010825,0.00007624,0.00002982,0.00004621,-0.00007307,0.
 00003203,-0.00009601,-0.00005440,0.00001586,0.00003750,-0.00010015,-0.
 00000270,-0.00003707,-0.00026121,0.00002539,0.00016360,0.00025920,0.00
 003254,-0.00003928,-0.00002929,0.00005659,-0.00003274,-0.00001849,0.00
 001191,-0.04081482,0.00658092,-0.00216433,0.60132833,0.00037660,0.0013
 3133,0.00006392,-0.00142838,-0.00035724,-0.00035342,0.00236277,-0.0006
 1726,0.00014200,0.00109746,-0.00076343,0.00002193,-0.00153217,-0.00011
 237,-0.00007749,-0.00063691,-0.00537185,0.00016143,-0.00142315,0.00088
 553,0.00039010,-0.00677378,-0.00170389,-0.00046711,0.04099869,-0.01739
 806,0.00269121,-0.02620823,-0.03743746,0.00012180,0.00704743,0.0015115
 3,-0.00006391,-0.00033037,-0.00329148,0.00036470,-0.00122282,-0.000272
 72,-0.00018657,0.00097118,0.00063544,-0.00006148,0.00077773,-0.0006077
 4,0.00013595,-0.00010308,0.00002063,-0.00014045,-0.00040765,-0.0003327
 3,0.00005190,0.00002682,0.00006089,0.00004500,0.00001776,-0.00005869,0
 .00000904,-0.00367680,-0.00320079,-0.00019779,0.06126294,-0.13676858,0
 .00397889,-0.14752650,-0.22481639,-0.00315374,-0.00029646,-0.00001348,
 0.00000409,-0.00001744,0.00005090,-0.00000043,-0.00001248,-0.00009600,
 0.00005519,-0.00000841,-0.00001617,0.00001442,-0.00001107,-0.00009990,
 0.00000850,0.00012352,-0.00016856,-0.00001861,0.00007368,0.00018702,0.
 00002566,-0.00000905,-0.00002580,0.00002082,-0.00003195,-0.00004085,0.
 00002567,-0.01509832,0.01529937,-0.00100830,0.03439654,0.72676947,0.00
 000448,0.00005747,0.00021780,-0.00001533,0.00005888,-0.00010396,-0.000
 12762,0.00003700,-0.00055853,0.00009666,-0.00012085,-0.00076232,0.0000
 0933,0.00039561,-0.00103720,-0.00034528,0.00011131,0.00706824,0.000156
 18,0.00055545,-0.00068187,-0.00063019,-0.00096181,-0.00207672,-0.00051
 467,0.00273567,0.00516289,0.00072829,-0.00081894,0.00434518,0.00021514
 ,0.00124032,0.00401453,0.00026261,-0.00064687,0.00018521,-0.00051592,-
 0.00030571,0.00006407,0.00016269,0.00023777,-0.00062951,0.00020031,-0.
 00020728,0.00018190,0.00003657,0.00026366,0.00015815,-0.00028365,-0.00
 005524,-0.00005936,0.00001170,0.00000555,-0.00004322,-0.00000694,-0.00
 000455,0.00008596,0.00016081,-0.00060038,0.00467760,-0.00921642,0.0028
 8076,-0.06057697,-0.00691404,-0.00138777,-0.05852455,0.00002088,0.0000
 1229,-0.00015531,-0.00000697,0.00000329,0.00000029,0.00001395,-0.00000
 228,-0.00001796,-0.00000472,-0.00000580,-0.00002780,-0.00000025,0.0000
 0378,0.00005574,-0.00000109,-0.00000937,-0.00012325,-0.00000786,0.0000
 0335,0.00001579,-0.00000562,0.00001432,0.00001660,0.00000574,0.0000017
 4,-0.00000317,-0.00195997,0.00030689,0.00011643,0.02195341,-0.01086675
 ,0.13218142,-0.00009193,-0.00040857,-0.00001679,0.00030063,-0.00000204
 ,0.00004837,0.00013354,0.00045321,-0.00003448,0.00085097,0.00030653,0.
 00021903,0.00373322,0.00173182,0.00008732,0.00119653,0.00058581,-0.000
 21350,-0.00005070,-0.00003761,0.00000012,0.00002496,-0.00002130,0.0000
 1462,0.00022469,0.00066934,0.00009700,-0.00001028,0.00007793,-0.000006
 46,0.00003043,-0.00000180,-0.00000300,-0.00001442,0.00000143,0.0000042
 2,0.00002844,0.00003300,0.00000430,0.00001381,-0.00000005,-0.00000382,
 0.00000213,-0.00000439,0.00000079,-0.00001457,-0.00002218,0.00000901,0
 .00001158,-0.00001414,0.00000263,-0.00000160,-0.00004414,-0.00001225,0
 .00001907,-0.00062471,-0.00001337,-0.25788169,-0.12081339,-0.01253852,
 -0.00266761,0.00384478,-0.00070617,-0.00039980,0.00028302,-0.00000168,
 -0.00000706,0.00000228,-0.00000014,-0.00000424,0.00000311,-0.00000047,
 0.00000315,-0.00000024,-0.00000394,0.00000095,-0.00000529,0.00000065,-
 0.00000505,-0.00000537,0.00000075,-0.00000400,-0.00001016,-0.00003136,
 0.00000856,-0.00003416,-0.00000555,-0.00000293,-0.00000914,0.00000322,
 -0.00000607,0.00000667,0.00000997,-0.01952280,-0.01563951,-0.00128177,
 -0.00031018,-0.00116511,-0.00003382,0.27365674,0.00032948,0.00007932,0
 .00000039,-0.00021644,0.00011258,0.00002423,-0.00113612,0.00034318,-0.
 00002140,-0.00069564,0.00175494,-0.00006707,-0.02791188,-0.01121587,-0
 .00155142,0.00154008,-0.00607161,0.00005568,-0.00021010,-0.00049736,0.
 00000652,-0.00032124,-0.00005903,-0.00002471,0.00087060,-0.00043139,0.
 00005853,0.00007827,-0.00014501,0.00001350,-0.00004797,-0.00001191,0.0
 0000202,-0.00003994,-0.00000334,0.00000793,-0.00007378,0.00016570,-0.0
 0001640,-0.00002367,-0.00000593,-0.00000219,-0.00001839,0.00002323,-0.
 00000404,-0.00001654,-0.00003391,0.00001044,0.00004394,0.00000420,0.00
 000539,0.00002204,-0.00003744,0.00000528,0.00098540,-0.00025380,0.0000
 6630,-0.12286998,-0.13187569,-0.00667990,0.00327329,-0.00123982,0.0002
 4443,0.00023857,-0.00001991,0.00000669,-0.00000773,-0.00000470,-0.0000
 0130,-0.00000664,-0.00000268,0.00000017,0.00000681,0.00000749,-0.00000
 882,-0.00000034,-0.00000352,-0.00000012,-0.00000358,-0.00000203,-0.000
 00097,0.00008560,0.00002403,-0.00002596,0.00001019,-0.00003900,-0.0000
 0603,-0.00000080,-0.00003357,0.00000655,-0.00000300,0.00000902,0.00000
 913,0.01538047,0.01071119,0.00089505,0.00025524,0.00067024,0.00001926,
 0.13062482,0.13708654,-0.00002687,-0.00005230,-0.00014485,0.00004521,-
 0.00002014,-0.00001508,0.00002439,0.00015276,0.00062506,0.00018317,0.0
 0001792,-0.00238932,0.00035910,0.00041725,0.00240240,-0.00033137,-0.00
 002719,0.00406582,-0.00009886,0.00000385,0.00031860,-0.00006311,-0.000
 09549,-0.00054871,0.00021663,0.00010491,-0.00101791,0.00004971,0.00001
 098,0.00014953,-0.00001434,-0.00004710,0.00001423,-0.00002245,0.000021
 90,-0.00001574,0.00003285,-0.00001775,-0.00031684,-0.00000516,-0.00000
 339,0.00006103,-0.00001431,0.00000846,-0.00000455,-0.00000948,-0.00001
 111,0.00000820,0.00001657,0.00000547,0.00000378,-0.00000409,-0.0000096
 7,0.00010319,-0.00004168,-0.00004605,0.00027702,-0.01255121,-0.0066591
 5,-0.03520456,-0.00066414,0.00023436,0.00850239,0.00000902,0.00001207,
 -0.00047696,-0.00000009,-0.00000145,-0.00000355,-0.00000011,-0.0000001
 5,-0.00000367,-0.00000013,0.00000045,-0.00000277,0.00000004,0.00000042
 ,0.00000211,0.00000009,-0.00000059,-0.00000422,0.00002066,0.00001653,0
 .00006010,-0.00000482,0.00000162,-0.00001246,-0.00000469,-0.00000400,-
 0.00000131,-0.00000260,-0.00000145,0.00000052,-0.00144230,-0.00095559,
 0.00355144,-0.00006327,-0.00006371,0.00044485,0.01403966,0.00702946,0.
 02498855,-0.00021605,0.00038376,0.00003309,-0.00028793,-0.00001873,-0.
 00005751,0.00011921,-0.00027491,0.00006488,0.00083387,0.00084935,0.000
 00809,-0.00461385,0.00184203,-0.00081973,-0.00081447,0.00035375,0.0000
 1878,-0.00045801,-0.00017872,-0.00003068,0.00083818,-0.00119906,0.0000
 2616,-0.00530096,-0.00242643,-0.00060942,0.00018209,-0.00005738,-0.000
 00233,-0.00002084,0.00007717,-0.00000085,-0.00000148,-0.00003541,0.000
 00075,0.00013017,-0.00011716,0.00002550,0.00001647,0.00001883,-0.00000
 254,-0.00000994,-0.00002511,0.00000480,-0.00005326,-0.00001230,0.00000
 023,-0.00000644,-0.00000891,0.00000042,0.00002254,0.00014103,0.0000234
 7,-0.00003124,-0.00001395,-0.00001183,0.00337160,0.02856012,-0.0002022
 9,0.00447521,-0.02732675,0.00029240,-0.00005833,0.00023575,0.00001170,
 -0.00002329,-0.00001465,-0.00000120,-0.00000483,-0.00000134,-0.0000004
 1,-0.00000316,-0.00000171,0.00000728,-0.00000462,-0.00000722,-0.000000
 30,0.00000007,-0.00000103,0.00000027,0.00002159,0.00000225,0.00000104,
 0.00000439,0.00002248,0.00000282,-0.00000022,-0.00000572,0.00000353,-0
 .00000186,-0.00000198,0.00000212,-0.05812568,-0.00863875,-0.00131049,0
 .00189178,-0.00014879,0.00024437,0.00088598,-0.00019877,0.00037651,0.0
 5762615,0.00031030,-0.00012155,0.00001764,0.00000045,0.00006301,0.0000
 0615,-0.00003838,-0.00009001,0.00000999,-0.00046775,-0.00049954,-0.000
 02803,0.00256109,0.00101425,0.00023371,-0.00003046,0.00061265,-0.00004
 887,-0.00025292,-0.00023658,-0.00000396,0.00080034,-0.00028572,0.00003
 773,-0.00329684,0.00021597,-0.00014762,-0.00001426,0.00014810,-0.00001
 362,-0.00004139,-0.00000524,0.00000405,-0.00003533,0.00002395,-0.00000
 232,0.00012058,0.00001921,-0.00000789,0.00001557,-0.00000748,0.0000015
 7,-0.00002358,-0.00000803,-0.00000066,-0.00005042,-0.00005002,0.000011
 35,0.00002537,-0.00000918,0.00000291,-0.00001014,-0.00007357,-0.000008
 33,0.00004298,-0.00000029,0.00000502,-0.00246923,-0.01229129,-0.000060
 63,0.00209177,-0.01100039,0.00020537,-0.00034851,-0.00009506,-0.000003
 89,-0.00002543,-0.00001128,-0.00000102,-0.00000972,0.00000171,-0.00000
 099,0.00000187,0.00000269,-0.00000049,-0.00000122,-0.00000985,0.000001
 14,-0.00000606,-0.00000597,0.00000082,-0.00000401,0.00000906,-0.000010
 33,0.00000645,-0.00002636,-0.00000898,0.00000427,-0.00000259,0.0000009
 8,-0.00000489,0.00000906,0.00001059,-0.00644937,-0.33271367,0.00154469
 ,0.00074935,0.00077682,0.00000733,0.00027723,0.00095243,-0.00002294,0.
 00746414,0.35364179,0.00006090,0.00004380,-0.00067047,-0.00001133,-0.0
 0001558,0.00016110,0.00004400,0.00004569,-0.00066462,0.00000413,0.0000
 6011,0.00043494,-0.00071801,0.00011541,0.00874082,-0.00005775,-0.00009
 057,-0.00084403,-0.00002795,-0.00003225,-0.00000357,0.00002853,-0.0000
 5756,0.00047942,-0.00064013,0.00005918,0.00456563,0.00003301,-0.000014
 25,-0.00008182,-0.00000629,-0.00000157,0.00003343,-0.00000779,0.000002
 08,-0.00001370,0.00002215,0.00001593,-0.00008093,-0.00000059,-0.000003
 72,-0.00000258,-0.00000632,0.00000140,-0.00000499,0.00000145,-0.000028
 67,-0.00001909,0.00000247,0.00000801,0.00001191,0.00000464,-0.00000969
 ,-0.00006836,-0.00001555,0.00000165,0.00016982,0.00001259,0.00184624,0
 .00320454,-0.00006082,-0.00169998,0.00248249,0.00001978,0.00003010,-0.
 00010910,-0.00000163,-0.00000062,0.00000865,-0.00000015,0.00000018,0.0
 0000288,-0.00000502,0.00000362,-0.00000125,-0.00000017,0.00000214,0.00
 000446,-0.00000006,0.00000069,0.00000198,-0.00000831,0.00002502,0.0000
 7873,-0.00000486,0.00000331,0.00000499,0.00002353,-0.00000196,0.000002
 17,0.00000423,0.00000195,-0.00000080,-0.00124108,0.00137124,-0.0349463
 0,0.00022494,-0.00001184,-0.00215663,0.00036748,-0.00005455,-0.0054489
 0,0.00198676,-0.00167176,0.02443456,-0.00003714,0.00004541,-0.00000555
 ,0.00010998,0.00010562,0.00001919,-0.00051046,0.00013226,-0.00004598,0
 .00000789,-0.00007451,0.00000231,0.00013193,0.00001025,-0.00000535,0.0
 0077836,0.00135270,0.00003721,0.00013804,0.00030345,0.00003583,-0.0006
 1691,-0.00054334,0.00002618,-0.00611250,0.00134893,-0.00063948,-0.0039
 9645,-0.00238108,-0.00055897,0.00090793,-0.00067679,0.00001843,-0.0002
 5027,-0.00034839,0.00007577,-0.00019412,-0.00013157,-0.00000928,0.0001
 3739,0.00000628,0.00001154,0.00005491,-0.00010503,0.00001644,0.0000444
 0,0.00011539,-0.00003149,-0.00011750,-0.00003247,0.00000072,-0.0000047
 4,-0.00000037,0.00000019,-0.00002807,0.00001286,-0.00000331,-0.0001031
 8,-0.00021136,0.00001960,0.00044270,0.02892048,-0.00057639,0.00661083,
 -0.02609766,0.00065784,-0.00002974,0.00001247,-0.00001553,-0.00000009,
 0.00000968,0.00000040,-0.00000294,-0.00001213,0.00000832,-0.00000005,-
 0.00000237,0.00000153,0.00000251,-0.00001766,0.00000141,-0.00003279,0.
 00001623,0.00001060,-0.00000292,0.00002230,-0.00000554,-0.00000251,0.0
 0001347,-0.00000015,-0.00000412,-0.00000896,0.00000256,0.00197523,0.00
 029674,0.00022219,-0.06552629,0.04728827,-0.00246870,-0.00002810,-0.00
 000669,-0.00000528,-0.00036370,-0.00083879,-0.00002245,0.06571723,0.00
 004035,0.00000673,0.00000119,-0.00007653,-0.00000868,0.00000553,0.0001
 7917,-0.00016295,0.00001369,0.00002654,-0.00000661,0.00000134,0.000048
 82,0.00018784,0.00000662,-0.00062422,-0.00023667,-0.00004543,0.0000379
 7,-0.00002756,-0.00003706,-0.00012496,0.00050683,-0.00000108,0.0022887
 6,0.00089074,0.00022995,-0.00319386,0.00040933,0.00000539,0.00062096,-
 0.00059903,0.00004377,-0.00030611,-0.00015534,-0.00000588,-0.00000154,
 0.00003246,-0.00000341,0.00010035,-0.00003678,0.00000944,-0.00003724,-
 0.00006530,0.00001000,-0.00000210,0.00001072,0.00001033,-0.00003432,0.
 00000118,-0.00000473,0.00001080,-0.00000525,-0.00000048,0.00002211,-0.
 00000437,0.00000299,0.00034494,-0.00010903,0.00000413,-0.00049559,-0.0
 0685697,0.00013710,0.00512019,-0.01592130,0.00064678,-0.00005011,-0.00
 000225,-0.00000005,-0.00001151,0.00000617,-0.00000161,0.00000287,0.000
 00026,-0.00000027,0.00000071,-0.00001036,0.00000087,-0.00000255,-0.000
 01662,0.00000253,0.00001295,0.00000712,-0.00001703,0.00001097,-0.00003
 037,-0.00000647,0.00000149,-0.00001264,0.00000387,-0.00000492,0.000010
 04,0.00001157,-0.00051336,0.00071961,-0.00007838,0.04473651,-0.3246223
 5,0.00803743,0.00005142,-0.00001198,0.00000597,0.00075678,0.00007333,0
 .00005231,-0.04865595,0.34508343,-0.00001864,-0.00000418,-0.00001164,0
 .00003296,-0.00001869,-0.00005596,-0.00003754,0.00003643,-0.00002388,-
 0.00000170,-0.00000316,0.00003480,0.00001174,0.00002118,-0.00004468,0.
 00003968,0.00003769,0.00035446,0.00003947,-0.00005518,-0.00055209,-0.0
 0011970,0.00002133,-0.00063741,-0.00058799,0.00007821,0.00383348,-0.00
 041744,0.00016927,0.00938744,0.00000137,-0.00010528,0.00038526,0.00004
 156,-0.00008531,-0.00099138,0.00001466,0.00001592,0.00016043,-0.000015
 24,-0.00001982,-0.00008673,-0.00001030,0.00002378,0.00008895,0.0000007
 1,0.00001950,0.00007824,0.00000738,0.00000140,-0.00001281,0.00000059,-
 0.00000062,-0.00000277,-0.00000256,0.00000106,0.00000529,0.00001799,-0
 .00004430,-0.00013130,0.00007423,0.00161075,0.00248394,0.00018869,-0.0
 0074350,0.00369867,-0.00000980,0.00002258,0.00028128,0.00000181,-0.000
 00311,-0.00002041,-0.00000014,0.00000010,0.00000028,0.00000091,-0.0000
 0243,-0.00001610,-0.00000047,0.00000416,0.00001758,0.00001353,0.000010
 60,0.00000230,-0.00000119,-0.00000572,-0.00000767,-0.00000329,0.000000
 12,0.00000156,-0.00000354,-0.00000173,0.00000468,0.00017960,-0.0000234
 5,-0.00171736,-0.00258963,0.00810720,-0.03542219,-0.00000707,0.0000002
 3,0.00007937,-0.00007565,-0.00005713,0.00017163,0.00294016,-0.00888075
 ,0.02456783,-0.00000984,0.00000665,0.00000608,0.00002300,-0.00002837,-
 0.00000394,-0.00008314,0.00009366,-0.00000063,0.00001084,0.00000954,-0
 .00000107,0.00003140,-0.00004410,-0.00000152,-0.00002948,0.00004471,0.
 00000504,0.00001367,-0.00046370,0.00001484,0.00124811,0.00037094,-0.00
 018853,0.00044766,-0.00047941,0.00008790,-0.00009518,-0.00028275,-0.00
 006324,0.00081745,-0.00046885,0.00017150,0.00006115,0.00038145,-0.0000
 3155,0.00017703,0.00006150,0.00000508,-0.00011732,-0.00007254,0.000006
 50,-0.00005616,0.00009344,-0.00001892,0.00002758,-0.00004189,0.0000019
 7,0.00006891,0.00004445,-0.00000366,-0.00000952,0.00000669,-0.00000328
 ,-0.00000844,-0.00000377,-0.00000178,-0.00030458,-0.00032642,0.0000048
 6,-0.00148364,-0.00395736,-0.00038419,-0.29046074,0.09748681,-0.012960
 10,0.00011416,0.00071359,-0.00005317,0.00001340,-0.00000976,0.00000115
 ,-0.00000699,-0.00000123,0.00000013,0.00000185,0.00000835,-0.00000045,
 0.00000483,0.00001460,-0.00000125,-0.00000070,-0.00000633,0.00001698,-
 0.00001161,0.00002387,0.00000661,0.00000088,0.00000847,-0.00000432,0.0
 0000464,-0.00000675,-0.00001117,-0.00045612,0.00099961,-0.00005361,-0.
 01926305,0.01124754,-0.00122406,-0.00010235,0.00006441,-0.00000325,-0.
 00001914,-0.00005305,-0.00000429,0.00090528,-0.00027979,0.00029484,0.3
 0854619,0.00007773,0.00006503,-0.00000289,-0.00001815,0.00013616,-0.00
 001938,0.00023575,-0.00051940,0.00002359,0.00008945,-0.00005580,0.0000
 0316,-0.00010934,-0.00013569,-0.00000520,0.00032490,0.00007429,0.00000
 553,0.00115399,0.00047095,-0.00001190,-0.00075364,-0.00623773,0.000369
 96,-0.00060453,-0.00048426,-0.00003457,0.02933992,-0.00737044,0.001364
 63,0.00069246,0.00185658,-0.00017352,-0.00039036,-0.00000551,0.0000121
 2,0.00015174,0.00019626,-0.00004690,0.00005203,-0.00004006,0.00000468,
 -0.00000449,0.00000542,0.00000270,-0.00012112,-0.00002523,0.00001105,0
 .00003817,-0.00006569,0.00001233,0.00001950,0.00000971,0.00000831,0.00
 000478,-0.00000387,0.00000170,-0.00027061,-0.00009528,-0.00002844,-0.0
 0317961,-0.00242211,0.00009658,0.09980011,-0.09898227,0.00585343,-0.00
 096539,-0.00025238,0.00000410,-0.00002898,-0.00001742,0.00000014,-0.00
 000272,0.00001171,-0.00000337,-0.00000746,-0.00000541,-0.00000107,-0.0
 0000537,-0.00000637,-0.00000039,-0.00000350,0.00000931,-0.00000106,0.0
 0000723,-0.00000178,-0.00000100,0.00000069,-0.00000506,0.00000283,-0.0
 0000164,0.00000333,0.00000629,-0.00041707,0.00080630,-0.00003455,-0.02
 000079,0.00999460,-0.00099552,-0.00008912,0.00005542,-0.00000518,0.000
 00734,-0.00002037,0.00000452,0.00013231,0.00095659,-0.00012713,-0.1051
 5421,0.10210046,-0.00003546,-0.00002230,-0.00004115,0.00004938,-0.0000
 0333,-0.00029145,-0.00009049,0.00002411,0.00027544,-0.00002148,0.00004
 354,0.00002917,0.00005176,0.00002436,0.00014932,-0.00007141,0.00003738
 ,-0.00056096,0.00000533,-0.00008719,0.00058126,-0.00029730,0.00033480,
 0.00349890,0.00024751,0.00003989,-0.00092734,-0.00071021,-0.00025508,0
 .00233070,0.00004182,-0.00008326,-0.00194593,0.00002435,-0.00003747,-0
 .00015806,-0.00001489,-0.00000145,-0.00000963,0.00000379,0.00002234,0.
 00000500,0.00001311,-0.00000736,0.00001819,0.00001168,0.00000541,0.000
 04274,-0.00001439,0.00000092,-0.00003081,-0.00000796,-0.00000704,0.000
 08105,-0.00000028,0.00000116,0.00000005,0.00006020,-0.00002577,-0.0005
 9547,-0.00035515,0.00011553,0.00907385,-0.01275875,0.00607432,-0.03527
 384,0.00000692,0.00003775,0.00028602,0.00000156,0.00000203,0.00002121,
 -0.00000628,0.00000287,0.00001114,0.00000025,0.00000094,0.00000105,0.0
 0000030,0.00000052,-0.00000072,0.00000322,0.00000612,0.00000006,0.0000
 0085,0.00000026,-0.00000030,-0.00000222,0.00000099,0.00000057,-0.00000
 035,-0.00000005,0.00000284,-0.00004740,-0.00001753,0.00042762,-0.00076
 285,0.00023220,0.00396787,0.00000501,-0.00000229,-0.00004677,-0.000009
 72,-0.00000159,0.00012301,0.00028502,-0.00016017,-0.00590307,0.0143945
 5,-0.00629557,0.02485846\\-0.00000160,0.00000139,-0.00000405,0.0000051
 2,0.00000089,0.00000613,-0.00000805,0.00000637,-0.00000756,-0.00000060
 ,-0.00000486,-0.00000609,0.00000377,0.00000577,-0.00000141,0.00000129,
 -0.00000554,-0.00000401,0.00000281,-0.00000067,0.00000588,0.00000106,0
 .00000233,0.00000965,-0.00000346,0.00000030,-0.00000494,-0.00000293,-0
 .00000062,0.00000395,0.00000197,-0.00000061,0.00000302,-0.00000494,0.0
 0000049,0.00000071,0.00000098,-0.00000675,-0.00000303,0.00000464,0.000
 00143,0.00000150,0.00000286,-0.00000138,-0.00000010,0.00000125,0.00000
 797,0.00000135,-0.00000468,-0.00000371,-0.00000018,0.00000022,-0.00000
 059,-0.00000616,0.00000004,0.00000091,-0.00000296,0.00000229,-0.000004
 90,0.00000344,0.00000451,0.00000416,0.00000233,-0.00000206,-0.00000080
 ,0.00000064,-0.00000010,0.00000066,0.00000407,-0.00000077,-0.00000076,
 0.00000658,0.00000062,-0.00000158,-0.00000038,0.00000164,0.00000037,0.
 00000028,-0.00000070,0.00000144,0.00000006,-0.00000096,-0.00001145,-0.
 00001352,-0.00000205,0.00000687,-0.00000799,0.00000142,0.00000157,-0.0
 0000025,-0.00000144,-0.00000204,0.00000011,-0.00000429,0.00000007,-0.0
 0000203,0.00000069,0.00000053,0.00000499,-0.00000093,0.00000197,-0.000
 00217,0.00000217,-0.00000002,0.00000142,0.00000029,0.00000061,0.000005
 11,-0.00000006,0.00000019,0.00000560\\\@


 TO DRY ONE'S EYES AND LAUGH AT A FALL
 AND BAFFLED, GET UP AND BEGIN AGAIN.
           R. BROWNING
 Job cpu time:       0 days 22 hours 28 minutes 11.5 seconds.
 Elapsed time:       0 days  1 hours  7 minutes 23.7 seconds.
 File lengths (MBytes):  RWF=   2404 Int=      0 D2E=      0 Chk=     39 Scr=      1
 Normal termination of Gaussian 16 at Mon Mar 25 18:31:13 2019.
