 Entering Gaussian System, Link 0=g09
 Initial command:
 /usr/local/Cluster-Apps/gaussian/g09/l1.exe "/rds/user/am2145/hpc-work/scratch/19184501/Gau-104292.inp" -scrdir="/rds/user/am2145/hpc-work/scratch/19184501/"
 Entering Link 1 = /usr/local/Cluster-Apps/gaussian/g09/l1.exe PID=    104293.
  
 Copyright (c) 1988,1990,1992,1993,1995,1998,2003,2009,2013,
            Gaussian, Inc.  All Rights Reserved.
  
 This is part of the Gaussian(R) 09 program.  It is based on
 the Gaussian(R) 03 system (copyright 2003, Gaussian, Inc.),
 the Gaussian(R) 98 system (copyright 1998, Gaussian, Inc.),
 the Gaussian(R) 94 system (copyright 1995, Gaussian, Inc.),
 the Gaussian 92(TM) system (copyright 1992, Gaussian, Inc.),
 the Gaussian 90(TM) system (copyright 1990, Gaussian, Inc.),
 the Gaussian 88(TM) system (copyright 1988, Gaussian, Inc.),
 the Gaussian 86(TM) system (copyright 1986, Carnegie Mellon
 University), and the Gaussian 82(TM) system (copyright 1983,
 Carnegie Mellon University). Gaussian is a federally registered
 trademark of Gaussian, Inc.
  
 This software contains proprietary and confidential information,
 including trade secrets, belonging to Gaussian, Inc.
  
 This software is provided under written license and may be
 used, copied, transmitted, or stored only in accord with that
 written license.
  
 The following legend is applicable only to US Government
 contracts under FAR:
  
                    RESTRICTED RIGHTS LEGEND
  
 Use, reproduction and disclosure by the US Government is
 subject to restrictions as set forth in subparagraphs (a)
 and (c) of the Commercial Computer Software - Restricted
 Rights clause in FAR 52.227-19.
  
 Gaussian, Inc.
 340 Quinnipiac St., Bldg. 40, Wallingford CT 06492
  
  
 ---------------------------------------------------------------
 Warning -- This program may not be used in any manner that
 competes with the business of Gaussian, Inc. or will provide
 assistance to any competitor of Gaussian, Inc.  The licensee
 of this program is prohibited from giving any competitor of
 Gaussian, Inc. access to this program.  By using this program,
 the user acknowledges that Gaussian, Inc. is engaged in the
 business of creating and licensing software in the field of
 computational chemistry and represents and warrants to the
 licensee that it is not a competitor of Gaussian, Inc. and that
 it will not use this program in any manner prohibited above.
 ---------------------------------------------------------------
  

 Cite this work as:
 Gaussian 09, Revision D.01,
 M. J. Frisch, G. W. Trucks, H. B. Schlegel, G. E. Scuseria, 
 M. A. Robb, J. R. Cheeseman, G. Scalmani, V. Barone, B. Mennucci, 
 G. A. Petersson, H. Nakatsuji, M. Caricato, X. Li, H. P. Hratchian, 
 A. F. Izmaylov, J. Bloino, G. Zheng, J. L. Sonnenberg, M. Hada, 
 M. Ehara, K. Toyota, R. Fukuda, J. Hasegawa, M. Ishida, T. Nakajima, 
 Y. Honda, O. Kitao, H. Nakai, T. Vreven, J. A. Montgomery, Jr., 
 J. E. Peralta, F. Ogliaro, M. Bearpark, J. J. Heyd, E. Brothers, 
 K. N. Kudin, V. N. Staroverov, T. Keith, R. Kobayashi, J. Normand, 
 K. Raghavachari, A. Rendell, J. C. Burant, S. S. Iyengar, J. Tomasi, 
 M. Cossi, N. Rega, J. M. Millam, M. Klene, J. E. Knox, J. B. Cross, 
 V. Bakken, C. Adamo, J. Jaramillo, R. Gomperts, R. E. Stratmann, 
 O. Yazyev, A. J. Austin, R. Cammi, C. Pomelli, J. W. Ochterski, 
 R. L. Martin, K. Morokuma, V. G. Zakrzewski, G. A. Voth, 
 P. Salvador, J. J. Dannenberg, S. Dapprich, A. D. Daniels, 
 O. Farkas, J. B. Foresman, J. V. Ortiz, J. Cioslowski, 
 and D. J. Fox, Gaussian, Inc., Wallingford CT, 2013.
 
 ******************************************
 Gaussian 09:  ES64L-G09RevD.01 24-Apr-2013
                 1-Feb-2020 
 ******************************************
 %NProcShared=20
 Will use up to   20 processors via shared memory.
 %mem=64GB
 %Chk=AS2a_Hmigclose_ener.chk
 ------------------------------
 #n opt freq b3lyp/6-311+g(d,p)
 ------------------------------
 1/14=-1,18=20,19=15,26=3,38=1/1,3;
 2/9=110,12=2,17=6,18=5,40=1/2;
 3/5=4,6=6,7=111,11=2,16=1,25=1,30=1,71=1,74=-5/1,2,3;
 4//1;
 5/5=2,38=5/2;
 6/7=2,8=2,9=2,10=2,28=1/1;
 7//1,2,3,16;
 1/14=-1,18=20,19=15,26=3/3(2);
 2/9=110/2;
 99//99;
 2/9=110/2;
 3/5=4,6=6,7=111,11=2,16=1,25=1,30=1,71=1,74=-5/1,2,3;
 4/5=5,16=3,69=1/1;
 5/5=2,38=5/2;
 7//1,2,3,16;
 1/14=-1,18=20,19=15,26=3/3(-5);
 2/9=110/2;
 6/7=2,8=2,9=2,10=2,19=2,28=1/1;
 99/9=1/99;
 -------------------
 AS2a_Hmigclose_ener
 -------------------
 Symbolic Z-matrix:
 Charge =  0 Multiplicity = 2
 C                     1.57116   3.2415   -0.00016 
 C                     0.33476   2.51021   0.0001 
 C                     0.44973   1.14651   0.00034 
 C                     2.83219   2.65177  -0.00023 
 C                     2.96184   1.22813   0.00001 
 C                     1.74317   0.57495   0.00035 
 C                    -0.49725   0.01768   0.00036 
 C                     0.27783  -1.15011   0.0004 
 C                     1.63596  -0.81517   0.00039 
 C                    -0.16542  -2.46928   0.00013 
 C                    -1.56825  -2.59531  -0.00003 
 C                    -2.40842  -1.44783  -0.00003 
 C                    -1.87226  -0.09236   0.00012 
 C                    -3.82756  -1.5911   -0.00021 
 C                    -4.65142  -0.47893  -0.0002 
 C                    -2.73995   1.0846    0. 
 C                    -4.13693   0.81918  -0.00007 
 H                    -1.05015   3.88027  -0.86444 
 H                     1.51903   4.3264   -0.00036 
 H                     3.70967   3.29024  -0.00047 
 C                     4.1024    0.33679  -0.00021 
 C                     2.68563  -1.69999   0.00005 
 C                     0.91595  -3.44444  -0.0001 
 H                    -2.04347  -3.5713   -0.00023 
 H                    -4.25498  -2.58755  -0.00039 
 H                    -4.82276   1.65957  -0.00004 
 H                    -5.72754  -0.61447  -0.0003 
 C                    -2.3213    2.42446  -0.00003 
 C                    -1.01303   3.19877  -0.00003 
 H                    -1.05022   3.88042   0.86426 
 H                    -3.15609   3.12265  -0.00008 
 C                     3.97593  -1.04791  -0.00018 
 C                     2.25356  -3.08844  -0.00016 
 H                     5.10232   0.75888  -0.00047 
 H                     4.88151  -1.64605  -0.00044 
 H                     2.9957   -3.88039  -0.00037 
 H                     0.66703  -4.50085  -0.00026 
 

 GradGradGradGradGradGradGradGradGradGradGradGradGradGradGradGradGradGrad
 Berny optimization.
 Initialization pass.
                           ----------------------------
                           !    Initial Parameters    !
                           ! (Angstroms and Degrees)  !
 --------------------------                            --------------------------
 ! Name  Definition              Value          Derivative Info.                !
 --------------------------------------------------------------------------------
 ! R1    R(1,2)                  1.4365         estimate D2E/DX2                !
 ! R2    R(1,4)                  1.3921         estimate D2E/DX2                !
 ! R3    R(1,19)                 1.0862         estimate D2E/DX2                !
 ! R4    R(2,3)                  1.3685         estimate D2E/DX2                !
 ! R5    R(2,29)                 1.5135         estimate D2E/DX2                !
 ! R6    R(3,6)                  1.4141         estimate D2E/DX2                !
 ! R7    R(3,7)                  1.4734         estimate D2E/DX2                !
 ! R8    R(4,5)                  1.4295         estimate D2E/DX2                !
 ! R9    R(4,20)                 1.0852         estimate D2E/DX2                !
 ! R10   R(5,6)                  1.3827         estimate D2E/DX2                !
 ! R11   R(5,21)                 1.4475         estimate D2E/DX2                !
 ! R12   R(6,9)                  1.3942         estimate D2E/DX2                !
 ! R13   R(7,8)                  1.4016         estimate D2E/DX2                !
 ! R14   R(7,13)                 1.3794         estimate D2E/DX2                !
 ! R15   R(8,9)                  1.3988         estimate D2E/DX2                !
 ! R16   R(8,10)                 1.3916         estimate D2E/DX2                !
 ! R17   R(9,22)                 1.3728         estimate D2E/DX2                !
 ! R18   R(10,11)                1.4085         estimate D2E/DX2                !
 ! R19   R(10,23)                1.4561         estimate D2E/DX2                !
 ! R20   R(11,12)                1.4222         estimate D2E/DX2                !
 ! R21   R(11,24)                1.0855         estimate D2E/DX2                !
 ! R22   R(12,13)                1.4577         estimate D2E/DX2                !
 ! R23   R(12,14)                1.4264         estimate D2E/DX2                !
 ! R24   R(13,16)                1.4622         estimate D2E/DX2                !
 ! R25   R(14,15)                1.3841         estimate D2E/DX2                !
 ! R26   R(14,25)                1.0843         estimate D2E/DX2                !
 ! R27   R(15,17)                1.3963         estimate D2E/DX2                !
 ! R28   R(15,27)                1.0846         estimate D2E/DX2                !
 ! R29   R(16,17)                1.422          estimate D2E/DX2                !
 ! R30   R(16,28)                1.4037         estimate D2E/DX2                !
 ! R31   R(17,26)                1.0847         estimate D2E/DX2                !
 ! R32   R(18,29)                1.1014         estimate D2E/DX2                !
 ! R33   R(21,32)                1.3905         estimate D2E/DX2                !
 ! R34   R(21,34)                1.0854         estimate D2E/DX2                !
 ! R35   R(22,32)                1.4457         estimate D2E/DX2                !
 ! R36   R(22,33)                1.4541         estimate D2E/DX2                !
 ! R37   R(23,33)                1.3842         estimate D2E/DX2                !
 ! R38   R(23,37)                1.0853         estimate D2E/DX2                !
 ! R39   R(28,29)                1.5202         estimate D2E/DX2                !
 ! R40   R(28,31)                1.0883         estimate D2E/DX2                !
 ! R41   R(29,30)                1.1014         estimate D2E/DX2                !
 ! R42   R(32,35)                1.0853         estimate D2E/DX2                !
 ! R43   R(33,36)                1.0853         estimate D2E/DX2                !
 ! A1    A(2,1,4)              124.3336         estimate D2E/DX2                !
 ! A2    A(2,1,19)             117.8519         estimate D2E/DX2                !
 ! A3    A(4,1,19)             117.8145         estimate D2E/DX2                !
 ! A4    A(1,2,3)              115.7839         estimate D2E/DX2                !
 ! A5    A(1,2,29)             122.3355         estimate D2E/DX2                !
 ! A6    A(3,2,29)             121.8807         estimate D2E/DX2                !
 ! A7    A(2,3,6)              118.6593         estimate D2E/DX2                !
 ! A8    A(2,3,7)              135.1875         estimate D2E/DX2                !
 ! A9    A(6,3,7)              106.1532         estimate D2E/DX2                !
 ! A10   A(1,4,5)              120.267          estimate D2E/DX2                !
 ! A11   A(1,4,20)             118.8962         estimate D2E/DX2                !
 ! A12   A(5,4,20)             120.8368         estimate D2E/DX2                !
 ! A13   A(4,5,6)              112.9868         estimate D2E/DX2                !
 ! A14   A(4,5,21)             133.2109         estimate D2E/DX2                !
 ! A15   A(6,5,21)             113.8023         estimate D2E/DX2                !
 ! A16   A(3,6,5)              127.9695         estimate D2E/DX2                !
 ! A17   A(3,6,9)              109.4301         estimate D2E/DX2                !
 ! A18   A(5,6,9)              122.6004         estimate D2E/DX2                !
 ! A19   A(3,7,8)              106.4337         estimate D2E/DX2                !
 ! A20   A(3,7,13)             134.569          estimate D2E/DX2                !
 ! A21   A(8,7,13)             118.9973         estimate D2E/DX2                !
 ! A22   A(7,8,9)              109.7191         estimate D2E/DX2                !
 ! A23   A(7,8,10)             127.8545         estimate D2E/DX2                !
 ! A24   A(9,8,10)             122.4264         estimate D2E/DX2                !
 ! A25   A(6,9,8)              108.2638         estimate D2E/DX2                !
 ! A26   A(6,9,22)             125.7192         estimate D2E/DX2                !
 ! A27   A(8,9,22)             126.017          estimate D2E/DX2                !
 ! A28   A(8,10,11)            113.7064         estimate D2E/DX2                !
 ! A29   A(8,10,23)            113.4709         estimate D2E/DX2                !
 ! A30   A(11,10,23)           132.8228         estimate D2E/DX2                !
 ! A31   A(10,11,12)           121.0774         estimate D2E/DX2                !
 ! A32   A(10,11,24)           121.0956         estimate D2E/DX2                !
 ! A33   A(12,11,24)           117.8269         estimate D2E/DX2                !
 ! A34   A(11,12,13)           122.2075         estimate D2E/DX2                !
 ! A35   A(11,12,14)           120.4463         estimate D2E/DX2                !
 ! A36   A(13,12,14)           117.3462         estimate D2E/DX2                !
 ! A37   A(7,13,12)            116.157          estimate D2E/DX2                !
 ! A38   A(7,13,16)            121.8232         estimate D2E/DX2                !
 ! A39   A(12,13,16)           122.0198         estimate D2E/DX2                !
 ! A40   A(12,14,15)           120.7651         estimate D2E/DX2                !
 ! A41   A(12,14,25)           118.9814         estimate D2E/DX2                !
 ! A42   A(15,14,25)           120.2536         estimate D2E/DX2                !
 ! A43   A(14,15,17)           121.8498         estimate D2E/DX2                !
 ! A44   A(14,15,27)           119.3511         estimate D2E/DX2                !
 ! A45   A(17,15,27)           118.799          estimate D2E/DX2                !
 ! A46   A(13,16,17)           115.641          estimate D2E/DX2                !
 ! A47   A(13,16,28)           126.2494         estimate D2E/DX2                !
 ! A48   A(17,16,28)           118.1096         estimate D2E/DX2                !
 ! A49   A(15,17,16)           122.378          estimate D2E/DX2                !
 ! A50   A(15,17,26)           119.1623         estimate D2E/DX2                !
 ! A51   A(16,17,26)           118.4597         estimate D2E/DX2                !
 ! A52   A(5,21,32)            122.7888         estimate D2E/DX2                !
 ! A53   A(5,21,34)            119.1068         estimate D2E/DX2                !
 ! A54   A(32,21,34)           118.1043         estimate D2E/DX2                !
 ! A55   A(9,22,32)            113.0601         estimate D2E/DX2                !
 ! A56   A(9,22,33)            112.8437         estimate D2E/DX2                !
 ! A57   A(32,22,33)           134.0963         estimate D2E/DX2                !
 ! A58   A(10,23,33)           123.0528         estimate D2E/DX2                !
 ! A59   A(10,23,37)           118.7849         estimate D2E/DX2                !
 ! A60   A(33,23,37)           118.1622         estimate D2E/DX2                !
 ! A61   A(16,28,29)           137.9713         estimate D2E/DX2                !
 ! A62   A(16,28,31)           112.5561         estimate D2E/DX2                !
 ! A63   A(29,28,31)           109.4725         estimate D2E/DX2                !
 ! A64   A(2,29,18)            108.1551         estimate D2E/DX2                !
 ! A65   A(2,29,28)            122.3189         estimate D2E/DX2                !
 ! A66   A(2,29,30)            108.1541         estimate D2E/DX2                !
 ! A67   A(18,29,28)           106.6281         estimate D2E/DX2                !
 ! A68   A(18,29,30)           103.4029         estimate D2E/DX2                !
 ! A69   A(28,29,30)           106.6289         estimate D2E/DX2                !
 ! A70   A(21,32,22)           122.0293         estimate D2E/DX2                !
 ! A71   A(21,32,35)           118.2264         estimate D2E/DX2                !
 ! A72   A(22,32,35)           119.7443         estimate D2E/DX2                !
 ! A73   A(22,33,23)           122.1891         estimate D2E/DX2                !
 ! A74   A(22,33,36)           119.5741         estimate D2E/DX2                !
 ! A75   A(23,33,36)           118.2368         estimate D2E/DX2                !
 ! D1    D(4,1,2,3)              0.0026         estimate D2E/DX2                !
 ! D2    D(4,1,2,29)          -179.9912         estimate D2E/DX2                !
 ! D3    D(19,1,2,3)           179.9997         estimate D2E/DX2                !
 ! D4    D(19,1,2,29)            0.0059         estimate D2E/DX2                !
 ! D5    D(2,1,4,5)             -0.0022         estimate D2E/DX2                !
 ! D6    D(2,1,4,20)           179.9977         estimate D2E/DX2                !
 ! D7    D(19,1,4,5)          -179.9994         estimate D2E/DX2                !
 ! D8    D(19,1,4,20)            0.0006         estimate D2E/DX2                !
 ! D9    D(1,2,3,6)              0.0016         estimate D2E/DX2                !
 ! D10   D(1,2,3,7)           -179.9843         estimate D2E/DX2                !
 ! D11   D(29,2,3,6)           179.9954         estimate D2E/DX2                !
 ! D12   D(29,2,3,7)             0.0095         estimate D2E/DX2                !
 ! D13   D(1,2,29,18)           55.6683         estimate D2E/DX2                !
 ! D14   D(1,2,29,28)          179.9877         estimate D2E/DX2                !
 ! D15   D(1,2,29,30)          -55.6926         estimate D2E/DX2                !
 ! D16   D(3,2,29,18)         -124.325          estimate D2E/DX2                !
 ! D17   D(3,2,29,28)           -0.0057         estimate D2E/DX2                !
 ! D18   D(3,2,29,30)          124.314          estimate D2E/DX2                !
 ! D19   D(2,3,6,5)             -0.007          estimate D2E/DX2                !
 ! D20   D(2,3,6,9)           -179.9904         estimate D2E/DX2                !
 ! D21   D(7,3,6,5)            179.9827         estimate D2E/DX2                !
 ! D22   D(7,3,6,9)             -0.0007         estimate D2E/DX2                !
 ! D23   D(2,3,7,8)            179.988          estimate D2E/DX2                !
 ! D24   D(2,3,7,13)             0.0013         estimate D2E/DX2                !
 ! D25   D(6,3,7,8)              0.0008         estimate D2E/DX2                !
 ! D26   D(6,3,7,13)          -179.9859         estimate D2E/DX2                !
 ! D27   D(1,4,5,6)             -0.0023         estimate D2E/DX2                !
 ! D28   D(1,4,5,21)           179.988          estimate D2E/DX2                !
 ! D29   D(20,4,5,6)           179.9978         estimate D2E/DX2                !
 ! D30   D(20,4,5,21)           -0.012          estimate D2E/DX2                !
 ! D31   D(4,5,6,3)              0.007          estimate D2E/DX2                !
 ! D32   D(4,5,6,9)            179.9885         estimate D2E/DX2                !
 ! D33   D(21,5,6,3)          -179.9852         estimate D2E/DX2                !
 ! D34   D(21,5,6,9)            -0.0038         estimate D2E/DX2                !
 ! D35   D(4,5,21,32)         -179.9857         estimate D2E/DX2                !
 ! D36   D(4,5,21,34)            0.0105         estimate D2E/DX2                !
 ! D37   D(6,5,21,32)            0.0045         estimate D2E/DX2                !
 ! D38   D(6,5,21,34)         -179.9993         estimate D2E/DX2                !
 ! D39   D(3,6,9,8)              0.0003         estimate D2E/DX2                !
 ! D40   D(3,6,9,22)           179.9815         estimate D2E/DX2                !
 ! D41   D(5,6,9,8)           -179.9842         estimate D2E/DX2                !
 ! D42   D(5,6,9,22)            -0.003          estimate D2E/DX2                !
 ! D43   D(3,7,8,9)             -0.0007         estimate D2E/DX2                !
 ! D44   D(3,7,8,10)          -179.9843         estimate D2E/DX2                !
 ! D45   D(13,7,8,9)           179.9885         estimate D2E/DX2                !
 ! D46   D(13,7,8,10)            0.0049         estimate D2E/DX2                !
 ! D47   D(3,7,13,12)          179.9874         estimate D2E/DX2                !
 ! D48   D(3,7,13,16)           -0.0116         estimate D2E/DX2                !
 ! D49   D(8,7,13,12)            0.002          estimate D2E/DX2                !
 ! D50   D(8,7,13,16)         -179.997          estimate D2E/DX2                !
 ! D51   D(7,8,9,6)              0.0003         estimate D2E/DX2                !
 ! D52   D(7,8,9,22)          -179.9809         estimate D2E/DX2                !
 ! D53   D(10,8,9,6)           179.985          estimate D2E/DX2                !
 ! D54   D(10,8,9,22)            0.0038         estimate D2E/DX2                !
 ! D55   D(7,8,10,11)           -0.0085         estimate D2E/DX2                !
 ! D56   D(7,8,10,23)          179.9842         estimate D2E/DX2                !
 ! D57   D(9,8,10,11)         -179.9902         estimate D2E/DX2                !
 ! D58   D(9,8,10,23)            0.0025         estimate D2E/DX2                !
 ! D59   D(6,9,22,32)            0.0084         estimate D2E/DX2                !
 ! D60   D(6,9,22,33)         -179.9848         estimate D2E/DX2                !
 ! D61   D(8,9,22,32)          179.9863         estimate D2E/DX2                !
 ! D62   D(8,9,22,33)           -0.0068         estimate D2E/DX2                !
 ! D63   D(8,10,11,12)           0.0054         estimate D2E/DX2                !
 ! D64   D(8,10,11,24)        -179.9991         estimate D2E/DX2                !
 ! D65   D(23,10,11,12)       -179.9856         estimate D2E/DX2                !
 ! D66   D(23,10,11,24)          0.01           estimate D2E/DX2                !
 ! D67   D(8,10,23,33)          -0.0053         estimate D2E/DX2                !
 ! D68   D(8,10,23,37)         179.9965         estimate D2E/DX2                !
 ! D69   D(11,10,23,33)        179.9857         estimate D2E/DX2                !
 ! D70   D(11,10,23,37)         -0.0126         estimate D2E/DX2                !
 ! D71   D(10,11,12,13)          0.0006         estimate D2E/DX2                !
 ! D72   D(10,11,12,14)        179.9992         estimate D2E/DX2                !
 ! D73   D(24,11,12,13)       -179.995          estimate D2E/DX2                !
 ! D74   D(24,11,12,14)          0.0035         estimate D2E/DX2                !
 ! D75   D(11,12,13,7)          -0.0045         estimate D2E/DX2                !
 ! D76   D(11,12,13,16)        179.9945         estimate D2E/DX2                !
 ! D77   D(14,12,13,7)         179.9969         estimate D2E/DX2                !
 ! D78   D(14,12,13,16)         -0.0041         estimate D2E/DX2                !
 ! D79   D(11,12,14,15)        179.9995         estimate D2E/DX2                !
 ! D80   D(11,12,14,25)         -0.0026         estimate D2E/DX2                !
 ! D81   D(13,12,14,15)         -0.0019         estimate D2E/DX2                !
 ! D82   D(13,12,14,25)        179.996          estimate D2E/DX2                !
 ! D83   D(7,13,16,17)        -179.9921         estimate D2E/DX2                !
 ! D84   D(7,13,16,28)           0.0069         estimate D2E/DX2                !
 ! D85   D(12,13,16,17)          0.009          estimate D2E/DX2                !
 ! D86   D(12,13,16,28)       -179.992          estimate D2E/DX2                !
 ! D87   D(12,14,15,17)          0.0026         estimate D2E/DX2                !
 ! D88   D(12,14,15,27)       -179.9976         estimate D2E/DX2                !
 ! D89   D(25,14,15,17)       -179.9953         estimate D2E/DX2                !
 ! D90   D(25,14,15,27)          0.0045         estimate D2E/DX2                !
 ! D91   D(14,15,17,16)          0.0029         estimate D2E/DX2                !
 ! D92   D(14,15,17,26)       -179.9983         estimate D2E/DX2                !
 ! D93   D(27,15,17,16)       -179.9969         estimate D2E/DX2                !
 ! D94   D(27,15,17,26)          0.0019         estimate D2E/DX2                !
 ! D95   D(13,16,17,15)         -0.0084         estimate D2E/DX2                !
 ! D96   D(13,16,17,26)        179.9928         estimate D2E/DX2                !
 ! D97   D(28,16,17,15)        179.9926         estimate D2E/DX2                !
 ! D98   D(28,16,17,26)         -0.0062         estimate D2E/DX2                !
 ! D99   D(13,16,28,29)          0.0036         estimate D2E/DX2                !
 ! D100  D(13,16,28,31)       -179.9974         estimate D2E/DX2                !
 ! D101  D(17,16,28,29)       -179.9975         estimate D2E/DX2                !
 ! D102  D(17,16,28,31)          0.0015         estimate D2E/DX2                !
 ! D103  D(5,21,32,22)           0.0012         estimate D2E/DX2                !
 ! D104  D(5,21,32,35)         179.9949         estimate D2E/DX2                !
 ! D105  D(34,21,32,22)       -179.9951         estimate D2E/DX2                !
 ! D106  D(34,21,32,35)         -0.0013         estimate D2E/DX2                !
 ! D107  D(9,22,32,21)          -0.0073         estimate D2E/DX2                !
 ! D108  D(9,22,32,35)         179.9991         estimate D2E/DX2                !
 ! D109  D(33,22,32,21)        179.9839         estimate D2E/DX2                !
 ! D110  D(33,22,32,35)         -0.0098         estimate D2E/DX2                !
 ! D111  D(9,22,33,23)           0.0038         estimate D2E/DX2                !
 ! D112  D(9,22,33,36)        -179.9961         estimate D2E/DX2                !
 ! D113  D(32,22,33,23)       -179.9874         estimate D2E/DX2                !
 ! D114  D(32,22,33,36)          0.0127         estimate D2E/DX2                !
 ! D115  D(10,23,33,22)          0.0022         estimate D2E/DX2                !
 ! D116  D(10,23,33,36)       -179.9979         estimate D2E/DX2                !
 ! D117  D(37,23,33,22)       -179.9996         estimate D2E/DX2                !
 ! D118  D(37,23,33,36)          0.0003         estimate D2E/DX2                !
 ! D119  D(16,28,29,2)          -0.004          estimate D2E/DX2                !
 ! D120  D(16,28,29,18)        125.0071         estimate D2E/DX2                !
 ! D121  D(16,28,29,30)       -125.0145         estimate D2E/DX2                !
 ! D122  D(31,28,29,2)         179.997          estimate D2E/DX2                !
 ! D123  D(31,28,29,18)        -54.992          estimate D2E/DX2                !
 ! D124  D(31,28,29,30)         54.9865         estimate D2E/DX2                !
 --------------------------------------------------------------------------------
 Trust Radius=3.00D-01 FncErr=1.00D-07 GrdErr=1.00D-06
 Number of steps in this run=    222 maximum allowed number of steps=    222.
 GradGradGradGradGradGradGradGradGradGradGradGradGradGradGradGradGradGrad

                          Input orientation:                          
 ---------------------------------------------------------------------
 Center     Atomic      Atomic             Coordinates (Angstroms)
 Number     Number       Type             X           Y           Z
 ---------------------------------------------------------------------
      1          6           0        1.571160    3.241500   -0.000160
      2          6           0        0.334760    2.510210    0.000100
      3          6           0        0.449730    1.146510    0.000340
      4          6           0        2.832190    2.651770   -0.000230
      5          6           0        2.961840    1.228130    0.000010
      6          6           0        1.743170    0.574950    0.000350
      7          6           0       -0.497250    0.017680    0.000360
      8          6           0        0.277830   -1.150110    0.000400
      9          6           0        1.635960   -0.815170    0.000390
     10          6           0       -0.165420   -2.469280    0.000130
     11          6           0       -1.568250   -2.595310   -0.000030
     12          6           0       -2.408420   -1.447830   -0.000030
     13          6           0       -1.872260   -0.092360    0.000120
     14          6           0       -3.827560   -1.591100   -0.000210
     15          6           0       -4.651420   -0.478930   -0.000200
     16          6           0       -2.739950    1.084600    0.000000
     17          6           0       -4.136930    0.819180   -0.000070
     18          1           0       -1.050150    3.880270   -0.864440
     19          1           0        1.519030    4.326400   -0.000360
     20          1           0        3.709670    3.290240   -0.000470
     21          6           0        4.102400    0.336790   -0.000210
     22          6           0        2.685630   -1.699990    0.000050
     23          6           0        0.915950   -3.444440   -0.000100
     24          1           0       -2.043470   -3.571300   -0.000230
     25          1           0       -4.254980   -2.587550   -0.000390
     26          1           0       -4.822760    1.659570   -0.000040
     27          1           0       -5.727540   -0.614470   -0.000300
     28          6           0       -2.321300    2.424460   -0.000030
     29          6           0       -1.013030    3.198770   -0.000030
     30          1           0       -1.050220    3.880420    0.864260
     31          1           0       -3.156090    3.122650   -0.000080
     32          6           0        3.975930   -1.047910   -0.000180
     33          6           0        2.253560   -3.088440   -0.000160
     34          1           0        5.102320    0.758880   -0.000470
     35          1           0        4.881510   -1.646050   -0.000440
     36          1           0        2.995700   -3.880390   -0.000370
     37          1           0        0.667030   -4.500850   -0.000260
 ---------------------------------------------------------------------
                    Distance matrix (angstroms):
                    1          2          3          4          5
     1  C    0.000000
     2  C    1.436478   0.000000
     3  C    2.376255   1.368538   0.000000
     4  C    1.392113   2.501439   2.818142   0.000000
     5  C    2.446967   2.923231   2.513436   1.429531   0.000000
     6  C    2.672092   2.393502   1.414096   2.345026   1.382679
     7  C    3.830318   2.627726   1.473441   4.245421   3.664764
     8  C    4.578094   3.660763   2.303044   4.580289   3.586075
     9  C    4.057188   3.570893   2.292451   3.667511   2.435782
    10  C    5.968980   5.004548   3.667744   5.933870   4.842582
    11  C    6.627537   5.448650   4.251289   6.848045   5.927935
    12  C    6.150356   4.815716   3.860003   6.653624   6.000038
    13  C    4.792887   3.412376   2.631812   5.446292   5.011209
    14  C    7.245702   5.843428   5.078358   7.896469   7.351463
    15  C    7.249972   5.813514   5.353857   8.112071   7.802293
    16  C    4.820569   3.389130   3.190281   5.788330   5.703596
    17  C    6.200800   4.780752   4.598325   7.206041   7.110540
    18  H    2.833068   2.131307   3.235881   4.162768   4.886429
    19  H    1.086152   2.168189   3.354863   2.128092   3.417745
    20  H    2.139065   3.463880   3.901639   1.085180   2.193524
    21  C    3.852858   4.349582   3.741343   2.640562   1.447537
    22  C    5.065606   4.822072   3.619642   4.354227   2.941119
    23  C    6.717968   5.982946   4.614562   6.390286   5.100841
    24  H    7.712314   6.529988   5.336083   7.905609   6.934526
    25  H    8.241464   6.859509   6.006455   8.813538   8.163449
    26  H    6.586707   5.227198   5.297394   7.718984   7.796547
    27  H    8.254667   6.820198   6.423373   9.161730   8.882595
    28  C    3.977285   2.657444   3.051518   5.158501   5.416897
    29  C    2.584543   1.513490   2.520206   3.883932   4.436554
    30  H    2.833209   2.131295   3.235811   4.162935   4.886532
    31  H    4.728744   3.544167   4.111820   6.006765   6.404551
    32  C    4.917515   5.091005   4.153260   3.872438   2.491734
    33  C    6.366617   5.918334   4.603108   5.769300   4.374293
    34  H    4.316537   5.079054   4.668710   2.955761   2.191312
    35  H    5.903098   6.160149   5.238231   4.761404   3.456305
    36  H    7.262963   6.922454   5.634864   6.534206   5.108632
    37  H    7.794962   7.018929   5.651539   7.473145   6.171496
                    6          7          8          9         10
     6  C    0.000000
     7  C    2.308686   0.000000
     8  C    2.263416   1.401600   0.000000
     9  C    1.394248   2.290027   1.398822   0.000000
    10  C    3.593056   2.509000   1.391647   2.445619   0.000000
    11  C    4.584327   2.823961   2.344486   3.665496   1.408480
    12  C    4.618153   2.408379   2.702698   4.093564   2.464632
    13  C    3.676498   1.379406   2.396189   3.581908   2.926269
    14  C    5.977023   3.698532   4.129007   5.518344   3.765962
    15  C    6.480852   4.183748   4.974735   6.296364   4.907717
    16  C    4.511996   2.483550   3.755120   4.770505   4.388424
    17  C    5.885170   3.726885   4.834068   5.999780   5.156245
    18  H    4.413121   3.996646   5.274107   5.478163   6.468927
    19  H    3.758140   4.757148   5.615402   5.142899   7.001331
    20  H    3.352599   5.329899   5.611972   4.599420   6.941786
    21  C    2.371221   4.610706   4.103439   2.722194   5.107672
    22  C    2.462434   3.616782   2.469791   1.372849   2.953014
    23  C    4.103631   3.739440   2.381417   2.726073   1.456124
    24  H    5.615161   3.907886   3.354191   4.597223   2.177503
    25  H    6.780797   4.572500   4.755271   6.151789   4.091270
    26  H    6.654911   4.626645   5.823257   6.916603   6.224003
    27  H    7.564802   5.268353   6.029211   7.366235   5.863233
    28  C    4.465490   3.019892   4.419618   5.114207   5.347570
    29  C    3.805400   3.222633   4.536417   4.809248   5.731076
    30  H    4.413105   3.996606   5.274107   5.478175   6.469025
    31  H    5.522094   4.087820   5.481632   6.202433   6.341434
    32  C    2.760234   4.598350   3.699512   2.351516   4.378478
    33  C    3.698773   4.149089   2.767785   2.355671   2.496963
    34  H    3.364182   5.648412   5.188444   3.807005   6.178196
    35  H    3.844739   5.630192   4.630316   3.350217   5.113630
    36  H    4.628054   5.234085   3.852434   3.353277   3.461779
    37  H    5.188624   4.666118   3.373268   3.810914   2.195507
                   11         12         13         14         15
    11  C    0.000000
    12  C    1.422180   0.000000
    13  C    2.521345   1.457658   0.000000
    14  C    2.472432   1.426354   2.463619   0.000000
    15  C    3.739653   2.443321   2.805916   1.384076   0.000000
    16  C    3.861945   2.554039   1.462231   2.888298   2.469482
    17  C    4.272805   2.850804   2.441236   2.430053   1.396349
    18  H    6.553531   5.566036   4.147905   6.196514   5.720025
    19  H    7.579008   6.983308   5.570125   7.975138   7.820847
    20  H    7.905450   7.738238   6.526862   8.979828   9.171394
    21  C    6.383845   6.750974   5.990053   8.160945   8.791744
    22  C    4.347079   5.100287   4.833098   6.514100   7.437963
    23  C    2.625314   3.877872   4.360110   5.092716   6.307920
    24  H    1.085537   2.154603   3.483150   2.665365   4.045263
    25  H    2.686741   2.169964   3.450120   1.084251   2.145564
    26  H    5.356850   3.935095   3.431430   3.399600   2.145353
    27  H    4.606888   3.422141   3.890473   2.136289   1.084622
    28  C    5.075941   3.873270   2.556564   4.288769   3.722786
    29  C    5.820621   4.851598   3.401443   5.555577   5.173332
    30  H    6.553658   5.566143   4.147948   6.196649   5.720128
    31  H    5.934333   4.631231   3.461865   4.761335   3.899665
    32  C    5.756073   6.396863   5.925741   7.822373   8.646092
    33  C    3.853493   4.942232   5.098910   6.262751   7.381618
    34  H    7.466398   7.828204   7.026334   9.233914   9.831969
    35  H    6.519241   7.292624   6.930178   8.709243   9.604110
    36  H    4.741421   5.926370   6.168161   7.197064   8.369491
    37  H    2.937271   4.333512   5.087512   5.354249   6.667965
                   16         17         18         19         20
    16  C    0.000000
    17  C    1.421971   0.000000
    18  H    3.379120   4.432338   0.000000
    19  H    5.352399   6.655109   2.747062   0.000000
    20  H    6.816337   8.226498   4.873445   2.423331   0.000000
    21  C    6.883093   8.253439   6.312837   4.752977   2.979447
    22  C    6.098431   7.272795   6.770724   6.138268   5.094218
    23  C    5.820465   6.611358   7.633086   7.794207   7.291144
    24  H    4.707705   4.864040   7.566997   8.664010   8.954292
    25  H    3.972405   3.408775   7.269815   9.007880   9.898690
    26  H    2.160715   1.084720   4.462206   6.879701   8.686855
    27  H    3.436937   2.141353   6.544265   8.770688  10.213114
    28  C    1.403742   2.423517   2.117170   4.285500   6.092797
    29  C    2.729829   3.926984   1.101374   2.771800   4.723586
    30  H    3.379163   4.432385   1.728700   2.747273   4.873666
    31  H    2.080101   2.503602   2.399185   4.827604   6.867805
    32  C    7.046321   8.324934   7.091924   5.909278   4.346313
    33  C    6.507642   7.490518   7.760438   7.451133   6.542768
    34  H    7.849031   9.239447   6.952870   5.056399   2.889162
    35  H    8.095869   9.349311   8.152993   6.853935   5.073477
    36  H    7.586093   8.541684   8.794508   8.338582   7.206087
    37  H    6.542535   7.168037   8.598761   8.868272   8.364134
                   21         22         23         24         25
    21  C    0.000000
    22  C    2.481070   0.000000
    23  C    4.944812   2.484929   0.000000
    24  H    7.283192   5.085881   2.962138   0.000000
    25  H    8.854240   6.997130   5.241448   2.420442   0.000000
    26  H    9.022651   8.225726   7.680085   5.923382   4.284904
    27  H    9.875860   8.482911   7.221128   4.723898   2.462007
    28  C    6.754427   6.486943   6.702520   6.002194   5.372091
    29  C    5.861617   6.138236   6.917601   6.848040   6.632627
    30  H    6.313012   6.770850   7.633251   7.567167   7.269989
    31  H    7.774747   7.575193   7.727107   6.785786   5.814976
    32  C    1.390464   1.445712   3.886751   6.526919   8.373671
    33  C    3.892353   1.454124   1.384174   4.324075   6.527786
    34  H    1.085357   3.447671   5.932419   8.355404   9.937689
    35  H    2.130415   2.196542   4.354294   7.187624   9.184872
    36  H    4.359976   2.202337   2.124950   5.048641   7.365039
    37  H    5.933340   3.452472   1.085340   2.865462   5.280805
                   26         27         28         29         30
    26  H    0.000000
    27  H    2.447424   0.000000
    28  C    2.615790   4.564818   0.000000
    29  C    4.108915   6.063613   1.520239   0.000000
    30  H    4.462202   6.544373   2.117182   1.101375   0.000000
    31  H    2.217745   4.536344   1.088276   2.144411   2.399164
    32  C    9.205835   9.713146   7.191138   6.551642   7.092100
    33  C    8.521614   8.355746   7.163896   7.085169   7.760618
    34  H    9.965865  10.916591   7.608173   6.584115   6.953094
    35  H   10.251828  10.659085   8.273423   7.630064   8.153220
    36  H    9.582248   9.314567   8.247522   8.135381   8.794727
    37  H    8.251580   7.482946   7.542548   7.880784   8.598955
                   31         32         33         34         35
    31  H    0.000000
    32  C    8.261917   0.000000
    33  C    8.236623   2.670266   0.000000
    34  H    8.590038   2.129142   4.787202   0.000000
    35  H    9.345775   1.085286   2.997768   2.415046   0.000000
    36  H    9.321324   2.997298   1.085337   5.095162   2.923791
    37  H    8.528423   4.782428   2.124142   6.880157   5.090356
                   36         37
    36  H    0.000000
    37  H    2.409912   0.000000
 Stoichiometry    C24H13(2)
 Framework group  C1[X(C24H13)]
 Deg. of freedom   105
 Full point group                 C1      NOp   1
 Largest Abelian subgroup         C1      NOp   1
 Largest concise Abelian subgroup C1      NOp   1
                         Standard orientation:                         
 ---------------------------------------------------------------------
 Center     Atomic      Atomic             Coordinates (Angstroms)
 Number     Number       Type             X           Y           Z
 ---------------------------------------------------------------------
      1          6           0       -1.571158    3.241502    0.000160
      2          6           0       -0.334759    2.510211   -0.000100
      3          6           0       -0.449730    1.146511   -0.000340
      4          6           0       -2.832189    2.651772    0.000230
      5          6           0       -2.961839    1.228132   -0.000010
      6          6           0       -1.743170    0.574952   -0.000350
      7          6           0        0.497250    0.017680   -0.000360
      8          6           0       -0.277831   -1.150109   -0.000400
      9          6           0       -1.635961   -0.815168   -0.000390
     10          6           0        0.165418   -2.469279   -0.000130
     11          6           0        1.568248   -2.595310    0.000030
     12          6           0        2.408419   -1.447831    0.000030
     13          6           0        1.872260   -0.092360   -0.000120
     14          6           0        3.827559   -1.591102    0.000210
     15          6           0        4.651420   -0.478932    0.000200
     16          6           0        2.739950    1.084599    0.000000
     17          6           0        4.136930    0.819178    0.000070
     18          1           0        1.050152    3.880270    0.864440
     19          1           0       -1.519028    4.326402    0.000360
     20          1           0       -3.709668    3.290243    0.000470
     21          6           0       -4.102400    0.336793    0.000210
     22          6           0       -2.685631   -1.699988   -0.000050
     23          6           0       -0.915952   -3.444439    0.000100
     24          1           0        2.043468   -3.571301    0.000230
     25          1           0        4.254978   -2.587552    0.000390
     26          1           0        4.822761    1.659568    0.000040
     27          1           0        5.727539   -0.614473    0.000300
     28          6           0        2.321301    2.424459    0.000030
     29          6           0        1.013032    3.198770    0.000030
     30          1           0        1.050222    3.880420   -0.864260
     31          1           0        3.156092    3.122649    0.000080
     32          6           0       -3.975931   -1.047907    0.000180
     33          6           0       -2.253562   -3.088438    0.000160
     34          1           0       -5.102320    0.758884    0.000470
     35          1           0       -4.881511   -1.646046    0.000440
     36          1           0       -2.995702   -3.880388    0.000370
     37          1           0       -0.667033   -4.500849    0.000260
 ---------------------------------------------------------------------
 Rotational constants (GHZ):      0.4160390      0.2559349      0.1586067
 Standard basis: 6-311+G(d,p) (5D, 7F)
 There are   630 symmetry adapted cartesian basis functions of A   symmetry.
 There are   606 symmetry adapted basis functions of A   symmetry.
   606 basis functions,   968 primitive gaussians,   630 cartesian basis functions
    79 alpha electrons       78 beta electrons
       nuclear repulsion energy      1835.7393671061 Hartrees.
 NAtoms=   37 NActive=   37 NUniq=   37 SFac= 1.00D+00 NAtFMM=   60 NAOKFM=F Big=F
 Integral buffers will be    131072 words long.
 Raffenetti 2 integral format.
 Two-electron integral symmetry is turned on.
 One-electron integrals computed using PRISM.
 NBasis=   606 RedAO= T EigKep=  1.20D-06  NBF=   606
 NBsUse=   588 1.00D-06 EigRej=  9.71D-07 NBFU=   588
 ExpMin= 4.38D-02 ExpMax= 4.56D+03 ExpMxC= 6.82D+02 IAcc=2 IRadAn=         4 AccDes= 0.00D+00
 Harris functional with IExCor=  402 and IRadAn=       4 diagonalized for initial guess.
 HarFok:  IExCor=  402 AccDes= 0.00D+00 IRadAn=         4 IDoV= 1 UseB2=F ITyADJ=14
 ICtDFT=  3500011 ScaDFX=  1.000000  1.000000  1.000000  1.000000
 FoFCou: FMM=F IPFlag=           0 FMFlag=      100000 FMFlg1=           0
         NFxFlg=           0 DoJE=T BraDBF=F KetDBF=T FulRan=T
         wScrn=  0.000000 ICntrl=     500 IOpCl=  0 I1Cent=   200000004 NGrid=           0
         NMat0=    1 NMatS0=      1 NMatT0=    0 NMatD0=    1 NMtDS0=    0 NMtDT0=    0
 Petite list used in FoFCou.
 Initial guess <Sx>= 0.0000 <Sy>= 0.0000 <Sz>= 0.5000 <S**2>= 0.7500 S= 0.5000
 Requested convergence on RMS density matrix=1.00D-08 within 128 cycles.
 Requested convergence on MAX density matrix=1.00D-06.
 Requested convergence on             energy=1.00D-06.
 No special actions if energy rises.
 Restarting incremental Fock formation.
 SCF Done:  E(UB3LYP) =  -922.583114625     A.U. after   23 cycles
            NFock= 23  Conv=0.68D-08     -V/T= 2.0044
 <Sx>= 0.0000 <Sy>= 0.0000 <Sz>= 0.5000 <S**2>= 0.8018 S= 0.5256
 <L.S>= 0.000000000000E+00
 Annihilation of the first spin contaminant:
 S**2 before annihilation     0.8018,   after     0.7517

 **********************************************************************

            Population analysis using the SCF density.

 **********************************************************************

 Orbital symmetries:
 Alpha Orbitals:
       Occupied  (A) (A) (A) (A) (A) (A) (A) (A) (A) (A) (A) (A)
                 (A) (A) (A) (A) (A) (A) (A) (A) (A) (A) (A) (A)
                 (A) (A) (A) (A) (A) (A) (A) (A) (A) (A) (A) (A)
                 (A) (A) (A) (A) (A) (A) (A) (A) (A) (A) (A) (A)
                 (A) (A) (A) (A) (A) (A) (A) (A) (A) (A) (A) (A)
                 (A) (A) (A) (A) (A) (A) (A) (A) (A) (A) (A) (A)
                 (A) (A) (A) (A) (A) (A) (A)
       Virtual   (A) (A) (A) (A) (A) (A) (A) (A) (A) (A) (A) (A)
                 (A) (A) (A) (A) (A) (A) (A) (A) (A) (A) (A) (A)
                 (A) (A) (A) (A) (A) (A) (A) (A) (A) (A) (A) (A)
                 (A) (A) (A) (A) (A) (A) (A) (A) (A) (A) (A) (A)
                 (A) (A) (A) (A) (A) (A) (A) (A) (A) (A) (A) (A)
                 (A) (A) (A) (A) (A) (A) (A) (A) (A) (A) (A) (A)
                 (A) (A) (A) (A) (A) (A) (A) (A) (A) (A) (A) (A)
                 (A) (A) (A) (A) (A) (A) (A) (A) (A) (A) (A) (A)
                 (A) (A) (A) (A) (A) (A) (A) (A) (A) (A) (A) (A)
                 (A) (A) (A) (A) (A) (A) (A) (A) (A) (A) (A) (A)
                 (A) (A) (A) (A) (A) (A) (A) (A) (A) (A) (A) (A)
                 (A) (A) (A) (A) (A) (A) (A) (A) (A) (A) (A) (A)
                 (A) (A) (A) (A) (A) (A) (A) (A) (A) (A) (A) (A)
                 (A) (A) (A) (A) (A) (A) (A) (A) (A) (A) (A) (A)
                 (A) (A) (A) (A) (A) (A) (A) (A) (A) (A) (A) (A)
                 (A) (A) (A) (A) (A) (A) (A) (A) (A) (A) (A) (A)
                 (A) (A) (A) (A) (A) (A) (A) (A) (A) (A) (A) (A)
                 (A) (A) (A) (A) (A) (A) (A) (A) (A) (A) (A) (A)
                 (A) (A) (A) (A) (A) (A) (A) (A) (A) (A) (A) (A)
                 (A) (A) (A) (A) (A) (A) (A) (A) (A) (A) (A) (A)
                 (A) (A) (A) (A) (A) (A) (A) (A) (A) (A) (A) (A)
                 (A) (A) (A) (A) (A) (A) (A) (A) (A) (A) (A) (A)
                 (A) (A) (A) (A) (A) (A) (A) (A) (A) (A) (A) (A)
                 (A) (A) (A) (A) (A) (A) (A) (A) (A) (A) (A) (A)
                 (A) (A) (A) (A) (A) (A) (A) (A) (A) (A) (A) (A)
                 (A) (A) (A) (A) (A) (A) (A) (A) (A) (A) (A) (A)
                 (A) (A) (A) (A) (A) (A) (A) (A) (A) (A) (A) (A)
                 (A) (A) (A) (A) (A) (A) (A) (A) (A) (A) (A) (A)
                 (A) (A) (A) (A) (A) (A) (A) (A) (A) (A) (A) (A)
                 (A) (A) (A) (A) (A) (A) (A) (A) (A) (A) (A) (A)
                 (A) (A) (A) (A) (A) (A) (A) (A) (A) (A) (A) (A)
                 (A) (A) (A) (A) (A) (A) (A) (A) (A) (A) (A) (A)
                 (A) (A) (A) (A) (A) (A) (A) (A) (A) (A) (A) (A)
                 (A) (A) (A) (A) (A) (A) (A) (A) (A) (A) (A) (A)
                 (A) (A) (A) (A) (A) (A) (A) (A) (A) (A) (A) (A)
                 (A) (A) (A) (A) (A) (A) (A) (A) (A) (A) (A) (A)
                 (A) (A) (A) (A) (A) (A) (A) (A) (A) (A) (A) (A)
                 (A) (A) (A) (A) (A) (A) (A) (A) (A) (A) (A) (A)
                 (A) (A) (A) (A) (A) (A) (A) (A) (A) (A) (A) (A)
                 (A) (A) (A) (A) (A) (A) (A) (A) (A) (A) (A) (A)
                 (A) (A) (A) (A) (A) (A) (A) (A) (A) (A) (A) (A)
                 (A) (A) (A) (A) (A) (A) (A) (A) (A) (A) (A) (A)
                 (A) (A) (A) (A) (A)
 Beta  Orbitals:
       Occupied  (A) (A) (A) (A) (A) (A) (A) (A) (A) (A) (A) (A)
                 (A) (A) (A) (A) (A) (A) (A) (A) (A) (A) (A) (A)
                 (A) (A) (A) (A) (A) (A) (A) (A) (A) (A) (A) (A)
                 (A) (A) (A) (A) (A) (A) (A) (A) (A) (A) (A) (A)
                 (A) (A) (A) (A) (A) (A) (A) (A) (A) (A) (A) (A)
                 (A) (A) (A) (A) (A) (A) (A) (A) (A) (A) (A) (A)
                 (A) (A) (A) (A) (A) (A)
       Virtual   (A) (A) (A) (A) (A) (A) (A) (A) (A) (A) (A) (A)
                 (A) (A) (A) (A) (A) (A) (A) (A) (A) (A) (A) (A)
                 (A) (A) (A) (A) (A) (A) (A) (A) (A) (A) (A) (A)
                 (A) (A) (A) (A) (A) (A) (A) (A) (A) (A) (A) (A)
                 (A) (A) (A) (A) (A) (A) (A) (A) (A) (A) (A) (A)
                 (A) (A) (A) (A) (A) (A) (A) (A) (A) (A) (A) (A)
                 (A) (A) (A) (A) (A) (A) (A) (A) (A) (A) (A) (A)
                 (A) (A) (A) (A) (A) (A) (A) (A) (A) (A) (A) (A)
                 (A) (A) (A) (A) (A) (A) (A) (A) (A) (A) (A) (A)
                 (A) (A) (A) (A) (A) (A) (A) (A) (A) (A) (A) (A)
                 (A) (A) (A) (A) (A) (A) (A) (A) (A) (A) (A) (A)
                 (A) (A) (A) (A) (A) (A) (A) (A) (A) (A) (A) (A)
                 (A) (A) (A) (A) (A) (A) (A) (A) (A) (A) (A) (A)
                 (A) (A) (A) (A) (A) (A) (A) (A) (A) (A) (A) (A)
                 (A) (A) (A) (A) (A) (A) (A) (A) (A) (A) (A) (A)
                 (A) (A) (A) (A) (A) (A) (A) (A) (A) (A) (A) (A)
                 (A) (A) (A) (A) (A) (A) (A) (A) (A) (A) (A) (A)
                 (A) (A) (A) (A) (A) (A) (A) (A) (A) (A) (A) (A)
                 (A) (A) (A) (A) (A) (A) (A) (A) (A) (A) (A) (A)
                 (A) (A) (A) (A) (A) (A) (A) (A) (A) (A) (A) (A)
                 (A) (A) (A) (A) (A) (A) (A) (A) (A) (A) (A) (A)
                 (A) (A) (A) (A) (A) (A) (A) (A) (A) (A) (A) (A)
                 (A) (A) (A) (A) (A) (A) (A) (A) (A) (A) (A) (A)
                 (A) (A) (A) (A) (A) (A) (A) (A) (A) (A) (A) (A)
                 (A) (A) (A) (A) (A) (A) (A) (A) (A) (A) (A) (A)
                 (A) (A) (A) (A) (A) (A) (A) (A) (A) (A) (A) (A)
                 (A) (A) (A) (A) (A) (A) (A) (A) (A) (A) (A) (A)
                 (A) (A) (A) (A) (A) (A) (A) (A) (A) (A) (A) (A)
                 (A) (A) (A) (A) (A) (A) (A) (A) (A) (A) (A) (A)
                 (A) (A) (A) (A) (A) (A) (A) (A) (A) (A) (A) (A)
                 (A) (A) (A) (A) (A) (A) (A) (A) (A) (A) (A) (A)
                 (A) (A) (A) (A) (A) (A) (A) (A) (A) (A) (A) (A)
                 (A) (A) (A) (A) (A) (A) (A) (A) (A) (A) (A) (A)
                 (A) (A) (A) (A) (A) (A) (A) (A) (A) (A) (A) (A)
                 (A) (A) (A) (A) (A) (A) (A) (A) (A) (A) (A) (A)
                 (A) (A) (A) (A) (A) (A) (A) (A) (A) (A) (A) (A)
                 (A) (A) (A) (A) (A) (A) (A) (A) (A) (A) (A) (A)
                 (A) (A) (A) (A) (A) (A) (A) (A) (A) (A) (A) (A)
                 (A) (A) (A) (A) (A) (A) (A) (A) (A) (A) (A) (A)
                 (A) (A) (A) (A) (A) (A) (A) (A) (A) (A) (A) (A)
                 (A) (A) (A) (A) (A) (A) (A) (A) (A) (A) (A) (A)
                 (A) (A) (A) (A) (A) (A) (A) (A) (A) (A) (A) (A)
                 (A) (A) (A) (A) (A) (A)
 The electronic state is 2-A.
 Alpha  occ. eigenvalues --  -10.20025 -10.19792 -10.19658 -10.19611 -10.19531
 Alpha  occ. eigenvalues --  -10.19529 -10.19435 -10.19152 -10.19108 -10.19102
 Alpha  occ. eigenvalues --  -10.19095 -10.19073 -10.18994 -10.18970 -10.18956
 Alpha  occ. eigenvalues --  -10.18696 -10.18302 -10.18277 -10.18237 -10.18206
 Alpha  occ. eigenvalues --  -10.17765 -10.16695 -10.16593 -10.16526  -0.92183
 Alpha  occ. eigenvalues --   -0.87834  -0.86361  -0.83860  -0.81701  -0.81531
 Alpha  occ. eigenvalues --   -0.78684  -0.77222  -0.75474  -0.72758  -0.72664
 Alpha  occ. eigenvalues --   -0.70965  -0.66771  -0.65772  -0.63719  -0.62467
 Alpha  occ. eigenvalues --   -0.59985  -0.59712  -0.57026  -0.56057  -0.53144
 Alpha  occ. eigenvalues --   -0.51774  -0.50794  -0.49619  -0.49037  -0.47343
 Alpha  occ. eigenvalues --   -0.46150  -0.45382  -0.45069  -0.44189  -0.43588
 Alpha  occ. eigenvalues --   -0.43268  -0.42793  -0.41962  -0.41784  -0.40518
 Alpha  occ. eigenvalues --   -0.39921  -0.39700  -0.39594  -0.37077  -0.36806
 Alpha  occ. eigenvalues --   -0.36458  -0.35279  -0.34694  -0.34508  -0.33389
 Alpha  occ. eigenvalues --   -0.32537  -0.32485  -0.29764  -0.29213  -0.27018
 Alpha  occ. eigenvalues --   -0.23257  -0.23158  -0.22176  -0.17520
 Alpha virt. eigenvalues --   -0.08943  -0.04891  -0.02699  -0.00914  -0.00144
 Alpha virt. eigenvalues --    0.00775   0.00823   0.01462   0.01791   0.01916
 Alpha virt. eigenvalues --    0.01949   0.03012   0.03449   0.03510   0.03974
 Alpha virt. eigenvalues --    0.04333   0.04778   0.05349   0.05488   0.05935
 Alpha virt. eigenvalues --    0.06412   0.06679   0.07782   0.08028   0.08085
 Alpha virt. eigenvalues --    0.08326   0.08928   0.09234   0.09453   0.10123
 Alpha virt. eigenvalues --    0.10626   0.10660   0.10847   0.11297   0.11450
 Alpha virt. eigenvalues --    0.12230   0.13134   0.13155   0.13811   0.13961
 Alpha virt. eigenvalues --    0.14424   0.14567   0.14694   0.15525   0.15912
 Alpha virt. eigenvalues --    0.16130   0.16629   0.17040   0.17167   0.17329
 Alpha virt. eigenvalues --    0.17686   0.17764   0.17818   0.18213   0.18302
 Alpha virt. eigenvalues --    0.18739   0.18754   0.18915   0.19103   0.19360
 Alpha virt. eigenvalues --    0.19803   0.20044   0.20592   0.20638   0.21114
 Alpha virt. eigenvalues --    0.21150   0.21259   0.21745   0.21804   0.22473
 Alpha virt. eigenvalues --    0.22870   0.22919   0.23139   0.23204   0.23421
 Alpha virt. eigenvalues --    0.23781   0.24211   0.24269   0.24696   0.24883
 Alpha virt. eigenvalues --    0.25105   0.25418   0.25522   0.26023   0.26438
 Alpha virt. eigenvalues --    0.26769   0.26779   0.27479   0.27733   0.28203
 Alpha virt. eigenvalues --    0.28237   0.28542   0.29261   0.29738   0.29890
 Alpha virt. eigenvalues --    0.30229   0.30388   0.30655   0.31296   0.31807
 Alpha virt. eigenvalues --    0.32147   0.32672   0.32870   0.33794   0.34290
 Alpha virt. eigenvalues --    0.34378   0.35141   0.35544   0.36524   0.37242
 Alpha virt. eigenvalues --    0.38644   0.38936   0.39693   0.40068   0.40616
 Alpha virt. eigenvalues --    0.41395   0.42007   0.43099   0.43671   0.44157
 Alpha virt. eigenvalues --    0.45072   0.46133   0.47127   0.47353   0.47420
 Alpha virt. eigenvalues --    0.48091   0.48686   0.49270   0.50249   0.51137
 Alpha virt. eigenvalues --    0.52580   0.52719   0.52725   0.53692   0.54275
 Alpha virt. eigenvalues --    0.54876   0.54935   0.55782   0.55785   0.56583
 Alpha virt. eigenvalues --    0.56814   0.57076   0.57604   0.58064   0.58225
 Alpha virt. eigenvalues --    0.58599   0.58935   0.59374   0.60295   0.60500
 Alpha virt. eigenvalues --    0.60749   0.61574   0.61805   0.62277   0.63116
 Alpha virt. eigenvalues --    0.63842   0.64203   0.64429   0.64434   0.64844
 Alpha virt. eigenvalues --    0.65332   0.65948   0.66517   0.66772   0.67379
 Alpha virt. eigenvalues --    0.67818   0.67947   0.68023   0.68262   0.69212
 Alpha virt. eigenvalues --    0.69295   0.70261   0.70846   0.71475   0.71658
 Alpha virt. eigenvalues --    0.71984   0.72113   0.72613   0.73196   0.74031
 Alpha virt. eigenvalues --    0.74579   0.74884   0.75419   0.75825   0.77252
 Alpha virt. eigenvalues --    0.77620   0.78082   0.78118   0.79223   0.81079
 Alpha virt. eigenvalues --    0.83049   0.83822   0.84171   0.84391   0.86524
 Alpha virt. eigenvalues --    0.87062   0.87710   0.88928   0.89283   0.90408
 Alpha virt. eigenvalues --    0.91192   0.91690   0.92619   0.93192   0.93459
 Alpha virt. eigenvalues --    0.93646   0.94932   0.95235   0.95599   0.95867
 Alpha virt. eigenvalues --    0.95893   0.96057   0.96878   0.97206   0.97636
 Alpha virt. eigenvalues --    0.97975   0.98646   0.99332   1.00395   1.00495
 Alpha virt. eigenvalues --    1.00571   1.01870   1.02464   1.02744   1.03812
 Alpha virt. eigenvalues --    1.04953   1.05215   1.05589   1.05973   1.07364
 Alpha virt. eigenvalues --    1.07608   1.07972   1.09136   1.09736   1.10201
 Alpha virt. eigenvalues --    1.10696   1.12519   1.13165   1.14390   1.14484
 Alpha virt. eigenvalues --    1.15096   1.15201   1.15791   1.17289   1.18306
 Alpha virt. eigenvalues --    1.20062   1.22999   1.24545   1.26024   1.28245
 Alpha virt. eigenvalues --    1.30148   1.34328   1.34501   1.34824   1.36813
 Alpha virt. eigenvalues --    1.37380   1.38153   1.39038   1.40648   1.41435
 Alpha virt. eigenvalues --    1.42995   1.43003   1.45289   1.46825   1.47593
 Alpha virt. eigenvalues --    1.47887   1.47943   1.48548   1.48756   1.49106
 Alpha virt. eigenvalues --    1.50914   1.51386   1.52087   1.52522   1.53967
 Alpha virt. eigenvalues --    1.54932   1.55653   1.56108   1.57752   1.58137
 Alpha virt. eigenvalues --    1.59072   1.59276   1.61451   1.61705   1.62345
 Alpha virt. eigenvalues --    1.63840   1.64039   1.64698   1.65881   1.67498
 Alpha virt. eigenvalues --    1.67640   1.68240   1.69278   1.70080   1.70670
 Alpha virt. eigenvalues --    1.73340   1.74071   1.75028   1.75300   1.75353
 Alpha virt. eigenvalues --    1.76708   1.77296   1.79607   1.79734   1.80052
 Alpha virt. eigenvalues --    1.81446   1.82090   1.83469   1.83771   1.84836
 Alpha virt. eigenvalues --    1.85608   1.86154   1.86310   1.86686   1.87419
 Alpha virt. eigenvalues --    1.87531   1.87865   1.89333   1.89992   1.90527
 Alpha virt. eigenvalues --    1.91844   1.93060   1.94114   1.95483   1.96187
 Alpha virt. eigenvalues --    1.96348   1.97246   1.97665   1.99108   1.99212
 Alpha virt. eigenvalues --    2.00349   2.01280   2.02370   2.03589   2.03717
 Alpha virt. eigenvalues --    2.04516   2.05214   2.06237   2.06890   2.07786
 Alpha virt. eigenvalues --    2.09160   2.10040   2.11386   2.11932   2.14064
 Alpha virt. eigenvalues --    2.14372   2.15279   2.16101   2.16889   2.18225
 Alpha virt. eigenvalues --    2.20218   2.21473   2.22428   2.23458   2.24067
 Alpha virt. eigenvalues --    2.24813   2.26508   2.28708   2.30966   2.31074
 Alpha virt. eigenvalues --    2.32933   2.35258   2.35266   2.38986   2.40715
 Alpha virt. eigenvalues --    2.43119   2.43452   2.44885   2.44999   2.45272
 Alpha virt. eigenvalues --    2.46334   2.47094   2.52515   2.53417   2.53423
 Alpha virt. eigenvalues --    2.54768   2.56947   2.57672   2.59090   2.59211
 Alpha virt. eigenvalues --    2.60498   2.62756   2.63248   2.64885   2.65132
 Alpha virt. eigenvalues --    2.66565   2.66761   2.68619   2.70229   2.71126
 Alpha virt. eigenvalues --    2.71606   2.72510   2.73398   2.73958   2.74434
 Alpha virt. eigenvalues --    2.74775   2.75125   2.75674   2.75818   2.76540
 Alpha virt. eigenvalues --    2.76900   2.77670   2.77698   2.79151   2.79848
 Alpha virt. eigenvalues --    2.80483   2.81492   2.82565   2.83120   2.84068
 Alpha virt. eigenvalues --    2.85734   2.85918   2.86923   2.89022   2.90230
 Alpha virt. eigenvalues --    2.90867   2.92073   2.92147   2.93702   2.95077
 Alpha virt. eigenvalues --    2.97921   2.99714   3.00717   3.01397   3.02162
 Alpha virt. eigenvalues --    3.05202   3.06314   3.07426   3.10885   3.13535
 Alpha virt. eigenvalues --    3.13966   3.13996   3.15151   3.20118   3.20812
 Alpha virt. eigenvalues --    3.21771   3.23345   3.24897   3.28114   3.30775
 Alpha virt. eigenvalues --    3.34143   3.36363   3.38133   3.40485   3.41388
 Alpha virt. eigenvalues --    3.42974   3.43782   3.44224   3.46050   3.46962
 Alpha virt. eigenvalues --    3.47424   3.49094   3.50987   3.51519   3.54700
 Alpha virt. eigenvalues --    3.58027   3.60509   3.62483   3.65306   3.66675
 Alpha virt. eigenvalues --    3.72398   3.77962   3.82309   3.83512   3.85961
 Alpha virt. eigenvalues --    3.87390   3.98778   4.03924   4.05894   4.06527
 Alpha virt. eigenvalues --    4.06980   4.07671   4.11350   4.21072   4.27352
 Alpha virt. eigenvalues --    4.29632   4.38385   4.48828   4.71500   4.75875
 Alpha virt. eigenvalues --    4.79113   4.80021   4.85569   4.88821   4.91649
 Alpha virt. eigenvalues --   23.38190  23.64369  23.74382  23.80919  23.82989
 Alpha virt. eigenvalues --   23.85411  23.87840  23.90563  23.91970  23.93131
 Alpha virt. eigenvalues --   23.98102  23.99115  24.03058  24.05049  24.05728
 Alpha virt. eigenvalues --   24.09058  24.10270  24.11076  24.12245  24.13556
 Alpha virt. eigenvalues --   24.14562  24.17302  24.19610  24.22723
  Beta  occ. eigenvalues --  -10.20043 -10.19878 -10.19837 -10.19657 -10.19477
  Beta  occ. eigenvalues --  -10.19400 -10.19166 -10.19149 -10.19120 -10.19081
  Beta  occ. eigenvalues --  -10.19072 -10.19002 -10.18971 -10.18790 -10.18693
  Beta  occ. eigenvalues --  -10.18670 -10.18378 -10.18227 -10.17984 -10.17802
  Beta  occ. eigenvalues --  -10.17723 -10.16621 -10.16584 -10.16539  -0.92157
  Beta  occ. eigenvalues --   -0.87633  -0.86246  -0.83708  -0.81523  -0.81244
  Beta  occ. eigenvalues --   -0.78348  -0.77028  -0.75199  -0.72685  -0.72465
  Beta  occ. eigenvalues --   -0.70731  -0.66203  -0.65557  -0.63455  -0.62415
  Beta  occ. eigenvalues --   -0.59872  -0.59584  -0.56776  -0.55832  -0.53099
  Beta  occ. eigenvalues --   -0.51692  -0.50679  -0.49400  -0.48973  -0.47224
  Beta  occ. eigenvalues --   -0.46080  -0.44893  -0.44828  -0.44145  -0.43522
  Beta  occ. eigenvalues --   -0.43219  -0.42538  -0.41900  -0.41633  -0.40383
  Beta  occ. eigenvalues --   -0.39795  -0.39588  -0.39035  -0.36927  -0.36602
  Beta  occ. eigenvalues --   -0.36275  -0.35224  -0.34444  -0.34221  -0.33335
  Beta  occ. eigenvalues --   -0.32450  -0.31994  -0.29373  -0.28107  -0.26646
  Beta  occ. eigenvalues --   -0.23121  -0.22790  -0.21297
  Beta virt. eigenvalues --   -0.09573  -0.08225  -0.04694  -0.02385  -0.00227
  Beta virt. eigenvalues --   -0.00095   0.00787   0.00837   0.01725   0.01802
  Beta virt. eigenvalues --    0.01936   0.02680   0.03028   0.03471   0.03535
  Beta virt. eigenvalues --    0.04021   0.04398   0.04864   0.05364   0.05521
  Beta virt. eigenvalues --    0.05990   0.06439   0.06857   0.07926   0.08047
  Beta virt. eigenvalues --    0.08115   0.08466   0.09044   0.09278   0.09748
  Beta virt. eigenvalues --    0.10192   0.10617   0.10660   0.11204   0.11331
  Beta virt. eigenvalues --    0.11468   0.12388   0.13180   0.13227   0.13884
  Beta virt. eigenvalues --    0.13996   0.14489   0.14621   0.14747   0.15573
  Beta virt. eigenvalues --    0.16147   0.16296   0.16656   0.17058   0.17250
  Beta virt. eigenvalues --    0.17346   0.17798   0.17902   0.17969   0.18335
  Beta virt. eigenvalues --    0.18398   0.18762   0.18774   0.19050   0.19259
  Beta virt. eigenvalues --    0.19452   0.19824   0.20075   0.20647   0.20657
  Beta virt. eigenvalues --    0.21310   0.21363   0.21437   0.21838   0.21971
  Beta virt. eigenvalues --    0.22494   0.22943   0.23037   0.23191   0.23291
  Beta virt. eigenvalues --    0.23545   0.23826   0.24247   0.24257   0.24764
  Beta virt. eigenvalues --    0.24893   0.25204   0.25457   0.25574   0.26092
  Beta virt. eigenvalues --    0.26504   0.26787   0.26855   0.27503   0.27753
  Beta virt. eigenvalues --    0.28240   0.28257   0.28587   0.29346   0.29779
  Beta virt. eigenvalues --    0.29880   0.30265   0.30487   0.30760   0.31410
  Beta virt. eigenvalues --    0.31831   0.32170   0.32731   0.32959   0.33833
  Beta virt. eigenvalues --    0.34316   0.34415   0.35217   0.35638   0.36576
  Beta virt. eigenvalues --    0.37292   0.38736   0.39002   0.39741   0.40093
  Beta virt. eigenvalues --    0.40720   0.41446   0.42090   0.43197   0.43694
  Beta virt. eigenvalues --    0.44280   0.45213   0.46274   0.47217   0.47587
  Beta virt. eigenvalues --    0.47895   0.48112   0.48754   0.49406   0.50343
  Beta virt. eigenvalues --    0.51149   0.52636   0.52843   0.52911   0.54053
  Beta virt. eigenvalues --    0.54498   0.55054   0.55123   0.55882   0.56275
  Beta virt. eigenvalues --    0.56677   0.57234   0.57264   0.57736   0.58314
  Beta virt. eigenvalues --    0.58659   0.58865   0.59162   0.59521   0.60360
  Beta virt. eigenvalues --    0.60546   0.60850   0.61929   0.61997   0.62777
  Beta virt. eigenvalues --    0.63278   0.63938   0.64301   0.64517   0.64698
  Beta virt. eigenvalues --    0.65071   0.65351   0.66003   0.66617   0.66800
  Beta virt. eigenvalues --    0.67418   0.68000   0.68053   0.68229   0.68760
  Beta virt. eigenvalues --    0.69348   0.69430   0.70390   0.70893   0.71568
  Beta virt. eigenvalues --    0.71852   0.72036   0.72156   0.72691   0.73261
  Beta virt. eigenvalues --    0.74106   0.74657   0.74947   0.75490   0.75864
  Beta virt. eigenvalues --    0.77453   0.77688   0.78197   0.78322   0.79339
  Beta virt. eigenvalues --    0.81125   0.83161   0.83898   0.84225   0.84640
  Beta virt. eigenvalues --    0.86649   0.87146   0.87755   0.89026   0.89580
  Beta virt. eigenvalues --    0.90489   0.91265   0.91805   0.92658   0.93248
  Beta virt. eigenvalues --    0.93721   0.93830   0.95112   0.95293   0.95659
  Beta virt. eigenvalues --    0.95960   0.96050   0.96148   0.96961   0.97252
  Beta virt. eigenvalues --    0.97757   0.98131   0.99003   0.99443   1.00431
  Beta virt. eigenvalues --    1.00752   1.00987   1.01975   1.02743   1.02948
  Beta virt. eigenvalues --    1.04170   1.05082   1.05467   1.05769   1.06368
  Beta virt. eigenvalues --    1.07438   1.07635   1.08109   1.09328   1.10190
  Beta virt. eigenvalues --    1.10364   1.10731   1.12765   1.13267   1.14442
  Beta virt. eigenvalues --    1.14775   1.15126   1.15291   1.15965   1.17391
  Beta virt. eigenvalues --    1.18391   1.20116   1.23107   1.24757   1.26224
  Beta virt. eigenvalues --    1.28437   1.30215   1.34425   1.34657   1.35397
  Beta virt. eigenvalues --    1.36898   1.37399   1.39020   1.39130   1.40719
  Beta virt. eigenvalues --    1.41487   1.43143   1.43286   1.45336   1.46967
  Beta virt. eigenvalues --    1.47680   1.48006   1.48067   1.48604   1.49104
  Beta virt. eigenvalues --    1.49217   1.51029   1.51451   1.52196   1.52788
  Beta virt. eigenvalues --    1.54328   1.55187   1.56054   1.56401   1.57812
  Beta virt. eigenvalues --    1.58154   1.59083   1.59549   1.61706   1.61955
  Beta virt. eigenvalues --    1.62611   1.63957   1.64304   1.64802   1.66142
  Beta virt. eigenvalues --    1.67692   1.67822   1.68226   1.69322   1.70089
  Beta virt. eigenvalues --    1.70897   1.73437   1.74176   1.75168   1.75410
  Beta virt. eigenvalues --    1.75536   1.76821   1.77361   1.79647   1.80056
  Beta virt. eigenvalues --    1.80543   1.81697   1.82236   1.83792   1.83975
  Beta virt. eigenvalues --    1.84898   1.85846   1.86472   1.86494   1.87213
  Beta virt. eigenvalues --    1.87484   1.87587   1.87954   1.89649   1.90234
  Beta virt. eigenvalues --    1.90950   1.91974   1.93046   1.94334   1.95562
  Beta virt. eigenvalues --    1.96221   1.96467   1.97403   1.98124   1.99204
  Beta virt. eigenvalues --    1.99334   2.00904   2.01354   2.02465   2.03791
  Beta virt. eigenvalues --    2.03848   2.04534   2.05773   2.06281   2.07000
  Beta virt. eigenvalues --    2.07812   2.09490   2.10095   2.11597   2.12115
  Beta virt. eigenvalues --    2.14191   2.14361   2.15406   2.16190   2.17011
  Beta virt. eigenvalues --    2.18317   2.20597   2.21527   2.22859   2.23533
  Beta virt. eigenvalues --    2.24129   2.25303   2.26587   2.28773   2.31082
  Beta virt. eigenvalues --    2.31324   2.33156   2.35390   2.35546   2.39097
  Beta virt. eigenvalues --    2.40810   2.43151   2.43503   2.44983   2.45101
  Beta virt. eigenvalues --    2.45430   2.46458   2.47224   2.52748   2.53516
  Beta virt. eigenvalues --    2.53815   2.55023   2.57051   2.57690   2.59320
  Beta virt. eigenvalues --    2.59517   2.60576   2.62940   2.63282   2.64975
  Beta virt. eigenvalues --    2.65587   2.66748   2.66882   2.68721   2.70594
  Beta virt. eigenvalues --    2.71145   2.71626   2.72538   2.73470   2.74458
  Beta virt. eigenvalues --    2.74701   2.74799   2.75200   2.75776   2.75841
  Beta virt. eigenvalues --    2.76602   2.76993   2.77767   2.78069   2.79173
  Beta virt. eigenvalues --    2.79938   2.80550   2.81531   2.83146   2.83361
  Beta virt. eigenvalues --    2.84457   2.85960   2.86066   2.87199   2.90150
  Beta virt. eigenvalues --    2.90294   2.90965   2.92106   2.93022   2.93757
  Beta virt. eigenvalues --    2.95218   2.98956   2.99829   3.00833   3.01457
  Beta virt. eigenvalues --    3.02151   3.05344   3.06618   3.07679   3.10993
  Beta virt. eigenvalues --    3.13589   3.14019   3.14033   3.15159   3.20164
  Beta virt. eigenvalues --    3.20843   3.21895   3.23381   3.24963   3.28198
  Beta virt. eigenvalues --    3.30846   3.34238   3.36419   3.38194   3.40541
  Beta virt. eigenvalues --    3.41553   3.43043   3.43825   3.44261   3.46070
  Beta virt. eigenvalues --    3.46965   3.47446   3.49131   3.51079   3.51557
  Beta virt. eigenvalues --    3.54791   3.58113   3.60616   3.62617   3.65620
  Beta virt. eigenvalues --    3.66750   3.72651   3.78247   3.82324   3.83532
  Beta virt. eigenvalues --    3.85994   3.87555   3.99297   4.04071   4.05902
  Beta virt. eigenvalues --    4.06559   4.07069   4.07712   4.11858   4.21166
  Beta virt. eigenvalues --    4.27450   4.29911   4.38544   4.49097   4.71764
  Beta virt. eigenvalues --    4.75924   4.79226   4.80227   4.85610   4.88867
  Beta virt. eigenvalues --    4.91653  23.38216  23.64487  23.74436  23.80998
  Beta virt. eigenvalues --   23.83040  23.85566  23.87828  23.90700  23.91942
  Beta virt. eigenvalues --   23.93147  23.98084  23.99098  24.03616  24.05324
  Beta virt. eigenvalues --   24.05888  24.09084  24.10272  24.11083  24.12247
  Beta virt. eigenvalues --   24.13563  24.14577  24.17423  24.19614  24.22725
          Condensed to atoms (all electrons):
               1          2          3          4          5          6
     1  C   10.735191  -2.809761   0.290353   1.859626  -1.653204   1.402606
     2  C   -2.809761  10.674200  -0.115007  -1.879623   0.818836  -0.927553
     3  C    0.290353  -0.115007   6.467438   0.546432   0.319827   0.453083
     4  C    1.859626  -1.879623   0.546432   9.007568  -0.359438  -0.023680
     5  C   -1.653204   0.818836   0.319827  -0.359438   8.804898  -0.291247
     6  C    1.402606  -0.927553   0.453083  -0.023680  -0.291247   7.240677
     7  C   -1.231494   1.011243  -0.329316  -0.600593   0.030015  -0.388429
     8  C    0.012168  -0.339992   0.278769  -0.007742   0.540287  -0.113499
     9  C   -0.468889   0.281799  -0.127976  -0.626218   0.015007   0.085446
    10  C   -0.301547   0.192685  -0.592260  -0.202530  -0.573354   0.496538
    11  C   -0.055433   0.170341   0.000228   0.003094  -0.088854  -0.093102
    12  C   -0.105780  -0.322764  -0.213120  -0.093074   0.144712  -0.112844
    13  C    0.078023  -0.032891   0.428916   0.050589  -0.109023  -0.064486
    14  C    0.021356  -0.075700   0.220991   0.004536   0.069742   0.070488
    15  C   -0.023330  -0.054554   0.048680   0.004079  -0.000340  -0.093580
    16  C   -0.110583   0.287527   0.038184  -0.167353   0.064387  -0.045695
    17  C    0.011382  -0.191856  -0.539893  -0.031175  -0.058061   0.083925
    18  H    0.047108  -0.050602   0.002902   0.014625   0.007299  -0.001551
    19  H    0.423530  -0.089731   0.020949  -0.054640  -0.020495   0.013307
    20  H    0.036161  -0.032551  -0.000919   0.392342  -0.097601   0.041483
    21  C   -0.182534   0.441358  -1.015718  -1.291020  -1.469262  -0.398881
    22  C    0.248892  -0.517703   0.188520   0.296655   0.684755   0.644135
    23  C    0.123889  -0.377953   0.000268   0.016367   0.302076  -0.477153
    24  H   -0.000089  -0.000328  -0.002509  -0.000060  -0.000261   0.003827
    25  H    0.000004  -0.000375   0.000839  -0.000016  -0.000002  -0.000303
    26  H   -0.000287   0.002576  -0.000095  -0.000002  -0.000021  -0.000515
    27  H    0.000038   0.000064  -0.000157   0.000000  -0.000006   0.000093
    28  C   -0.446656  -0.749399   0.044173   0.012680  -0.007435  -0.487431
    29  C   -1.425812   0.117931  -0.307834  -0.592925  -0.126322  -0.550569
    30  H    0.046594  -0.050323   0.002852   0.014638   0.007283  -0.001630
    31  H    0.007495  -0.003079  -0.012709  -0.000923  -0.000156   0.005094
    32  C   -0.228196   0.388377  -0.645778  -0.118803  -1.826658   0.296298
    33  C   -0.047148  -0.133900   0.412064   0.128192   0.526526  -0.719743
    34  H   -0.004673   0.016112  -0.012967   0.005935  -0.114869   0.028073
    35  H   -0.000774   0.002109  -0.002528  -0.003773  -0.030566   0.011698
    36  H    0.000291  -0.000871   0.002519   0.000716   0.012389  -0.019197
    37  H   -0.000086   0.000011   0.003710   0.000105   0.000941  -0.003178
               7          8          9         10         11         12
     1  C   -1.231494   0.012168  -0.468889  -0.301547  -0.055433  -0.105780
     2  C    1.011243  -0.339992   0.281799   0.192685   0.170341  -0.322764
     3  C   -0.329316   0.278769  -0.127976  -0.592260   0.000228  -0.213120
     4  C   -0.600593  -0.007742  -0.626218  -0.202530   0.003094  -0.093074
     5  C    0.030015   0.540287   0.015007  -0.573354  -0.088854   0.144712
     6  C   -0.388429  -0.113499   0.085446   0.496538  -0.093102  -0.112844
     7  C    7.628160  -0.479282  -0.122769   0.948446   0.541826  -0.136073
     8  C   -0.479282   6.696835   0.330497  -0.511619  -0.061194  -0.121991
     9  C   -0.122769   0.330497   7.633872  -0.702882  -0.844820  -0.439983
    10  C    0.948446  -0.511619  -0.702882  10.230134   1.179313  -0.773729
    11  C    0.541826  -0.061194  -0.844820   1.179313   7.469100   0.797159
    12  C   -0.136073  -0.121991  -0.439983  -0.773729   0.797159  10.516503
    13  C    0.627573  -0.252112  -0.188764  -0.846855   0.454092  -0.049126
    14  C   -0.334238  -0.497446   0.197471  -0.076249  -1.337460  -1.860378
    15  C   -0.217181  -0.132081  -0.069203  -0.452858  -0.481854  -0.682645
    16  C   -0.426788   0.038809  -0.407186  -0.442902  -0.285620  -0.874378
    17  C   -0.216359   0.389441  -0.014769   0.183888   0.072317   1.566457
    18  H   -0.015543   0.000010   0.000752  -0.000721   0.000387  -0.001067
    19  H   -0.006815   0.000877  -0.000097   0.000030   0.000024  -0.000426
    20  H   -0.001867   0.002705  -0.015228  -0.000795  -0.000076   0.000172
    21  C    0.200451  -0.800944   0.919847   0.278033  -0.034978  -0.006443
    22  C   -0.065755  -0.069649   0.319090   0.906792  -0.087050  -0.045143
    23  C   -1.106925   0.901081   1.826163  -2.224227  -2.134113  -0.945881
    24  H   -0.013480   0.027296  -0.011715  -0.031956   0.357427  -0.054719
    25  H   -0.007560   0.002217   0.001341   0.040149   0.073180  -0.111956
    26  H   -0.006937   0.002276  -0.000395  -0.001007   0.003103   0.002738
    27  H    0.005372   0.001327   0.000171   0.006362   0.016015   0.058979
    28  C    0.492875  -0.177897  -0.039307  -0.058476   0.147782  -0.488950
    29  C    0.644053  -0.001235   0.055908   0.129317   0.025489   0.050836
    30  H   -0.015462   0.000019   0.000758  -0.000720   0.000384  -0.001087
    31  H   -0.005804   0.003316   0.000142   0.002166   0.000881   0.019084
    32  C    0.337494  -0.752462  -0.552620   0.923960   0.167888   0.030228
    33  C   -0.507425   1.082066  -1.031247  -2.000517   0.112470  -0.303812
    34  H    0.005055  -0.000819   0.001583   0.003731   0.000312   0.000175
    35  H    0.004184  -0.021458   0.033869   0.011454   0.000473  -0.000328
    36  H   -0.000440   0.013180   0.048910  -0.027249  -0.006687   0.001690
    37  H   -0.006312   0.034831  -0.011717  -0.089702   0.055322   0.016099
              13         14         15         16         17         18
     1  C    0.078023   0.021356  -0.023330  -0.110583   0.011382   0.047108
     2  C   -0.032891  -0.075700  -0.054554   0.287527  -0.191856  -0.050602
     3  C    0.428916   0.220991   0.048680   0.038184  -0.539893   0.002902
     4  C    0.050589   0.004536   0.004079  -0.167353  -0.031175   0.014625
     5  C   -0.109023   0.069742  -0.000340   0.064387  -0.058061   0.007299
     6  C   -0.064486   0.070488  -0.093580  -0.045695   0.083925  -0.001551
     7  C    0.627573  -0.334238  -0.217181  -0.426788  -0.216359  -0.015543
     8  C   -0.252112  -0.497446  -0.132081   0.038809   0.389441   0.000010
     9  C   -0.188764   0.197471  -0.069203  -0.407186  -0.014769   0.000752
    10  C   -0.846855  -0.076249  -0.452858  -0.442902   0.183888  -0.000721
    11  C    0.454092  -1.337460  -0.481854  -0.285620   0.072317   0.000387
    12  C   -0.049126  -1.860378  -0.682645  -0.874378   1.566457  -0.001067
    13  C    6.820844  -0.594917   0.546790   0.454613  -1.364584  -0.006196
    14  C   -0.594917  10.501032   0.495505   1.217142  -1.713181  -0.000578
    15  C    0.546790   0.495505   7.137060  -0.146389   0.207698   0.000784
    16  C    0.454613   1.217142  -0.146389   9.370527  -1.895720  -0.005857
    17  C   -1.364584  -1.713181   0.207698  -1.895720  10.321643   0.002050
    18  H   -0.006196  -0.000578   0.000784  -0.005857   0.002050   0.568602
    19  H    0.001486  -0.000033  -0.000009   0.001271   0.000527   0.000504
    20  H    0.000289   0.000009  -0.000004   0.000151   0.000001   0.000004
    21  C   -0.091392  -0.008946  -0.002485   0.077903   0.009664   0.001479
    22  C   -0.099584  -0.138161  -0.009670   0.076052   0.037660  -0.000096
    23  C   -0.647490   0.251848  -0.170021  -0.260765   0.051410  -0.000100
    24  H   -0.021646   0.025027   0.009987  -0.001192   0.007328   0.000000
    25  H    0.007352   0.371211  -0.032873  -0.008977  -0.011134   0.000000
    26  H    0.034861  -0.027661   0.014145  -0.140390   0.379716  -0.000038
    27  H   -0.003826  -0.047570   0.346625   0.007642  -0.051834  -0.000001
    28  C    0.709040  -0.431146   0.073160  -0.073624  -1.005375  -0.061439
    29  C    0.182864  -0.090589   0.002691  -0.464538  -0.274142   0.359232
    30  H   -0.006256  -0.000588   0.000804  -0.005821   0.002157  -0.045858
    31  H   -0.025991   0.006255   0.031577  -0.103543   0.149055  -0.004577
    32  C   -0.029829  -0.007266   0.003679  -0.007988  -0.012810   0.000264
    33  C    0.188413  -0.091217  -0.004427  -0.131691  -0.007045  -0.000015
    34  H   -0.000303   0.000007   0.000002  -0.000066  -0.000011   0.000000
    35  H   -0.000120  -0.000030  -0.000001   0.000130   0.000008   0.000000
    36  H   -0.000317   0.000280  -0.000003   0.000034  -0.000001   0.000000
    37  H    0.008170   0.003469   0.000834  -0.000376  -0.000242   0.000000
              19         20         21         22         23         24
     1  C    0.423530   0.036161  -0.182534   0.248892   0.123889  -0.000089
     2  C   -0.089731  -0.032551   0.441358  -0.517703  -0.377953  -0.000328
     3  C    0.020949  -0.000919  -1.015718   0.188520   0.000268  -0.002509
[...]
 6348,-0.00000250,0.00009104,-0.00006961,-0.00000015,-0.00001575,-0.000
 03913,-0.00000002,-0.00001890,0.00002447,-0.00000003,-0.00001689,0.000
 02954,0.00000001,-0.00005943,0.00027899,0.00000024,0.00030952,-0.00071
 969,-0.00000061,0.00062944,0.00029903,0.00012084,0.00016078,0.00010747
 ,0.,-0.06868957,0.65168503,-0.00000195,-0.00000045,0.00010825,0.000001
 00,0.00000153,-0.00000376,0.00000044,-0.00000124,-0.00089210,0.0000034
 7,-0.00000121,0.00462831,-0.00000602,-0.00000312,0.00386061,0.00000096
 ,0.00000327,-0.00155121,0.00000101,0.00000023,-0.00033773,0.00000026,-
 0.00000224,0.00706402,0.00001726,-0.00000241,0.00559627,0.00000081,-0.
 00000064,-0.00098898,-0.00000012,0.00000048,-0.00070712,0.00000009,-0.
 00000003,0.00044450,-0.00000006,-0.00000020,-0.00052411,-0.00000011,0.
 00000010,-0.00005962,0.,-0.00000011,-0.00006191,0.00000002,-0.00000016
 ,-0.00005578,0.00000007,0.00000004,0.00009898,0.00003863,-0.00001982,-
 0.00000216,0.00000006,-0.00000018,-0.00055439,0.,-0.00000007,-0.000169
 19,0.00001697,-0.00001048,-0.05909703,0.00003690,0.00000841,-0.0600395
 9,-0.00000102,-0.00000225,0.00391142,0.00000003,0.,0.00008040,0.,0.,0.
 00000495,0.,0.,0.00001488,0.,0.,-0.00000626,-0.00000002,0.00000005,-0.
 00003304,-0.00000003,0.00000015,0.00021293,-0.00003859,0.00001971,-0.0
 0000221,0.,0.,0.00000222,-0.00012267,0.00003658,0.13212168,0.00295373,
 -0.00093138,-0.00000007,-0.00209315,-0.00147675,0.00000019,0.00032580,
 0.00135997,-0.00000058,-0.00095283,0.00342518,-0.00000056,0.00385721,-
 0.00524814,-0.00000105,-0.00384859,0.00071248,0.00000405,0.00679986,-0
 .00595219,0.00000016,-0.02341067,-0.00715767,-0.00000133,0.03630347,0.
 02159760,-0.00000217,-0.05571940,0.02567239,0.00000669,0.01841707,-0.0
 0127966,0.00000188,-0.00535228,0.01023676,0.00000063,-0.00921966,-0.00
 342299,-0.00000148,0.00296284,0.00015106,0.00000027,-0.00037766,0.0014
 7050,0.00000004,0.00014837,-0.00462190,0.00000060,0.00050355,-0.000736
 21,-0.00000017,0.00026394,0.00008492,-0.00006813,0.00008024,0.00000591
 ,-0.00000003,-0.00006079,0.00006221,0.00000010,-0.00707126,0.00899099,
 0.00000298,-0.11639730,-0.00673406,0.00001073,-0.34154048,-0.08050846,
 0.00000753,-0.00001703,-0.00041434,-0.00000041,-0.00007532,-0.00009823
 ,-0.00000002,-0.00006471,0.00004143,-0.00000006,-0.00006910,0.00004990
 ,0.00000003,0.00038617,0.00247723,0.00000016,-0.00011390,-0.00025616,-
 0.00000027,0.00026402,0.00008488,0.00006810,0.00010444,0.00012892,0.,-
 0.00717044,-0.03688378,-0.00000434,0.68816630,0.00188582,-0.00053008,-
 0.00000012,-0.00072973,-0.00080046,0.00000027,-0.00108905,-0.00174325,
 -0.00000012,-0.00140872,0.00247095,0.00000012,0.00660225,-0.00530340,-
 0.00000111,0.00297031,-0.00342536,-0.00000150,0.00825541,-0.00428149,0
 .00000120,-0.01942299,-0.00443986,-0.00000242,0.03145735,-0.04608036,-
 0.00001091,0.00039308,0.02997611,0.00000510,0.01480755,-0.00855834,-0.
 00000110,-0.00315026,0.00967508,0.00000083,-0.00950701,-0.00320786,-0.
 00000159,0.00252662,-0.00067486,0.00000037,-0.00030962,0.00136669,0.00
 000001,0.00031420,-0.00459951,0.00000035,0.00026605,-0.00117478,-0.000
 00014,0.00013446,0.00005858,-0.00006309,0.00000172,0.00003471,-0.00000
 001,-0.00002400,0.00001438,0.00000004,-0.00170601,0.01383192,-0.000000
 18,-0.03164414,-0.21902925,-0.00001991,-0.03245334,-0.13846376,-0.0000
 1355,0.00029225,-0.00017793,-0.00000031,-0.00008321,-0.00005751,-0.000
 00002,-0.00004684,0.00001217,-0.00000002,0.00001825,-0.00002060,0.,0.0
 0103266,0.00249279,0.00000021,-0.00004824,-0.00042404,-0.00000016,0.00
 013447,0.00005856,0.00006303,0.00003658,0.00006245,-0.00000001,-0.0166
 3104,-0.01611760,0.00000143,-0.05886829,0.60778461,-0.00000027,0.00000
 002,0.00012683,0.00000042,0.00000023,-0.00038350,-0.00000004,-0.000000
 94,-0.00057021,-0.00000034,-0.00000032,-0.00071871,0.00000017,-0.00000
 025,-0.00095618,0.00000255,0.00000066,0.00706656,0.00000060,-0.0000001
 4,-0.00051833,-0.00000116,-0.00000063,-0.00180432,0.00000187,-0.000014
 98,0.00564975,0.00000315,0.00000391,0.00339987,0.00000100,-0.00000237,
 0.00402773,0.00000005,0.00000088,0.00033160,-0.00000056,-0.00000017,-0
 .00015996,0.00000032,-0.00000009,-0.00062764,-0.00000002,0.00000018,0.
 00015895,-0.00000004,-0.00000026,0.00027296,-0.00000003,-0.00000011,-0
 .00010543,-0.00000963,-0.00000453,-0.00000025,-0.00000001,0.,-0.000020
 49,0.00000001,-0.00000004,0.00008830,0.00000277,0.00000025,0.00434001,
 0.00000325,-0.00002391,-0.05954114,0.00002025,-0.00000907,-0.05850129,
 0.00000008,0.00000002,-0.00018952,0.,0.,0.00001426,0.,0.,-0.00000239,0
 .,-0.00000001,0.00005045,0.00000012,0.00000008,-0.00015994,-0.00000005
 ,0.00000004,0.00021220,0.00000962,0.00000452,-0.00000025,0.,0.,0.00000
 428,-0.00000101,0.00000666,-0.00080418,-0.00006929,0.00008702,0.132129
 58,-0.00012533,0.00025637,-0.00000004,0.00008184,-0.00002286,-0.000000
 05,-0.00005806,-0.00108813,0.00000067,0.00122701,-0.00080853,-0.000000
 53,-0.01795516,-0.01180469,0.00000556,-0.00291439,0.00438225,0.0000008
 2,-0.00048660,0.00016967,-0.00000002,-0.00015459,-0.00020459,-0.000000
 06,0.00051678,0.00065596,-0.00000040,-0.00001735,0.00009961,0.00000003
 ,-0.00002402,-0.00001847,0.,-0.00004879,-0.00003535,-0.00000003,0.0000
 9190,-0.00013705,-0.00000008,0.00002423,-0.00002748,0.00000003,0.00000
 119,0.00002582,0.,0.00002429,0.00004833,0.,-0.00003137,0.00000625,0.,-
 0.00004172,0.00002081,-0.00001032,-0.00003809,0.00005094,0.00000002,-0
 .00007475,0.00097654,-0.00000016,-0.29191776,-0.09887022,0.00006056,0.
 00164570,0.00021686,0.00000173,0.00010487,-0.00011223,-0.00000014,-0.0
 0000950,-0.00000719,0.,-0.00000635,-0.00000637,0.,-0.00000483,0.000004
 69,0.,-0.00000847,-0.00000031,0.,0.00002050,-0.00001812,0.,0.00003464,
 0.00007106,0.,-0.00004172,0.00002080,0.00001031,-0.00001725,0.00000125
 ,0.,0.00002816,0.00120318,0.00000087,-0.00007370,0.00008938,0.00000017
 ,0.30918806,-0.00042611,-0.00004681,0.00000005,0.00012127,0.00035569,-
 0.00000005,0.00060430,0.00061363,-0.00000026,-0.00028080,0.00128533,-0
 .00000010,0.01765928,0.01149041,-0.00000470,0.00349302,-0.00234373,-0.
 00000044,0.00028682,-0.00013059,0.00000005,0.00010466,0.00019102,0.000
 00002,0.00051290,-0.00071137,-0.00000007,0.00009078,-0.00013673,-0.000
 00005,0.00002713,0.00004423,0.00000005,0.00003249,0.00001515,-0.000000
 01,-0.00003851,0.00010709,0.00000002,-0.00000011,0.00002646,-0.0000000
 1,-0.00000907,-0.00000611,0.,-0.00001128,-0.00002710,0.,0.00000577,0.0
 0000512,0.,0.00000888,-0.00001044,0.00000327,-0.00001547,-0.00000407,0
 .,-0.00060541,-0.00027946,0.00000014,-0.09627573,-0.09796517,0.0000228
 6,0.00066245,-0.00552570,-0.00000063,-0.00008585,-0.00050813,-0.000000
 09,0.00000101,-0.00000470,0.,0.00000264,-0.00000218,0.,-0.00000120,0.0
 0000304,0.,-0.00000346,0.00000041,0.,-0.00002047,0.00001616,0.,-0.0000
 2989,-0.00003490,0.,0.00000887,-0.00001044,-0.00000327,-0.00000393,0.0
 0000079,0.,-0.02969638,-0.00953239,0.00000719,-0.00127254,0.00050524,0
 .00000038,0.10511730,0.10190054,0.00000042,-0.00000003,-0.00016754,-0.
 00000030,-0.00000020,-0.00008216,0.00000024,0.00000065,0.00068549,-0.0
 0000104,0.00000013,-0.00218984,0.00000643,0.00000178,0.00240465,0.0000
 0101,-0.00000159,0.00409691,0.00000010,-0.00000014,0.00025651,0.,0.000
 00018,-0.00055615,-0.00000066,0.00000023,-0.00103493,0.00000007,-0.000
 00004,0.00015423,-0.00000006,0.00000006,0.00001092,0.00000003,-0.00000
 004,-0.00001496,0.00000008,0.00000006,-0.00031358,-0.00000004,0.000000
 02,0.00006217,0.,-0.00000004,-0.00000220,-0.00000002,0.,0.00001265,0.0
 0000002,0.,-0.00000092,0.00000932,0.00000101,-0.00000647,0.00000002,0.
 ,0.00010976,0.00000003,-0.00000020,0.00028855,0.00005999,0.00002489,-0
 .03415458,0.00000172,-0.00000030,0.00853630,-0.00000012,0.00000021,-0.
 00047899,0.,0.,-0.00000272,0.,0.,-0.00000063,0.,0.,0.00000188,0.,0.,-0
 .00000292,-0.00000002,-0.00000002,-0.00001701,0.,-0.00000002,0.0000880
 3,-0.00000927,-0.00000100,-0.00000646,0.00000001,0.,0.00000267,0.00000
 054,-0.00000139,0.00338806,0.00000041,-0.00000006,0.00051587,-0.000067
 23,-0.00002440,0.02398802,0.00019415,0.00003110,-0.00000018,-0.0000886
 9,-0.00014839,0.00000005,-0.00013530,0.00017946,-0.00000013,0.00013930
 ,0.00004544,0.00000012,0.00123059,-0.00156442,0.00000191,0.00027520,-0
 .00085194,-0.00000026,-0.00053909,-0.00021356,-0.00000005,-0.00007906,
 0.00145839,0.00000066,-0.00454633,-0.00400234,0.00000124,0.00013974,-0
 .00002290,-0.00000002,-0.00002721,-0.00003865,-0.00000003,0.00000277,-
 0.00003372,-0.00000002,0.00005105,0.00016968,-0.00000003,0.00000560,0.
 00001174,0.00000001,-0.00002329,-0.00001195,0.,-0.00004917,-0.00001586
 ,-0.00000003,-0.00000431,0.00002493,0.,0.00001142,0.00001010,-0.000005
 68,0.00002098,-0.00000692,-0.00000002,0.00000288,0.00002216,0.00000004
 ,0.00487173,-0.00383124,-0.00000063,-0.01760091,0.01735864,0.00000620,
 -0.00020339,-0.00025278,-0.00000004,-0.00003705,-0.00001647,0.,-0.0000
 0734,-0.00000849,0.,-0.00001153,0.00000658,0.,-0.00000866,0.00000012,0
 .,-0.00001806,-0.00002007,0.,0.00000685,-0.00001426,0.,0.00001143,0.00
 001010,0.00000568,-0.00000524,0.00000909,0.,-0.25012835,0.12704404,0.0
 0005675,0.00139393,0.00090400,-0.00000047,0.00106479,0.00016547,-0.000
 00171,0.26431767,0.00011593,-0.00048666,0.00000014,-0.00018008,-0.0001
 6533,0.00000002,-0.00004245,0.00020788,0.00000002,0.00131967,0.0002778
 3,-0.00000036,-0.00215841,-0.00491337,0.00000022,-0.00052995,-0.000464
 10,0.00000010,-0.00016566,-0.00020389,-0.00000002,-0.00053482,0.000707
 89,0.00000014,-0.00323639,-0.00082576,0.00000048,-0.00001777,0.0001947
 8,0.00000006,0.00006843,-0.00003632,0.,-0.00002802,0.00004025,0.000000
 01,-0.00004445,0.00009241,-0.00000003,0.00001517,-0.00000249,0.,-0.000
 00352,0.00000047,0.,-0.00002555,-0.00003138,0.,0.00001049,0.00000116,0
 .,0.00001089,-0.00000125,-0.00000080,0.00014422,-0.00006787,0.00000002
 ,-0.00003824,-0.00004026,0.,0.02712137,-0.01446176,-0.00000728,-0.0118
 5658,0.01150841,0.00000364,0.00028144,-0.00003493,-0.00000004,-0.00000
 649,-0.00000015,0.,-0.00000016,0.00000266,0.,-0.00000174,-0.00000258,0
 .,0.00000440,0.00000062,0.,-0.00001055,-0.00000317,0.,0.00000266,0.000
 01504,0.,0.00001089,-0.00000125,0.00000080,0.00001439,0.00000326,0.,0.
 12442299,-0.13961785,-0.00003452,0.00037421,0.00114893,0.00000016,-0.0
 0021912,0.00079966,0.00000024,-0.13537043,0.14659373,-0.00000006,-0.00
 000025,-0.00068684,-0.00000007,-0.00000007,0.00017545,0.00000003,-0.00
 000007,-0.00066625,0.00000041,0.00000010,0.00055325,0.00000156,-0.0000
 0016,0.00868922,-0.00000071,-0.00000021,-0.00083244,0.00000016,0.00000
 014,-0.00001272,0.00000024,-0.00000060,0.00041856,0.00000137,0.0000018
 5,0.00458857,-0.00000031,0.00000011,-0.00010374,0.00000015,-0.00000005
 ,0.00001967,-0.00000012,0.00000005,-0.00000638,0.00000001,-0.00000008,
 -0.00006670,0.00000007,-0.00000002,-0.00000627,0.,0.00000005,-0.000005
 31,0.00000003,0.00000001,-0.00001912,-0.00000002,-0.00000004,0.0000038
 0,-0.00000295,-0.00001726,0.00000874,0.00000002,-0.00000003,-0.0000768
 7,0.00000002,0.00000003,0.00017788,0.00000074,0.00000154,0.00305395,0.
 00000692,-0.00000318,0.00248751,0.00000032,0.,-0.00011132,0.,0.,0.0000
 1065,0.,0.,0.00000421,0.,0.,0.00000717,0.,0.,0.00000233,0.00000002,0.,
 -0.00000102,0.,0.00000005,0.00007822,0.00000293,0.00001727,0.00000874,
 0.,0.,-0.00000307,0.00005506,-0.00003676,-0.03447946,-0.00000101,-0.00
 000002,-0.00201264,-0.00000170,0.00000010,-0.00559893,-0.00006324,0.00
 003722,0.02412786,0.00003485,-0.00001551,-0.00000001,0.00004682,-0.000
 02034,0.00000002,-0.00013649,-0.00011000,0.,-0.00002172,0.00005010,0.,
 0.00020644,0.00001613,-0.00000007,0.00051555,-0.00042921,-0.00000005,0
 .00022125,-0.00001889,-0.00000005,-0.00022900,-0.00050017,-0.00000011,
 0.00016919,-0.00241877,-0.00000002,-0.00402954,-0.00315851,0.00000069,
 0.00001423,0.00133670,0.00000027,-0.00045420,-0.00007882,-0.00000022,-
 0.00016081,-0.00007573,0.00000001,0.00002703,0.00016286,0.00000001,-0.
 00007012,-0.00001097,0.,0.00000831,-0.00009752,0.,0.00001672,-0.000015
 22,0.,0.00000994,0.00000407,-0.00000588,-0.00000129,0.00000765,0.,0.00
 000409,-0.00000128,0.,-0.00006371,0.00030648,0.00000002,0.00977543,-0.
 00725579,-0.00000229,-0.01805127,0.02326667,0.00000657,-0.00003447,-0.
 00004961,0.00000002,-0.00000105,-0.00001310,0.,-0.00000556,0.00000911,
 0.,-0.00001849,0.00001376,0.,-0.00000084,0.00005072,0.,-0.00000510,-0.
 00001406,0.,0.00000994,0.00000407,0.00000588,-0.00000312,0.00000983,0.
 ,0.00096089,0.00031474,-0.00000035,-0.18446080,0.13568914,0.00004179,0
 .00000319,0.00002566,0.,-0.00018316,0.00053235,0.00000011,0.19508958,0
 .00000140,-0.00005910,0.,0.00017281,0.00006633,0.00000003,-0.00015954,
 -0.00057552,0.00000006,-0.00004389,0.00002372,0.00000004,-0.00006809,0
 .00009264,0.00000003,0.00160678,0.00009391,-0.00000068,0.00029021,-0.0
 0011826,0.00000008,-0.00092380,0.00014320,0.00000018,-0.00323766,-0.00
 563760,-0.00000043,-0.00255708,0.00029713,-0.00000158,0.00010413,0.000
 38722,-0.00000004,-0.00014447,0.00014907,0.00000017,-0.00022863,-0.000
 05182,-0.00000007,0.00002572,0.00005015,0.00000002,-0.00000133,0.00001
 130,-0.00000001,0.00001583,-0.00011215,0.00000002,0.00002793,-0.000002
 17,0.,0.00002329,-0.00001363,0.00000326,-0.00000239,-0.00001327,0.,-0.
 00001011,-0.00003974,0.,-0.00021131,-0.00020572,0.00000001,0.02189353,
 -0.01568509,-0.00000672,-0.00774677,0.00818612,0.00000158,0.00001676,-
 0.00000383,-0.00000005,0.00000587,0.00000309,0.,0.00000282,-0.00000208
 ,0.,0.00000103,0.00000432,0.,-0.00002015,0.00005051,0.,-0.00002843,-0.
 00003081,0.00000001,0.00002328,-0.00001362,-0.00000325,0.00001535,0.00
 000327,0.,0.00078985,0.00155700,0.00000016,0.13857507,-0.20534709,-0.0
 0004548,-0.00003318,-0.00004786,0.,-0.00098722,-0.00023546,0.00000032,
 -0.14727007,0.21599052,-0.00000005,0.00000004,-0.00001611,0.00000007,0
 .,-0.00004512,-0.00000009,-0.00000012,-0.00000190,0.00000004,-0.000000
 09,0.00003189,-0.00000019,0.00000022,-0.00006956,0.00000044,-0.0000001
 0,0.00031317,-0.00000004,0.00000008,-0.00060148,0.00000022,0.00000058,
 -0.00069681,-0.00000100,-0.00000080,0.00398953,0.00000081,-0.00000121,
 0.00922368,-0.00000010,-0.00000041,0.00042407,0.00000025,0.00000003,-0
 .00091216,0.00000014,0.00000007,0.00020640,0.,-0.00000004,-0.00008486,
 0.00000002,-0.00000002,0.00006152,-0.00000005,0.00000005,0.00007619,0.
 00000001,0.00000003,-0.00000551,-0.00000829,0.00001182,0.00000016,0.,0
 .,-0.00000273,0.,0.,0.00000398,0.00000007,-0.00000036,-0.00013512,0.00
 000238,-0.00000454,0.00259034,-0.00000086,-0.00000184,0.00346627,-0.00
 000003,-0.00000003,0.00026094,0.,0.,-0.00001065,0.,0.,-0.00001621,0.,0
 .,0.00001972,-0.00000002,-0.00000003,0.00000172,0.,0.,0.00000098,0.000
 00829,-0.00001183,0.00000016,0.,0.,-0.00001077,-0.00000024,0.00000074,
 -0.00167081,0.00004450,-0.00004436,-0.03497775,0.00000002,-0.00000001,
 0.00009268,-0.00000014,-0.00000021,0.00014722,-0.00004565,0.00005092,0
 .02430120,0.00007319,0.00002175,0.,0.00009064,-0.00004225,-0.00000002,
 -0.00021451,0.00033310,-0.00000005,0.00001320,0.00008085,-0.00000003,-
 0.00016373,0.00002983,0.00000004,0.00020510,0.00018763,-0.00000002,0.0
 0066125,0.00076750,0.00000029,-0.00378553,0.00317880,0.00000051,-0.000
 77455,0.00023556,0.,0.00950754,0.02246273,0.00000434,0.00150763,-0.000
 21364,0.00000004,-0.00005355,-0.00037286,-0.00000002,0.00034139,0.0000
 5177,0.00000004,-0.00001404,0.00001025,0.,0.00000957,0.00000353,0.,-0.
 00002807,0.00003210,-0.00000002,-0.00003746,0.00004154,0.,0.00000233,-
 0.00000054,0.00000164,0.00001694,0.00000249,0.,-0.00000496,0.00000072,
 0.,-0.00043902,-0.00018445,0.00000010,-0.00545022,-0.00038733,0.000001
 24,-0.07087642,-0.05863077,-0.00000958,-0.00034078,-0.00066244,-0.0000
 0012,-0.00001800,-0.00000025,0.,-0.00000434,-0.00000403,0.,0.00000070,
 -0.00000085,0.,-0.00002732,-0.00006492,0.,0.00000475,-0.00000849,0.,0.
 00000233,-0.00000054,-0.00000163,0.00000133,-0.00000093,0.,0.00069612,
 -0.00115552,-0.00000032,-0.00484185,-0.03068907,-0.00000525,-0.0000073
 6,-0.00015449,0.00000001,-0.00004396,0.00002090,0.00000002,0.00081726,
 0.00008244,-0.00000054,0.07317442,-0.00004473,-0.00002218,0.00000002,-
 0.00007735,0.00005557,0.00000007,0.00020630,-0.00038439,0.00000003,-0.
 00000066,-0.00005080,0.,0.00009164,0.00003204,-0.00000002,-0.00012542,
 -0.00018733,0.00000003,-0.00097641,-0.00017822,-0.00000050,0.00422615,
 -0.00152803,-0.00000048,0.00040776,0.00069555,0.00000032,-0.00700248,-
 0.01604048,-0.00000357,-0.00077276,0.00101283,0.00000028,0.00037438,-0
 .00003304,0.00000003,0.00004423,0.00006704,0.00000004,-0.00011942,-0.0
 0007077,-0.00000001,0.00003724,-0.00006028,0.,0.00002246,0.00009330,0.
 ,0.00004320,-0.00002718,0.,0.00000186,-0.00000947,0.00000671,-0.000012
 44,-0.00001824,-0.00000002,-0.00000725,-0.00000853,0.,-0.00020721,0.00
 006535,0.00000015,-0.00093876,0.00159787,-0.00000139,-0.06144718,-0.31
 868647,-0.00004976,0.00091355,-0.00000225,0.00000014,0.00001939,0.0000
 2104,0.,0.00001303,-0.00000529,0.,0.00001750,-0.00000631,0.,0.00001844
 ,-0.00000868,0.,-0.00000752,0.00001160,0.,0.00000186,-0.00000947,-0.00
 000671,0.00000981,-0.00000858,0.,0.00018895,-0.00025998,-0.00000021,0.
 00036110,-0.00503576,-0.00000172,-0.00000318,-0.00003208,0.00000002,-0
 .00003945,0.00000085,-0.00000002,-0.00024651,0.00108534,0.00000144,0.0
 6502990,0.33793545,0.00000004,0.00000003,-0.00002701,-0.00000003,-0.00
 000012,-0.00029150,0.00000012,-0.00000004,0.00023050,-0.00000005,0.000
 00002,0.00001549,0.00000009,-0.00000001,0.00015171,-0.00000018,-0.0000
 0011,-0.00057652,-0.00000052,-0.00000029,0.00061126,0.00000144,-0.0000
 0051,0.00366671,-0.00000038,0.00000057,-0.00095604,-0.00000007,-0.0000
 0569,0.00240853,-0.00000048,0.00000079,-0.00182516,0.00000017,-0.00000
 031,-0.00020483,0.00000019,0.00000018,-0.00004827,-0.00000008,-0.00000
 002,0.00001542,0.00000001,-0.00000003,0.00002187,0.00000001,0.00000014
 ,0.00006426,-0.00000003,0.,-0.00002304,0.00000010,0.00000378,-0.000000
 08,0.,0.00000002,0.00008612,0.,0.,0.00000032,-0.00000030,0.00000007,-0
 .00057118,0.00000104,-0.00000126,0.00897826,-0.00001185,-0.00005019,-0
 .03441986,0.00000017,0.,0.00028621,0.,0.,0.00001254,0.,0.,-0.00000074,
 0.,0.,0.00000042,0.,-0.00000007,-0.00001158,0.,0.,0.00000459,-0.000000
 12,-0.00000378,-0.00000009,0.,0.,0.00000237,0.00000017,-0.00000039,0.0
 0050317,0.00000191,0.00000075,0.00366494,-0.00000001,-0.00000002,-0.00
 006438,0.00000002,0.,0.00012606,-0.00000072,0.00000142,-0.00595427,0.0
 0000932,0.00005509,0.02412378\\0.00008504,0.00000913,0.00000040,0.0000
 2881,0.00003495,-0.00000229,-0.00000590,0.00002014,-0.00000096,-0.0000
 9900,0.00003649,0.00000179,0.00008525,0.00005571,-0.00000041,-0.000044
 85,-0.00001723,0.00000074,-0.00006987,-0.00001925,0.00000081,0.0000306
 9,0.00002950,-0.00000016,-0.00001994,0.00000243,0.00000106,-0.00003686
 ,-0.00008756,-0.00000015,0.00000872,0.00008079,-0.00000097,-0.00002264
 ,-0.00015679,-0.00000001,0.00007574,0.00003169,-0.00000029,-0.00003905
 ,0.00005231,0.00000089,-0.00000094,-0.00000996,-0.00000004,-0.00000606
 ,0.00012373,0.00000168,-0.00005252,-0.00005078,-0.00000091,0.00000350,
 0.00001189,-0.00000104,-0.00002826,0.00001201,0.,0.00003217,-0.0000094
 5,-0.00000033,0.00000420,-0.00012578,-0.00000019,0.00006528,-0.0000770
 3,-0.00000042,0.00009948,0.00002135,0.00000024,-0.00001028,-0.00001493
 ,0.00000019,0.00000368,-0.00002002,-0.00000078,-0.00000006,0.00001644,
 0.00000057,-0.00001650,0.00000101,0.00000001,0.00001267,-0.00003356,0.
 00000027,-0.00005322,-0.00002278,0.,0.00000275,0.00001209,0.00000098,0
 .00001437,0.00002256,-0.00000030,0.00003598,0.00012679,-0.00000259,-0.
 00009820,-0.00003929,0.00000226,0.00000903,0.00002861,0.00000042,0.000
 00302,-0.00003499,0.00000047,0.00003225,0.00000261,-0.00000055,-0.0000
 2848,-0.00001285,-0.00000037\\\@


 When cryptography is outlawed, bayl bhgynjf jvyy unir cevinpl.
 Job cpu time:       1 days 13 hours 34 minutes 22.4 seconds.
 File lengths (MBytes):  RWF=   4344 Int=      0 D2E=      0 Chk=     37 Scr=      1
 Normal termination of Gaussian 09 at Sat Feb  1 18:39:39 2020.
