 Entering Gaussian System, Link 0=/share/apps/gaussian16/g16/g16
 Initial command:
 /share/apps/gaussian16/g16/l1.exe "/home/am2145//scratch/3564/Gau-38762.inp" -scrdir="/home/am2145//scratch/3564/"
 Entering Link 1 = /share/apps/gaussian16/g16/l1.exe PID=     38763.
  
 Copyright (c) 1988,1990,1992,1993,1995,1998,2003,2009,2016,
            Gaussian, Inc.  All Rights Reserved.
  
 This is part of the Gaussian(R) 16 program.  It is based on
 the Gaussian(R) 09 system (copyright 2009, Gaussian, Inc.),
 the Gaussian(R) 03 system (copyright 2003, Gaussian, Inc.),
 the Gaussian(R) 98 system (copyright 1998, Gaussian, Inc.),
 the Gaussian(R) 94 system (copyright 1995, Gaussian, Inc.),
 the Gaussian 92(TM) system (copyright 1992, Gaussian, Inc.),
 the Gaussian 90(TM) system (copyright 1990, Gaussian, Inc.),
 the Gaussian 88(TM) system (copyright 1988, Gaussian, Inc.),
 the Gaussian 86(TM) system (copyright 1986, Carnegie Mellon
 University), and the Gaussian 82(TM) system (copyright 1983,
 Carnegie Mellon University). Gaussian is a federally registered
 trademark of Gaussian, Inc.
  
 This software contains proprietary and confidential information,
 including trade secrets, belonging to Gaussian, Inc.
  
 This software is provided under written license and may be
 used, copied, transmitted, or stored only in accord with that
 written license.
  
 The following legend is applicable only to US Government
 contracts under FAR:
  
                    RESTRICTED RIGHTS LEGEND
  
 Use, reproduction and disclosure by the US Government is
 subject to restrictions as set forth in subparagraphs (a)
 and (c) of the Commercial Computer Software - Restricted
 Rights clause in FAR 52.227-19.
  
 Gaussian, Inc.
 340 Quinnipiac St., Bldg. 40, Wallingford CT 06492
  
  
 ---------------------------------------------------------------
 Warning -- This program may not be used in any manner that
 competes with the business of Gaussian, Inc. or will provide
 assistance to any competitor of Gaussian, Inc.  The licensee
 of this program is prohibited from giving any competitor of
 Gaussian, Inc. access to this program.  By using this program,
 the user acknowledges that Gaussian, Inc. is engaged in the
 business of creating and licensing software in the field of
 computational chemistry and represents and warrants to the
 licensee that it is not a competitor of Gaussian, Inc. and that
 it will not use this program in any manner prohibited above.
 ---------------------------------------------------------------
  

 Cite this work as:
 Gaussian 16, Revision A.03,
 M. J. Frisch, G. W. Trucks, H. B. Schlegel, G. E. Scuseria, 
 M. A. Robb, J. R. Cheeseman, G. Scalmani, V. Barone, 
 G. A. Petersson, H. Nakatsuji, X. Li, M. Caricato, A. V. Marenich, 
 J. Bloino, B. G. Janesko, R. Gomperts, B. Mennucci, H. P. Hratchian, 
 J. V. Ortiz, A. F. Izmaylov, J. L. Sonnenberg, D. Williams-Young, 
 F. Ding, F. Lipparini, F. Egidi, J. Goings, B. Peng, A. Petrone, 
 T. Henderson, D. Ranasinghe, V. G. Zakrzewski, J. Gao, N. Rega, 
 G. Zheng, W. Liang, M. Hada, M. Ehara, K. Toyota, R. Fukuda, 
 J. Hasegawa, M. Ishida, T. Nakajima, Y. Honda, O. Kitao, H. Nakai, 
 T. Vreven, K. Throssell, J. A. Montgomery, Jr., J. E. Peralta, 
 F. Ogliaro, M. J. Bearpark, J. J. Heyd, E. N. Brothers, K. N. Kudin, 
 V. N. Staroverov, T. A. Keith, R. Kobayashi, J. Normand, 
 K. Raghavachari, A. P. Rendell, J. C. Burant, S. S. Iyengar, 
 J. Tomasi, M. Cossi, J. M. Millam, M. Klene, C. Adamo, R. Cammi, 
 J. W. Ochterski, R. L. Martin, K. Morokuma, O. Farkas, 
 J. B. Foresman, and D. J. Fox, Gaussian, Inc., Wallingford CT, 2016.
 
 ******************************************
 Gaussian 16:  ES64L-G16RevA.03 25-Dec-2016
                26-Mar-2019 
 ******************************************
 %nprocshared=20
 Will use up to   20 processors via shared memory.
 %mem=100GB
 %chk=7-memb-4d.chk
 -------------------------------------------
 # opt freq b3lyp/6-311+g(d,p) int=grid=fine
 -------------------------------------------
 1/18=20,19=15,26=3,38=1/1,3;
 2/9=110,12=2,17=6,18=5,40=1/2;
 3/5=4,6=6,7=111,11=2,25=1,30=1,71=1,74=-5,75=-4/1,2,3;
 4//1;
 5/5=2,38=5/2;
 6/7=2,8=2,9=2,10=2,28=1/1;
 7//1,2,3,16;
 1/18=20,19=15,26=3/3(2);
 2/9=110/2;
 99//99;
 2/9=110/2;
 3/5=4,6=6,7=111,11=2,25=1,30=1,71=1,74=-5,75=-4/1,2,3;
 4/5=5,16=3,69=1/1;
 5/5=2,38=5/2;
 7//1,2,3,16;
 1/18=20,19=15,26=3/3(-5);
 2/9=110/2;
 6/7=2,8=2,9=2,10=2,19=2,28=1/1;
 99/9=1/99;
 ---------
 7-memb-4d
 ---------
 Symbolic Z-matrix:
 Charge =  0 Multiplicity = 2
 C                     1.43407   3.28833   0.05821 
 C                     0.22498   2.52979  -0.11276 
 C                     0.39294   1.15985   0.03255 
 C                     2.7261    2.67843   0.13597 
 C                     2.86519   1.26905   0.12658 
 C                     1.65832   0.60195   0.08711 
 C                    -0.53778   0.05727   0.01891 
 C                     0.23393  -1.091     0.01249 
 C                     1.54384  -0.74725   0.06982 
 C                    -0.209    -2.3925   -0.05483 
 C                    -1.61907  -2.49622  -0.13977 
 C                    -2.46373  -1.33405  -0.1241 
 C                    -1.9158   -0.01284  -0.00976 
 C                    -3.85354  -1.46398  -0.21145 
 C                    -4.68075  -0.34159  -0.16905 
 C                    -2.7481    1.13273   0.08242 
 C                    -4.13571   0.93531  -0.01082 
 H                     0.0166    2.64519  -1.22228 
 H                     1.38013   4.37657   0.09543 
 H                     3.60889   3.30853   0.21042 
 C                     4.01194   0.41844   0.16254 
 C                     2.60218  -1.63461   0.08291 
 C                     0.82701  -3.37657  -0.04091 
 H                    -2.06575  -3.48567  -0.21383 
 H                    -4.30952  -2.44666  -0.3114 
 H                    -4.81866   1.78033   0.0531 
 H                    -5.75924  -0.46282  -0.23741 
 C                    -2.29159   2.51668   0.40293 
 C                    -1.07924   3.10746   0.36526 
 H                    -1.01225   4.1406    0.70528 
 H                    -3.09741   3.15055   0.7767 
 C                     3.88237  -1.00765   0.13826 
 C                     2.20758  -3.00381   0.03082 
 H                     5.00489   0.86028   0.20174 
 H                     4.77949  -1.62208   0.15682 
 H                     2.96781  -3.78141   0.03637 
 H                     0.5644   -4.43084  -0.08951 
 

 GradGradGradGradGradGradGradGradGradGradGradGradGradGradGradGradGradGrad
 Berny optimization.
 Initialization pass.
                           ----------------------------
                           !    Initial Parameters    !
                           ! (Angstroms and Degrees)  !
 --------------------------                            --------------------------
 ! Name  Definition              Value          Derivative Info.                !
 --------------------------------------------------------------------------------
 ! R1    R(1,2)                  1.4375         estimate D2E/DX2                !
 ! R2    R(1,4)                  1.4309         estimate D2E/DX2                !
 ! R3    R(1,19)                 1.0902         estimate D2E/DX2                !
 ! R4    R(2,3)                  1.3878         estimate D2E/DX2                !
 ! R5    R(2,18)                 1.1348         estimate D2E/DX2                !
 ! R6    R(2,29)                 1.5044         estimate D2E/DX2                !
 ! R7    R(3,6)                  1.384          estimate D2E/DX2                !
 ! R8    R(3,7)                  1.443          estimate D2E/DX2                !
 ! R9    R(4,5)                  1.4163         estimate D2E/DX2                !
 ! R10   R(4,20)                 1.0871         estimate D2E/DX2                !
 ! R11   R(5,6)                  1.3795         estimate D2E/DX2                !
 ! R12   R(5,21)                 1.4282         estimate D2E/DX2                !
 ! R13   R(6,9)                  1.3542         estimate D2E/DX2                !
 ! R14   R(7,8)                  1.3835         estimate D2E/DX2                !
 ! R15   R(7,13)                 1.3801         estimate D2E/DX2                !
 ! R16   R(8,9)                  1.3555         estimate D2E/DX2                !
 ! R17   R(8,10)                 1.3765         estimate D2E/DX2                !
 ! R18   R(9,22)                 1.3812         estimate D2E/DX2                !
 ! R19   R(10,11)                1.4164         estimate D2E/DX2                !
 ! R20   R(10,23)                1.429          estimate D2E/DX2                !
 ! R21   R(11,12)                1.4368         estimate D2E/DX2                !
 ! R22   R(11,24)                1.0881         estimate D2E/DX2                !
 ! R23   R(12,13)                1.4349         estimate D2E/DX2                !
 ! R24   R(12,14)                1.3986         estimate D2E/DX2                !
 ! R25   R(13,16)                1.419          estimate D2E/DX2                !
 ! R26   R(14,15)                1.3949         estimate D2E/DX2                !
 ! R27   R(14,25)                1.0879         estimate D2E/DX2                !
 ! R28   R(15,17)                1.3973         estimate D2E/DX2                !
 ! R29   R(15,27)                1.0874         estimate D2E/DX2                !
 ! R30   R(16,17)                1.4047         estimate D2E/DX2                !
 ! R31   R(16,28)                1.4921         estimate D2E/DX2                !
 ! R32   R(17,26)                1.0884         estimate D2E/DX2                !
 ! R33   R(21,32)                1.4322         estimate D2E/DX2                !
 ! R34   R(21,34)                1.0875         estimate D2E/DX2                !
 ! R35   R(22,32)                1.4265         estimate D2E/DX2                !
 ! R36   R(22,33)                1.4259         estimate D2E/DX2                !
 ! R37   R(23,33)                1.4318         estimate D2E/DX2                !
 ! R38   R(23,37)                1.0876         estimate D2E/DX2                !
 ! R39   R(28,29)                1.3492         estimate D2E/DX2                !
 ! R40   R(28,31)                1.0913         estimate D2E/DX2                !
 ! R41   R(29,30)                1.0897         estimate D2E/DX2                !
 ! R42   R(32,35)                1.0875         estimate D2E/DX2                !
 ! R43   R(33,36)                1.0875         estimate D2E/DX2                !
 ! A1    A(2,1,4)              122.7534         estimate D2E/DX2                !
 ! A2    A(2,1,19)             119.2853         estimate D2E/DX2                !
 ! A3    A(4,1,19)             117.9238         estimate D2E/DX2                !
 ! A4    A(1,2,3)              113.9928         estimate D2E/DX2                !
 ! A5    A(1,2,18)             102.537          estimate D2E/DX2                !
 ! A6    A(1,2,29)             119.2593         estimate D2E/DX2                !
 ! A7    A(3,2,18)             103.0014         estimate D2E/DX2                !
 ! A8    A(3,2,29)             116.788          estimate D2E/DX2                !
 ! A9    A(18,2,29)             96.4553         estimate D2E/DX2                !
 ! A10   A(2,3,6)              120.8436         estimate D2E/DX2                !
 ! A11   A(2,3,7)              132.4709         estimate D2E/DX2                !
 ! A12   A(6,3,7)              106.3847         estimate D2E/DX2                !
 ! A13   A(1,4,5)              120.8303         estimate D2E/DX2                !
 ! A14   A(1,4,20)             119.3347         estimate D2E/DX2                !
 ! A15   A(5,4,20)             119.8335         estimate D2E/DX2                !
 ! A16   A(4,5,6)              113.2967         estimate D2E/DX2                !
 ! A17   A(4,5,21)             132.1721         estimate D2E/DX2                !
 ! A18   A(6,5,21)             114.5282         estimate D2E/DX2                !
 ! A19   A(3,6,5)              127.3053         estimate D2E/DX2                !
 ! A20   A(3,6,9)              108.8951         estimate D2E/DX2                !
 ! A21   A(5,6,9)              123.788          estimate D2E/DX2                !
 ! A22   A(3,7,8)              105.9294         estimate D2E/DX2                !
 ! A23   A(3,7,13)             133.0827         estimate D2E/DX2                !
 ! A24   A(8,7,13)             120.9768         estimate D2E/DX2                !
 ! A25   A(7,8,9)              109.1695         estimate D2E/DX2                !
 ! A26   A(7,8,10)             127.2654         estimate D2E/DX2                !
 ! A27   A(9,8,10)             123.5616         estimate D2E/DX2                !
 ! A28   A(6,9,8)              109.5671         estimate D2E/DX2                !
 ! A29   A(6,9,22)             125.1145         estimate D2E/DX2                !
 ! A30   A(8,9,22)             125.3079         estimate D2E/DX2                !
 ! A31   A(8,10,11)            113.1113         estimate D2E/DX2                !
 ! A32   A(8,10,23)            114.6697         estimate D2E/DX2                !
 ! A33   A(11,10,23)           132.215          estimate D2E/DX2                !
 ! A34   A(10,11,12)           121.6925         estimate D2E/DX2                !
 ! A35   A(10,11,24)           118.6415         estimate D2E/DX2                !
 ! A36   A(12,11,24)           119.6653         estimate D2E/DX2                !
 ! A37   A(11,12,13)           121.4106         estimate D2E/DX2                !
 ! A38   A(11,12,14)           120.5549         estimate D2E/DX2                !
 ! A39   A(13,12,14)           118.033          estimate D2E/DX2                !
 ! A40   A(7,13,12)            115.4497         estimate D2E/DX2                !
 ! A41   A(7,13,16)            122.9083         estimate D2E/DX2                !
 ! A42   A(12,13,16)           121.638          estimate D2E/DX2                !
 ! A43   A(12,14,15)           120.8396         estimate D2E/DX2                !
 ! A44   A(12,14,25)           120.4076         estimate D2E/DX2                !
 ! A45   A(15,14,25)           118.7527         estimate D2E/DX2                !
 ! A46   A(14,15,17)           120.4908         estimate D2E/DX2                !
 ! A47   A(14,15,27)           119.7702         estimate D2E/DX2                !
 ! A48   A(17,15,27)           119.725          estimate D2E/DX2                !
 ! A49   A(13,16,17)           117.4929         estimate D2E/DX2                !
 ! A50   A(13,16,28)           125.6819         estimate D2E/DX2                !
 ! A51   A(17,16,28)           116.5411         estimate D2E/DX2                !
 ! A52   A(15,17,16)           121.4168         estimate D2E/DX2                !
 ! A53   A(15,17,26)           118.1235         estimate D2E/DX2                !
 ! A54   A(16,17,26)           120.4543         estimate D2E/DX2                !
 ! A55   A(5,21,32)            121.3303         estimate D2E/DX2                !
 ! A56   A(5,21,34)            119.474          estimate D2E/DX2                !
 ! A57   A(32,21,34)           119.1941         estimate D2E/DX2                !
 ! A58   A(9,22,32)            113.9319         estimate D2E/DX2                !
 ! A59   A(9,22,33)            113.8614         estimate D2E/DX2                !
 ! A60   A(32,22,33)           132.2056         estimate D2E/DX2                !
 ! A61   A(10,23,33)           121.3503         estimate D2E/DX2                !
 ! A62   A(10,23,37)           119.4773         estimate D2E/DX2                !
 ! A63   A(33,23,37)           119.172          estimate D2E/DX2                !
 ! A64   A(16,28,29)           132.4592         estimate D2E/DX2                !
 ! A65   A(16,28,31)           112.7308         estimate D2E/DX2                !
 ! A66   A(29,28,31)           114.7566         estimate D2E/DX2                !
 ! A67   A(2,29,28)            128.2985         estimate D2E/DX2                !
 ! A68   A(2,29,30)            114.1988         estimate D2E/DX2                !
 ! A69   A(28,29,30)           117.4957         estimate D2E/DX2                !
 ! A70   A(21,32,22)           121.2972         estimate D2E/DX2                !
 ! A71   A(21,32,35)           119.1872         estimate D2E/DX2                !
 ! A72   A(22,32,35)           119.5147         estimate D2E/DX2                !
 ! A73   A(22,33,23)           121.2426         estimate D2E/DX2                !
 ! A74   A(22,33,36)           119.5359         estimate D2E/DX2                !
 ! A75   A(23,33,36)           119.2191         estimate D2E/DX2                !
 ! D1    D(4,1,2,3)             10.4006         estimate D2E/DX2                !
 ! D2    D(4,1,2,18)          -100.1625         estimate D2E/DX2                !
 ! D3    D(4,1,2,29)           154.9691         estimate D2E/DX2                !
 ! D4    D(19,1,2,3)          -171.8761         estimate D2E/DX2                !
 ! D5    D(19,1,2,18)           77.5608         estimate D2E/DX2                !
 ! D6    D(19,1,2,29)          -27.3076         estimate D2E/DX2                !
 ! D7    D(2,1,4,5)             -3.8154         estimate D2E/DX2                !
 ! D8    D(2,1,4,20)           176.636          estimate D2E/DX2                !
 ! D9    D(19,1,4,5)           178.432          estimate D2E/DX2                !
 ! D10   D(19,1,4,20)           -1.1166         estimate D2E/DX2                !
 ! D11   D(1,2,3,6)            -11.1961         estimate D2E/DX2                !
 ! D12   D(1,2,3,7)            176.0335         estimate D2E/DX2                !
 ! D13   D(18,2,3,6)            99.0844         estimate D2E/DX2                !
 ! D14   D(18,2,3,7)           -73.6861         estimate D2E/DX2                !
 ! D15   D(29,2,3,6)          -156.6847         estimate D2E/DX2                !
 ! D16   D(29,2,3,7)            30.5449         estimate D2E/DX2                !
 ! D17   D(1,2,29,28)         -173.7665         estimate D2E/DX2                !
 ! D18   D(1,2,29,30)            7.228          estimate D2E/DX2                !
 ! D19   D(3,2,29,28)          -30.159          estimate D2E/DX2                !
 ! D20   D(3,2,29,30)          150.8355         estimate D2E/DX2                !
 ! D21   D(18,2,29,28)          77.9457         estimate D2E/DX2                !
 ! D22   D(18,2,29,30)        -101.0597         estimate D2E/DX2                !
 ! D23   D(2,3,6,5)              5.9922         estimate D2E/DX2                !
 ! D24   D(2,3,6,9)           -172.8003         estimate D2E/DX2                !
 ! D25   D(7,3,6,5)           -179.5602         estimate D2E/DX2                !
 ! D26   D(7,3,6,9)              1.6474         estimate D2E/DX2                !
 ! D27   D(2,3,7,8)            171.216          estimate D2E/DX2                !
 ! D28   D(2,3,7,13)            -7.5389         estimate D2E/DX2                !
 ! D29   D(6,3,7,8)             -2.3177         estimate D2E/DX2                !
 ! D30   D(6,3,7,13)           178.9275         estimate D2E/DX2                !
 ! D31   D(1,4,5,6)             -2.2344         estimate D2E/DX2                !
 ! D32   D(1,4,5,21)           178.4354         estimate D2E/DX2                !
 ! D33   D(20,4,5,6)           177.312          estimate D2E/DX2                !
 ! D34   D(20,4,5,21)           -2.0182         estimate D2E/DX2                !
 ! D35   D(4,5,6,3)              1.2991         estimate D2E/DX2                !
 ! D36   D(4,5,6,9)            179.9244         estimate D2E/DX2                !
 ! D37   D(21,5,6,3)          -179.2465         estimate D2E/DX2                !
 ! D38   D(21,5,6,9)            -0.6212         estimate D2E/DX2                !
 ! D39   D(4,5,21,32)         -179.8039         estimate D2E/DX2                !
 ! D40   D(4,5,21,34)           -0.2626         estimate D2E/DX2                !
 ! D41   D(6,5,21,32)            0.8723         estimate D2E/DX2                !
 ! D42   D(6,5,21,34)         -179.5864         estimate D2E/DX2                !
 ! D43   D(3,6,9,8)             -0.3263         estimate D2E/DX2                !
 ! D44   D(3,6,9,22)           178.5395         estimate D2E/DX2                !
 ! D45   D(5,6,9,8)           -179.1706         estimate D2E/DX2                !
 ! D46   D(5,6,9,22)            -0.3048         estimate D2E/DX2                !
 ! D47   D(3,7,8,9)              2.1716         estimate D2E/DX2                !
 ! D48   D(3,7,8,10)          -177.1666         estimate D2E/DX2                !
 ! D49   D(13,7,8,9)          -178.8891         estimate D2E/DX2                !
 ! D50   D(13,7,8,10)            1.7727         estimate D2E/DX2                !
 ! D51   D(3,7,13,12)          175.1329         estimate D2E/DX2                !
 ! D52   D(3,7,13,16)           -5.5836         estimate D2E/DX2                !
 ! D53   D(8,7,13,12)           -3.4706         estimate D2E/DX2                !
 ! D54   D(8,7,13,16)          175.8129         estimate D2E/DX2                !
 ! D55   D(7,8,9,6)             -1.21           estimate D2E/DX2                !
 ! D56   D(7,8,9,22)           179.9269         estimate D2E/DX2                !
 ! D57   D(10,8,9,6)           178.158          estimate D2E/DX2                !
 ! D58   D(10,8,9,22)           -0.7051         estimate D2E/DX2                !
 ! D59   D(7,8,10,11)            0.7432         estimate D2E/DX2                !
 ! D60   D(7,8,10,23)         -179.8965         estimate D2E/DX2                !
 ! D61   D(9,8,10,11)         -178.5067         estimate D2E/DX2                !
 ! D62   D(9,8,10,23)            0.8536         estimate D2E/DX2                !
 ! D63   D(6,9,22,32)            0.9155         estimate D2E/DX2                !
 ! D64   D(6,9,22,33)         -178.7464         estimate D2E/DX2                !
 ! D65   D(8,9,22,32)          179.6059         estimate D2E/DX2                !
 ! D66   D(8,9,22,33)           -0.0561         estimate D2E/DX2                !
 ! D67   D(8,10,11,12)          -1.2787         estimate D2E/DX2                !
 ! D68   D(8,10,11,24)         179.0112         estimate D2E/DX2                !
 ! D69   D(23,10,11,12)        179.5063         estimate D2E/DX2                !
 ! D70   D(23,10,11,24)         -0.2039         estimate D2E/DX2                !
 ! D71   D(8,10,23,33)          -0.3195         estimate D2E/DX2                !
 ! D72   D(8,10,23,37)         179.9164         estimate D2E/DX2                !
 ! D73   D(11,10,23,33)        178.886          estimate D2E/DX2                !
 ! D74   D(11,10,23,37)         -0.8781         estimate D2E/DX2                !
 ! D75   D(10,11,12,13)         -0.546          estimate D2E/DX2                !
 ! D76   D(10,11,12,14)        179.8992         estimate D2E/DX2                !
 ! D77   D(24,11,12,13)        179.1612         estimate D2E/DX2                !
 ! D78   D(24,11,12,14)         -0.3935         estimate D2E/DX2                !
 ! D79   D(11,12,13,7)           2.9203         estimate D2E/DX2                !
 ! D80   D(11,12,13,16)       -176.3732         estimate D2E/DX2                !
 ! D81   D(14,12,13,7)        -177.5141         estimate D2E/DX2                !
 ! D82   D(14,12,13,16)          3.1924         estimate D2E/DX2                !
 ! D83   D(11,12,14,15)        178.6681         estimate D2E/DX2                !
 ! D84   D(11,12,14,25)         -1.1697         estimate D2E/DX2                !
 ! D85   D(13,12,14,15)         -0.9014         estimate D2E/DX2                !
 ! D86   D(13,12,14,25)        179.2609         estimate D2E/DX2                !
 ! D87   D(7,13,16,17)         177.5875         estimate D2E/DX2                !
 ! D88   D(7,13,16,28)          -8.7694         estimate D2E/DX2                !
 ! D89   D(12,13,16,17)         -3.1725         estimate D2E/DX2                !
 ! D90   D(12,13,16,28)        170.4707         estimate D2E/DX2                !
 ! D91   D(12,14,15,17)         -1.3036         estimate D2E/DX2                !
 ! D92   D(12,14,15,27)       -179.9378         estimate D2E/DX2                !
 ! D93   D(25,14,15,17)        178.5368         estimate D2E/DX2                !
 ! D94   D(25,14,15,27)         -0.0974         estimate D2E/DX2                !
 ! D95   D(14,15,17,16)          1.3144         estimate D2E/DX2                !
 ! D96   D(14,15,17,26)       -177.8388         estimate D2E/DX2                !
 ! D97   D(27,15,17,16)        179.9492         estimate D2E/DX2                !
 ! D98   D(27,15,17,26)          0.7961         estimate D2E/DX2                !
 ! D99   D(13,16,17,15)          0.9021         estimate D2E/DX2                !
 ! D100  D(13,16,17,26)       -179.9643         estimate D2E/DX2                !
 ! D101  D(28,16,17,15)       -173.3282         estimate D2E/DX2                !
 ! D102  D(28,16,17,26)          5.8053         estimate D2E/DX2                !
 ! D103  D(13,16,28,29)         18.2476         estimate D2E/DX2                !
 ! D104  D(13,16,28,31)       -158.8948         estimate D2E/DX2                !
 ! D105  D(17,16,28,29)       -168.0554         estimate D2E/DX2                !
 ! D106  D(17,16,28,31)         14.8021         estimate D2E/DX2                !
 ! D107  D(5,21,32,22)          -0.2692         estimate D2E/DX2                !
 ! D108  D(5,21,32,35)         179.382          estimate D2E/DX2                !
 ! D109  D(34,21,32,22)       -179.8117         estimate D2E/DX2                !
 ! D110  D(34,21,32,35)         -0.1605         estimate D2E/DX2                !
 ! D111  D(9,22,32,21)          -0.6077         estimate D2E/DX2                !
 ! D112  D(9,22,32,35)         179.7421         estimate D2E/DX2                !
 ! D113  D(33,22,32,21)        178.9749         estimate D2E/DX2                !
 ! D114  D(33,22,32,35)         -0.6752         estimate D2E/DX2                !
 ! D115  D(9,22,33,23)           0.5685         estimate D2E/DX2                !
 ! D116  D(9,22,33,36)        -179.9976         estimate D2E/DX2                !
 ! D117  D(32,22,33,23)       -179.0143         estimate D2E/DX2                !
 ! D118  D(32,22,33,36)          0.4196         estimate D2E/DX2                !
 ! D119  D(10,23,33,22)         -0.3888         estimate D2E/DX2                !
 ! D120  D(10,23,33,36)       -179.8244         estimate D2E/DX2                !
 ! D121  D(37,23,33,22)        179.3761         estimate D2E/DX2                !
 ! D122  D(37,23,33,36)         -0.0596         estimate D2E/DX2                !
 ! D123  D(16,28,29,2)           4.0476         estimate D2E/DX2                !
 ! D124  D(16,28,29,30)       -176.9751         estimate D2E/DX2                !
 ! D125  D(31,28,29,2)        -178.8548         estimate D2E/DX2                !
 ! D126  D(31,28,29,30)          0.1225         estimate D2E/DX2                !
 --------------------------------------------------------------------------------
 Trust Radius=3.00D-01 FncErr=1.00D-07 GrdErr=1.00D-06 EigMax=2.50D+02 EigMin=1.00D-04
 Number of steps in this run=    222 maximum allowed number of steps=    222.
 GradGradGradGradGradGradGradGradGradGradGradGradGradGradGradGradGradGrad

                          Input orientation:                          
 ---------------------------------------------------------------------
 Center     Atomic      Atomic             Coordinates (Angstroms)
 Number     Number       Type             X           Y           Z
 ---------------------------------------------------------------------
      1          6           0        1.434070    3.288330    0.058210
      2          6           0        0.224980    2.529790   -0.112760
      3          6           0        0.392940    1.159850    0.032550
      4          6           0        2.726100    2.678430    0.135970
      5          6           0        2.865190    1.269050    0.126580
      6          6           0        1.658320    0.601950    0.087110
      7          6           0       -0.537780    0.057270    0.018910
      8          6           0        0.233930   -1.091000    0.012490
      9          6           0        1.543840   -0.747250    0.069820
     10          6           0       -0.209000   -2.392500   -0.054830
     11          6           0       -1.619070   -2.496220   -0.139770
     12          6           0       -2.463730   -1.334050   -0.124100
     13          6           0       -1.915800   -0.012840   -0.009760
     14          6           0       -3.853540   -1.463980   -0.211450
     15          6           0       -4.680750   -0.341590   -0.169050
     16          6           0       -2.748100    1.132730    0.082420
     17          6           0       -4.135710    0.935310   -0.010820
     18          1           0        0.016600    2.645190   -1.222280
     19          1           0        1.380130    4.376570    0.095430
     20          1           0        3.608890    3.308530    0.210420
     21          6           0        4.011940    0.418440    0.162540
     22          6           0        2.602180   -1.634610    0.082910
     23          6           0        0.827010   -3.376570   -0.040910
     24          1           0       -2.065750   -3.485670   -0.213830
     25          1           0       -4.309520   -2.446660   -0.311400
     26          1           0       -4.818660    1.780330    0.053100
     27          1           0       -5.759240   -0.462820   -0.237410
     28          6           0       -2.291590    2.516680    0.402930
     29          6           0       -1.079240    3.107460    0.365260
     30          1           0       -1.012250    4.140600    0.705280
     31          1           0       -3.097410    3.150550    0.776700
     32          6           0        3.882370   -1.007650    0.138260
     33          6           0        2.207580   -3.003810    0.030820
     34          1           0        5.004890    0.860280    0.201740
     35          1           0        4.779490   -1.622080    0.156820
     36          1           0        2.967810   -3.781410    0.036370
     37          1           0        0.564400   -4.430840   -0.089510
 ---------------------------------------------------------------------
                    Distance matrix (angstroms):
                    1          2          3          4          5
     1  C    0.000000
     2  C    1.437537   0.000000
     3  C    2.369607   1.387826   0.000000
     4  C    1.430862   2.517849   2.785752   0.000000
     5  C    2.475938   2.935551   2.476446   1.416258   0.000000
     6  C    2.695878   2.410597   1.383985   2.335447   1.379535
     7  C    3.785431   2.590848   1.442951   4.187732   3.613891
     8  C    4.541030   3.622967   2.256549   4.520482   3.536436
     9  C    4.037089   3.537191   2.227777   3.624555   2.411359
    10  C    5.914752   4.941724   3.604047   5.862214   4.784402
    11  C    6.543843   5.353693   4.176688   6.762658   5.861466
    12  C    6.049172   4.707287   3.795345   6.565209   5.936022
    13  C    4.703613   3.325435   2.589840   5.367626   4.951737
    14  C    7.114491   5.709139   4.997661   7.782797   7.261202
    15  C    7.114702   5.684556   5.295025   8.004685   7.721578
    16  C    4.705076   3.290756   3.141553   5.688490   5.615119
    17  C    6.046811   4.644177   4.534421   7.081275   7.010197
    18  H    2.015566   1.134801   1.980521   3.031062   3.439135
    19  H    1.090212   2.188221   3.365380   2.167247   3.444278
    20  H    2.180233   3.487367   3.871795   1.087146   2.172463
    21  C    3.859089   4.344497   3.696451   2.600316   1.428239
    22  C    5.059687   4.799124   3.562623   4.315146   2.915874
    23  C    6.693223   5.937398   4.557732   6.348295   5.075827
    24  H    7.629536   6.437656   5.261817   7.815390   6.858383
    25  H    8.124995   6.735444   5.936190   8.715884   8.091649
    26  H    6.432008   5.101716   5.248447   7.598477   7.701192
    27  H    8.118019   6.691946   6.368301   9.055819   8.804127
    28  C    3.820316   2.568897   3.030655   5.027389   5.312752
    29  C    2.538449   1.504392   2.463979   3.836307   4.358354
    30  H    2.670121   2.189666   3.363331   4.054296   4.859551
    31  H    4.590155   3.494962   4.086464   5.877644   6.286119
    32  C    4.945303   5.094408   4.109179   3.863179   2.493623
    33  C    6.339566   5.879800   4.541914   5.706818   4.324229
    34  H    4.320507   5.072841   4.624765   2.915970   2.179692
    35  H    5.942532   6.168813   5.195806   4.765630   3.467577
    36  H    7.234228   6.883066   5.571896   6.465128   5.052308
    37  H    7.769410   6.968939   5.594650   7.434077   6.150535
                    6          7          8          9         10
     6  C    0.000000
     7  C    2.263666   0.000000
     8  C    2.213715   1.383511   0.000000
     9  C    1.354159   2.232260   1.355476   0.000000
    10  C    3.531821   2.472834   1.376452   2.407246   0.000000
    11  C    4.515686   2.777531   2.330544   3.620335   1.416429
    12  C    4.558947   2.380232   2.712029   4.054942   2.491771
    13  C    3.627904   1.380100   2.405050   3.537626   2.928819
    14  C    5.893879   3.655343   4.110556   5.452020   3.764220
    15  C    6.414023   4.166368   4.974802   6.242367   4.920958
    16  C    4.438275   2.458895   3.720533   4.685641   4.346621
    17  C    5.804438   3.703639   4.816662   5.924086   5.147359
    18  H    2.929945   2.923221   3.940940   3.938354   5.176114
    19  H    3.784867   4.726583   5.587036   5.126499   6.954727
    20  H    3.338488   5.272783   5.548459   4.553411   6.866468
    21  C    2.361968   4.566292   4.071153   2.731107   5.075920
    22  C    2.427569   3.567338   2.430860   1.381182   2.914807
    23  C    4.066459   3.695604   2.361869   2.727532   1.428952
    24  H    5.537861   3.865396   3.327791   4.539663   2.160514
    25  H    6.713267   4.539250   4.752437   6.106975   4.108896
    26  H    6.583389   4.614763   5.811613   6.846192   6.218772
    27  H    7.500616   5.253555   6.031181   7.315071   5.878959
    28  C    4.400877   3.044999   4.421091   5.047249   5.352268
    29  C    3.721449   3.117178   4.413154   4.671897   5.584206
    30  H    4.476173   4.167710   5.422413   5.552340   6.626038
    31  H    5.439473   4.085870   5.447255   6.101944   6.305534
    32  C    2.745875   4.548189   3.651559   2.353978   4.323702
    33  C    3.647788   4.111855   2.748540   2.352474   2.494172
    34  H    3.358483   5.603521   5.158039   3.818432   6.150695
    35  H    3.833128   5.577867   4.578755   3.352958   5.052066
    36  H    4.575061   5.198551   3.835750   3.351856   3.468358
    37  H    5.153332   4.622736   3.357699   3.814908   2.180408
                   11         12         13         14         15
    11  C    0.000000
    12  C    1.436779   0.000000
    13  C    2.504422   1.434886   0.000000
    14  C    2.462420   1.398601   2.429264   0.000000
    15  C    3.743951   2.429439   2.788978   1.394931   0.000000
    16  C    3.807014   2.491690   1.418997   2.837474   2.443766
    17  C    4.257406   2.821054   2.413916   2.424142   1.397347
    18  H    5.502848   4.815848   3.502784   5.734548   5.665267
    19  H    7.502384   6.887281   5.490095   7.848408   7.685392
    20  H    7.819803   7.651285   6.449975   8.868071   9.065622
    21  C    6.347827   6.714736   5.945905   8.096243   8.732151
    22  C    4.314036   5.079039   4.801132   6.464680   7.401112
    23  C    2.601557   3.873987   4.340352   5.059114   6.289908
    24  H    1.088126   2.189956   3.482051   2.698783   4.089678
    25  H    2.696374   2.163313   3.427005   1.087919   2.142287
    26  H    5.344479   3.908511   3.412625   3.395142   2.137970
    27  H    4.613595   3.410611   3.876382   2.152832   1.087433
    28  C    5.086843   3.890439   2.590367   4.320047   3.768946
    29  C    5.652230   4.677959   3.252191   5.378420   5.015208
    30  H    6.717866   5.724199   4.310307   6.350168   5.857676
    31  H    5.908588   4.617860   3.467241   4.779337   3.949234
    32  C    5.706048   6.359902   5.884754   7.757244   8.594481
    33  C    3.863936   4.963188   5.094096   6.258350   7.387588
    34  H    7.433678   7.791119   6.978755   9.167589   9.766965
    35  H    6.464801   7.254386   6.887983   8.642328   9.552067
    36  H    4.766782   5.959610   6.168784   7.208517   8.388983
    37  H    2.917674   4.331383   5.067196   5.323093   6.651307
                   16         17         18         19         20
    16  C    0.000000
    17  C    1.404681   0.000000
    18  H    3.410769   4.651129   0.000000
    19  H    5.250233   6.502157   2.567733   0.000000
    20  H    6.720254   8.103083   3.923926   2.474127   0.000000
    21  C    6.798145   8.165869   4.779004   4.753706   2.918452
    22  C    6.023593   7.211965   5.167730   6.134154   5.046222
    23  C    5.755902   6.574329   6.189830   7.774041   7.245177
    24  H    4.677925   4.885797   6.552908   8.589793   8.862431
    25  H    3.924941   3.399747   6.743289   8.893486   9.802843
    26  H    2.169669   1.088377   5.074871   6.720659   8.566431
    27  H    3.422723   2.154521   6.632497   8.631401  10.108684
    28  C    1.492128   2.464285   2.825874   4.127381   5.956488
    29  C    2.600894   3.768512   1.983644   2.780638   4.694994
    30  H    3.528231   4.532404   2.647692   2.480137   4.721458
    31  H    2.162323   2.570125   3.734751   4.692080   6.732020
    32  C    6.967602   8.251480   5.489853   5.937412   4.325437
    33  C    6.455416   7.466976   6.187233   7.426901   6.468505
    34  H    7.758693   9.143379   5.486053   5.051186   2.818301
    35  H    8.016179   9.276267   6.541913   6.895159   5.067948
    36  H    7.538071   8.526997   7.182968   8.311249   7.120992
    37  H    6.477309   7.133918   7.187034   8.847038   8.322063
                   21         22         23         24         25
    21  C    0.000000
    22  C    2.491742   0.000000
    23  C    4.958555   2.490178   0.000000
    24  H    7.233398   5.030313   2.899977   0.000000
    25  H    8.813632   6.970402   5.227030   2.474584   0.000000
    26  H    8.935671   8.168939   7.646963   5.948153   4.273117
    27  H    9.818989   8.449204   7.204668   4.772845   2.458207
    28  C    6.647924   6.425310   6.682294   6.038179   5.405280
    29  C    5.761253   6.009975   6.770628   6.691630   6.460714
    30  H    6.276267   6.841381   7.774800   7.753362   7.436237
    31  H    7.640973   7.474251   7.659821   6.788585   5.829402
    32  C    1.432170   1.426544   3.870285   6.453269   8.329466
    33  C    3.871028   1.425879   1.431806   4.307365   6.549819
    34  H    1.087524   3.465777   5.955204   8.309869   9.897343
    35  H    2.180112   2.178600   4.328906   7.104059   9.138340
    36  H    4.329534   2.178211   2.180113   5.048444   7.406891
    37  H    5.955214   3.464272   1.087571   2.797587   5.267001
                   26         27         28         29         30
    26  H    0.000000
    27  H    2.449655   0.000000
    28  C    2.655311   4.616498   0.000000
    29  C    3.980198   5.917137   1.349160   0.000000
    30  H    4.526033   6.679375   2.089316   1.089715   0.000000
    31  H    2.315988   4.601109   1.091257   2.060133   2.309370
    32  C    9.137177   9.664296   7.113982   6.450057   7.126240
    33  C    8.500385   8.366528   7.131396   6.947133   7.865418
    34  H    9.867660  10.854029   7.484835   6.487927   6.871683
    35  H   10.183891  10.609624   8.196955   7.532378   8.188623
    36  H    9.568822   9.340739   8.213501   7.996456   8.890813
    37  H    8.220481   7.466959   7.527763   7.728799   8.751406
                   31         32         33         34         35
    31  H    0.000000
    32  C    8.149574   0.000000
    33  C    8.159375   2.607896   0.000000
    34  H    8.439383   2.180193   4.773400   0.000000
    35  H    9.230807   1.087517   2.922289   2.492977   0.000000
    36  H    9.240511   2.922421   1.087494   5.071718   2.821241
    37  H    8.463843   4.772739   2.179664   6.913662   5.071173
                   36         37
    36  H    0.000000
    37  H    2.492787   0.000000
 Stoichiometry    C24H13(2)
 Framework group  C1[X(C24H13)]
 Deg. of freedom   105
 Full point group                 C1      NOp   1
 Largest Abelian subgroup         C1      NOp   1
 Largest concise Abelian subgroup C1      NOp   1
                         Standard orientation:                         
 ---------------------------------------------------------------------
 Center     Atomic      Atomic             Coordinates (Angstroms)
 Number     Number       Type             X           Y           Z
 ---------------------------------------------------------------------
      1          6           0       -1.451206    3.245505    0.140693
      2          6           0       -0.247291    2.468356    0.255318
      3          6           0       -0.433316    1.107250    0.058223
      4          6           0       -2.751215    2.652470    0.065516
      5          6           0       -2.905624    1.245367    0.020754
      6          6           0       -1.705631    0.564953    0.007765
      7          6           0        0.485265   -0.004395    0.007610
      8          6           0       -0.298771   -1.144054   -0.016228
      9          6           0       -1.605712   -0.784928   -0.032005
     10          6           0        0.131066   -2.451660   -0.011003
     11          6           0        1.541357   -2.573111    0.039966
     12          6           0        2.398286   -1.419932    0.053591
     13          6           0        1.862726   -0.089649    0.004403
     14          6           0        3.788084   -1.567462    0.106332
     15          6           0        4.626577   -0.452761    0.092012
     16          6           0        2.705537    1.050186   -0.058814
     17          6           0        4.092512    0.835008   -0.002875
     18          1           0       -0.014817    2.536358    1.363968
     19          1           0       -1.386041    4.333752    0.146442
     20          1           0       -3.628347    3.294039    0.035241
     21          6           0       -4.062187    0.408652   -0.025472
     22          6           0       -2.673823   -1.660192   -0.058734
     23          6           0       -0.915805   -3.423742   -0.042948
     24          1           0        1.978525   -3.569255    0.064480
     25          1           0        4.235157   -2.557991    0.156788
     26          1           0        4.783281    1.674929   -0.046888
     27          1           0        5.704844   -0.587654    0.132689
     28          6           0        2.257813    2.450616   -0.313341
     29          6           0        1.053090    3.051692   -0.226267
     30          1           0        0.990506    4.098448   -0.522688
     31          1           0        3.062700    3.090936   -0.678017
     32          6           0       -3.947887   -1.018490   -0.061691
     33          6           0       -2.293364   -3.034326   -0.070447
     34          1           0       -5.050799    0.861814   -0.025838
     35          1           0       -4.851923   -1.622484   -0.086226
     36          1           0       -3.062080   -3.803271   -0.091475
     37          1           0       -0.663897   -4.481737   -0.042616
 ---------------------------------------------------------------------
 Rotational constants (GHZ):           0.4261400           0.2611936           0.1625772
 Standard basis: 6-311+G(d,p) (5D, 7F)
 There are   630 symmetry adapted cartesian basis functions of A   symmetry.
 There are   606 symmetry adapted basis functions of A   symmetry.
   606 basis functions,   968 primitive gaussians,   630 cartesian basis functions
    79 alpha electrons       78 beta electrons
       nuclear repulsion energy      1854.6240560423 Hartrees.
 NAtoms=   37 NActive=   37 NUniq=   37 SFac= 1.00D+00 NAtFMM=   60 NAOKFM=F Big=F
 Integral buffers will be    131072 words long.
 Raffenetti 2 integral format.
 Two-electron integral symmetry is turned on.
 One-electron integrals computed using PRISM.
 NBasis=   606 RedAO= T EigKep=  1.17D-06  NBF=   606
 NBsUse=   590 1.00D-06 EigRej=  7.60D-07 NBFU=   590
 ExpMin= 4.38D-02 ExpMax= 4.56D+03 ExpMxC= 6.82D+02 IAcc=2 IRadAn=         4 AccDes= 0.00D+00
 Harris functional with IExCor=  402 and IRadAn=       4 diagonalized for initial guess.
 HarFok:  IExCor=  402 AccDes= 0.00D+00 IRadAn=         4 IDoV= 1 UseB2=F ITyADJ=14
 ICtDFT=  3500011 ScaDFX=  1.000000  1.000000  1.000000  1.000000
 FoFCou: FMM=F IPFlag=           0 FMFlag=      100000 FMFlg1=           0
         NFxFlg=           0 DoJE=T BraDBF=F KetDBF=T FulRan=T
         wScrn=  0.000000 ICntrl=       500 IOpCl=  0 I1Cent=   200000004 NGrid=           0
         NMat0=    1 NMatS0=      1 NMatT0=    0 NMatD0=    1 NMtDS0=    0 NMtDT0=    0
 Petite list used in FoFCou.
 Initial guess <Sx>= 0.0000 <Sy>= 0.0000 <Sz>= 0.5000 <S**2>= 0.7500 S= 0.5000
 Requested convergence on RMS density matrix=1.00D-08 within 128 cycles.
 Requested convergence on MAX density matrix=1.00D-06.
 Requested convergence on             energy=1.00D-06.
 No special actions if energy rises.
 Restarting incremental Fock formation.
 SCF Done:  E(UB3LYP) =  -922.523723650     A.U. after   26 cycles
            NFock= 26  Conv=0.59D-08     -V/T= 2.0037
 <Sx>= 0.0000 <Sy>= 0.0000 <Sz>= 0.5000 <S**2>= 0.7821 S= 0.5159
 <L.S>=  0.00000000000    
 Annihilation of the first spin contaminant:
 S**2 before annihilation     0.7821,   after     0.7508

 **********************************************************************

            Population analysis using the SCF density.

 **********************************************************************

 Orbital symmetries:
 Alpha Orbitals:
       Occupied  (A) (A) (A) (A) (A) (A) (A) (A) (A) (A) (A) (A)
                 (A) (A) (A) (A) (A) (A) (A) (A) (A) (A) (A) (A)
                 (A) (A) (A) (A) (A) (A) (A) (A) (A) (A) (A) (A)
                 (A) (A) (A) (A) (A) (A) (A) (A) (A) (A) (A) (A)
                 (A) (A) (A) (A) (A) (A) (A) (A) (A) (A) (A) (A)
                 (A) (A) (A) (A) (A) (A) (A) (A) (A) (A) (A) (A)
                 (A) (A) (A) (A) (A) (A) (A)
       Virtual   (A) (A) (A) (A) (A) (A) (A) (A) (A) (A) (A) (A)
                 (A) (A) (A) (A) (A) (A) (A) (A) (A) (A) (A) (A)
                 (A) (A) (A) (A) (A) (A) (A) (A) (A) (A) (A) (A)
                 (A) (A) (A) (A) (A) (A) (A) (A) (A) (A) (A) (A)
                 (A) (A) (A) (A) (A) (A) (A) (A) (A) (A) (A) (A)
                 (A) (A) (A) (A) (A) (A) (A) (A) (A) (A) (A) (A)
                 (A) (A) (A) (A) (A) (A) (A) (A) (A) (A) (A) (A)
                 (A) (A) (A) (A) (A) (A) (A) (A) (A) (A) (A) (A)
                 (A) (A) (A) (A) (A) (A) (A) (A) (A) (A) (A) (A)
                 (A) (A) (A) (A) (A) (A) (A) (A) (A) (A) (A) (A)
                 (A) (A) (A) (A) (A) (A) (A) (A) (A) (A) (A) (A)
                 (A) (A) (A) (A) (A) (A) (A) (A) (A) (A) (A) (A)
                 (A) (A) (A) (A) (A) (A) (A) (A) (A) (A) (A) (A)
                 (A) (A) (A) (A) (A) (A) (A) (A) (A) (A) (A) (A)
                 (A) (A) (A) (A) (A) (A) (A) (A) (A) (A) (A) (A)
                 (A) (A) (A) (A) (A) (A) (A) (A) (A) (A) (A) (A)
                 (A) (A) (A) (A) (A) (A) (A) (A) (A) (A) (A) (A)
                 (A) (A) (A) (A) (A) (A) (A) (A) (A) (A) (A) (A)
                 (A) (A) (A) (A) (A) (A) (A) (A) (A) (A) (A) (A)
                 (A) (A) (A) (A) (A) (A) (A) (A) (A) (A) (A) (A)
                 (A) (A) (A) (A) (A) (A) (A) (A) (A) (A) (A) (A)
                 (A) (A) (A) (A) (A) (A) (A) (A) (A) (A) (A) (A)
                 (A) (A) (A) (A) (A) (A) (A) (A) (A) (A) (A) (A)
                 (A) (A) (A) (A) (A) (A) (A) (A) (A) (A) (A) (A)
                 (A) (A) (A) (A) (A) (A) (A) (A) (A) (A) (A) (A)
                 (A) (A) (A) (A) (A) (A) (A) (A) (A) (A) (A) (A)
                 (A) (A) (A) (A) (A) (A) (A) (A) (A) (A) (A) (A)
                 (A) (A) (A) (A) (A) (A) (A) (A) (A) (A) (A) (A)
                 (A) (A) (A) (A) (A) (A) (A) (A) (A) (A) (A) (A)
                 (A) (A) (A) (A) (A) (A) (A) (A) (A) (A) (A) (A)
                 (A) (A) (A) (A) (A) (A) (A) (A) (A) (A) (A) (A)
                 (A) (A) (A) (A) (A) (A) (A) (A) (A) (A) (A) (A)
                 (A) (A) (A) (A) (A) (A) (A) (A) (A) (A) (A) (A)
                 (A) (A) (A) (A) (A) (A) (A) (A) (A) (A) (A) (A)
                 (A) (A) (A) (A) (A) (A) (A) (A) (A) (A) (A) (A)
                 (A) (A) (A) (A) (A) (A) (A) (A) (A) (A) (A) (A)
                 (A) (A) (A) (A) (A) (A) (A) (A) (A) (A) (A) (A)
                 (A) (A) (A) (A) (A) (A) (A) (A) (A) (A) (A) (A)
                 (A) (A) (A) (A) (A) (A) (A) (A) (A) (A) (A) (A)
                 (A) (A) (A) (A) (A) (A) (A) (A) (A) (A) (A) (A)
                 (A) (A) (A) (A) (A) (A) (A) (A) (A) (A) (A) (A)
                 (A) (A) (A) (A) (A) (A) (A) (A) (A) (A) (A) (A)
                 (A) (A) (A) (A) (A) (A) (A)
 Beta  Orbitals:
       Occupied  (A) (A) (A) (A) (A) (A) (A) (A) (A) (A) (A) (A)
                 (A) (A) (A) (A) (A) (A) (A) (A) (A) (A) (A) (A)
                 (A) (A) (A) (A) (A) (A) (A) (A) (A) (A) (A) (A)
                 (A) (A) (A) (A) (A) (A) (A) (A) (A) (A) (A) (A)
                 (A) (A) (A) (A) (A) (A) (A) (A) (A) (A) (A) (A)
                 (A) (A) (A) (A) (A) (A) (A) (A) (A) (A) (A) (A)
                 (A) (A) (A) (A) (A) (A)
       Virtual   (A) (A) (A) (A) (A) (A) (A) (A) (A) (A) (A) (A)
                 (A) (A) (A) (A) (A) (A) (A) (A) (A) (A) (A) (A)
                 (A) (A) (A) (A) (A) (A) (A) (A) (A) (A) (A) (A)
                 (A) (A) (A) (A) (A) (A) (A) (A) (A) (A) (A) (A)
                 (A) (A) (A) (A) (A) (A) (A) (A) (A) (A) (A) (A)
                 (A) (A) (A) (A) (A) (A) (A) (A) (A) (A) (A) (A)
                 (A) (A) (A) (A) (A) (A) (A) (A) (A) (A) (A) (A)
                 (A) (A) (A) (A) (A) (A) (A) (A) (A) (A) (A) (A)
                 (A) (A) (A) (A) (A) (A) (A) (A) (A) (A) (A) (A)
                 (A) (A) (A) (A) (A) (A) (A) (A) (A) (A) (A) (A)
                 (A) (A) (A) (A) (A) (A) (A) (A) (A) (A) (A) (A)
                 (A) (A) (A) (A) (A) (A) (A) (A) (A) (A) (A) (A)
                 (A) (A) (A) (A) (A) (A) (A) (A) (A) (A) (A) (A)
                 (A) (A) (A) (A) (A) (A) (A) (A) (A) (A) (A) (A)
                 (A) (A) (A) (A) (A) (A) (A) (A) (A) (A) (A) (A)
                 (A) (A) (A) (A) (A) (A) (A) (A) (A) (A) (A) (A)
                 (A) (A) (A) (A) (A) (A) (A) (A) (A) (A) (A) (A)
                 (A) (A) (A) (A) (A) (A) (A) (A) (A) (A) (A) (A)
                 (A) (A) (A) (A) (A) (A) (A) (A) (A) (A) (A) (A)
                 (A) (A) (A) (A) (A) (A) (A) (A) (A) (A) (A) (A)
                 (A) (A) (A) (A) (A) (A) (A) (A) (A) (A) (A) (A)
                 (A) (A) (A) (A) (A) (A) (A) (A) (A) (A) (A) (A)
                 (A) (A) (A) (A) (A) (A) (A) (A) (A) (A) (A) (A)
                 (A) (A) (A) (A) (A) (A) (A) (A) (A) (A) (A) (A)
                 (A) (A) (A) (A) (A) (A) (A) (A) (A) (A) (A) (A)
                 (A) (A) (A) (A) (A) (A) (A) (A) (A) (A) (A) (A)
                 (A) (A) (A) (A) (A) (A) (A) (A) (A) (A) (A) (A)
                 (A) (A) (A) (A) (A) (A) (A) (A) (A) (A) (A) (A)
                 (A) (A) (A) (A) (A) (A) (A) (A) (A) (A) (A) (A)
                 (A) (A) (A) (A) (A) (A) (A) (A) (A) (A) (A) (A)
                 (A) (A) (A) (A) (A) (A) (A) (A) (A) (A) (A) (A)
                 (A) (A) (A) (A) (A) (A) (A) (A) (A) (A) (A) (A)
                 (A) (A) (A) (A) (A) (A) (A) (A) (A) (A) (A) (A)
                 (A) (A) (A) (A) (A) (A) (A) (A) (A) (A) (A) (A)
                 (A) (A) (A) (A) (A) (A) (A) (A) (A) (A) (A) (A)
                 (A) (A) (A) (A) (A) (A) (A) (A) (A) (A) (A) (A)
                 (A) (A) (A) (A) (A) (A) (A) (A) (A) (A) (A) (A)
                 (A) (A) (A) (A) (A) (A) (A) (A) (A) (A) (A) (A)
                 (A) (A) (A) (A) (A) (A) (A) (A) (A) (A) (A) (A)
                 (A) (A) (A) (A) (A) (A) (A) (A) (A) (A) (A) (A)
                 (A) (A) (A) (A) (A) (A) (A) (A) (A) (A) (A) (A)
                 (A) (A) (A) (A) (A) (A) (A) (A) (A) (A) (A) (A)
                 (A) (A) (A) (A) (A) (A) (A) (A)
 The electronic state is 2-A.
 Alpha  occ. eigenvalues --  -10.20209 -10.20027 -10.19505 -10.19467 -10.19396
 Alpha  occ. eigenvalues --  -10.19396 -10.19338 -10.19324 -10.19181 -10.19112
 Alpha  occ. eigenvalues --  -10.19112 -10.19045 -10.18952 -10.18911 -10.18780
 Alpha  occ. eigenvalues --  -10.18706 -10.18264 -10.18190 -10.18139 -10.17850
 Alpha  occ. eigenvalues --  -10.16841 -10.15703 -10.15542 -10.15265  -0.93537
 Alpha  occ. eigenvalues --   -0.88365  -0.87532  -0.84348  -0.82507  -0.81681
 Alpha  occ. eigenvalues --   -0.78679  -0.77507  -0.75568  -0.72934  -0.72739
 Alpha  occ. eigenvalues --   -0.70703  -0.67318  -0.65555  -0.63573  -0.63097
 Alpha  occ. eigenvalues --   -0.60214  -0.59711  -0.57058  -0.56454  -0.53992
 Alpha  occ. eigenvalues --   -0.52047  -0.51230  -0.49708  -0.49412  -0.48278
 Alpha  occ. eigenvalues --   -0.46918  -0.46283  -0.45409  -0.44596  -0.43755
 Alpha  occ. eigenvalues --   -0.43534  -0.42773  -0.42248  -0.42049  -0.40795
 Alpha  occ. eigenvalues --   -0.40148  -0.39740  -0.39426  -0.37953  -0.36730
 Alpha  occ. eigenvalues --   -0.35810  -0.35681  -0.34779  -0.34035  -0.33440
 Alpha  occ. eigenvalues --   -0.32817  -0.32658  -0.29620  -0.28354  -0.26092
 Alpha  occ. eigenvalues --   -0.23868  -0.23626  -0.20231  -0.17340
 Alpha virt. eigenvalues --   -0.08740  -0.05011  -0.04029  -0.00809  -0.00337
 Alpha virt. eigenvalues --    0.00630   0.00827   0.01068   0.01675   0.01892
 Alpha virt. eigenvalues --    0.02023   0.03136   0.03345   0.03414   0.03744
 Alpha virt. eigenvalues --    0.04191   0.04219   0.05489   0.05585   0.05728
 Alpha virt. eigenvalues --    0.05945   0.07039   0.07248   0.07938   0.08075
 Alpha virt. eigenvalues --    0.08220   0.08675   0.09218   0.09386   0.10260
 Alpha virt. eigenvalues --    0.10438   0.10632   0.11231   0.11354   0.11706
 Alpha virt. eigenvalues --    0.12249   0.12837   0.13155   0.13417   0.13794
 Alpha virt. eigenvalues --    0.13907   0.14238   0.14670   0.15061   0.15615
 Alpha virt. eigenvalues --    0.16338   0.16722   0.16890   0.17118   0.17300
 Alpha virt. eigenvalues --    0.17456   0.17624   0.17804   0.17960   0.18146
 Alpha virt. eigenvalues --    0.18306   0.18818   0.18959   0.19185   0.19615
 Alpha virt. eigenvalues --    0.19655   0.19931   0.20202   0.20635   0.20795
 Alpha virt. eigenvalues --    0.21079   0.21468   0.21847   0.21983   0.22434
 Alpha virt. eigenvalues --    0.22693   0.23092   0.23200   0.23752   0.23997
 Alpha virt. eigenvalues --    0.24147   0.24271   0.24473   0.24611   0.24798
 Alpha virt. eigenvalues --    0.25143   0.25467   0.25708   0.26109   0.26184
 Alpha virt. eigenvalues --    0.26447   0.26776   0.27045   0.27916   0.28077
 Alpha virt. eigenvalues --    0.28131   0.28876   0.29199   0.29586   0.29718
 Alpha virt. eigenvalues --    0.29945   0.30277   0.30955   0.31638   0.31649
 Alpha virt. eigenvalues --    0.31885   0.32153   0.32300   0.33029   0.33269
 Alpha virt. eigenvalues --    0.33290   0.34784   0.35080   0.35354   0.35739
 Alpha virt. eigenvalues --    0.36049   0.36811   0.38032   0.38556   0.38946
 Alpha virt. eigenvalues --    0.39645   0.40419   0.40666   0.41723   0.42858
 Alpha virt. eigenvalues --    0.43831   0.43996   0.44661   0.45692   0.46169
 Alpha virt. eigenvalues --    0.46347   0.47817   0.48463   0.49225   0.49409
 Alpha virt. eigenvalues --    0.50550   0.51262   0.52242   0.52639   0.53475
 Alpha virt. eigenvalues --    0.53786   0.54586   0.55145   0.55459   0.55567
 Alpha virt. eigenvalues --    0.56112   0.56457   0.56749   0.57167   0.57594
 Alpha virt. eigenvalues --    0.57644   0.58783   0.59036   0.59515   0.59837
 Alpha virt. eigenvalues --    0.60149   0.60761   0.61516   0.61723   0.62201
 Alpha virt. eigenvalues --    0.62973   0.63199   0.63522   0.64283   0.64658
 Alpha virt. eigenvalues --    0.65058   0.65518   0.65985   0.66210   0.66835
 Alpha virt. eigenvalues --    0.67005   0.67686   0.68228   0.68324   0.69004
 Alpha virt. eigenvalues --    0.69212   0.69947   0.70257   0.70649   0.70781
 Alpha virt. eigenvalues --    0.71251   0.71949   0.72716   0.73307   0.73576
 Alpha virt. eigenvalues --    0.73930   0.74546   0.74704   0.75087   0.75823
 Alpha virt. eigenvalues --    0.76410   0.76774   0.77558   0.78318   0.78784
 Alpha virt. eigenvalues --    0.79391   0.80979   0.81871   0.83275   0.83330
 Alpha virt. eigenvalues --    0.84333   0.84563   0.85401   0.86278   0.87536
 Alpha virt. eigenvalues --    0.87915   0.88632   0.89237   0.90211   0.90625
 Alpha virt. eigenvalues --    0.91398   0.92518   0.93291   0.93979   0.94844
 Alpha virt. eigenvalues --    0.95293   0.95447   0.95739   0.96356   0.96766
 Alpha virt. eigenvalues --    0.96973   0.97489   0.97839   0.98758   0.99130
 Alpha virt. eigenvalues --    0.99465   1.00707   1.01206   1.01235   1.01734
 Alpha virt. eigenvalues --    1.02168   1.03749   1.05061   1.05505   1.06162
 Alpha virt. eigenvalues --    1.06466   1.07115   1.07896   1.09002   1.09162
 Alpha virt. eigenvalues --    1.10281   1.10897   1.11869   1.12324   1.14055
 Alpha virt. eigenvalues --    1.14465   1.14980   1.15585   1.15715   1.17042
 Alpha virt. eigenvalues --    1.17774   1.19243   1.21404   1.22505   1.23808
 Alpha virt. eigenvalues --    1.25290   1.27298   1.29608   1.30832   1.32914
 Alpha virt. eigenvalues --    1.35471   1.37439   1.38314   1.40792   1.41270
 Alpha virt. eigenvalues --    1.42429   1.42969   1.44553   1.45454   1.46543
 Alpha virt. eigenvalues --    1.47322   1.47406   1.48387   1.48712   1.48827
 Alpha virt. eigenvalues --    1.49055   1.51065   1.51514   1.51702   1.52280
 Alpha virt. eigenvalues --    1.53815   1.55266   1.56209   1.56236   1.57258
 Alpha virt. eigenvalues --    1.57403   1.58757   1.58910   1.59911   1.60790
 Alpha virt. eigenvalues --    1.62384   1.63009   1.64602   1.65409   1.67098
 Alpha virt. eigenvalues --    1.67645   1.68058   1.68890   1.69437   1.70285
 Alpha virt. eigenvalues --    1.71320   1.72162   1.73993   1.74615   1.75382
 Alpha virt. eigenvalues --    1.75680   1.76204   1.77557   1.78484   1.79220
 Alpha virt. eigenvalues --    1.80225   1.81718   1.81863   1.83204   1.83479
 Alpha virt. eigenvalues --    1.84463   1.85509   1.85626   1.86016   1.87421
 Alpha virt. eigenvalues --    1.87868   1.88417   1.88533   1.88817   1.89494
 Alpha virt. eigenvalues --    1.90538   1.91447   1.91628   1.92988   1.93415
 Alpha virt. eigenvalues --    1.94673   1.95344   1.96497   1.96827   1.97295
 Alpha virt. eigenvalues --    1.97707   2.00062   2.00347   2.01268   2.02077
 Alpha virt. eigenvalues --    2.03628   2.04427   2.05704   2.06103   2.07457
 Alpha virt. eigenvalues --    2.08588   2.08983   2.09952   2.11670   2.11887
 Alpha virt. eigenvalues --    2.13095   2.13210   2.14648   2.16053   2.17141
 Alpha virt. eigenvalues --    2.18355   2.19411   2.20453   2.21958   2.22857
 Alpha virt. eigenvalues --    2.23718   2.23905   2.24633   2.27794   2.29201
 Alpha virt. eigenvalues --    2.31021   2.31769   2.35269   2.35959   2.37160
 Alpha virt. eigenvalues --    2.38049   2.40056   2.42081   2.43781   2.44581
 Alpha virt. eigenvalues --    2.45066   2.47493   2.48682   2.49436   2.51203
 Alpha virt. eigenvalues --    2.52281   2.55381   2.57095   2.57383   2.59870
 Alpha virt. eigenvalues --    2.61399   2.62026   2.63993   2.64676   2.65691
 Alpha virt. eigenvalues --    2.66536   2.68341   2.70062   2.70722   2.70994
 Alpha virt. eigenvalues --    2.71982   2.72188   2.72876   2.73585   2.73794
 Alpha virt. eigenvalues --    2.74046   2.74959   2.75261   2.75667   2.76252
 Alpha virt. eigenvalues --    2.76650   2.77096   2.77843   2.78157   2.78327
 Alpha virt. eigenvalues --    2.78952   2.80283   2.81043   2.82118   2.83423
 Alpha virt. eigenvalues --    2.83613   2.84845   2.85663   2.86208   2.87344
 Alpha virt. eigenvalues --    2.88615   2.89111   2.91543   2.92370   2.93945
 Alpha virt. eigenvalues --    2.94871   2.97163   2.98436   3.00048   3.01732
 Alpha virt. eigenvalues --    3.04016   3.05488   3.06271   3.07495   3.10284
 Alpha virt. eigenvalues --    3.11358   3.13584   3.14772   3.16452   3.19351
 Alpha virt. eigenvalues --    3.21359   3.21870   3.22932   3.23477   3.24705
 Alpha virt. eigenvalues --    3.29933   3.32340   3.35561   3.39420   3.40021
 Alpha virt. eigenvalues --    3.41591   3.42130   3.44516   3.44912   3.46497
 Alpha virt. eigenvalues --    3.47218   3.47809   3.49396   3.50909   3.51709
 Alpha virt. eigenvalues --    3.55192   3.55931   3.60830   3.61241   3.64023
 Alpha virt. eigenvalues --    3.65798   3.67913   3.73154   3.78528   3.82414
 Alpha virt. eigenvalues --    3.86655   3.88107   3.91945   4.04033   4.05146
 Alpha virt. eigenvalues --    4.05325   4.06734   4.07196   4.09880   4.11702
 Alpha virt. eigenvalues --    4.21957   4.27189   4.29440   4.37351   4.50650
 Alpha virt. eigenvalues --    4.73491   4.77274   4.78241   4.83665   4.86966
 Alpha virt. eigenvalues --    4.90655   4.94211  23.39532  23.67635  23.74474
 Alpha virt. eigenvalues --   23.81024  23.86185  23.89586  23.90252  23.94578
 Alpha virt. eigenvalues --   23.97464  23.98378  23.99388  24.00571  24.02975
 Alpha virt. eigenvalues --   24.04441  24.06633  24.07029  24.07902  24.09770
 Alpha virt. eigenvalues --   24.14748  24.15965  24.16785  24.22399  24.26568
 Alpha virt. eigenvalues --   24.35448
  Beta  occ. eigenvalues --  -10.20086 -10.20011 -10.19602 -10.19525 -10.19399
  Beta  occ. eigenvalues --  -10.19357 -10.19248 -10.19201 -10.19152 -10.19109
  Beta  occ. eigenvalues --  -10.19065 -10.18937 -10.18915 -10.18781 -10.18760
  Beta  occ. eigenvalues --  -10.18628 -10.18189 -10.18119 -10.17898 -10.17521
  Beta  occ. eigenvalues --  -10.16962 -10.15831 -10.15419 -10.15144  -0.93160
  Beta  occ. eigenvalues --   -0.88178  -0.87272  -0.84101  -0.82389  -0.81489
  Beta  occ. eigenvalues --   -0.78527  -0.77349  -0.75425  -0.72815  -0.72324
  Beta  occ. eigenvalues --   -0.70526  -0.66909  -0.65375  -0.63480  -0.62922
  Beta  occ. eigenvalues --   -0.59979  -0.59614  -0.56942  -0.56286  -0.53648
  Beta  occ. eigenvalues --   -0.51883  -0.51138  -0.49599  -0.49234  -0.47767
  Beta  occ. eigenvalues --   -0.46650  -0.45994  -0.45259  -0.44505  -0.43596
  Beta  occ. eigenvalues --   -0.43356  -0.42366  -0.42117  -0.41899  -0.40700
  Beta  occ. eigenvalues --   -0.40083  -0.39449  -0.39264  -0.37832  -0.36574
  Beta  occ. eigenvalues --   -0.35615  -0.35280  -0.34749  -0.33755  -0.33072
  Beta  occ. eigenvalues --   -0.32533  -0.32189  -0.29279  -0.27762  -0.25671
  Beta  occ. eigenvalues --   -0.23632  -0.22303  -0.19829
  Beta virt. eigenvalues --   -0.11397  -0.07881  -0.04594  -0.03636  -0.00353
  Beta virt. eigenvalues --   -0.00210   0.00699   0.00834   0.01287   0.01873
  Beta virt. eigenvalues --    0.02000   0.02243   0.03204   0.03421   0.03521
  Beta virt. eigenvalues --    0.03912   0.04349   0.04366   0.05531   0.05585
  Beta virt. eigenvalues --    0.05822   0.06008   0.07133   0.07526   0.07966
  Beta virt. eigenvalues --    0.08121   0.08247   0.08793   0.09418   0.09515
  Beta virt. eigenvalues --    0.10306   0.10517   0.10668   0.11307   0.11415
  Beta virt. eigenvalues --    0.11786   0.12352   0.12910   0.13203   0.13478
  Beta virt. eigenvalues --    0.13920   0.13968   0.14322   0.14705   0.15165
  Beta virt. eigenvalues --    0.15663   0.16372   0.16790   0.16930   0.17148
  Beta virt. eigenvalues --    0.17344   0.17484   0.17648   0.17863   0.18013
  Beta virt. eigenvalues --    0.18204   0.18423   0.18878   0.19089   0.19230
  Beta virt. eigenvalues --    0.19687   0.19726   0.19956   0.20266   0.20695
  Beta virt. eigenvalues --    0.20915   0.21261   0.21538   0.21888   0.22077
  Beta virt. eigenvalues --    0.22551   0.22764   0.23199   0.23274   0.23846
  Beta virt. eigenvalues --    0.24092   0.24304   0.24358   0.24528   0.24809
  Beta virt. eigenvalues --    0.24845   0.25257   0.25521   0.25831   0.26189
  Beta virt. eigenvalues --    0.26265   0.26602   0.26871   0.27126   0.27987
  Beta virt. eigenvalues --    0.28126   0.28276   0.28924   0.29239   0.29650
  Beta virt. eigenvalues --    0.29789   0.30000   0.30397   0.31115   0.31702
  Beta virt. eigenvalues --    0.31710   0.31938   0.32262   0.32342   0.33062
  Beta virt. eigenvalues --    0.33309   0.33394   0.34883   0.35121   0.35487
  Beta virt. eigenvalues --    0.35805   0.36138   0.36949   0.38092   0.38646
  Beta virt. eigenvalues --    0.39037   0.39706   0.40506   0.40714   0.41797
  Beta virt. eigenvalues --    0.42960   0.43936   0.44119   0.44807   0.45937
  Beta virt. eigenvalues --    0.46308   0.46513   0.47917   0.48580   0.49393
  Beta virt. eigenvalues --    0.49540   0.50673   0.51484   0.52364   0.52852
  Beta virt. eigenvalues --    0.53679   0.53970   0.54712   0.55318   0.55628
  Beta virt. eigenvalues --    0.55769   0.56245   0.56530   0.56823   0.57378
  Beta virt. eigenvalues --    0.57729   0.57883   0.58904   0.59107   0.59692
  Beta virt. eigenvalues --    0.60110   0.60276   0.60903   0.61576   0.61838
  Beta virt. eigenvalues --    0.62431   0.63107   0.63414   0.63686   0.64447
  Beta virt. eigenvalues --    0.64777   0.65196   0.65597   0.66124   0.66451
  Beta virt. eigenvalues --    0.67079   0.67180   0.67859   0.68388   0.68501
  Beta virt. eigenvalues --    0.69118   0.69355   0.70114   0.70360   0.70723
  Beta virt. eigenvalues --    0.70937   0.71485   0.72039   0.72982   0.73403
  Beta virt. eigenvalues --    0.73611   0.74272   0.74646   0.74839   0.75217
  Beta virt. eigenvalues --    0.75914   0.76548   0.76861   0.77694   0.78511
  Beta virt. eigenvalues --    0.79181   0.79569   0.81188   0.81974   0.83310
  Beta virt. eigenvalues --    0.83395   0.84396   0.84642   0.85517   0.86364
  Beta virt. eigenvalues --    0.87630   0.88035   0.88794   0.89372   0.90292
  Beta virt. eigenvalues --    0.90677   0.91482   0.92699   0.93459   0.94213
  Beta virt. eigenvalues --    0.94984   0.95448   0.95596   0.95809   0.96505
  Beta virt. eigenvalues --    0.96899   0.97132   0.97565   0.97922   0.98892
  Beta virt. eigenvalues --    0.99291   0.99614   1.00947   1.01353   1.01354
  Beta virt. eigenvalues --    1.01992   1.02305   1.03993   1.05200   1.05677
  Beta virt. eigenvalues --    1.06359   1.06615   1.07302   1.08174   1.09198
  Beta virt. eigenvalues --    1.09411   1.10434   1.10943   1.12009   1.12575
  Beta virt. eigenvalues --    1.14215   1.14610   1.15097   1.15789   1.16037
  Beta virt. eigenvalues --    1.17220   1.17934   1.19496   1.21598   1.22722
  Beta virt. eigenvalues --    1.24010   1.25440   1.27481   1.29797   1.30947
  Beta virt. eigenvalues --    1.33080   1.35679   1.37598   1.38432   1.40925
  Beta virt. eigenvalues --    1.41411   1.42653   1.43104   1.44821   1.45558
  Beta virt. eigenvalues --    1.46717   1.47445   1.47656   1.48507   1.48803
  Beta virt. eigenvalues --    1.48987   1.49209   1.51232   1.51671   1.51909
  Beta virt. eigenvalues --    1.52417   1.53993   1.55384   1.56314   1.56367
  Beta virt. eigenvalues --    1.57359   1.57525   1.58933   1.58989   1.60090
  Beta virt. eigenvalues --    1.60973   1.62556   1.63278   1.64704   1.65674
  Beta virt. eigenvalues --    1.67260   1.67837   1.68280   1.69071   1.69723
  Beta virt. eigenvalues --    1.70376   1.71490   1.72333   1.74094   1.74757
  Beta virt. eigenvalues --    1.75517   1.75952   1.76300   1.77732   1.78710
  Beta virt. eigenvalues --    1.79571   1.80397   1.81927   1.82080   1.83400
  Beta virt. eigenvalues --    1.83679   1.84703   1.85736   1.85879   1.86157
  Beta virt. eigenvalues --    1.87533   1.88101   1.88551   1.88721   1.89043
  Beta virt. eigenvalues --    1.89659   1.90790   1.91641   1.91796   1.93138
  Beta virt. eigenvalues --    1.93614   1.94840   1.95402   1.96707   1.97119
  Beta virt. eigenvalues --    1.97453   1.97893   2.00228   2.00637   2.01321
  Beta virt. eigenvalues --    2.02254   2.03774   2.04586   2.05900   2.06175
  Beta virt. eigenvalues --    2.07778   2.08853   2.09311   2.10056   2.12012
  Beta virt. eigenvalues --    2.12136   2.13220   2.13459   2.14824   2.16171
  Beta virt. eigenvalues --    2.17496   2.18733   2.19674   2.20754   2.22024
  Beta virt. eigenvalues --    2.23067   2.23947   2.24145   2.24805   2.27931
  Beta virt. eigenvalues --    2.29328   2.31281   2.31971   2.35487   2.36096
  Beta virt. eigenvalues --    2.37394   2.38211   2.40224   2.42145   2.43868
  Beta virt. eigenvalues --    2.44826   2.45316   2.47686   2.48829   2.49695
  Beta virt. eigenvalues --    2.51485   2.52720   2.55693   2.57231   2.57445
  Beta virt. eigenvalues --    2.60029   2.61752   2.62188   2.64277   2.64820
  Beta virt. eigenvalues --    2.65961   2.66754   2.68552   2.70140   2.70812
  Beta virt. eigenvalues --    2.71093   2.72097   2.72297   2.73124   2.73646
  Beta virt. eigenvalues --    2.73911   2.74090   2.75042   2.75338   2.75732
  Beta virt. eigenvalues --    2.76307   2.76836   2.77479   2.77932   2.78201
  Beta virt. eigenvalues --    2.78403   2.79104   2.80474   2.81103   2.82253
  Beta virt. eigenvalues --    2.83581   2.83756   2.85104   2.85993   2.86413
  Beta virt. eigenvalues --    2.87613   2.89327   2.89444   2.91725   2.92798
  Beta virt. eigenvalues --    2.93971   2.94980   2.97765   2.98532   3.00220
  Beta virt. eigenvalues --    3.02023   3.04571   3.05808   3.07038   3.07545
  Beta virt. eigenvalues --    3.10466   3.11732   3.13709   3.15214   3.16702
  Beta virt. eigenvalues --    3.19488   3.21432   3.21955   3.22974   3.23539
  Beta virt. eigenvalues --    3.24766   3.29993   3.32429   3.35640   3.39494
  Beta virt. eigenvalues --    3.40063   3.41644   3.42195   3.44581   3.44996
  Beta virt. eigenvalues --    3.46574   3.47274   3.47874   3.49489   3.51027
  Beta virt. eigenvalues --    3.51785   3.55239   3.55987   3.60936   3.61336
  Beta virt. eigenvalues --    3.64080   3.65965   3.68066   3.73284   3.78893
  Beta virt. eigenvalues --    3.82652   3.86808   3.88259   3.92028   4.04079
  Beta virt. eigenvalues --    4.05250   4.05391   4.06837   4.07306   4.10059
  Beta virt. eigenvalues --    4.11794   4.22101   4.27379   4.29572   4.37585
  Beta virt. eigenvalues --    4.50819   4.73739   4.77516   4.78471   4.83752
  Beta virt. eigenvalues --    4.87215   4.90894   4.94490  23.39605  23.67669
  Beta virt. eigenvalues --   23.74522  23.81072  23.86291  23.89622  23.90306
  Beta virt. eigenvalues --   23.94699  23.97576  23.98491  23.99415  24.00542
  Beta virt. eigenvalues --   24.03066  24.04555  24.06669  24.07135  24.07932
  Beta virt. eigenvalues --   24.09852  24.14897  24.16078  24.16803  24.22438
  Beta virt. eigenvalues --   24.26649  24.35526
          Condensed to atoms (all electrons):
               1          2          3          4          5          6
     1  C   10.619557  -2.109227  -1.780103  -0.097370  -0.760365   0.665609
     2  C   -2.109227  17.487954  -2.386549  -1.473400   0.016527  -2.306134
     3  C   -1.780103  -2.386549  11.887867   1.142478   0.053646  -0.507081
     4  C   -0.097370  -1.473400   1.142478  11.810655  -2.784613  -1.649715
     5  C   -0.760365   0.016527   0.053646  -2.784613  10.621201   1.211873
     6  C    0.665609  -2.306134  -0.507081  -1.649715   1.211873   8.749394
     7  C   -0.017535   1.624801  -1.339250   0.111222  -0.232479  -0.384100
     8  C    0.135585  -1.116271   0.677389   0.022502   0.435797  -0.007090
     9  C   -0.338288  -0.539526  -1.029530  -0.469186   0.375651   0.647003
    10  C    0.063982   0.385086  -0.187540  -0.152886  -0.296685   0.086691
    11  C   -0.001551   0.794637  -0.005422  -0.008140  -0.216801  -0.717398
    12  C   -0.066177  -1.002052  -0.189006  -0.090974   0.259273   0.400946
    13  C    0.302343   1.069583  -0.829909   0.215064  -0.402692  -0.588725
    14  C    0.017480  -0.545908   0.658642  -0.025161   0.099575   0.210660
    15  C   -0.014210   0.231161  -0.086212   0.013807  -0.018540  -0.117426
    16  C   -1.207091  -1.008838   0.856967  -0.014248   0.143065   0.677725
    17  C   -0.164176  -0.916676  -0.028537  -0.021693  -0.011905   0.298013
    18  H   -0.069653   0.694487  -0.040041   0.003145  -0.012890  -0.076919
    19  H    0.330789  -0.054063   0.085438   0.039245  -0.035235  -0.002414
    20  H    0.050432  -0.036227   0.002133   0.341983  -0.074159   0.045725
    21  C   -0.334561  -0.296360  -1.133848  -0.008731  -1.895904  -0.050285
    22  C    0.241632  -0.080715   0.008015   0.132580   0.386692   0.478427
    23  C    0.149774  -0.562954  -0.260762  -0.163722   0.014962  -0.420040
    24  H   -0.000080  -0.001742  -0.001351  -0.000064   0.000027   0.007982
    25  H   -0.000032  -0.000008   0.000160  -0.000006   0.000024  -0.000547
    26  H    0.000073   0.003114   0.002726   0.000006   0.000047  -0.000374
    27  H    0.000035   0.000168  -0.000177  -0.000006   0.000001   0.000046
    28  C    0.180305  -0.030407  -0.349538   0.206833  -0.222014  -0.286208
    29  C    0.917266  -2.528235   0.257893  -0.526730   0.253512   0.439208
    30  H    0.044988  -0.073346   0.036447   0.016370   0.011363  -0.008087
    31  H    0.006782  -0.001054  -0.012676  -0.002300  -0.000253   0.005656
    32  C   -0.317114   0.732186  -0.883795  -0.086181  -1.768218   0.832214
    33  C    0.086878   0.250051   1.191891  -0.016754   0.293633  -1.975432
    34  H   -0.002402   0.010631  -0.011626   0.017194  -0.089803   0.025904
    35  H   -0.000184  -0.000197   0.000447   0.006830   0.001120  -0.006317
    36  H    0.000171  -0.000169   0.001744  -0.000269   0.004889  -0.011030
    37  H    0.000002   0.000713   0.005663   0.000027   0.000387  -0.005711
               7          8          9         10         11         12
     1  C   -0.017535   0.135585  -0.338288   0.063982  -0.001551  -0.066177
     2  C    1.624801  -1.116271  -0.539526   0.385086   0.794637  -1.002052
     3  C   -1.339250   0.677389  -1.029530  -0.187540  -0.005422  -0.189006
     4  C    0.111222   0.022502  -0.469186  -0.152886  -0.008140  -0.090974
     5  C   -0.232479   0.435797   0.375651  -0.296685  -0.216801   0.259273
     6  C   -0.384100  -0.007090   0.647003   0.086691  -0.717398   0.400946
     7  C    8.543589  -0.623201  -0.597847   0.842598   1.535038  -0.296733
     8  C   -0.623201   7.528769   0.332310   0.018360  -0.469572  -0.071115
     9  C   -0.597847   0.332310   8.959908  -0.974558  -1.145052   0.262914
    10  C    0.842598   0.018360  -0.974558  10.502703   1.688642  -1.411922
    11  C    1.535038  -0.469572  -1.145052   1.688642   9.701169   0.351931
    12  C   -0.296733  -0.071115   0.262914  -1.411922   0.351931  11.404447
    13  C    2.207200  -0.298202  -0.393225  -0.613299   1.470004   0.114851
    14  C   -1.244023  -0.390130   0.251231  -0.669960  -2.787133  -1.828456
    15  C    0.243431  -0.225145  -0.051585  -0.399471  -0.211362  -0.668002
    16  C   -1.065103   0.065552  -0.165389  -1.271242  -1.495310  -0.896160
    17  C   -0.902876   0.525946  -0.006992   0.128877  -0.305184   1.694747
    18  H   -0.003142  -0.003324  -0.000847  -0.004447   0.004367  -0.016174
    19  H   -0.004340   0.001463   0.000117  -0.000347   0.000043  -0.000655
    20  H    0.000731   0.003849  -0.011811  -0.000581  -0.000097   0.000235
    21  C   -0.175568  -0.775725   1.117303  -0.164013  -0.139504   0.013708
    22  C    0.298321   0.066384   1.006112   0.459987  -0.424385  -0.050332
    23  C   -1.608217   0.392587   2.160013  -2.335949  -2.137508   0.106664
    24  H   -0.016813   0.039572  -0.009850  -0.063525   0.303661  -0.032090
    25  H   -0.002512   0.002926   0.001712   0.056681   0.131950  -0.117516
    26  H   -0.013810   0.001796  -0.000474  -0.002293  -0.003805  -0.020350
    27  H    0.001038   0.001466   0.000044   0.004060   0.009487   0.051301
    28  C    0.047793  -0.300700  -0.094730  -0.282557  -0.495284  -1.523864
    29  C   -0.732820  -0.055276   0.120989  -0.059825  -0.356859  -0.287834
    30  H   -0.000289  -0.000953   0.002523  -0.000018   0.000174  -0.000601
    31  H   -0.006856   0.002789   0.000114   0.002184   0.000244   0.017416
    32  C    0.209816  -1.203505  -1.178176   0.919725   0.264913  -0.013841
    33  C   -0.240103   1.209374  -2.183832  -0.556849   0.719145  -0.766525
    34  H    0.002788  -0.001359  -0.009440   0.002684   0.000311   0.000061
    35  H    0.003389  -0.017438   0.019992   0.006897   0.000238  -0.000612
    36  H    0.001274  -0.001040   0.036797   0.010510   0.002756   0.004799
    37  H   -0.007494   0.015784  -0.016454  -0.077888   0.062236   0.011626
              13         14         15         16         17         18
     1  C    0.302343   0.017480  -0.014210  -1.207091  -0.164176  -0.069653
     2  C    1.069583  -0.545908   0.231161  -1.008838  -0.916676   0.694487
     3  C   -0.829909   0.658642  -0.086212   0.856967  -0.028537  -0.040041
     4  C    0.215064  -0.025161   0.013807  -0.014248  -0.021693   0.003145
     5  C   -0.402692   0.099575  -0.018540   0.143065  -0.011905  -0.012890
     6  C   -0.588725   0.210660  -0.117426   0.677725   0.298013  -0.076919
     7  C    2.207200  -1.244023   0.243431  -1.065103  -0.902876  -0.003142
     8  C   -0.298202  -0.390130  -0.225145   0.065552   0.525946  -0.003324
     9  C   -0.393225   0.251231  -0.051585  -0.165389  -0.006992  -0.000847
    10  C   -0.613299  -0.669960  -0.399471  -1.271242   0.128877  -0.004447
    11  C    1.470004  -2.787133  -0.211362  -1.495310  -0.305184   0.004367
    12  C    0.114851  -1.828456  -0.668002  -0.896160   1.694747  -0.016174
    13  C    9.164000  -1.732417   1.265979   0.606256  -2.186614   0.002526
    14  C   -1.732417  11.969091   0.292741   2.150554  -1.297053  -0.004208
    15  C    1.265979   0.292741   7.272039   0.045723  -0.263903   0.001437
    16  C    0.606256   2.150554   0.045723  14.368238  -2.235756  -0.031263
    17  C   -2.186614  -1.297053  -0.263903  -2.235756  11.475374  -0.016465
    18  H    0.002526  -0.004208   0.001437  -0.031263  -0.016465   0.553693
    19  H    0.001878  -0.000100   0.000025   0.001652   0.000521  -0.000786
    20  H    0.000445   0.000012  -0.000006   0.000186   0.000035  -0.000500
    21  C   -0.147769   0.005219  -0.008175   0.157837   0.028813  -0.016772
    22  C   -0.074829  -0.083972  -0.003508   0.101140   0.028069   0.003090
    23  C   -0.818102   0.475140  -0.163683  -0.093829   0.098398  -0.003284
    24  H   -0.015089   0.062060   0.009615   0.012874   0.010956  -0.000000
    25  H    0.013593   0.362642  -0.036639  -0.041362  -0.034642  -0.000000
    26  H    0.000153  -0.018322  -0.014878  -0.172391   0.426242  -0.000008
    27  H   -0.011795  -0.048507   0.356809   0.007289  -0.039078  -0.000000
    28  C   -0.859682   0.210602  -0.731418  -1.306352  -0.511968  -0.017552
    29  C   -1.533754   0.348412  -0.369252  -2.412546   0.045197  -0.193359
    30  H   -0.006572   0.000016  -0.000711  -0.030817  -0.012138   0.003726
    31  H   -0.028187   0.003812   0.022374  -0.130325   0.137697  -0.000290
    32  C   -0.104067   0.008541   0.005398   0.000780  -0.019336   0.000448
    33  C    0.333107  -0.258921   0.011301  -0.369982  -0.026576   0.000618
    34  H   -0.000386   0.000003   0.000002  -0.000073  -0.000012  -0.000003
    35  H    0.000003  -0.000044  -0.000001   0.000118   0.000009  -0.000000
    36  H   -0.000312   0.000412   0.000009   0.000176  -0.000008   0.000000
[...]
 02381803,-0.00739377,0.00005113,0.03455239,0.02132587,0.00334560,-0.05
 637048,0.02540740,-0.00801297,0.01841065,0.00046323,-0.00105616,-0.005
 11468,0.00625909,-0.00011593,-0.00225976,-0.00247970,0.00025373,0.0032
 2843,-0.00034686,-0.00027493,-0.00030408,0.00245577,0.00023014,0.00021
 009,-0.00016224,-0.00037363,-0.00088691,-0.00122279,0.00002824,-0.0003
 8800,-0.00037230,-0.00018525,-0.00010225,-0.00007929,0.00011814,-0.000
 05192,0.00006249,0.00002018,-0.00771548,0.01037817,-0.00337926,-0.1112
 1760,-0.01038091,-0.00927852,-0.34691824,-0.08274026,-0.02368707,-0.00
 001089,-0.00035376,0.00029606,-0.00000735,-0.00007293,0.00003906,-0.00
 002471,-0.00000120,0.00002226,-0.00004331,0.00006525,0.00000672,-0.000
 14534,-0.00011707,-0.00004310,-0.00010712,0.00030890,-0.00010581,0.000
 04942,-0.00000408,-0.00007481,0.00001395,0.00000876,0.00001219,-0.0099
 7877,-0.03842232,0.00144192,0.68461532,0.00149648,-0.00029605,0.000497
 15,-0.00013509,-0.00002196,0.00059907,0.00372941,-0.00005935,-0.000361
 93,-0.00112579,0.00109248,-0.00046609,0.00994832,-0.00355216,0.0017569
 9,0.00141715,-0.00321956,0.00090647,0.00091540,-0.00886500,-0.00056575
 ,-0.02058010,-0.00425932,0.00080055,0.02882859,-0.04154075,0.00929664,
 0.00082661,0.02856626,-0.00311418,0.01416939,-0.00722159,0.00100217,-0
 .00286303,0.00621319,-0.00025128,-0.00336946,-0.00208197,0.00051939,0.
 00307882,-0.00114770,-0.00042873,-0.00036583,0.00252723,0.00029038,0.0
 0106266,-0.00063447,-0.00028828,-0.00125841,-0.00170160,-0.00000299,-0
 .00037107,-0.00047037,-0.00015336,-0.00015757,-0.00004288,0.00001722,-
 0.00005597,0.00001058,0.00003530,-0.00366963,0.01549744,0.00000619,-0.
 03210632,-0.22237502,0.01269454,-0.03605134,-0.13748686,0.00670671,0.0
 0033358,-0.00010085,0.00023475,-0.00002499,-0.00004321,0.00004033,-0.0
 0003014,-0.00001250,-0.00002491,0.00003386,0.00000220,0.00000617,-0.00
 004506,0.00009138,-0.00004585,-0.00012355,-0.00007954,-0.00026173,0.00
 008570,-0.00005109,-0.00006591,-0.00000932,-0.00001193,0.00001629,-0.0
 1803768,-0.01856818,-0.00310202,-0.04690077,0.60476079,-0.00001499,-0.
 00012264,0.00008741,-0.00012881,0.00006886,-0.00008590,0.00012295,0.00
 083461,-0.00031035,0.00031982,0.00029047,-0.00079205,0.00045146,0.0000
 0313,-0.00060313,-0.00230906,-0.00078299,0.00544936,-0.00051534,-0.000
 29620,-0.00057171,-0.00054147,-0.00033140,-0.00223400,0.00014246,0.012
 57146,0.00569054,-0.00602265,-0.00105457,0.00364662,0.00064859,0.00156
 091,0.00342603,-0.00024611,-0.00008418,0.00047585,0.00035750,-0.000145
 58,-0.00020106,-0.00011413,0.00015658,-0.00047489,-0.00000398,-0.00014
 634,0.00008235,-0.00020908,0.00007272,0.00023449,0.00018810,0.00011602
 ,-0.00009650,-0.00001124,-0.00000130,-0.00001269,0.00000593,-0.0000130
 8,0.00003587,-0.00001093,0.00000786,0.00003678,-0.00295202,0.00023670,
 0.00414952,-0.00429763,0.01634880,-0.06397781,-0.03202580,0.00072992,-
 0.06285056,-0.00005541,-0.00003981,-0.00018437,-0.00000423,-0.00000723
 ,0.00000929,-0.00000132,0.00000568,-0.00001287,-0.00000135,0.00000142,
 0.00004617,-0.00001392,0.00001577,-0.00000983,-0.00003613,0.00000772,-
 0.00001508,-0.00000038,0.00001478,-0.00001906,-0.00000308,-0.00000260,
 0.00000005,-0.00055079,-0.00808963,0.00028041,0.08048147,-0.06080313,0
 .15149247,0.00002462,0.00029939,0.00006093,0.00003908,-0.00013110,0.00
 007130,0.00020213,-0.00093660,-0.00056907,0.00086188,-0.00117433,0.000
 72675,-0.01631906,-0.01189963,-0.00664715,-0.00277987,0.00405256,-0.00
 164794,-0.00060225,-0.00004397,0.00000188,-0.00014328,0.00000290,0.000
 07499,0.00019828,0.00077638,0.00038806,-0.00014167,0.00006446,-0.00004
 023,0.00003904,-0.00000268,0.00000307,-0.00004587,-0.00006816,0.000020
 23,0.00021854,-0.00010396,0.00007622,0.00000987,0.00001226,-0.00002574
 ,-0.00002078,-0.00001065,0.00000486,-0.00006058,0.00003155,0.00001639,
 0.00001719,0.00003530,-0.00000085,0.00003302,0.00000097,-0.00000134,-0
 .00002001,0.00005310,-0.00003784,-0.00006631,0.00094501,0.00017545,-0.
 26700851,-0.09263533,-0.07452856,0.00223018,0.00038310,-0.00175353,0.0
 0011989,-0.00005524,0.00013952,-0.00000941,-0.00000785,0.00000412,-0.0
 0000693,-0.00000687,-0.00000086,-0.00000834,0.00000673,0.00000224,-0.0
 0000754,0.00000028,0.00000244,-0.00001910,-0.00006635,-0.00000601,0.00
 008687,0.00009494,0.00002945,-0.00002728,0.00002984,0.00000163,-0.0000
 0622,0.00000850,-0.00000136,0.00064982,0.00060327,-0.00062996,0.000036
 00,0.00001422,-0.00018372,0.28208522,-0.00024681,0.00002348,-0.0000091
 9,0.00000008,0.00018326,-0.00002704,0.00044122,0.00063060,0.00025819,-
 0.00015564,0.00139250,0.00046780,0.01675329,0.01100805,0.00587466,0.00
 346664,-0.00223584,0.00042929,0.00036235,-0.00000799,-0.00002389,0.000
 15528,0.00009995,0.00003490,0.00044520,-0.00067590,0.00013383,0.000160
 99,-0.00014081,0.00001151,-0.00000574,0.00001599,-0.00001471,0.0000276
 8,0.00001949,-0.00000259,-0.00008179,0.00008576,0.00000879,0.00000765,
 0.00001340,-0.00000394,0.00000495,0.00001581,0.00000392,0.00001151,-0.
 00002719,-0.00000666,-0.00002430,0.00000389,0.00000094,-0.00003021,0.0
 0001775,-0.00001850,-0.00001779,0.00000481,-0.00001472,-0.00054605,-0.
 00021424,-0.00024469,-0.09198032,-0.09887260,-0.03163156,0.00067153,-0
 .00560463,-0.00010976,-0.00016372,-0.00048165,0.00007995,0.00000059,-0
 .00000344,0.00000142,0.00000355,-0.00000193,-0.00000127,0.00000005,0.0
 0000214,0.00000040,-0.00000428,0.00000050,0.00000022,-0.00000890,0.000
 01982,0.00001296,-0.00001180,-0.00004364,-0.00003502,0.00001011,-0.000
 00489,-0.00000281,-0.00000535,-0.00000122,0.00000369,-0.02816242,-0.00
 928397,-0.00908913,-0.00118710,0.00050053,-0.00032798,0.10004840,0.102
 78084,-0.00022681,0.00017768,-0.00011959,0.00008685,-0.00004892,0.0000
 6596,-0.00066279,-0.00049951,0.00056667,0.00133257,0.00020891,-0.00247
 299,-0.00710571,-0.00174140,-0.00015525,-0.00103137,0.00152016,0.00502
 190,0.00020048,0.00045113,0.00000431,0.00022977,-0.00017043,-0.0004470
 1,0.00061164,-0.00040524,-0.00066511,-0.00002073,-0.00007984,0.0001695
 6,0.00009799,-0.00011447,-0.00001847,-0.00004067,0.00013680,0.00002810
 ,-0.00028436,-0.00005896,-0.00022203,0.00006115,-0.00002559,0.00003434
 ,0.00002203,0.00007842,0.00000417,0.00008291,-0.00006401,-0.00002690,-
 0.00007932,-0.00001757,0.00001503,0.00001666,0.00003060,-0.00002306,-0
 .00004909,-0.00002325,0.00016156,-0.00014309,0.00022686,0.00023864,-0.
 07368124,-0.03476878,-0.05784343,-0.00158686,-0.00044615,0.00698177,-0
 .00001267,-0.00016524,-0.00040918,0.00000219,0.00000240,-0.00000155,0.
 00000251,-0.00000236,-0.00000020,-0.00000072,-0.00000013,0.00000113,-0
 .00000470,0.00000131,-0.00000289,0.00001377,0.00003520,-0.00001219,-0.
 00002319,-0.00001200,-0.00002126,0.00000136,-0.00000248,0.00002258,-0.
 00000343,-0.00000175,0.00000579,-0.00165806,0.00151668,0.00239496,-0.0
 0034630,0.00021829,0.00040885,0.08256472,0.03399778,0.05062071,0.00000
 930,-0.00006385,0.00004721,-0.00001146,-0.00001279,0.00000308,-0.00010
 012,0.00014912,0.00012198,0.00025385,-0.00007406,-0.00006224,0.0018212
 9,-0.00140303,-0.00183495,0.00016229,-0.00091257,0.00033475,-0.0006372
 9,-0.00025905,-0.00003557,-0.00007562,0.00130997,-0.00056832,-0.003947
 15,-0.00362613,-0.00171222,-0.00004213,0.00003041,0.00001629,0.0000741
 9,-0.00001613,0.00001611,-0.00003229,-0.00004186,0.00000892,0.00018098
 ,0.00015973,0.00006865,0.00001886,0.00001339,-0.00000284,-0.00003621,-
 0.00002056,0.00000640,-0.00010827,0.00000933,0.00003660,0.00002810,0.0
 0003014,-0.00001368,-0.00000396,-0.00000651,-0.00000648,0.00001901,-0.
 00001336,0.00000994,0.00000342,0.00002220,-0.00000092,0.00482901,-0.00
 330360,0.00040976,-0.01566217,0.01726671,-0.00588503,-0.00001045,-0.00
 030448,0.00008735,-0.00003492,-0.00001603,-0.00000220,-0.00000688,-0.0
 0000760,-0.00000113,-0.00001089,0.00000572,-0.00000100,-0.00000559,-0.
 00000023,0.00000105,-0.00001588,-0.00003214,-0.00000280,0.00001197,0.0
 0000392,-0.00000887,-0.00000090,0.00000810,0.00000266,-0.00000639,0.00
 000588,0.00000223,-0.23437991,0.12163177,-0.05713959,0.00109824,0.0008
 8628,0.00071700,0.00043703,0.00018860,0.00166458,0.24637967,-0.0000286
 6,-0.00052927,-0.00016494,-0.00006599,0.00001809,-0.00002815,0.0000514
 3,0.00008541,0.00003860,0.00124690,0.00018605,0.00042198,-0.00162902,-
 0.00507798,-0.00097210,-0.00059696,-0.00043502,-0.00017006,-0.00027513
 ,-0.00023020,0.00000850,-0.00055886,0.00069028,-0.00013708,-0.00303891
 ,-0.00073387,-0.00066437,-0.00009229,0.00022072,-0.00003989,0.00008866
 ,-0.00000437,0.00000653,-0.00001139,0.00001143,-0.00000893,0.00004907,
 0.00008406,0.00000665,0.00000762,-0.00000069,0.00000599,-0.00001286,-0
 .00001028,-0.00000203,-0.00003897,0.00000764,0.00000817,0.00002274,0.0
 0000090,0.00000070,0.00001285,0.00000104,0.00000993,0.00013882,-0.0000
 7292,0.00002374,-0.00002697,-0.00004151,-0.00001593,0.02569373,-0.0134
 7080,0.00755706,-0.01112207,0.01150170,-0.00348189,0.00038125,-0.00006
 299,0.00006043,-0.00000577,-0.00000084,-0.00000031,-0.00000112,0.00000
 277,0.00000090,-0.00000280,-0.00000240,-0.00000034,0.00000520,0.000000
 41,-0.00000064,0.00000464,-0.00002436,-0.00001465,-0.00001477,0.000028
 48,0.00003283,-0.00000385,-0.00000214,-0.00000345,0.00000922,0.0000030
 4,-0.00000417,0.11996162,-0.14049483,0.03470634,0.00023820,0.00109678,
 -0.00005576,-0.00028957,0.00085653,0.00006176,-0.13064915,0.14662327,0
 .00011806,0.00015197,-0.00014546,-0.00007416,0.00004623,0.00003541,0.0
 0017303,0.00007865,-0.00047543,-0.00032593,-0.00005634,0.00017232,-0.0
 0165715,-0.00046000,0.00699203,0.00031875,0.00012055,-0.00088585,-0.00
 011352,0.00003260,0.00013164,-0.00012371,0.00055437,0.00049435,-0.0016
 9392,-0.00182424,0.00441772,0.00024616,-0.00009489,-0.00005883,-0.0000
 7426,0.00001549,0.00004382,0.00007432,-0.00001944,-0.00002167,-0.00007
 590,0.00005244,-0.00018359,-0.00004437,0.00000853,0.00000032,0.0000199
 2,-0.00003139,-0.00001218,-0.00001849,-0.00001326,-0.00000613,0.000023
 31,0.00002400,0.00002802,-0.00001127,-0.00000804,0.00001128,-0.0000165
 8,0.00001251,-0.00002470,0.00000018,-0.00000816,0.00002993,0.00046657,
 -0.00243098,0.00348536,-0.00691342,0.00421567,0.00061358,-0.00024420,-
 0.00001725,-0.00017059,-0.00001034,-0.00000249,0.00000835,-0.00000007,
 -0.00000059,0.00000322,0.00000201,0.00000091,0.00000806,-0.00000221,-0
 .00000088,0.00000133,-0.00000298,0.00003702,-0.00000194,0.00003094,-0.
 00000843,-0.00000380,-0.00000834,0.00000592,0.00000619,-0.00000539,-0.
 00000209,0.00000004,-0.05652323,0.03691839,-0.04971358,0.00114582,0.00
 005749,-0.00221220,0.00171114,0.00023481,-0.00433586,0.06372401,-0.037
 30550,0.04132935,0.00002561,-0.00000023,0.00002553,0.00003422,0.000018
 13,-0.00001921,-0.00006621,-0.00014844,-0.00000298,-0.00004533,0.00002
 121,-0.00001358,0.00025249,0.00000591,0.00006061,0.00048598,-0.0003922
 6,0.00003872,0.00014289,0.00000020,0.00008041,-0.00016854,-0.00044550,
 0.00013076,-0.00000827,-0.00239248,-0.00025623,-0.00387555,-0.00324573
 ,-0.00130773,-0.00000578,0.00131108,-0.00018800,-0.00044345,-0.0001336
 7,0.00018431,-0.00006247,-0.00004991,-0.00003184,0.00006614,0.00014321
 ,0.00001386,-0.00008042,0.00004930,0.00000057,0.00003908,-0.00002230,-
 0.00001831,-0.00004399,-0.00003644,0.00000437,-0.00001064,-0.00000045,
 -0.00000481,-0.00000285,0.00000651,0.00000348,0.00000552,0.00000103,0.
 00000036,-0.00009551,0.00032064,-0.00000196,0.00968134,-0.00758743,0.0
 0208352,-0.01753454,0.02293918,-0.00566556,-0.00003776,-0.00004995,-0.
 00003542,0.00000115,-0.00001325,0.00000292,-0.00000513,0.00000718,0.00
 000433,-0.00001733,0.00001495,0.00000044,-0.00001296,-0.00001283,-0.00
 000179,0.00001509,-0.00000621,0.00000581,0.00000266,0.00000778,-0.0000
 0190,-0.00000584,0.00000673,0.00000303,0.00088928,0.00028706,0.0004353
 4,-0.17822866,0.13099915,-0.03615677,0.00000627,0.00002721,-0.00000449
 ,-0.00016198,0.00052894,-0.00008992,0.18852192,0.00002128,-0.00005606,
 -0.00000339,0.00015192,0.00005966,-0.00011802,-0.00008010,-0.00057267,
 0.00000589,-0.00004966,0.00005756,-0.00002852,0.00003852,0.00004786,0.
 00002358,0.00131607,0.00013521,0.00061129,0.00034213,-0.00008520,-0.00
 004328,-0.00088731,0.00004634,-0.00016821,-0.00325558,-0.00542091,-0.0
 0003770,-0.00255731,0.00041020,0.00090731,0.00004871,0.00045282,0.0000
 1577,-0.00018136,0.00011268,-0.00009768,-0.00021474,-0.00005053,0.0000
 4350,0.00004201,0.00002213,-0.00001174,0.00000093,0.00006951,0.0000142
 8,0.00009278,-0.00004857,-0.00002301,-0.00006114,-0.00004681,0.0000063
 2,-0.00000258,0.00000839,0.00001161,-0.00000168,-0.00001214,0.00001051
 ,-0.00000591,-0.00003774,-0.00001185,-0.00026557,-0.00008810,-0.000073
 17,0.02146362,-0.01524404,0.00578136,-0.00749086,0.00828978,-0.0015289
 0,0.00001556,-0.00000275,0.00002819,0.00000618,0.00000332,-0.00000100,
 0.00000205,-0.00000340,-0.00000300,0.00000114,0.00000518,0.00000269,0.
 00001547,0.00000229,-0.00000708,-0.00004560,-0.00003999,0.00003428,0.0
 0002023,-0.00001436,-0.00001212,0.00000986,0.00000078,-0.00000201,0.00
 076007,0.00150485,0.00004027,0.13350271,-0.20183660,0.03815173,-0.0000
 3103,-0.00004521,-0.00000185,-0.00091772,-0.00022612,-0.00029447,-0.14
 203177,0.21166560,0.00005556,-0.00001527,0.00001875,-0.00000626,0.0000
 2622,-0.00017126,0.00008108,0.00002907,0.00003884,-0.00006366,0.000042
 77,0.00005130,0.00024195,-0.00016355,-0.00002894,-0.00031860,0.0001032
 1,0.00045117,0.00000745,-0.00008858,-0.00055307,-0.00027778,-0.0005482
 7,-0.00066943,0.00064649,0.00031390,0.00400524,-0.00139490,0.00058243,
 0.00900097,0.00003787,0.00037040,0.00033032,-0.00023535,0.00003880,-0.
 00081320,-0.00010478,-0.00004398,0.00015660,0.00003503,0.00001543,-0.0
 0008763,-0.00000716,0.00004905,0.00009550,0.00006859,-0.00003080,0.000
 06067,-0.00005931,-0.00004358,-0.00001503,-0.00002290,0.00002546,0.000
 00052,-0.00000320,0.00000255,0.00000119,-0.00000181,0.00000202,0.00000
 761,-0.00007623,0.00036391,-0.00020727,-0.00103566,0.00317614,0.001833
 59,-0.00056510,0.00284461,0.00326626,0.00001420,0.00000738,0.00022747,
 0.00000052,-0.00000127,-0.00001817,-0.00000298,0.00000308,-0.00001654,
 -0.00000145,0.00000222,0.00001701,0.00000385,-0.00000931,-0.00000614,-
 0.00000271,-0.00002577,-0.00001001,0.00001137,-0.00000702,0.00000579,-
 0.00000023,0.00000120,-0.00000081,0.00038783,-0.00055341,-0.00171738,-
 0.03804267,0.03662911,-0.04476468,-0.00002415,0.00000503,0.00009209,0.
 00004388,0.00012001,0.00029225,0.03983862,-0.04229492,0.03486354,-0.00
 000495,0.00000306,-0.00001094,0.00010808,0.00000828,0.00003005,-0.0003
 6204,0.00029932,-0.00001499,0.00001565,0.00006689,0.00001988,-0.000272
 01,0.00001028,-0.00006145,0.00032930,0.00012792,0.00009834,0.00074442,
 0.00077214,-0.00021878,-0.00357501,0.00315344,-0.00062952,-0.00067501,
 0.00023209,-0.00001238,0.00961277,0.02165600,-0.00232402,0.00156747,-0
 .00011084,0.00007895,-0.00004475,-0.00029068,0.00004176,0.00023250,0.0
 0003804,-0.00003068,-0.00005107,0.00001972,-0.00000776,0.00001711,-0.0
 0003901,0.00000137,-0.00005712,-0.00004624,0.00001397,0.00000501,0.000
 05449,0.00000303,0.00000957,0.00000229,0.00000011,0.00001993,0.0000038
 0,0.00000338,-0.00000222,0.00000036,-0.00000190,-0.00039555,-0.0002472
 1,-0.00008604,-0.00523259,-0.00029909,-0.00176840,-0.07350150,-0.06384
 045,0.00435773,-0.00030194,-0.00066300,0.00006481,-0.00001978,0.000000
 79,-0.00000093,-0.00000364,-0.00000390,-0.00000206,0.00000179,-0.00000
 258,-0.00000008,0.00001051,-0.00000795,-0.00000311,-0.00000245,-0.0000
 0807,0.00000591,-0.00000122,0.,0.00000025,0.00000152,-0.00000163,-0.00
 000027,0.00063821,-0.00120534,0.00026268,-0.00517998,-0.03054450,0.002
 97507,-0.00000192,-0.00015466,-0.00002558,-0.00003676,0.00002421,-0.00
 002487,0.00074355,0.00022868,0.00077257,0.07566413,-0.00000161,-0.0000
 3102,-0.00001624,-0.00007980,0.00000234,-0.00004937,0.00023923,-0.0003
 8462,0.00001750,0.00001997,-0.00003633,-0.00000560,0.00011294,0.000085
 31,0.00005599,-0.00021410,-0.00014608,-0.00005093,-0.00087600,-0.00011
 293,0.00029830,0.00412076,-0.00161272,0.00039226,0.00041427,0.00058815
 ,-0.00018283,-0.00748749,-0.01579710,0.00192919,-0.00087670,0.00095306
 ,-0.00014470,0.00039143,0.00002056,-0.00004760,-0.00005898,0.00004682,
 0.00001777,-0.00010319,-0.00007345,0.00001656,0.00003229,-0.00006546,-
 0.00001349,0.00005767,0.00005921,-0.00001357,0.00005961,-0.00003412,-0
 .00001364,0.00000673,-0.00000466,0.00001301,-0.00001540,-0.00001727,-0
 .00000218,-0.00000743,-0.00000939,-0.00000453,-0.00015923,0.00004805,-
 0.00012345,-0.00104121,0.00167620,0.00081303,-0.06637748,-0.31339783,0
 .02724206,0.00090980,0.00001463,-0.00006784,0.00001872,0.00002060,0.00
 000316,0.00001151,-0.00000435,-0.00000087,0.00001619,-0.00000571,-0.00
 000135,0.00001368,0.00002940,0.00000306,-0.00003680,-0.00000092,0.0000
 0875,0.00000431,-0.00001336,-0.00000329,0.00000953,-0.00000561,-0.0000
 0228,0.00016069,-0.00019210,0.00014250,0.00013952,-0.00467831,0.001109
 24,0.00000018,-0.00002995,-0.00001407,-0.00004041,0.00000199,0.0000108
 8,-0.00012654,0.00093704,-0.00092827,0.07076335,0.33216993,-0.00005822
 ,-0.00002751,-0.00005400,0.00004534,0.00009572,-0.00021660,0.00000852,
 0.00000429,0.00013591,0.00004610,-0.00009716,0.00002665,-0.00000091,0.
 00010114,0.00018198,0.00005578,0.00008398,-0.00059156,0.00021413,0.000
 26753,0.00046618,-0.00123880,0.00044548,0.00362209,0.00029711,-0.00030
 157,-0.00070943,0.00045766,0.00506000,0.00172444,0.00045392,-0.0004789
 4,-0.00175239,-0.00012138,0.00011091,-0.00019175,0.00003027,-0.0001132
 8,-0.00002940,0.00006990,-0.00000356,0.00001679,-0.00000424,0.00004666
 ,0.00001717,0.00000304,-0.00001037,0.00005346,-0.00001555,-0.00001538,
 -0.00001938,-0.00000827,0.00000873,0.00000238,-0.00002692,-0.00002205,
 0.00007616,0.00000028,-0.00000241,0.00000227,0.00022896,-0.00004489,-0
 .00057677,-0.00163368,0.00078542,0.00871968,0.00593945,0.02757228,-0.0
 3720940,-0.00014186,-0.00005050,0.00029325,-0.00000350,-0.00000173,0.0
 0001268,-0.00000265,0.00000055,-0.00000065,-0.00000255,0.00000107,0.00
 000135,-0.00000136,-0.00000313,-0.00000033,-0.00000034,0.00000851,-0.0
 0000178,0.00000130,0.00000246,-0.00000024,-0.00000034,0.00000109,0.000
 00182,-0.00002706,0.00028208,0.00043899,-0.00191982,-0.00239506,0.0038
 7669,0.00002293,0.00000337,-0.00006115,-0.00004462,0.00000005,0.000147
 23,0.00088349,-0.00092665,-0.00573711,-0.00350608,-0.03038714,0.027334
 75\\-0.00002451,-0.00001206,-0.00000782,0.00002904,0.00003267,-0.00000
 852,0.00000986,-0.00002318,0.00000082,0.00000284,-0.00000144,0.0000062
 1,0.00001134,0.00000017,0.00000326,-0.00001671,0.00001129,0.00000106,-
 0.00000261,-0.00000584,-0.00000628,-0.00001035,0.00000545,0.00000161,0
 .00000602,-0.00000193,-0.00000259,0.00000129,-0.00000287,-0.00000069,-
 0.00000153,0.00000122,0.00000225,0.00000444,0.00000120,-0.00000062,0.0
 0000615,-0.00000734,-0.00000150,-0.00000267,0.00000203,0.00000050,-0.0
 0000014,-0.00000735,0.00000055,-0.00000797,0.00000261,0.00000193,0.000
 00513,0.00000407,-0.00000154,-0.00001032,-0.00000345,0.00000558,0.0000
 0158,0.00000202,-0.00000223,-0.00000110,0.00000124,-0.00000080,-0.0000
 0384,0.00000453,-0.00000460,0.00000799,0.00000103,0.00000245,0.0000062
 0,0.00000138,0.00000321,0.00000167,-0.00000075,-0.00000017,0.00000152,
 -0.00000186,-0.00000024,-0.00000129,-0.00000209,0.00000060,0.00000019,
 -0.00000090,-0.00000008,0.00000028,-0.00000503,-0.00000470,-0.00000256
 ,0.00000206,0.00000849,-0.00000232,-0.00000076,0.00000078,-0.00000107,
 -0.00000030,0.00000122,-0.00000329,0.00000112,0.00000211,-0.00000482,-
 0.00000222,-0.00000123,-0.00000087,0.00000186,0.00000048,0.00000048,0.
 00000143,0.00000053,0.00000229,0.00000153,-0.00000033,-0.00000035,0.00
 000048,0.00000028\\\@


 A politician is a person who can make waves and then
 make you think he's the only one who can save the ship.
 -- Ivern Ball
 Job cpu time:       0 days 19 hours 43 minutes 28.3 seconds.
 Elapsed time:       0 days  0 hours 59 minutes 10.6 seconds.
 File lengths (MBytes):  RWF=   2409 Int=      0 D2E=      0 Chk=     47 Scr=      1
 Normal termination of Gaussian 16 at Tue Mar 26 20:25:50 2019.
