 Entering Gaussian System, Link 0=g09
 Initial command:
 /usr/local/Cluster-Apps/gaussian/g09/l1.exe "/rds/user/am2145/hpc-work/scratch/19184509/Gau-106085.inp" -scrdir="/rds/user/am2145/hpc-work/scratch/19184509/"
 Entering Link 1 = /usr/local/Cluster-Apps/gaussian/g09/l1.exe PID=    106086.
  
 Copyright (c) 1988,1990,1992,1993,1995,1998,2003,2009,2013,
            Gaussian, Inc.  All Rights Reserved.
  
 This is part of the Gaussian(R) 09 program.  It is based on
 the Gaussian(R) 03 system (copyright 2003, Gaussian, Inc.),
 the Gaussian(R) 98 system (copyright 1998, Gaussian, Inc.),
 the Gaussian(R) 94 system (copyright 1995, Gaussian, Inc.),
 the Gaussian 92(TM) system (copyright 1992, Gaussian, Inc.),
 the Gaussian 90(TM) system (copyright 1990, Gaussian, Inc.),
 the Gaussian 88(TM) system (copyright 1988, Gaussian, Inc.),
 the Gaussian 86(TM) system (copyright 1986, Carnegie Mellon
 University), and the Gaussian 82(TM) system (copyright 1983,
 Carnegie Mellon University). Gaussian is a federally registered
 trademark of Gaussian, Inc.
  
 This software contains proprietary and confidential information,
 including trade secrets, belonging to Gaussian, Inc.
  
 This software is provided under written license and may be
 used, copied, transmitted, or stored only in accord with that
 written license.
  
 The following legend is applicable only to US Government
 contracts under FAR:
  
                    RESTRICTED RIGHTS LEGEND
  
 Use, reproduction and disclosure by the US Government is
 subject to restrictions as set forth in subparagraphs (a)
 and (c) of the Commercial Computer Software - Restricted
 Rights clause in FAR 52.227-19.
  
 Gaussian, Inc.
 340 Quinnipiac St., Bldg. 40, Wallingford CT 06492
  
  
 ---------------------------------------------------------------
 Warning -- This program may not be used in any manner that
 competes with the business of Gaussian, Inc. or will provide
 assistance to any competitor of Gaussian, Inc.  The licensee
 of this program is prohibited from giving any competitor of
 Gaussian, Inc. access to this program.  By using this program,
 the user acknowledges that Gaussian, Inc. is engaged in the
 business of creating and licensing software in the field of
 computational chemistry and represents and warrants to the
 licensee that it is not a competitor of Gaussian, Inc. and that
 it will not use this program in any manner prohibited above.
 ---------------------------------------------------------------
  

 Cite this work as:
 Gaussian 09, Revision D.01,
 M. J. Frisch, G. W. Trucks, H. B. Schlegel, G. E. Scuseria, 
 M. A. Robb, J. R. Cheeseman, G. Scalmani, V. Barone, B. Mennucci, 
 G. A. Petersson, H. Nakatsuji, M. Caricato, X. Li, H. P. Hratchian, 
 A. F. Izmaylov, J. Bloino, G. Zheng, J. L. Sonnenberg, M. Hada, 
 M. Ehara, K. Toyota, R. Fukuda, J. Hasegawa, M. Ishida, T. Nakajima, 
 Y. Honda, O. Kitao, H. Nakai, T. Vreven, J. A. Montgomery, Jr., 
 J. E. Peralta, F. Ogliaro, M. Bearpark, J. J. Heyd, E. Brothers, 
 K. N. Kudin, V. N. Staroverov, T. Keith, R. Kobayashi, J. Normand, 
 K. Raghavachari, A. Rendell, J. C. Burant, S. S. Iyengar, J. Tomasi, 
 M. Cossi, N. Rega, J. M. Millam, M. Klene, J. E. Knox, J. B. Cross, 
 V. Bakken, C. Adamo, J. Jaramillo, R. Gomperts, R. E. Stratmann, 
 O. Yazyev, A. J. Austin, R. Cammi, C. Pomelli, J. W. Ochterski, 
 R. L. Martin, K. Morokuma, V. G. Zakrzewski, G. A. Voth, 
 P. Salvador, J. J. Dannenberg, S. Dapprich, A. D. Daniels, 
 O. Farkas, J. B. Foresman, J. V. Ortiz, J. Cioslowski, 
 and D. J. Fox, Gaussian, Inc., Wallingford CT, 2013.
 
 ******************************************
 Gaussian 09:  ES64L-G09RevD.01 24-Apr-2013
                 1-Feb-2020 
 ******************************************
 %NProcShared=20
 Will use up to   20 processors via shared memory.
 %mem=64GB
 %Chk=AS2b_Hmigclose.chk
 ------------------------------
 #n opt freq b3lyp/6-311+g(d,p)
 ------------------------------
 1/14=-1,18=20,19=15,26=3,38=1/1,3;
 2/9=110,12=2,17=6,18=5,40=1/2;
 3/5=4,6=6,7=111,11=2,16=1,25=1,30=1,71=1,74=-5/1,2,3;
 4//1;
 5/5=2,38=5/2;
 6/7=2,8=2,9=2,10=2,28=1/1;
 7//1,2,3,16;
 1/14=-1,18=20,19=15,26=3/3(2);
 2/9=110/2;
 99//99;
 2/9=110/2;
 3/5=4,6=6,7=111,11=2,16=1,25=1,30=1,71=1,74=-5/1,2,3;
 4/5=5,16=3,69=1/1;
 5/5=2,38=5/2;
 7//1,2,3,16;
 1/14=-1,18=20,19=15,26=3/3(-5);
 2/9=110/2;
 6/7=2,8=2,9=2,10=2,19=2,28=1/1;
 99/9=1/99;
 --------------
 AS2b_Hmigclose
 --------------
 Symbolic Z-matrix:
 Charge =  0 Multiplicity = 2
 C                    -1.44975   3.24015  -0.33367 
 C                    -0.23318   2.5067    0.00073 
 C                    -0.42304   1.1537    0.34787 
 C                    -2.70577   2.68108  -0.35835 
 C                    -2.89492   1.28269  -0.06185 
 C                    -1.73663   0.62428   0.32627 
 C                     0.48748   0.01681   0.41588 
 C                    -0.31109  -1.13953   0.43313 
 C                    -1.66943  -0.77307   0.39148 
 C                     0.1042   -2.44746   0.16701 
 C                     1.4846   -2.59708  -0.04824 
 C                     2.35189  -1.47036  -0.05434 
 C                     1.86245  -0.12112   0.17873 
 C                     3.735    -1.61637  -0.36697 
 C                     4.55228  -0.522    -0.47189 
 C                     2.73925   1.0045    0.10142 
 C                     4.05477   0.78641  -0.23771 
 H                    -1.34162   4.28914  -0.59069 
 H                    -3.5527    3.29576  -0.646 
 C                    -4.03453   0.43183  -0.26554 
 C                    -2.70812  -1.62417   0.0831 
 C                    -0.98374  -3.39725  -0.01201 
 H                     1.9083   -3.56855  -0.28358 
 H                     4.1295   -2.61236  -0.53845 
 H                     3.12352   3.07742   0.41496 
 H                     4.7397    1.62603  -0.29979 
 H                     5.59884  -0.64965  -0.72486 
 C                     1.04978   3.05413  -0.05446 
 C                     2.27834   2.39857   0.54429 
 H                     1.1695    4.0656   -0.43012 
 H                     2.10908   2.33479   1.63178 
 C                    -3.95178  -0.95608  -0.19644 
 C                    -2.30738  -3.01366  -0.05491 
 H                    -4.9854    0.87853  -0.53824 
 H                    -4.83967  -1.53999  -0.41642 
 H                    -3.06172  -3.76989  -0.24764 
 H                    -0.74138  -4.44301  -0.17212 
 

 GradGradGradGradGradGradGradGradGradGradGradGradGradGradGradGradGradGrad
 Berny optimization.
 Initialization pass.
                           ----------------------------
                           !    Initial Parameters    !
                           ! (Angstroms and Degrees)  !
 --------------------------                            --------------------------
 ! Name  Definition              Value          Derivative Info.                !
 --------------------------------------------------------------------------------
 ! R1    R(1,2)                  1.4594         estimate D2E/DX2                !
 ! R2    R(1,4)                  1.375          estimate D2E/DX2                !
 ! R3    R(1,18)                 1.0854         estimate D2E/DX2                !
 ! R4    R(2,3)                  1.4097         estimate D2E/DX2                !
 ! R5    R(2,28)                 1.396          estimate D2E/DX2                !
 ! R6    R(3,6)                  1.4164         estimate D2E/DX2                !
 ! R7    R(3,7)                  1.4581         estimate D2E/DX2                !
 ! R8    R(4,5)                  1.4419         estimate D2E/DX2                !
 ! R9    R(4,19)                 1.0853         estimate D2E/DX2                !
 ! R10   R(5,6)                  1.3877         estimate D2E/DX2                !
 ! R11   R(5,20)                 1.4367         estimate D2E/DX2                !
 ! R12   R(6,9)                  1.4005         estimate D2E/DX2                !
 ! R13   R(7,8)                  1.4054         estimate D2E/DX2                !
 ! R14   R(7,13)                 1.4021         estimate D2E/DX2                !
 ! R15   R(8,9)                  1.4075         estimate D2E/DX2                !
 ! R16   R(8,10)                 1.3978         estimate D2E/DX2                !
 ! R17   R(9,21)                 1.3778         estimate D2E/DX2                !
 ! R18   R(10,11)                1.4051         estimate D2E/DX2                !
 ! R19   R(10,22)                1.4553         estimate D2E/DX2                !
 ! R20   R(11,12)                1.4219         estimate D2E/DX2                !
 ! R21   R(11,23)                1.0857         estimate D2E/DX2                !
 ! R22   R(12,13)                1.4541         estimate D2E/DX2                !
 ! R23   R(12,14)                1.4255         estimate D2E/DX2                !
 ! R24   R(13,16)                1.4289         estimate D2E/DX2                !
 ! R25   R(14,15)                1.3699         estimate D2E/DX2                !
 ! R26   R(14,24)                1.0849         estimate D2E/DX2                !
 ! R27   R(15,17)                1.4193         estimate D2E/DX2                !
 ! R28   R(15,27)                1.0842         estimate D2E/DX2                !
 ! R29   R(16,17)                1.3759         estimate D2E/DX2                !
 ! R30   R(16,29)                1.5336         estimate D2E/DX2                !
 ! R31   R(17,26)                1.0853         estimate D2E/DX2                !
 ! R32   R(20,32)                1.3921         estimate D2E/DX2                !
 ! R33   R(20,34)                1.0854         estimate D2E/DX2                !
 ! R34   R(21,32)                1.4392         estimate D2E/DX2                !
 ! R35   R(21,33)                1.4527         estimate D2E/DX2                !
 ! R36   R(22,33)                1.3788         estimate D2E/DX2                !
 ! R37   R(22,37)                1.0854         estimate D2E/DX2                !
 ! R38   R(25,29)                1.0917         estimate D2E/DX2                !
 ! R39   R(28,29)                1.5158         estimate D2E/DX2                !
 ! R40   R(28,30)                1.0856         estimate D2E/DX2                !
 ! R41   R(29,31)                1.1024         estimate D2E/DX2                !
 ! R42   R(32,35)                1.0852         estimate D2E/DX2                !
 ! R43   R(33,36)                1.0854         estimate D2E/DX2                !
 ! A1    A(2,1,4)              124.141          estimate D2E/DX2                !
 ! A2    A(2,1,18)             117.1885         estimate D2E/DX2                !
 ! A3    A(4,1,18)             118.6648         estimate D2E/DX2                !
 ! A4    A(1,2,3)              115.247          estimate D2E/DX2                !
 ! A5    A(1,2,28)             124.0552         estimate D2E/DX2                !
 ! A6    A(3,2,28)             120.6575         estimate D2E/DX2                !
 ! A7    A(2,3,6)              118.6786         estimate D2E/DX2                !
 ! A8    A(2,3,7)              132.5103         estimate D2E/DX2                !
 ! A9    A(6,3,7)              106.7615         estimate D2E/DX2                !
 ! A10   A(1,4,5)              120.6928         estimate D2E/DX2                !
 ! A11   A(1,4,19)             119.1632         estimate D2E/DX2                !
 ! A12   A(5,4,19)             120.0926         estimate D2E/DX2                !
 ! A13   A(4,5,6)              114.0883         estimate D2E/DX2                !
 ! A14   A(4,5,20)             130.4841         estimate D2E/DX2                !
 ! A15   A(6,5,20)             114.8807         estimate D2E/DX2                !
 ! A16   A(3,6,5)              126.9413         estimate D2E/DX2                !
 ! A17   A(3,6,9)              109.1307         estimate D2E/DX2                !
 ! A18   A(5,6,9)              121.7669         estimate D2E/DX2                !
 ! A19   A(3,7,8)              106.6945         estimate D2E/DX2                !
 ! A20   A(3,7,13)             132.9358         estimate D2E/DX2                !
 ! A21   A(8,7,13)             118.5788         estimate D2E/DX2                !
 ! A22   A(7,8,9)              109.4984         estimate D2E/DX2                !
 ! A23   A(7,8,10)             126.7777         estimate D2E/DX2                !
 ! A24   A(9,8,10)             121.6474         estimate D2E/DX2                !
 ! A25   A(6,9,8)              107.9063         estimate D2E/DX2                !
 ! A26   A(6,9,21)             124.7324         estimate D2E/DX2                !
 ! A27   A(8,9,21)             124.9825         estimate D2E/DX2                !
 ! A28   A(8,10,11)            114.8774         estimate D2E/DX2                !
 ! A29   A(8,10,22)            114.3303         estimate D2E/DX2                !
 ! A30   A(11,10,22)           130.25           estimate D2E/DX2                !
 ! A31   A(10,11,12)           121.0328         estimate D2E/DX2                !
 ! A32   A(10,11,23)           120.7912         estimate D2E/DX2                !
 ! A33   A(12,11,23)           118.0402         estimate D2E/DX2                !
 ! A34   A(11,12,13)           121.9574         estimate D2E/DX2                !
 ! A35   A(11,12,14)           120.7704         estimate D2E/DX2                !
 ! A36   A(13,12,14)           117.1799         estimate D2E/DX2                !
 ! A37   A(7,13,12)            116.6467         estimate D2E/DX2                !
 ! A38   A(7,13,16)            122.2362         estimate D2E/DX2                !
 ! A39   A(12,13,16)           121.047          estimate D2E/DX2                !
 ! A40   A(12,14,15)           120.9194         estimate D2E/DX2                !
 ! A41   A(12,14,24)           118.7839         estimate D2E/DX2                !
 ! A42   A(15,14,24)           120.2884         estimate D2E/DX2                !
 ! A43   A(14,15,17)           120.9779         estimate D2E/DX2                !
 ! A44   A(14,15,27)           119.9792         estimate D2E/DX2                !
 ! A45   A(17,15,27)           119.0383         estimate D2E/DX2                !
 ! A46   A(13,16,17)           118.3692         estimate D2E/DX2                !
 ! A47   A(13,16,29)           121.0662         estimate D2E/DX2                !
 ! A48   A(17,16,29)           120.1721         estimate D2E/DX2                !
 ! A49   A(15,17,16)           121.4629         estimate D2E/DX2                !
 ! A50   A(15,17,26)           118.8507         estimate D2E/DX2                !
 ! A51   A(16,17,26)           119.66           estimate D2E/DX2                !
 ! A52   A(5,20,32)            122.4293         estimate D2E/DX2                !
 ! A53   A(5,20,34)            119.1294         estimate D2E/DX2                !
 ! A54   A(32,20,34)           118.3509         estimate D2E/DX2                !
 ! A55   A(9,21,32)            114.0905         estimate D2E/DX2                !
 ! A56   A(9,21,33)            113.8376         estimate D2E/DX2                !
 ! A57   A(32,21,33)           131.6025         estimate D2E/DX2                !
 ! A58   A(10,22,33)           122.6804         estimate D2E/DX2                !
 ! A59   A(10,22,37)           118.6896         estimate D2E/DX2                !
 ! A60   A(33,22,37)           118.5448         estimate D2E/DX2                !
 ! A61   A(2,28,29)            124.0337         estimate D2E/DX2                !
 ! A62   A(2,28,30)            118.7121         estimate D2E/DX2                !
 ! A63   A(29,28,30)           116.7604         estimate D2E/DX2                !
 ! A64   A(16,29,25)           107.3587         estimate D2E/DX2                !
 ! A65   A(16,29,28)           121.5103         estimate D2E/DX2                !
 ! A66   A(16,29,31)           106.1655         estimate D2E/DX2                !
 ! A67   A(25,29,28)           108.1645         estimate D2E/DX2                !
 ! A68   A(25,29,31)           105.7649         estimate D2E/DX2                !
 ! A69   A(28,29,31)           106.8721         estimate D2E/DX2                !
 ! A70   A(20,32,21)           121.5901         estimate D2E/DX2                !
 ! A71   A(20,32,35)           118.5384         estimate D2E/DX2                !
 ! A72   A(21,32,35)           119.7768         estimate D2E/DX2                !
 ! A73   A(21,33,22)           121.8691         estimate D2E/DX2                !
 ! A74   A(21,33,36)           119.444          estimate D2E/DX2                !
 ! A75   A(22,33,36)           118.6131         estimate D2E/DX2                !
 ! D1    D(4,1,2,3)             -1.8179         estimate D2E/DX2                !
 ! D2    D(4,1,2,28)           175.8813         estimate D2E/DX2                !
 ! D3    D(18,1,2,3)           179.0634         estimate D2E/DX2                !
 ! D4    D(18,1,2,28)           -3.2374         estimate D2E/DX2                !
 ! D5    D(2,1,4,5)             -0.8837         estimate D2E/DX2                !
 ! D6    D(2,1,4,19)          -178.2798         estimate D2E/DX2                !
 ! D7    D(18,1,4,5)           178.2229         estimate D2E/DX2                !
 ! D8    D(18,1,4,19)            0.8268         estimate D2E/DX2                !
 ! D9    D(1,2,3,6)              0.8893         estimate D2E/DX2                !
 ! D10   D(1,2,3,7)            162.2116         estimate D2E/DX2                !
 ! D11   D(28,2,3,6)          -176.8948         estimate D2E/DX2                !
 ! D12   D(28,2,3,7)           -15.5725         estimate D2E/DX2                !
 ! D13   D(1,2,28,29)          167.4213         estimate D2E/DX2                !
 ! D14   D(1,2,28,30)           -4.2427         estimate D2E/DX2                !
 ! D15   D(3,2,28,29)          -14.9979         estimate D2E/DX2                !
 ! D16   D(3,2,28,30)          173.3381         estimate D2E/DX2                !
 ! D17   D(2,3,6,5)              2.9836         estimate D2E/DX2                !
 ! D18   D(2,3,6,9)            166.3268         estimate D2E/DX2                !
 ! D19   D(7,3,6,5)           -162.7433         estimate D2E/DX2                !
 ! D20   D(7,3,6,9)              0.5999         estimate D2E/DX2                !
 ! D21   D(2,3,7,8)           -162.9773         estimate D2E/DX2                !
 ! D22   D(2,3,7,13)             1.0096         estimate D2E/DX2                !
 ! D23   D(6,3,7,8)             -0.0404         estimate D2E/DX2                !
 ! D24   D(6,3,7,13)           163.9465         estimate D2E/DX2                !
 ! D25   D(1,4,5,6)              4.2587         estimate D2E/DX2                !
 ! D26   D(1,4,5,20)          -166.6932         estimate D2E/DX2                !
 ! D27   D(19,4,5,6)          -178.3693         estimate D2E/DX2                !
 ! D28   D(19,4,5,20)           10.6788         estimate D2E/DX2                !
 ! D29   D(4,5,6,3)             -5.498          estimate D2E/DX2                !
 ! D30   D(4,5,6,9)           -166.9243         estimate D2E/DX2                !
 ! D31   D(20,5,6,3)           166.9255         estimate D2E/DX2                !
 ! D32   D(20,5,6,9)             5.4992         estimate D2E/DX2                !
 ! D33   D(4,5,20,32)          165.3615         estimate D2E/DX2                !
 ! D34   D(4,5,20,34)          -11.1225         estimate D2E/DX2                !
 ! D35   D(6,5,20,32)           -5.5327         estimate D2E/DX2                !
 ! D36   D(6,5,20,34)          177.9833         estimate D2E/DX2                !
 ! D37   D(3,6,9,8)             -0.9318         estimate D2E/DX2                !
 ! D38   D(3,6,9,21)          -164.097          estimate D2E/DX2                !
 ! D39   D(5,6,9,8)            163.4359         estimate D2E/DX2                !
 ! D40   D(5,6,9,21)             0.2707         estimate D2E/DX2                !
 ! D41   D(3,7,8,9)             -0.5319         estimate D2E/DX2                !
 ! D42   D(3,7,8,10)           163.1269         estimate D2E/DX2                !
 ! D43   D(13,7,8,9)          -167.236          estimate D2E/DX2                !
 ! D44   D(13,7,8,10)           -3.5772         estimate D2E/DX2                !
 ! D45   D(3,7,13,12)         -161.5376         estimate D2E/DX2                !
 ! D46   D(3,7,13,16)           15.4456         estimate D2E/DX2                !
 ! D47   D(8,7,13,12)            0.9513         estimate D2E/DX2                !
 ! D48   D(8,7,13,16)          177.9345         estimate D2E/DX2                !
 ! D49   D(7,8,9,6)              0.9103         estimate D2E/DX2                !
 ! D50   D(7,8,9,21)           164.0227         estimate D2E/DX2                !
 ! D51   D(10,8,9,6)          -163.7392         estimate D2E/DX2                !
 ! D52   D(10,8,9,21)           -0.6268         estimate D2E/DX2                !
 ! D53   D(7,8,10,11)            4.5314         estimate D2E/DX2                !
 ! D54   D(7,8,10,22)         -167.9035         estimate D2E/DX2                !
 ! D55   D(9,8,10,11)          166.3786         estimate D2E/DX2                !
 ! D56   D(9,8,10,22)           -6.0562         estimate D2E/DX2                !
 ! D57   D(6,9,21,32)           -5.9129         estimate D2E/DX2                !
 ! D58   D(6,9,21,33)          167.155          estimate D2E/DX2                !
 ! D59   D(8,9,21,32)         -166.258          estimate D2E/DX2                !
 ! D60   D(8,9,21,33)            6.8099         estimate D2E/DX2                !
 ! D61   D(8,10,11,12)          -3.0149         estimate D2E/DX2                !
 ! D62   D(8,10,11,23)        -178.6956         estimate D2E/DX2                !
 ! D63   D(22,10,11,12)        167.9422         estimate D2E/DX2                !
 ! D64   D(22,10,11,23)         -7.7385         estimate D2E/DX2                !
 ! D65   D(8,10,22,33)           6.4644         estimate D2E/DX2                !
 ! D66   D(8,10,22,37)        -176.9452         estimate D2E/DX2                !
 ! D67   D(11,10,22,33)       -164.5325         estimate D2E/DX2                !
 ! D68   D(11,10,22,37)         12.058          estimate D2E/DX2                !
 ! D69   D(10,11,12,13)          0.8973         estimate D2E/DX2                !
 ! D70   D(10,11,12,14)       -175.5118         estimate D2E/DX2                !
 ! D71   D(23,11,12,13)        176.6935         estimate D2E/DX2                !
 ! D72   D(23,11,12,14)          0.2844         estimate D2E/DX2                !
 ! D73   D(11,12,13,7)           0.2197         estimate D2E/DX2                !
 ! D74   D(11,12,13,16)       -176.8019         estimate D2E/DX2                !
 ! D75   D(14,12,13,7)         176.7515         estimate D2E/DX2                !
 ! D76   D(14,12,13,16)         -0.27           estimate D2E/DX2                !
 ! D77   D(11,12,14,15)        175.076          estimate D2E/DX2                !
 ! D78   D(11,12,14,24)         -3.8787         estimate D2E/DX2                !
 ! D79   D(13,12,14,15)         -1.4994         estimate D2E/DX2                !
 ! D80   D(13,12,14,24)        179.5459         estimate D2E/DX2                !
 ! D81   D(7,13,16,17)        -175.0081         estimate D2E/DX2                !
 ! D82   D(7,13,16,29)          12.1713         estimate D2E/DX2                !
 ! D83   D(12,13,16,17)          1.8445         estimate D2E/DX2                !
 ! D84   D(12,13,16,29)       -170.976          estimate D2E/DX2                !
 ! D85   D(12,14,15,17)          1.6905         estimate D2E/DX2                !
 ! D86   D(12,14,15,27)       -179.093          estimate D2E/DX2                !
 ! D87   D(24,14,15,17)       -179.3704         estimate D2E/DX2                !
 ! D88   D(24,14,15,27)         -0.1539         estimate D2E/DX2                !
 ! D89   D(14,15,17,16)         -0.0235         estimate D2E/DX2                !
 ! D90   D(14,15,17,26)        178.1011         estimate D2E/DX2                !
 ! D91   D(27,15,17,16)       -179.2472         estimate D2E/DX2                !
 ! D92   D(27,15,17,26)         -1.1226         estimate D2E/DX2                !
 ! D93   D(13,16,17,15)         -1.7167         estimate D2E/DX2                !
 ! D94   D(13,16,17,26)       -179.8265         estimate D2E/DX2                !
 ! D95   D(29,16,17,15)        171.1702         estimate D2E/DX2                !
 ! D96   D(29,16,17,26)         -6.9395         estimate D2E/DX2                !
 ! D97   D(13,16,29,25)        178.5991         estimate D2E/DX2                !
 ! D98   D(13,16,29,28)        -56.3192         estimate D2E/DX2                !
 ! D99   D(13,16,29,31)         65.8321         estimate D2E/DX2                !
 ! D100  D(17,16,29,25)          5.9069         estimate D2E/DX2                !
 ! D101  D(17,16,29,28)        130.9887         estimate D2E/DX2                !
 ! D102  D(17,16,29,31)       -106.8601         estimate D2E/DX2                !
 ! D103  D(5,20,32,21)          -0.1172         estimate D2E/DX2                !
 ! D104  D(5,20,32,35)        -176.5678         estimate D2E/DX2                !
 ! D105  D(34,20,32,21)        176.393          estimate D2E/DX2                !
 ! D106  D(34,20,32,35)         -0.0576         estimate D2E/DX2                !
 ! D107  D(9,21,32,20)           5.7126         estimate D2E/DX2                !
 ! D108  D(9,21,32,35)        -177.88           estimate D2E/DX2                !
 ! D109  D(33,21,32,20)       -165.7975         estimate D2E/DX2                !
 ! D110  D(33,21,32,35)         10.61           estimate D2E/DX2                !
 ! D111  D(9,21,33,22)          -6.2332         estimate D2E/DX2                !
 ! D112  D(9,21,33,36)         176.9328         estimate D2E/DX2                !
 ! D113  D(32,21,33,22)        165.2937         estimate D2E/DX2                !
 ! D114  D(32,21,33,36)        -11.5404         estimate D2E/DX2                !
 ! D115  D(10,22,33,21)         -0.29           estimate D2E/DX2                !
 ! D116  D(10,22,33,36)        176.5694         estimate D2E/DX2                !
 ! D117  D(37,22,33,21)       -176.8851         estimate D2E/DX2                !
 ! D118  D(37,22,33,36)         -0.0257         estimate D2E/DX2                !
 ! D119  D(2,28,29,16)          59.2382         estimate D2E/DX2                !
 ! D120  D(2,28,29,25)        -176.0501         estimate D2E/DX2                !
 ! D121  D(2,28,29,31)         -62.5775         estimate D2E/DX2                !
 ! D122  D(30,28,29,16)       -128.9489         estimate D2E/DX2                !
 ! D123  D(30,28,29,25)         -4.2372         estimate D2E/DX2                !
 ! D124  D(30,28,29,31)        109.2354         estimate D2E/DX2                !
 --------------------------------------------------------------------------------
 Trust Radius=3.00D-01 FncErr=1.00D-07 GrdErr=1.00D-06
 Number of steps in this run=    222 maximum allowed number of steps=    222.
 GradGradGradGradGradGradGradGradGradGradGradGradGradGradGradGradGradGrad

                          Input orientation:                          
 ---------------------------------------------------------------------
 Center     Atomic      Atomic             Coordinates (Angstroms)
 Number     Number       Type             X           Y           Z
 ---------------------------------------------------------------------
      1          6           0       -1.449750    3.240150   -0.333670
      2          6           0       -0.233180    2.506700    0.000730
      3          6           0       -0.423040    1.153700    0.347870
      4          6           0       -2.705770    2.681080   -0.358350
      5          6           0       -2.894920    1.282690   -0.061850
      6          6           0       -1.736630    0.624280    0.326270
      7          6           0        0.487480    0.016810    0.415880
      8          6           0       -0.311090   -1.139530    0.433130
      9          6           0       -1.669430   -0.773070    0.391480
     10          6           0        0.104200   -2.447460    0.167010
     11          6           0        1.484600   -2.597080   -0.048240
     12          6           0        2.351890   -1.470360   -0.054340
     13          6           0        1.862450   -0.121120    0.178730
     14          6           0        3.735000   -1.616370   -0.366970
     15          6           0        4.552280   -0.522000   -0.471890
     16          6           0        2.739250    1.004500    0.101420
     17          6           0        4.054770    0.786410   -0.237710
     18          1           0       -1.341620    4.289140   -0.590690
     19          1           0       -3.552700    3.295760   -0.646000
     20          6           0       -4.034530    0.431830   -0.265540
     21          6           0       -2.708120   -1.624170    0.083100
     22          6           0       -0.983740   -3.397250   -0.012010
     23          1           0        1.908300   -3.568550   -0.283580
     24          1           0        4.129500   -2.612360   -0.538450
     25          1           0        3.123520    3.077420    0.414960
     26          1           0        4.739700    1.626030   -0.299790
     27          1           0        5.598840   -0.649650   -0.724860
     28          6           0        1.049780    3.054130   -0.054460
     29          6           0        2.278340    2.398570    0.544290
     30          1           0        1.169500    4.065600   -0.430120
     31          1           0        2.109080    2.334790    1.631780
     32          6           0       -3.951780   -0.956080   -0.196440
     33          6           0       -2.307380   -3.013660   -0.054910
     34          1           0       -4.985400    0.878530   -0.538240
     35          1           0       -4.839670   -1.539990   -0.416420
     36          1           0       -3.061720   -3.769890   -0.247640
     37          1           0       -0.741380   -4.443010   -0.172120
 ---------------------------------------------------------------------
                    Distance matrix (angstroms):
                    1          2          3          4          5
     1  C    0.000000
     2  C    1.459389   0.000000
     3  C    2.423201   1.409667   0.000000
     4  C    1.375047   2.504605   2.835929   0.000000
     5  C    2.448275   2.930354   2.508924   1.441938   0.000000
     6  C    2.713042   2.431017   1.416429   2.374524   1.387724
     7  C    3.834659   2.625120   1.458146   4.230202   3.642981
     8  C    4.589785   3.672606   2.297543   4.577990   3.576078
     9  C    4.084120   3.601721   2.295176   3.683395   2.435874
    10  C    5.917292   4.968418   3.644042   5.871444   4.791776
    11  C    6.539506   5.385326   4.226623   6.746432   5.850897
    12  C    6.059653   4.743693   3.840273   6.550328   5.925230
    13  C    4.746721   3.365826   2.622449   5.386039   4.965997
    14  C    7.104120   5.734227   5.047136   7.742846   7.242478
    15  C    7.085001   5.683047   5.313547   7.934224   7.673710
    16  C    4.768140   3.331979   3.175386   5.715816   5.643396
    17  C    6.027420   4.626312   4.530849   7.022053   6.969606
    18  H    1.085418   2.180713   3.399363   2.121496   3.425077
    19  H    2.126744   3.472764   3.920583   1.085295   2.196897
    20  C    3.817380   4.338922   3.733661   2.614066   1.436720
    21  C    5.041706   4.816243   3.606696   4.327824   2.916460
    22  C    6.661510   5.951481   4.599461   6.327040   5.055386
    23  H    7.591930   6.447901   5.304104   7.768726   6.830418
    24  H    8.088377   6.747479   5.974478   8.647188   8.046182
    25  H    4.636995   3.429977   4.035256   5.893701   6.298414
    26  H    6.396548   5.059192   5.224600   7.520079   7.646040
    27  H    8.060161   6.670943   6.376979   8.955146   8.735988
    28  C    2.521946   1.395963   2.437766   3.786248   4.324201
    29  C    3.921444   2.571941   2.980895   5.073059   5.326839
    30  H    2.747934   2.140867   3.408902   4.115794   4.939607
    31  H    4.165086   2.859381   3.074903   5.221428   5.386586
    32  C    4.887467   5.085047   4.147222   3.848076   2.479346
    33  C    6.318495   5.897438   4.591281   5.716717   4.336343
    34  H    4.256750   5.052229   4.655753   2.911745   2.181834
    35  H    5.860729   6.145687   5.229410   4.730152   3.446055
    36  H    7.193505   6.888970   5.617740   6.461731   5.058745
    37  H    7.717437   6.970410   5.629822   7.392305   6.118295
                    6          7          8          9         10
     6  C    0.000000
     7  C    2.307318   0.000000
     8  C    2.270376   1.405395   0.000000
     9  C    1.400484   2.297121   1.407521   0.000000
    10  C    3.584635   2.506285   1.397844   2.449435   0.000000
    11  C    4.570967   2.835856   2.362345   3.669914   1.405070
    12  C    4.609596   2.430804   2.727368   4.105604   2.460860
    13  C    3.678419   1.402073   2.413743   3.597843   2.916066
    14  C    5.953136   3.718403   4.151913   5.522161   3.762785
    15  C    6.442159   4.195361   4.985255   6.286344   4.888865
    16  C    4.497625   2.478888   3.743190   4.762389   4.343250
    17  C    5.821054   3.707428   4.818714   5.966098   5.121398
    18  H    3.798427   4.755165   5.619667   5.167019   6.931543
    19  H    3.373459   5.310570   5.598603   4.602005   6.857002
    20  C    2.380676   4.591857   4.101380   2.734439   5.060286
    21  C    2.461392   3.607689   2.470455   1.377805   2.931551
    22  C    4.105360   3.742110   2.397479   2.742133   1.455253
    23  H    5.589030   3.919538   3.367418   4.590269   2.171325
    24  H    6.755373   4.592123   4.778288   6.154295   4.089976
    25  H    5.444889   4.039312   5.438708   6.148105   6.300958
    26  H    6.583183   4.602515   5.804823   6.878262   6.188625
    27  H    7.519102   5.279343   6.042201   7.354536   5.849669
    28  C    3.716612   3.124534   4.435820   4.715976   5.586650
    29  C    4.394954   2.982692   4.385847   5.066314   5.324775
    30  H    4.567319   4.192084   5.480030   5.669857   6.626566
    31  H    4.406777   3.079128   4.400555   5.047205   5.388414
    32  C    2.770858   4.585682   3.699275   2.363951   4.336737
    33  C    3.702116   4.149293   2.781316   2.372022   2.487076
    34  H    3.371428   5.621861   5.183175   3.819400   6.120753
    35  H    3.855452   5.612030   4.624948   3.360252   5.060212
    36  H    4.625361   5.232225   3.866291   3.365691   3.455981
    37  H    5.188096   4.663243   3.385920   3.827190   2.193681
                   11         12         13         14         15
    11  C    0.000000
    12  C    1.421875   0.000000
    13  C    2.514888   1.454071   0.000000
    14  C    2.475415   1.425500   2.457642   0.000000
    15  C    3.727747   2.432170   2.796283   1.369891   0.000000
    16  C    3.816795   2.509829   1.428907   2.842511   2.438435
    17  C    4.253196   2.833096   2.409004   2.427409   1.419258
    18  H    7.463364   6.863055   5.505312   7.790839   7.609155
    19  H    7.775427   7.611185   6.455935   8.793034   8.960821
    20  C    6.299390   6.667030   5.939487   8.035609   8.642088
    21  C    4.306124   5.064213   4.812319   6.458825   7.364523
    22  C    2.595050   3.852418   4.343985   5.056089   6.255084
    23  H    1.085661   2.156786   3.478593   2.674845   4.038262
    24  H    2.689988   2.167585   3.443855   1.084911   2.133724
    25  H    5.924573   4.636589   3.446268   4.797602   3.972868
    26  H    5.337941   3.917845   3.400012   3.395157   2.163048
    27  H    4.601877   3.415530   3.880261   2.129914   1.084240
    28  C    5.667917   4.708131   3.285882   5.396447   5.022993
    29  C    5.092900   3.915659   2.579813   4.367150   3.838379
    30  H    6.681050   5.673280   4.287132   6.234626   5.700089
    31  H    5.247455   4.169068   2.864206   4.717021   4.307656
    32  C    5.680587   6.326210   5.885846   7.716972   8.519585
    33  C    3.814800   4.908215   5.080242   6.209683   7.310074
    34  H    7.360765   7.719279   6.957470   9.071893   9.640188
    35  H    6.422569   7.201006   6.876468   8.575153   9.447122
    36  H    4.699390   5.884928   6.143514   7.130729   8.280826
    37  H    2.894441   4.291718   5.057841   5.297720   6.594469
                   16         17         18         19         20
    16  C    0.000000
    17  C    1.375923   0.000000
    18  H    5.284068   6.443193   0.000000
    19  H    6.737740   8.021043   2.424611   0.000000
    20  C    6.807842   8.097115   4.715541   2.928994   0.000000
    21  C    6.048478   7.186828   6.106435   5.044860   2.471447
    22  C    5.766188   6.552903   7.716446   7.197075   4.902392
    23  H    4.663849   4.855421   8.508795   8.779101   7.163839
    24  H    3.927328   3.412868   8.807189   9.691937   8.717394
    25  H    2.131424   2.557720   4.734667   6.763521   7.661586
    26  H    2.132855   1.085332   6.645241   8.465917   8.855191
    27  H    3.405320   2.164194   8.519368   9.966101   9.704761
    28  C    2.660750   3.769098   2.744374   4.646625   5.724615
    29  C    1.533624   2.523150   4.238696   6.018535   6.661548
    30  H    3.480946   4.372058   2.526158   4.789408   6.349275
    31  H    2.123391   3.110978   4.546008   6.177985   6.705596
    32  C    6.978716   8.194072   5.872027   4.294125   1.392091
    33  C    6.452792   7.412887   7.385841   6.458250   3.859898
    34  H    7.752113   9.045633   4.991207   2.811982   1.085385
    35  H    8.011405   9.195387   6.800403   5.009339   2.135202
    36  H    7.521163   8.450112   8.247690   7.093882   4.312903
    37  H    6.470315   7.096069   8.762758   8.247220   5.883675
                   21         22         23         24         25
    21  C    0.000000
    22  C    2.475145   0.000000
    23  H    5.022589   2.909809   0.000000
    24  H    6.936562   5.199848   2.431664   0.000000
    25  H    7.498207   7.679404   6.792175   5.856158   0.000000
    26  H    8.135135   7.620625   5.916143   4.288736   2.286797
    27  H    8.402861   7.168530   4.725970   2.458849   4.617082
    28  C    6.002268   6.764415   6.682024   6.467459   2.126334
    29  C    6.423388   6.673992   6.035629   5.450554   1.091738
    30  H    6.904550   7.778521   7.671215   7.305374   2.347095
    31  H    6.424733   6.717430   6.209536   5.767694   1.749640
    32  C    1.439158   3.847413   6.416629   8.256350   8.167178
    33  C    1.452695   1.378769   4.258186   6.467478   8.174149
    34  H    3.440287   5.879838   8.207586   9.760518   8.455666
    35  H    2.190916   4.298972   7.047539   9.033874   9.242514
    36  H    2.199667   2.124237   4.974226   7.289588   9.251048
    37  H    3.446602   1.085351   2.792473   5.216412   8.475788
                   26         27         28         29         30
    26  H    0.000000
    27  H    2.469317   0.000000
    28  C    3.964236   5.904352   0.000000
    29  C    2.714329   4.682746   1.515790   0.000000
    30  H    4.326062   6.476072   1.085599   2.226654   0.000000
    31  H    3.339680   5.161304   2.117303   1.102430   2.851306
    32  C    9.067513   9.570134   6.412296   7.114545   7.176307
    33  C    8.440855   8.279233   6.934594   7.118996   7.895910
    34  H    9.756699  10.695620   6.433559   7.499621   6.931948
    35  H   10.089679  10.480951   7.478140   8.191537   8.217843
    36  H    9.485822   9.217860   7.969253   8.197151   8.906819
    37  H    8.178740   7.409014   7.709034   7.512601   8.724361
                   31         32         33         34         35
    31  H    0.000000
    32  C    7.134861   0.000000
    33  C    7.138344   2.637749   0.000000
    34  H    7.560511   2.133305   4.749162   0.000000
    35  H    8.215484   1.085215   2.952098   2.425967   0.000000
    36  H    8.218060   2.951670   1.085384   5.039127   2.856930
    37  H    7.570849   4.739825   2.123473   6.816490   5.028239
                   36         37
    36  H    0.000000
    37  H    2.417183   0.000000
 Stoichiometry    C24H13(2)
 Framework group  C1[X(C24H13)]
 Deg. of freedom   105
 Full point group                 C1      NOp   1
 Largest Abelian subgroup         C1      NOp   1
 Largest concise Abelian subgroup C1      NOp   1
                         Standard orientation:                         
 ---------------------------------------------------------------------
 Center     Atomic      Atomic             Coordinates (Angstroms)
 Number     Number       Type             X           Y           Z
 ---------------------------------------------------------------------
      1          6           0       -1.449753    3.240149   -0.333670
      2          6           0       -0.233182    2.506700    0.000730
      3          6           0       -0.423041    1.153700    0.347870
      4          6           0       -2.705772    2.681078   -0.358350
      5          6           0       -2.894921    1.282688   -0.061850
      6          6           0       -1.736631    0.624279    0.326270
      7          6           0        0.487480    0.016810    0.415880
      8          6           0       -0.311089   -1.139530    0.433130
      9          6           0       -1.669430   -0.773071    0.391480
     10          6           0        0.104202   -2.447460    0.167010
     11          6           0        1.484602   -2.597079   -0.048240
     12          6           0        2.351891   -1.470358   -0.054340
     13          6           0        1.862450   -0.121119    0.178730
     14          6           0        3.735001   -1.616367   -0.366970
     15          6           0        4.552280   -0.521997   -0.471890
     16          6           0        2.739249    1.004502    0.101420
     17          6           0        4.054769    0.786413   -0.237710
     18          1           0       -1.341623    4.289139   -0.590690
     19          1           0       -3.552703    3.295757   -0.646000
     20          6           0       -4.034531    0.431827   -0.265540
     21          6           0       -2.708119   -1.624172    0.083100
     22          6           0       -0.983738   -3.397251   -0.012010
     23          1           0        1.908303   -3.568549   -0.283580
     24          1           0        4.129502   -2.612357   -0.538450
     25          1           0        3.123517    3.077422    0.414960
     26          1           0        4.739699    1.626034   -0.299790
     27          1           0        5.598840   -0.649646   -0.724860
     28          6           0        1.049777    3.054131   -0.054460
     29          6           0        2.278338    2.398572    0.544290
     30          1           0        1.169497    4.065601   -0.430120
     31          1           0        2.109078    2.334791    1.631780
     32          6           0       -3.951779   -0.956083   -0.196440
     33          6           0       -2.307378   -3.013662   -0.054910
     34          1           0       -4.985401    0.878526   -0.538240
     35          1           0       -4.839669   -1.539994   -0.416420
     36          1           0       -3.061717   -3.769892   -0.247640
     37          1           0       -0.741377   -4.443011   -0.172120
 ---------------------------------------------------------------------
 Rotational constants (GHZ):      0.4188706      0.2602567      0.1634309
 Standard basis: 6-311+G(d,p) (5D, 7F)
 There are   630 symmetry adapted cartesian basis functions of A   symmetry.
 There are   606 symmetry adapted basis functions of A   symmetry.
   606 basis functions,   968 primitive gaussians,   630 cartesian basis functions
    79 alpha electrons       78 beta electrons
       nuclear repulsion energy      1844.4638278290 Hartrees.
 NAtoms=   37 NActive=   37 NUniq=   37 SFac= 1.00D+00 NAtFMM=   60 NAOKFM=F Big=F
 Integral buffers will be    131072 words long.
 Raffenetti 2 integral format.
 Two-electron integral symmetry is turned on.
 One-electron integrals computed using PRISM.
 NBasis=   606 RedAO= T EigKep=  1.15D-06  NBF=   606
 NBsUse=   592 1.00D-06 EigRej=  8.20D-07 NBFU=   592
 ExpMin= 4.38D-02 ExpMax= 4.56D+03 ExpMxC= 6.82D+02 IAcc=2 IRadAn=         4 AccDes= 0.00D+00
 Harris functional with IExCor=  402 and IRadAn=       4 diagonalized for initial guess.
 HarFok:  IExCor=  402 AccDes= 0.00D+00 IRadAn=         4 IDoV= 1 UseB2=F ITyADJ=14
 ICtDFT=  3500011 ScaDFX=  1.000000  1.000000  1.000000  1.000000
 FoFCou: FMM=F IPFlag=           0 FMFlag=      100000 FMFlg1=           0
         NFxFlg=           0 DoJE=T BraDBF=F KetDBF=T FulRan=T
         wScrn=  0.000000 ICntrl=     500 IOpCl=  0 I1Cent=   200000004 NGrid=           0
         NMat0=    1 NMatS0=      1 NMatT0=    0 NMatD0=    1 NMtDS0=    0 NMtDT0=    0
 Petite list used in FoFCou.
 Initial guess <Sx>= 0.0000 <Sy>= 0.0000 <Sz>= 0.5000 <S**2>= 0.7500 S= 0.5000
 Requested convergence on RMS density matrix=1.00D-08 within 128 cycles.
 Requested convergence on MAX density matrix=1.00D-06.
 Requested convergence on             energy=1.00D-06.
 No special actions if energy rises.
 Restarting incremental Fock formation.
 SCF Done:  E(UB3LYP) =  -922.585705586     A.U. after   25 cycles
            NFock= 25  Conv=0.54D-08     -V/T= 2.0045
 <Sx>= 0.0000 <Sy>= 0.0000 <Sz>= 0.5000 <S**2>= 0.7890 S= 0.5193
 <L.S>= 0.000000000000E+00
 Annihilation of the first spin contaminant:
 S**2 before annihilation     0.7890,   after     0.7510

 **********************************************************************

            Population analysis using the SCF density.

 **********************************************************************

 Orbital symmetries:
 Alpha Orbitals:
       Occupied  (A) (A) (A) (A) (A) (A) (A) (A) (A) (A) (A) (A)
                 (A) (A) (A) (A) (A) (A) (A) (A) (A) (A) (A) (A)
                 (A) (A) (A) (A) (A) (A) (A) (A) (A) (A) (A) (A)
                 (A) (A) (A) (A) (A) (A) (A) (A) (A) (A) (A) (A)
                 (A) (A) (A) (A) (A) (A) (A) (A) (A) (A) (A) (A)
                 (A) (A) (A) (A) (A) (A) (A) (A) (A) (A) (A) (A)
                 (A) (A) (A) (A) (A) (A) (A)
       Virtual   (A) (A) (A) (A) (A) (A) (A) (A) (A) (A) (A) (A)
                 (A) (A) (A) (A) (A) (A) (A) (A) (A) (A) (A) (A)
                 (A) (A) (A) (A) (A) (A) (A) (A) (A) (A) (A) (A)
                 (A) (A) (A) (A) (A) (A) (A) (A) (A) (A) (A) (A)
                 (A) (A) (A) (A) (A) (A) (A) (A) (A) (A) (A) (A)
                 (A) (A) (A) (A) (A) (A) (A) (A) (A) (A) (A) (A)
                 (A) (A) (A) (A) (A) (A) (A) (A) (A) (A) (A) (A)
                 (A) (A) (A) (A) (A) (A) (A) (A) (A) (A) (A) (A)
                 (A) (A) (A) (A) (A) (A) (A) (A) (A) (A) (A) (A)
                 (A) (A) (A) (A) (A) (A) (A) (A) (A) (A) (A) (A)
                 (A) (A) (A) (A) (A) (A) (A) (A) (A) (A) (A) (A)
                 (A) (A) (A) (A) (A) (A) (A) (A) (A) (A) (A) (A)
                 (A) (A) (A) (A) (A) (A) (A) (A) (A) (A) (A) (A)
                 (A) (A) (A) (A) (A) (A) (A) (A) (A) (A) (A) (A)
                 (A) (A) (A) (A) (A) (A) (A) (A) (A) (A) (A) (A)
                 (A) (A) (A) (A) (A) (A) (A) (A) (A) (A) (A) (A)
                 (A) (A) (A) (A) (A) (A) (A) (A) (A) (A) (A) (A)
                 (A) (A) (A) (A) (A) (A) (A) (A) (A) (A) (A) (A)
                 (A) (A) (A) (A) (A) (A) (A) (A) (A) (A) (A) (A)
                 (A) (A) (A) (A) (A) (A) (A) (A) (A) (A) (A) (A)
                 (A) (A) (A) (A) (A) (A) (A) (A) (A) (A) (A) (A)
                 (A) (A) (A) (A) (A) (A) (A) (A) (A) (A) (A) (A)
                 (A) (A) (A) (A) (A) (A) (A) (A) (A) (A) (A) (A)
                 (A) (A) (A) (A) (A) (A) (A) (A) (A) (A) (A) (A)
                 (A) (A) (A) (A) (A) (A) (A) (A) (A) (A) (A) (A)
                 (A) (A) (A) (A) (A) (A) (A) (A) (A) (A) (A) (A)
                 (A) (A) (A) (A) (A) (A) (A) (A) (A) (A) (A) (A)
                 (A) (A) (A) (A) (A) (A) (A) (A) (A) (A) (A) (A)
                 (A) (A) (A) (A) (A) (A) (A) (A) (A) (A) (A) (A)
                 (A) (A) (A) (A) (A) (A) (A) (A) (A) (A) (A) (A)
                 (A) (A) (A) (A) (A) (A) (A) (A) (A) (A) (A) (A)
                 (A) (A) (A) (A) (A) (A) (A) (A) (A) (A) (A) (A)
                 (A) (A) (A) (A) (A) (A) (A) (A) (A) (A) (A) (A)
                 (A) (A) (A) (A) (A) (A) (A) (A) (A) (A) (A) (A)
                 (A) (A) (A) (A) (A) (A) (A) (A) (A) (A) (A) (A)
                 (A) (A) (A) (A) (A) (A) (A) (A) (A) (A) (A) (A)
                 (A) (A) (A) (A) (A) (A) (A) (A) (A) (A) (A) (A)
                 (A) (A) (A) (A) (A) (A) (A) (A) (A) (A) (A) (A)
                 (A) (A) (A) (A) (A) (A) (A) (A) (A) (A) (A) (A)
                 (A) (A) (A) (A) (A) (A) (A) (A) (A) (A) (A) (A)
                 (A) (A) (A) (A) (A) (A) (A) (A) (A) (A) (A) (A)
                 (A) (A) (A) (A) (A) (A) (A) (A) (A) (A) (A) (A)
                 (A) (A) (A) (A) (A) (A) (A) (A) (A)
 Beta  Orbitals:
       Occupied  (A) (A) (A) (A) (A) (A) (A) (A) (A) (A) (A) (A)
                 (A) (A) (A) (A) (A) (A) (A) (A) (A) (A) (A) (A)
                 (A) (A) (A) (A) (A) (A) (A) (A) (A) (A) (A) (A)
                 (A) (A) (A) (A) (A) (A) (A) (A) (A) (A) (A) (A)
                 (A) (A) (A) (A) (A) (A) (A) (A) (A) (A) (A) (A)
                 (A) (A) (A) (A) (A) (A) (A) (A) (A) (A) (A) (A)
                 (A) (A) (A) (A) (A) (A)
       Virtual   (A) (A) (A) (A) (A) (A) (A) (A) (A) (A) (A) (A)
                 (A) (A) (A) (A) (A) (A) (A) (A) (A) (A) (A) (A)
                 (A) (A) (A) (A) (A) (A) (A) (A) (A) (A) (A) (A)
                 (A) (A) (A) (A) (A) (A) (A) (A) (A) (A) (A) (A)
                 (A) (A) (A) (A) (A) (A) (A) (A) (A) (A) (A) (A)
                 (A) (A) (A) (A) (A) (A) (A) (A) (A) (A) (A) (A)
                 (A) (A) (A) (A) (A) (A) (A) (A) (A) (A) (A) (A)
                 (A) (A) (A) (A) (A) (A) (A) (A) (A) (A) (A) (A)
                 (A) (A) (A) (A) (A) (A) (A) (A) (A) (A) (A) (A)
                 (A) (A) (A) (A) (A) (A) (A) (A) (A) (A) (A) (A)
                 (A) (A) (A) (A) (A) (A) (A) (A) (A) (A) (A) (A)
                 (A) (A) (A) (A) (A) (A) (A) (A) (A) (A) (A) (A)
                 (A) (A) (A) (A) (A) (A) (A) (A) (A) (A) (A) (A)
                 (A) (A) (A) (A) (A) (A) (A) (A) (A) (A) (A) (A)
                 (A) (A) (A) (A) (A) (A) (A) (A) (A) (A) (A) (A)
                 (A) (A) (A) (A) (A) (A) (A) (A) (A) (A) (A) (A)
                 (A) (A) (A) (A) (A) (A) (A) (A) (A) (A) (A) (A)
                 (A) (A) (A) (A) (A) (A) (A) (A) (A) (A) (A) (A)
                 (A) (A) (A) (A) (A) (A) (A) (A) (A) (A) (A) (A)
                 (A) (A) (A) (A) (A) (A) (A) (A) (A) (A) (A) (A)
                 (A) (A) (A) (A) (A) (A) (A) (A) (A) (A) (A) (A)
                 (A) (A) (A) (A) (A) (A) (A) (A) (A) (A) (A) (A)
                 (A) (A) (A) (A) (A) (A) (A) (A) (A) (A) (A) (A)
                 (A) (A) (A) (A) (A) (A) (A) (A) (A) (A) (A) (A)
                 (A) (A) (A) (A) (A) (A) (A) (A) (A) (A) (A) (A)
                 (A) (A) (A) (A) (A) (A) (A) (A) (A) (A) (A) (A)
                 (A) (A) (A) (A) (A) (A) (A) (A) (A) (A) (A) (A)
                 (A) (A) (A) (A) (A) (A) (A) (A) (A) (A) (A) (A)
                 (A) (A) (A) (A) (A) (A) (A) (A) (A) (A) (A) (A)
                 (A) (A) (A) (A) (A) (A) (A) (A) (A) (A) (A) (A)
                 (A) (A) (A) (A) (A) (A) (A) (A) (A) (A) (A) (A)
                 (A) (A) (A) (A) (A) (A) (A) (A) (A) (A) (A) (A)
                 (A) (A) (A) (A) (A) (A) (A) (A) (A) (A) (A) (A)
                 (A) (A) (A) (A) (A) (A) (A) (A) (A) (A) (A) (A)
                 (A) (A) (A) (A) (A) (A) (A) (A) (A) (A) (A) (A)
                 (A) (A) (A) (A) (A) (A) (A) (A) (A) (A) (A) (A)
                 (A) (A) (A) (A) (A) (A) (A) (A) (A) (A) (A) (A)
                 (A) (A) (A) (A) (A) (A) (A) (A) (A) (A) (A) (A)
                 (A) (A) (A) (A) (A) (A) (A) (A) (A) (A) (A) (A)
                 (A) (A) (A) (A) (A) (A) (A) (A) (A) (A) (A) (A)
                 (A) (A) (A) (A) (A) (A) (A) (A) (A) (A) (A) (A)
                 (A) (A) (A) (A) (A) (A) (A) (A) (A) (A) (A) (A)
                 (A) (A) (A) (A) (A) (A) (A) (A) (A) (A)
 The electronic state is 2-A.
 Alpha  occ. eigenvalues --  -10.19900 -10.19564 -10.19514 -10.19442 -10.19395
 Alpha  occ. eigenvalues --  -10.19367 -10.19323 -10.19227 -10.19208 -10.19064
 Alpha  occ. eigenvalues --  -10.19010 -10.19008 -10.19002 -10.18960 -10.18859
 Alpha  occ. eigenvalues --  -10.18827 -10.18765 -10.18186 -10.18142 -10.18116
 Alpha  occ. eigenvalues --  -10.17943 -10.16938 -10.16707 -10.16653  -0.92125
 Alpha  occ. eigenvalues --   -0.87867  -0.86415  -0.83941  -0.81796  -0.81550
 Alpha  occ. eigenvalues --   -0.78600  -0.77111  -0.75323  -0.72878  -0.72634
 Alpha  occ. eigenvalues --   -0.70571  -0.67250  -0.65226  -0.63691  -0.62043
 Alpha  occ. eigenvalues --   -0.59943  -0.59536  -0.57484  -0.56144  -0.53183
 Alpha  occ. eigenvalues --   -0.51654  -0.51044  -0.49935  -0.48949  -0.47666
 Alpha  occ. eigenvalues --   -0.46367  -0.45035  -0.44799  -0.44138  -0.43744
 Alpha  occ. eigenvalues --   -0.43167  -0.42789  -0.42096  -0.41474  -0.40352
 Alpha  occ. eigenvalues --   -0.40075  -0.40007  -0.38779  -0.37618  -0.36823
 Alpha  occ. eigenvalues --   -0.36467  -0.35343  -0.34967  -0.34112  -0.33432
 Alpha  occ. eigenvalues --   -0.33130  -0.31991  -0.30369  -0.27764  -0.27241
 Alpha  occ. eigenvalues --   -0.24055  -0.23625  -0.21079  -0.18478
 Alpha virt. eigenvalues --   -0.08423  -0.04362  -0.02581  -0.01712  -0.00107
 Alpha virt. eigenvalues --    0.00630   0.00779   0.01022   0.01265   0.01869
 Alpha virt. eigenvalues --    0.01966   0.02656   0.03380   0.03564   0.03874
 Alpha virt. eigenvalues --    0.04258   0.04801   0.05443   0.05619   0.05731
 Alpha virt. eigenvalues --    0.06332   0.06815   0.07349   0.07664   0.08193
 Alpha virt. eigenvalues --    0.08430   0.08462   0.09069   0.09757   0.10034
 Alpha virt. eigenvalues --    0.10296   0.10507   0.11211   0.11512   0.11601
 Alpha virt. eigenvalues --    0.11979   0.12378   0.13184   0.13515   0.13808
 Alpha virt. eigenvalues --    0.14422   0.14464   0.14889   0.15007   0.15741
 Alpha virt. eigenvalues --    0.16106   0.16281   0.16551   0.16930   0.17057
 Alpha virt. eigenvalues --    0.17107   0.17322   0.17603   0.17842   0.17944
 Alpha virt. eigenvalues --    0.18237   0.18597   0.18774   0.19166   0.19203
 Alpha virt. eigenvalues --    0.19620   0.19888   0.20296   0.20432   0.20568
 Alpha virt. eigenvalues --    0.20759   0.21329   0.21609   0.21805   0.22292
 Alpha virt. eigenvalues --    0.22467   0.22574   0.22975   0.23187   0.23331
 Alpha virt. eigenvalues --    0.23792   0.23917   0.24111   0.24510   0.24833
 Alpha virt. eigenvalues --    0.24927   0.25278   0.25378   0.25608   0.25702
 Alpha virt. eigenvalues --    0.26290   0.26421   0.26832   0.27234   0.27600
 Alpha virt. eigenvalues --    0.27698   0.28401   0.28630   0.28658   0.29108
 Alpha virt. eigenvalues --    0.29292   0.29858   0.30140   0.30627   0.31187
 Alpha virt. eigenvalues --    0.31239   0.31748   0.32016   0.32467   0.32579
 Alpha virt. eigenvalues --    0.33057   0.33376   0.34038   0.34507   0.34937
 Alpha virt. eigenvalues --    0.35142   0.35628   0.36183   0.36502   0.36998
 Alpha virt. eigenvalues --    0.37888   0.38379   0.38610   0.38951   0.39244
 Alpha virt. eigenvalues --    0.40118   0.40706   0.41795   0.42248   0.43106
 Alpha virt. eigenvalues --    0.45064   0.45633   0.46378   0.47866   0.48328
 Alpha virt. eigenvalues --    0.49091   0.49832   0.50210   0.51190   0.51492
 Alpha virt. eigenvalues --    0.52516   0.52856   0.53169   0.53719   0.54127
 Alpha virt. eigenvalues --    0.54479   0.54876   0.55111   0.55602   0.56767
 Alpha virt. eigenvalues --    0.56917   0.57371   0.58047   0.58522   0.58617
 Alpha virt. eigenvalues --    0.58982   0.59400   0.59578   0.60220   0.60417
 Alpha virt. eigenvalues --    0.61618   0.62226   0.62475   0.62924   0.63577
 Alpha virt. eigenvalues --    0.63695   0.64651   0.65344   0.65707   0.66725
 Alpha virt. eigenvalues --    0.67111   0.67914   0.68289   0.68658   0.69114
 Alpha virt. eigenvalues --    0.69393   0.69670   0.69834   0.70328   0.70933
 Alpha virt. eigenvalues --    0.71205   0.71615   0.72404   0.72442   0.72972
 Alpha virt. eigenvalues --    0.73198   0.73690   0.74150   0.74666   0.75300
 Alpha virt. eigenvalues --    0.75707   0.76073   0.76590   0.77141   0.77273
 Alpha virt. eigenvalues --    0.77462   0.77883   0.78355   0.80803   0.82579
 Alpha virt. eigenvalues --    0.83195   0.83606   0.83755   0.84985   0.85993
 Alpha virt. eigenvalues --    0.86515   0.87011   0.87475   0.88141   0.89140
 Alpha virt. eigenvalues --    0.89586   0.89772   0.90371   0.90572   0.91295
 Alpha virt. eigenvalues --    0.91681   0.91881   0.92198   0.92358   0.93160
 Alpha virt. eigenvalues --    0.93981   0.94378   0.94644   0.94809   0.95703
 Alpha virt. eigenvalues --    0.95913   0.95995   0.96907   0.98053   0.98466
 Alpha virt. eigenvalues --    0.99319   1.00317   1.00905   1.02124   1.03215
 Alpha virt. eigenvalues --    1.03326   1.03882   1.04348   1.05324   1.06097
 Alpha virt. eigenvalues --    1.06785   1.07573   1.09095   1.09358   1.10407
 Alpha virt. eigenvalues --    1.10658   1.11356   1.12323   1.13008   1.15636
 Alpha virt. eigenvalues --    1.17494   1.18920   1.19555   1.21165   1.22314
 Alpha virt. eigenvalues --    1.22761   1.24387   1.25171   1.27101   1.28132
 Alpha virt. eigenvalues --    1.29218   1.31863   1.34408   1.37060   1.37435
 Alpha virt. eigenvalues --    1.38143   1.39048   1.39510   1.40969   1.43412
 Alpha virt. eigenvalues --    1.44161   1.44750   1.45398   1.45993   1.48665
 Alpha virt. eigenvalues --    1.48829   1.49396   1.50518   1.51316   1.51463
 Alpha virt. eigenvalues --    1.51985   1.52858   1.53317   1.54546   1.54887
 Alpha virt. eigenvalues --    1.55806   1.56266   1.56530   1.57179   1.58094
 Alpha virt. eigenvalues --    1.59097   1.59592   1.61524   1.61631   1.63635
 Alpha virt. eigenvalues --    1.64538   1.66260   1.66867   1.67200   1.68718
 Alpha virt. eigenvalues --    1.69225   1.69938   1.70504   1.71260   1.71675
 Alpha virt. eigenvalues --    1.72375   1.73470   1.73811   1.75182   1.75412
 Alpha virt. eigenvalues --    1.75827   1.76857   1.77807   1.78917   1.80281
 Alpha virt. eigenvalues --    1.80848   1.81535   1.82178   1.83208   1.84271
 Alpha virt. eigenvalues --    1.85019   1.85566   1.86413   1.86955   1.87340
 Alpha virt. eigenvalues --    1.88054   1.88573   1.89863   1.90632   1.90906
 Alpha virt. eigenvalues --    1.92267   1.92529   1.94031   1.94312   1.96519
 Alpha virt. eigenvalues --    1.96532   1.96600   1.97403   1.97946   1.98434
 Alpha virt. eigenvalues --    2.00144   2.00327   2.01469   2.03085   2.03660
 Alpha virt. eigenvalues --    2.04721   2.05176   2.05649   2.07121   2.09409
 Alpha virt. eigenvalues --    2.10524   2.10709   2.12401   2.12757   2.14458
 Alpha virt. eigenvalues --    2.15452   2.17511   2.18531   2.19162   2.20166
 Alpha virt. eigenvalues --    2.21407   2.22365   2.22865   2.23735   2.24293
 Alpha virt. eigenvalues --    2.25853   2.27632   2.29227   2.29941   2.33520
 Alpha virt. eigenvalues --    2.35247   2.36682   2.36728   2.39468   2.40090
 Alpha virt. eigenvalues --    2.41749   2.42274   2.42643   2.44415   2.46657
 Alpha virt. eigenvalues --    2.48091   2.49796   2.51644   2.54517   2.55254
 Alpha virt. eigenvalues --    2.56446   2.56874   2.57263   2.58203   2.60489
 Alpha virt. eigenvalues --    2.61792   2.63258   2.66588   2.67207   2.68610
 Alpha virt. eigenvalues --    2.69732   2.70594   2.71319   2.71509   2.71829
 Alpha virt. eigenvalues --    2.72545   2.73310   2.73961   2.74700   2.75270
 Alpha virt. eigenvalues --    2.75739   2.76271   2.76335   2.77006   2.77533
 Alpha virt. eigenvalues --    2.77799   2.78457   2.79332   2.79615   2.79998
 Alpha virt. eigenvalues --    2.80972   2.81650   2.83339   2.84265   2.85272
 Alpha virt. eigenvalues --    2.86449   2.87966   2.88441   2.88809   2.89456
 Alpha virt. eigenvalues --    2.91149   2.91933   2.93732   2.93923   2.96748
 Alpha virt. eigenvalues --    2.98307   3.00216   3.02391   3.03529   3.04932
 Alpha virt. eigenvalues --    3.07487   3.08442   3.11792   3.13004   3.14380
 Alpha virt. eigenvalues --    3.17813   3.18676   3.19532   3.19822   3.21868
 Alpha virt. eigenvalues --    3.22106   3.23412   3.27141   3.28324   3.30694
 Alpha virt. eigenvalues --    3.34477   3.35362   3.36867   3.38081   3.40122
 Alpha virt. eigenvalues --    3.40514   3.42120   3.42926   3.45141   3.45803
 Alpha virt. eigenvalues --    3.48148   3.50897   3.51486   3.54833   3.57749
 Alpha virt. eigenvalues --    3.58198   3.60944   3.64748   3.66352   3.71123
 Alpha virt. eigenvalues --    3.79908   3.82394   3.83207   3.85385   3.88906
 Alpha virt. eigenvalues --    4.02067   4.05354   4.05921   4.06238   4.07533
 Alpha virt. eigenvalues --    4.09828   4.12038   4.20423   4.24919   4.28201
 Alpha virt. eigenvalues --    4.32955   4.44318   4.57532   4.69882   4.74153
 Alpha virt. eigenvalues --    4.75419   4.82285   4.84843   4.89455  23.39854
 Alpha virt. eigenvalues --   23.63458  23.72583  23.81733  23.84477  23.84791
 Alpha virt. eigenvalues --   23.88159  23.89150  23.93178  23.95479  23.96869
 Alpha virt. eigenvalues --   23.99072  24.00057  24.04501  24.06003  24.08271
 Alpha virt. eigenvalues --   24.09926  24.10201  24.12106  24.13014  24.14049
 Alpha virt. eigenvalues --   24.15175  24.18741  24.19185
  Beta  occ. eigenvalues --  -10.19795 -10.19562 -10.19423 -10.19385 -10.19324
  Beta  occ. eigenvalues --  -10.19275 -10.19254 -10.19154 -10.19072 -10.19025
  Beta  occ. eigenvalues --  -10.19008 -10.18967 -10.18934 -10.18855 -10.18818
  Beta  occ. eigenvalues --  -10.18783 -10.18354 -10.18289 -10.18084 -10.18067
  Beta  occ. eigenvalues --  -10.17971 -10.16842 -10.16789 -10.16609  -0.91927
  Beta  occ. eigenvalues --   -0.87769  -0.86169  -0.83767  -0.81460  -0.81362
  Beta  occ. eigenvalues --   -0.78435  -0.76888  -0.75061  -0.72641  -0.72578
  Beta  occ. eigenvalues --   -0.70240  -0.66866  -0.65016  -0.63583  -0.61837
  Beta  occ. eigenvalues --   -0.59831  -0.59175  -0.57296  -0.56085  -0.52985
  Beta  occ. eigenvalues --   -0.51527  -0.50965  -0.49790  -0.48842  -0.47513
  Beta  occ. eigenvalues --   -0.46228  -0.44770  -0.44704  -0.43882  -0.43625
  Beta  occ. eigenvalues --   -0.42935  -0.42480  -0.41991  -0.41268  -0.40285
  Beta  occ. eigenvalues --   -0.39966  -0.39882  -0.38405  -0.37440  -0.36568
  Beta  occ. eigenvalues --   -0.36224  -0.35141  -0.34792  -0.33806  -0.33357
  Beta  occ. eigenvalues --   -0.33008  -0.31611  -0.29827  -0.27206  -0.26791
  Beta  occ. eigenvalues --   -0.23531  -0.22767  -0.20704
  Beta virt. eigenvalues --   -0.11591  -0.07352  -0.03892  -0.02216  -0.01001
  Beta virt. eigenvalues --   -0.00035   0.00681   0.00821   0.01276   0.01486
  Beta virt. eigenvalues --    0.01883   0.01995   0.02707   0.03406   0.03586
  Beta virt. eigenvalues --    0.03999   0.04394   0.04868   0.05502   0.05622
  Beta virt. eigenvalues --    0.05860   0.06419   0.06850   0.07386   0.07729
  Beta virt. eigenvalues --    0.08250   0.08455   0.08619   0.09617   0.09798
  Beta virt. eigenvalues --    0.10082   0.10356   0.10647   0.11254   0.11565
  Beta virt. eigenvalues --    0.11639   0.12021   0.12491   0.13224   0.13534
  Beta virt. eigenvalues --    0.13839   0.14490   0.14592   0.14953   0.15106
  Beta virt. eigenvalues --    0.15830   0.16145   0.16326   0.16623   0.16983
  Beta virt. eigenvalues --    0.17122   0.17140   0.17415   0.17658   0.17870
  Beta virt. eigenvalues --    0.18003   0.18309   0.18670   0.19050   0.19219
  Beta virt. eigenvalues --    0.19313   0.19711   0.19925   0.20403   0.20491
  Beta virt. eigenvalues --    0.20666   0.20815   0.21433   0.21762   0.21895
  Beta virt. eigenvalues --    0.22403   0.22561   0.22684   0.23027   0.23270
  Beta virt. eigenvalues --    0.23367   0.23868   0.24001   0.24168   0.24549
  Beta virt. eigenvalues --    0.24921   0.25027   0.25312   0.25472   0.25677
  Beta virt. eigenvalues --    0.25786   0.26331   0.26489   0.26924   0.27271
  Beta virt. eigenvalues --    0.27663   0.27794   0.28451   0.28664   0.28740
  Beta virt. eigenvalues --    0.29190   0.29378   0.29916   0.30215   0.30700
  Beta virt. eigenvalues --    0.31225   0.31308   0.31854   0.32050   0.32511
  Beta virt. eigenvalues --    0.32649   0.33193   0.33424   0.34159   0.34580
  Beta virt. eigenvalues --    0.35045   0.35206   0.35694   0.36314   0.36566
  Beta virt. eigenvalues --    0.37149   0.38062   0.38419   0.38709   0.39015
  Beta virt. eigenvalues --    0.39274   0.40307   0.40825   0.41994   0.42346
  Beta virt. eigenvalues --    0.43221   0.45211   0.45743   0.46423   0.47955
  Beta virt. eigenvalues --    0.48397   0.49154   0.49933   0.50370   0.51342
  Beta virt. eigenvalues --    0.51588   0.52723   0.53067   0.53242   0.53905
  Beta virt. eigenvalues --    0.54276   0.54609   0.55185   0.55242   0.55667
  Beta virt. eigenvalues --    0.56851   0.57111   0.57537   0.58132   0.58560
  Beta virt. eigenvalues --    0.58858   0.59037   0.59693   0.59823   0.60491
  Beta virt. eigenvalues --    0.60603   0.61793   0.62387   0.62641   0.63269
  Beta virt. eigenvalues --    0.63725   0.63864   0.64961   0.65489   0.65866
  Beta virt. eigenvalues --    0.67008   0.67331   0.68103   0.68377   0.68860
  Beta virt. eigenvalues --    0.69243   0.69568   0.69821   0.69941   0.70443
  Beta virt. eigenvalues --    0.71016   0.71253   0.71682   0.72438   0.72624
  Beta virt. eigenvalues --    0.73066   0.73371   0.73765   0.74204   0.74905
  Beta virt. eigenvalues --    0.75473   0.75849   0.76221   0.76725   0.77291
  Beta virt. eigenvalues --    0.77431   0.77555   0.78023   0.78507   0.80927
  Beta virt. eigenvalues --    0.82672   0.83261   0.83628   0.83879   0.85070
  Beta virt. eigenvalues --    0.86136   0.86557   0.87139   0.87609   0.88312
  Beta virt. eigenvalues --    0.89227   0.89710   0.89905   0.90396   0.90774
  Beta virt. eigenvalues --    0.91499   0.91858   0.92124   0.92396   0.92568
  Beta virt. eigenvalues --    0.93265   0.94125   0.94499   0.94702   0.94875
  Beta virt. eigenvalues --    0.95782   0.96059   0.96329   0.97121   0.98251
  Beta virt. eigenvalues --    0.98609   0.99576   1.00379   1.01057   1.02265
  Beta virt. eigenvalues --    1.03279   1.03580   1.04058   1.04506   1.05441
  Beta virt. eigenvalues --    1.06212   1.06906   1.07717   1.09276   1.09503
  Beta virt. eigenvalues --    1.10519   1.10785   1.11497   1.12415   1.13136
  Beta virt. eigenvalues --    1.15811   1.17769   1.19050   1.19680   1.21321
  Beta virt. eigenvalues --    1.22516   1.22975   1.24514   1.25344   1.27292
  Beta virt. eigenvalues --    1.28345   1.29346   1.32080   1.34705   1.37308
  Beta virt. eigenvalues --    1.37561   1.38267   1.39315   1.39687   1.41145
  Beta virt. eigenvalues --    1.43665   1.44343   1.45021   1.45527   1.46069
  Beta virt. eigenvalues --    1.48787   1.48973   1.49590   1.50643   1.51493
  Beta virt. eigenvalues --    1.51576   1.52153   1.53008   1.53565   1.54669
  Beta virt. eigenvalues --    1.55034   1.55994   1.56445   1.56605   1.57297
  Beta virt. eigenvalues --    1.58238   1.59350   1.59743   1.61592   1.61829
  Beta virt. eigenvalues --    1.63837   1.64767   1.66396   1.66957   1.67317
  Beta virt. eigenvalues --    1.68837   1.69424   1.70014   1.70622   1.71401
  Beta virt. eigenvalues --    1.71772   1.72527   1.73580   1.73984   1.75454
  Beta virt. eigenvalues --    1.75797   1.76028   1.77184   1.78013   1.79143
  Beta virt. eigenvalues --    1.80386   1.81141   1.81673   1.82536   1.83394
  Beta virt. eigenvalues --    1.84399   1.85393   1.85844   1.86555   1.86957
  Beta virt. eigenvalues --    1.87538   1.88244   1.88838   1.90063   1.90752
  Beta virt. eigenvalues --    1.91107   1.92362   1.92691   1.94101   1.94472
  Beta virt. eigenvalues --    1.96655   1.96686   1.96894   1.97546   1.98127
  Beta virt. eigenvalues --    1.98654   2.00401   2.00453   2.01624   2.03256
  Beta virt. eigenvalues --    2.03864   2.05038   2.05338   2.05903   2.07310
  Beta virt. eigenvalues --    2.09551   2.10650   2.10837   2.12531   2.12900
  Beta virt. eigenvalues --    2.14655   2.15586   2.17623   2.18761   2.19243
  Beta virt. eigenvalues --    2.20262   2.21650   2.22548   2.23028   2.23931
  Beta virt. eigenvalues --    2.24449   2.26289   2.27830   2.29331   2.30185
  Beta virt. eigenvalues --    2.33698   2.35310   2.36802   2.37005   2.39608
  Beta virt. eigenvalues --    2.40232   2.41847   2.42370   2.42958   2.44639
  Beta virt. eigenvalues --    2.46829   2.48292   2.50055   2.51763   2.54609
  Beta virt. eigenvalues --    2.55346   2.56623   2.57018   2.57401   2.58351
  Beta virt. eigenvalues --    2.60692   2.61863   2.63442   2.66701   2.67340
  Beta virt. eigenvalues --    2.68931   2.69784   2.70708   2.71419   2.71529
  Beta virt. eigenvalues --    2.71897   2.72650   2.73503   2.74233   2.74733
  Beta virt. eigenvalues --    2.75323   2.75802   2.76362   2.76397   2.77041
  Beta virt. eigenvalues --    2.77704   2.77903   2.78560   2.79524   2.79671
  Beta virt. eigenvalues --    2.80323   2.81056   2.82184   2.83433   2.84402
  Beta virt. eigenvalues --    2.85629   2.86749   2.88044   2.88522   2.89102
  Beta virt. eigenvalues --    2.89643   2.91718   2.92056   2.93983   2.94075
  Beta virt. eigenvalues --    2.97031   2.98749   3.00989   3.02586   3.03819
  Beta virt. eigenvalues --    3.05118   3.07680   3.08683   3.12012   3.13096
  Beta virt. eigenvalues --    3.14648   3.17947   3.18736   3.19653   3.19895
  Beta virt. eigenvalues --    3.21960   3.22170   3.23538   3.27233   3.28496
  Beta virt. eigenvalues --    3.30771   3.34552   3.35447   3.36898   3.38152
  Beta virt. eigenvalues --    3.40174   3.40590   3.42157   3.42964   3.45218
  Beta virt. eigenvalues --    3.45855   3.48210   3.50947   3.51603   3.54872
  Beta virt. eigenvalues --    3.57875   3.58279   3.60978   3.64928   3.66474
  Beta virt. eigenvalues --    3.71298   3.80108   3.82471   3.83357   3.85538
  Beta virt. eigenvalues --    3.89030   4.02150   4.05421   4.05978   4.06321
  Beta virt. eigenvalues --    4.07667   4.10286   4.12176   4.20559   4.25066
  Beta virt. eigenvalues --    4.28329   4.33083   4.44678   4.57879   4.70056
  Beta virt. eigenvalues --    4.74263   4.75582   4.82347   4.84977   4.89540
  Beta virt. eigenvalues --   23.39915  23.63505  23.72709  23.81838  23.84600
  Beta virt. eigenvalues --   23.84814  23.88131  23.89254  23.93245  23.95494
  Beta virt. eigenvalues --   23.96971  23.99203  24.00325  24.04680  24.06120
  Beta virt. eigenvalues --   24.08336  24.09989  24.10253  24.12143  24.13018
  Beta virt. eigenvalues --   24.14075  24.15208  24.18758  24.19213
          Condensed to atoms (all electrons):
               1          2          3          4          5          6
     1  C   12.305203  -3.571886  -1.653901  -0.620160   0.279927   1.811530
     2  C   -3.571886  14.925457   0.906501  -1.376649   0.507823  -1.125711
     3  C   -1.653901   0.906501  11.485719   1.227724  -1.846758   1.493363
     4  C   -0.620160  -1.376649   1.227724  12.788811  -4.015835  -2.847084
     5  C    0.279927   0.507823  -1.846758  -4.015835  16.474504   1.367981
     6  C    1.811530  -1.125711   1.493363  -2.847084   1.367981  10.930521
     7  C   -1.608988  -0.300306   1.098966   0.548496  -1.420747  -0.979873
     8  C   -0.688772  -0.711468   0.504480   0.597338  -1.117397  -0.387548
     9  C   -0.066946  -0.297140  -0.310739  -1.192371  -2.006409   1.549904
    10  C   -0.240810   0.240762  -2.329118   0.138046   0.571080  -0.795614
    11  C   -0.004138   0.082731   0.335903  -0.025227  -0.173978  -0.188938
    12  C   -0.134790  -0.210891  -0.695324   0.061761   0.159123  -0.108426
    13  C   -0.690901   0.314606   0.192418   0.524196   0.099029  -0.699824
    14  C   -0.043986   0.190364  -0.004266   0.012801   0.129090   0.116070
    15  C    0.023441  -0.088096   0.178564   0.005463  -0.034561  -0.075698
    16  C    0.544107  -0.633873   0.666023  -0.154432  -0.130551   0.129524
    17  C    0.229742   0.144302  -0.770018  -0.058714   0.048251   0.117053
    18  H    0.316830  -0.036090   0.051105   0.043282  -0.040230  -0.017292
    19  H   -0.002610  -0.041752  -0.019273   0.390172  -0.060901   0.022962
    20  C   -0.872445   0.252033  -1.583847   0.629963  -4.966921  -2.297290
    21  C    0.170827   0.366599  -1.838675   0.876089   1.613317  -2.151140
    22  C    0.134671  -0.076489  -0.152697  -0.133998   0.237544  -0.012110
    23  H    0.000041   0.000024  -0.003956  -0.000007   0.000685   0.002714
    24  H   -0.000025  -0.000580   0.000377   0.000002  -0.000038  -0.000294
    25  H    0.005048   0.008004   0.004399  -0.000290   0.002504   0.002296
    26  H   -0.000292  -0.002298   0.003671  -0.000026  -0.000161  -0.000753
    27  H   -0.000080  -0.000217  -0.000545  -0.000008   0.000018   0.000165
    28  C    1.042311  -4.798881  -1.437332  -0.119847   0.075312  -1.085793
    29  C   -0.940318   1.253800  -0.195295  -0.199415   0.151780   0.171537
    30  H    0.061557  -0.024432   0.005343   0.017091   0.005801   0.005109
    31  H   -0.006602   0.042356  -0.000219   0.005517  -0.004971   0.005767
    32  C    0.291655   0.197239   0.333822  -0.942523  -0.572456   1.758599
    33  C   -0.119331   0.071622   0.411720   0.238542   0.416879  -0.756485
    34  H    0.005713   0.010487  -0.005822   0.012715  -0.075993   0.030053
    35  H   -0.001241   0.000377  -0.006738   0.010417  -0.060042  -0.023835
    36  H    0.000379   0.000336   0.003708  -0.000915   0.008080  -0.001725
    37  H   -0.000050   0.000697   0.006150  -0.000105  -0.001030  -0.002884
               7          8          9         10         11         12
     1  C   -1.608988  -0.688772  -0.066946  -0.240810  -0.004138  -0.134790
     2  C   -0.300306  -0.711468  -0.297140   0.240762   0.082731  -0.210891
     3  C    1.098966   0.504480  -0.310739  -2.329118   0.335903  -0.695324
     4  C    0.548496   0.597338  -1.192371   0.138046  -0.025227   0.061761
     5  C   -1.420747  -1.117397  -2.006409   0.571080  -0.173978   0.159123
     6  C   -0.979873  -0.387548   1.549904  -0.795614  -0.188938  -0.108426
     7  C    9.631618   1.705298  -0.148706  -0.595825   1.060985  -0.064151
     8  C    1.705298   9.901164   1.164909  -1.009265   0.274086   0.236496
     9  C   -0.148706   1.164909  10.454468  -0.973848  -0.708081  -0.649893
    10  C   -0.595825  -1.009265  -0.973848  12.402579   0.624628  -0.735788
    11  C    1.060985   0.274086  -0.708081   0.624628   7.613321   0.655679
    12  C   -0.064151   0.236496  -0.649893  -0.735788   0.655679  10.987742
    13  C    1.276115  -0.293885  -0.793344  -0.354842   0.470013   0.444207
    14  C   -0.671559  -1.260503   0.095049   0.091927  -1.543555  -2.428938
    15  C    0.063862   0.091364  -0.103547  -0.681173  -0.386040  -0.241853
    16  C   -0.011721  -0.070566  -0.279827  -1.015709  -0.538205  -1.002982
    17  C   -1.143804   0.513086   0.031676   0.164723  -0.278225   1.595810
    18  H    0.003780   0.002885  -0.001935   0.000257  -0.000017   0.000343
    19  H   -0.003210   0.001035  -0.003979   0.000192  -0.000029   0.000042
    20  C    0.746455   0.086625   1.691729   0.571828  -0.043983   0.108183
    21  C   -1.447466  -2.121615  -0.333676   1.992093  -0.383111  -0.012023
    22  C   -1.308181  -0.899139   1.183017  -0.857401  -1.288337  -0.837896
    23  H   -0.023559   0.001843  -0.002694  -0.044287   0.343954  -0.044304
    24  H    0.000938   0.007527   0.002029   0.046647   0.096762  -0.096593
    25  H    0.010886   0.004432   0.001087   0.003125  -0.000065   0.010182
    26  H   -0.004789   0.002062  -0.000633  -0.001946   0.003463   0.007011
    27  H    0.001873   0.000794   0.000323   0.005136   0.007763   0.031226
    28  C    0.816609  -0.255401   0.165276   0.020033   0.121359  -0.368930
    29  C   -0.553984  -0.259409  -0.048106   0.165872  -0.141689  -0.746508
    30  H   -0.016582  -0.000705   0.001161  -0.000417  -0.000084   0.000075
    31  H   -0.017295  -0.008546  -0.003371  -0.005089   0.002815  -0.011101
    32  C   -0.350468  -1.315980  -1.078182  -0.425629   0.235674  -0.162356
    33  C   -0.087324   1.037615  -1.387611  -0.963049  -0.089297  -0.307397
    34  H    0.001762  -0.001873  -0.012666   0.000865   0.000177   0.000043
    35  H    0.005252  -0.001692   0.046524   0.014384   0.000729   0.000413
    36  H   -0.001863  -0.008463   0.026363  -0.025548   0.001043   0.002145
    37  H    0.000903   0.039881  -0.015031  -0.085175   0.057005   0.009587
              13         14         15         16         17         18
     1  C   -0.690901  -0.043986   0.023441   0.544107   0.229742   0.316830
     2  C    0.314606   0.190364  -0.088096  -0.633873   0.144302  -0.036090
     3  C    0.192418  -0.004266   0.178564   0.666023  -0.770018   0.051105
     4  C    0.524196   0.012801   0.005463  -0.154432  -0.058714   0.043282
     5  C    0.099029   0.129090  -0.034561  -0.130551   0.048251  -0.040230
     6  C   -0.699824   0.116070  -0.075698   0.129524   0.117053  -0.017292
     7  C    1.276115  -0.671559   0.063862  -0.011721  -1.143804   0.003780
     8  C   -0.293885  -1.260503   0.091364  -0.070566   0.513086   0.002885
     9  C   -0.793344   0.095049  -0.103547  -0.279827   0.031676  -0.001935
    10  C   -0.354842   0.091927  -0.681173  -1.015709   0.164723   0.000257
    11  C    0.470013  -1.543555  -0.386040  -0.538205  -0.278225  -0.000017
    12  C    0.444207  -2.428938  -0.241853  -1.002982   1.595810   0.000343
    13  C    7.781201  -0.454529   0.633714   0.508715  -1.600191   0.004672
    14  C   -0.454529  11.430838  -0.120468   1.543974  -1.596164   0.000008
    15  C    0.633714  -0.120468   6.972313  -0.146600   0.655931   0.000038
    16  C    0.508715   1.543974  -0.146600  11.509215  -2.719142   0.002677
    17  C   -1.600191  -1.596164   0.655931  -2.719142  10.829455  -0.000180
    18  H    0.004672   0.000008   0.000038   0.002677  -0.000180   0.548816
    19  H   -0.000481   0.000001  -0.000002   0.000807   0.000115  -0.009776
    20  C    0.016228  -0.006380  -0.000968   0.091374   0.024480   0.010911
    21  C   -0.007264  -0.009794  -0.046126  -0.028125   0.117796  -0.000224
    22  C   -0.672803   0.158052  -0.175964  -0.131837   0.017431  -0.000082
    23  H   -0.016204   0.045901   0.010081   0.000422   0.009026   0.000000
    24  H    0.012553   0.330530  -0.034695  -0.029936  -0.003941   0.000000
    25  H   -0.013946   0.008561   0.030359  -0.115338   0.068137  -0.000003
    26  H    0.032735  -0.015440   0.044074  -0.081828   0.348834   0.000000
    27  H   -0.010442  -0.027097   0.341191   0.020361  -0.034960   0.000000
    28  C    0.188381  -0.149133   0.184147  -0.003365  -0.429300  -0.004661
    29  C   -0.422296   0.649694  -0.574773  -2.054782  -0.466018   0.000838
    30  H   -0.005450  -0.000132  -0.000127   0.025451   0.006407   0.003951
    31  H    0.009534   0.000188   0.000063  -0.031973  -0.024670   0.000023
    32  C   -0.151582  -0.009019   0.005467  -0.007427  -0.010641  -0.001278
    33  C    0.217316  -0.076326  -0.013490  -0.143752  -0.030267   0.000064
    34  H   -0.000049   0.000008   0.000001  -0.000111  -0.000013  -0.000004
    35  H    0.000357   0.000011   0.000000   0.000086   0.000006   0.000000
    36  H   -0.000709   0.000330   0.000002   0.000132   0.000001   0.000000
    37  H    0.004763   0.005110   0.000805  -0.000942  -0.000152   0.000000
              19         20         21         22         23         24
     1  C   -0.002610  -0.872445   0.170827   0.134671   0.000041  -0.000025
[...]
 11996,0.00053864,0.00414710,0.00404961,0.00072003,-0.00294419,-0.00199
 596,-0.00342147,0.00314020,0.00711642,-0.00029401,-0.02137661,0.007720
 46,0.00103601,0.03292198,-0.02177018,0.00227110,-0.05627007,-0.0221843
 5,-0.00494826,0.01775785,0.00006296,-0.00251444,-0.00610633,-0.0078540
 2,0.00004769,-0.00522421,0.00275661,0.00106762,0.00402216,0.00061959,-
 0.00087759,-0.00049742,-0.00365124,-0.00034530,0.00146530,0.00133445,-
 0.00044586,-0.00201759,0.00174033,0.00053491,0.00004479,0.00001272,0.0
 0007261,-0.00004315,-0.00007901,-0.00006142,-0.00709461,-0.00835290,-0
 .00270394,-0.11254316,0.00798286,-0.00923012,-0.35184297,0.08866353,-0
 .00789135,0.00004633,0.00033387,0.00022274,0.00000715,0.00008773,0.000
 04618,0.00004860,-0.00004422,-0.00001552,-0.00005192,-0.00000873,0.000
 08920,-0.00006079,-0.00009758,0.00004384,-0.00124221,-0.00030393,-0.00
 016384,-0.00009495,-0.00001011,0.00035622,0.00002988,-0.00007122,-0.00
 005534,0.00001064,-0.00009799,0.00003302,-0.00772353,0.03731190,0.0029
 0196,0.69954529,-0.00143935,-0.00046392,0.00002990,-0.00109667,-0.0011
 7417,0.00018798,-0.00092457,-0.00039430,-0.00046120,0.00120556,0.00159
 058,0.00010356,-0.00746759,-0.00401648,-0.00089133,-0.00243146,-0.0024
 8303,-0.00139318,-0.00467621,-0.00631053,0.00138550,0.01908627,-0.0042
 2036,-0.00124728,-0.03001057,-0.04117973,-0.00958931,0.00066082,0.0284
 1650,0.00369935,-0.01539233,-0.00758357,-0.00061692,0.00416607,0.00810
 882,0.00051038,0.00633133,-0.00259680,-0.00140055,-0.00396715,-0.00147
 279,0.00094830,0.00061730,0.00375549,0.00022114,-0.00228908,-0.0015161
 8,0.00063989,0.00231612,-0.00242668,-0.00058569,0.00003545,0.00000260,
 -0.00003782,0.00001684,0.00003215,0.00001409,0.00312655,0.01389422,-0.
 00047100,0.03071431,-0.22230354,-0.01760497,0.04362212,-0.13941358,-0.
 01196113,-0.00035495,-0.00010097,-0.00013901,0.00002633,-0.00005831,-0
 .00003512,-0.00000238,0.00001463,0.00002849,0.00004535,-0.00001467,-0.
 00006978,-0.00003171,0.00003336,-0.00005162,0.00105468,0.00005791,0.00
 009346,-0.00004011,0.00000274,-0.00031401,-0.00004225,0.00002365,0.000
 07940,0.00006706,0.00005166,-0.00004082,0.01719643,-0.01899762,0.00183
 676,0.04170828,0.59618444,0.00010414,0.00002671,0.00008511,-0.00007731
 ,0.00033010,-0.00027784,-0.00022229,-0.00100026,-0.00008847,0.00029311
 ,-0.00030386,-0.00062151,-0.00013618,-0.00016693,-0.00079746,-0.002233
 81,0.00104127,0.00587580,-0.00055343,-0.00006436,-0.00078054,0.0009173
 4,-0.00050607,-0.00247313,-0.00195375,-0.01330611,0.00466559,-0.002770
 17,0.00357615,0.00475886,-0.00064928,-0.00212268,0.00349667,0.00002689
 ,0.00072830,0.00030164,0.00065042,-0.00011990,0.00005353,-0.00040107,-
 0.00014400,-0.00043287,0.00004343,0.00028688,0.00013367,-0.00018790,-0
 .00011828,0.00020876,0.00018263,-0.00017794,-0.00016267,0.00001988,-0.
 00000267,-0.00000331,0.00000030,-0.00002961,0.00006895,-0.00257626,0.0
 0048535,0.00389731,-0.00256714,-0.02160590,-0.06456537,-0.01905186,-0.
 00742980,-0.06171423,-0.00012342,0.00005745,-0.00017259,-0.00000382,0.
 00000202,0.00000263,0.00000224,-0.00000537,0.00000543,-0.00000260,-0.0
 0000404,-0.00002788,0.00000449,-0.00000867,0.00005225,-0.00012898,-0.0
 0012727,-0.00004049,-0.00000379,0.00000279,0.00003971,-0.00000567,-0.0
 0002545,-0.00000192,0.00002346,0.00000198,0.00000889,0.00029525,0.0068
 9752,0.00086717,0.06315050,0.07318101,0.15046023,0.00012002,-0.0003062
 4,0.00013049,-0.00016479,0.00003065,-0.00000111,0.00007753,0.00101583,
 -0.00063724,0.00095872,0.00096575,0.00051858,-0.01659993,0.01265325,-0
 .00642948,-0.00295859,-0.00405105,-0.00100313,-0.00047996,-0.00009375,
 -0.00002775,-0.00014809,0.00010932,0.00009322,0.00023899,-0.00081680,0
 .00037509,-0.00005182,-0.00009360,-0.00003212,-0.00001130,0.00001633,0
 .00000054,-0.00004318,0.00003128,0.00001901,0.00012225,0.00013760,0.00
 008274,-0.00000720,0.00000702,-0.00001764,-0.00000355,0.00001203,0.000
 00784,-0.00003618,-0.00001850,0.00000155,0.00001097,-0.00002863,-0.000
 01193,-0.00003250,-0.00004791,-0.00002611,-0.00007517,-0.00091535,0.00
 019226,-0.26731747,0.09782498,-0.06730006,0.00212232,-0.00050253,-0.00
 173339,0.00009786,0.00003929,0.00012009,-0.00000847,0.00000709,0.00000
 564,-0.00000684,0.00000664,0.00000209,-0.00001059,-0.00000491,0.000005
 42,-0.00000672,-0.00000576,-0.00000336,-0.00000747,0.00000076,0.000003
 09,0.00016118,-0.00004178,0.00002229,0.00001175,0.00001982,0.00003028,
 -0.00002183,-0.00003040,-0.00000814,0.00000563,0.00000728,-0.00000253,
 0.00125000,-0.00100506,-0.00053165,0.00007308,-0.00003403,-0.00013484,
 0.28220403,0.00039037,-0.00002535,0.00005535,-0.00015945,0.00016680,-0
 .00004474,-0.00052473,0.00071597,-0.00024631,0.00017079,0.00125792,-0.
 00042516,-0.01622516,0.01121111,-0.00529712,-0.00340554,-0.00211636,-0
 .00014960,-0.00027115,-0.00009085,0.00002447,-0.00011658,0.00015325,-0
 .00003595,-0.00045991,-0.00062499,-0.00011269,-0.00011564,-0.00013273,
 -0.00000479,-0.00000800,0.00003871,0.00001907,-0.00002783,-0.00000435,
 0.00000725,0.00002022,0.00009939,-0.00001337,-0.00000352,0.00001800,0.
 00000651,0.00000302,0.00000869,-0.00000085,0.00000473,0.00000141,-0.00
 000365,0.00001253,-0.00000053,-0.00000499,0.00001923,0.00000166,0.0000
 1052,0.00056831,-0.00022225,0.00019996,0.09650987,-0.10302200,0.030508
 85,-0.00092275,-0.00548255,0.00016471,0.00010275,-0.00048937,-0.000117
 31,-0.00000203,-0.00000370,-0.00000333,-0.00000349,-0.00000228,-0.0000
 0004,0.00000354,0.00000053,0.00000213,0.00000060,0.00000283,0.00000123
 ,0.00000417,-0.00000007,-0.00000034,0.00013792,0.00001295,-0.00001920,
 -0.00000317,0.00000223,0.00002165,-0.00000834,-0.00000992,-0.00000104,
 0.00000933,-0.00000680,0.00000770,0.02828444,-0.00997186,0.00840244,0.
 00123490,0.00043852,0.00034091,-0.10519427,0.10729071,-0.00046012,-0.0
 0005382,-0.00022800,0.00041376,-0.00000228,0.00001157,-0.00033021,0.00
 041640,0.00051006,0.00129222,-0.00011053,-0.00227944,-0.00617601,0.001
 32795,0.00051847,-0.00082378,-0.00135379,0.00459923,-0.00002093,-0.000
 14301,0.00019672,0.00006110,0.00015889,-0.00056942,0.00070040,0.000472
 91,-0.00068803,-0.00001666,0.00004350,0.00016494,0.00004950,0.00003149
 ,-0.00000226,0.00000306,-0.00002880,-0.00000899,-0.00012054,0.00002491
 ,-0.00027051,0.00002632,0.00000558,0.00004935,0.00001635,-0.00002207,-
 0.00000719,0.00001287,-0.00000052,0.00000179,-0.00001585,0.00000222,0.
 00001786,-0.00002685,0.00002184,0.00013190,-0.00008719,-0.00020773,0.0
 0034334,-0.06661871,0.03340689,-0.05410234,-0.00167045,0.00047005,0.00
 760921,0.00001664,0.00020662,-0.00039808,0.00000190,-0.00000119,-0.000
 00231,0.00000267,0.00000114,-0.00000079,-0.00000583,0.00000206,-0.0000
 0472,0.00000171,-0.00000047,-0.00000052,-0.00000369,0.00000168,-0.0000
 0420,-0.00016600,-0.00007898,0.00006935,0.00003194,-0.00002316,-0.0000
 4236,-0.00001893,0.00001480,0.00002796,-0.00001352,0.00000923,-0.00001
 566,-0.00187708,-0.00135636,0.00286550,-0.00043956,-0.00015817,0.00033
 825,0.07463216,-0.03298738,0.04594964,0.00010576,0.00003918,0.00013285
 ,-0.00003299,0.00008590,-0.00006391,-0.00015117,-0.00012804,0.00014482
 ,0.00021539,-0.00002333,-0.00007922,0.00180957,0.00130526,-0.00188845,
 0.00016860,0.00095204,0.00025614,-0.00055531,0.00021322,-0.00002632,-0
 .00004034,-0.00128065,-0.00053198,-0.00396937,0.00367094,-0.00142581,0
 .00001478,-0.00004508,-0.00001277,0.00004352,0.00003965,0.00002790,-0.
 00003290,0.00002288,0.00000397,0.00011653,-0.00015574,0.00005770,0.000
 01893,-0.00001809,-0.00000989,-0.00004081,0.00001504,0.00001076,-0.000
 09178,0.00002212,0.00003130,0.00001418,-0.00002420,-0.00001717,0.00002
 127,0.00001110,0.00001001,0.00000476,-0.00002846,-0.00002388,0.0044297
 9,0.00289161,0.00026401,-0.01598434,-0.01673191,-0.00537036,-0.0000491
 0,0.00030459,0.00008603,-0.00003400,0.00001643,0.00000582,-0.00000709,
 0.00000901,0.00000182,-0.00000624,-0.00000722,0.00000296,-0.00001178,-
 0.00000703,0.00000051,-0.00000609,-0.00000059,0.00000178,0.00000079,0.
 00000409,-0.00001794,-0.00000008,0.00001346,0.00002032,-0.00000494,-0.
 00001235,0.00000438,0.00001010,0.00000227,-0.00000087,-0.24104240,-0.1
 2077072,-0.05232616,0.00116055,-0.00099531,0.00051350,0.00053034,-0.00
 015058,0.00165962,0.25359686,-0.00009265,-0.00048755,0.00014146,0.0001
 6604,-0.00006268,0.00001870,0.00006650,0.00010824,-0.00002788,-0.00125
 900,0.00026958,-0.00036971,0.00177132,-0.00505755,0.00099584,0.0004716
 9,-0.00047660,0.00011580,0.00019805,-0.00017885,-0.00000152,0.00051948
 ,0.00068623,0.00016992,0.00313703,-0.00093744,0.00061207,0.00004410,0.
 00019799,0.00004020,-0.00007616,-0.00002860,-0.00000403,0.00002975,0.0
 0003886,0.00000385,0.00001928,0.00009786,-0.00001695,-0.00002095,-0.00
 000580,0.00000076,0.00001283,0.00000777,-0.00000054,0.00001395,-0.0000
 3475,-0.00001229,-0.00000016,-0.00000332,0.00000607,-0.00014948,-0.000
 05718,0.00000939,0.00003487,-0.00003579,0.00001391,-0.02652839,-0.0135
 8364,-0.00689317,0.01181751,0.01142005,0.00333054,-0.00031955,-0.00003
 532,-0.00004259,0.00000738,-0.00000057,-0.00000035,0.00000068,0.000003
 02,0.00000011,-0.00001043,0.00000185,-0.00000111,0.00000326,-0.0000025
 7,-0.00000249,-0.00000499,0.00000187,0.00000096,-0.00004992,-0.0000027
 1,0.00002177,0.00001285,-0.00000747,-0.00001372,-0.00000039,0.00000097
 ,0.00000040,-0.00001167,0.00000947,-0.00000830,-0.11905040,-0.13626330
 ,-0.03066093,-0.00025111,0.00119583,0.00007957,0.00027731,0.00086067,-
 0.00010302,0.12977229,0.14258583,0.00010443,-0.00022038,-0.00042834,-0
 .00009871,-0.00007403,0.00019245,0.00006982,-0.00007104,-0.00057707,-0
 .00036967,0.00006444,0.00029765,-0.00175248,0.00058732,0.00765949,0.00
 054665,-0.00033858,-0.00068372,-0.00008760,0.00005959,0.00006903,-0.00
 027156,-0.00052650,0.00033737,-0.00127337,0.00187227,0.00439825,0.0003
 0625,0.00009033,-0.00007058,-0.00012119,-0.00003334,0.00004365,0.00007
 850,0.00003970,-0.00001772,-0.00005991,-0.00005880,-0.00011688,-0.0000
 4181,-0.00000526,0.00000546,0.00001928,0.00002291,-0.00000929,0.000003
 71,0.00000079,-0.00001278,-0.00000047,-0.00002677,0.00002387,-0.000017
 82,-0.00002190,-0.00004076,-0.00000709,0.00002690,0.00010836,0.0006061
 2,0.00271725,0.00342755,-0.00700977,-0.00347276,0.00061906,-0.00029771
 ,0.00001626,-0.00016629,-0.00000637,0.00000101,0.00001174,-0.00000028,
 0.00000052,0.00000358,-0.00000406,0.00000036,-0.00000078,0.00000020,0.
 00000002,0.00000540,-0.00000230,0.00000106,0.00000078,0.00009094,0.000
 03961,0.00004734,-0.00001098,0.00000069,-0.00003696,0.00000263,-0.0000
 0227,-0.00000753,-0.00001402,0.00000134,0.00000321,-0.05149815,-0.0332
 8919,-0.04723337,0.00104430,-0.00006725,-0.00206076,0.00166296,-0.0002
 8223,-0.00481890,0.05848423,0.03269980,0.03862315,0.00002942,0.0000097
 4,0.00000362,0.00005018,0.00001476,0.00000421,-0.00010295,0.00010467,-
 0.00002021,-0.00002951,-0.00003306,0.00000115,0.00018427,-0.00001985,0
 .00004607,0.00050340,0.00037861,0.00006053,0.00016920,0.00001306,0.000
 02032,-0.00015182,0.00040992,0.00011833,0.00014090,0.00223654,-0.00005
 810,-0.00373572,0.00341330,-0.00058436,-0.00007184,-0.00127622,-0.0002
 8708,-0.00041588,0.00009429,0.00025466,-0.00009258,0.00005067,0.,0.000
 05778,-0.00014233,-0.00001319,-0.00008207,-0.00004753,-0.00000188,0.00
 004718,0.00003337,-0.00001738,-0.00004879,0.00004371,0.00001480,-0.000
 00209,-0.00000747,-0.00000111,0.00000590,-0.00000036,0.00000055,-0.000
 05719,-0.00028188,0.00000327,0.00916329,0.00683741,0.00192805,-0.01826
 020,-0.02221032,-0.00583442,-0.00003975,0.00005609,-0.00003034,0.00000
 153,0.00001346,0.00000493,-0.00000562,-0.00000720,0.00000052,-0.000005
 43,-0.00000855,0.00000406,-0.00001814,-0.00001434,0.00000058,-0.000015
 75,0.00000562,0.00000842,0.00000308,0.00000643,-0.00000463,0.00000579,
 -0.00000474,-0.00000259,-0.00000162,0.00000278,-0.00000454,0.00093605,
 -0.00027959,0.00034431,-0.18792597,-0.13123426,-0.03722425,0.00000487,
 -0.00002857,-0.00000127,-0.00016245,-0.00052792,-0.00006010,0.19911857
 ,-0.00002067,-0.00006062,0.00001108,-0.00013367,0.00008338,0.00002550,
 0.00011694,-0.00056268,0.00006325,0.00005670,0.00005547,0.00003204,-0.
 00000581,0.00004496,-0.00001951,-0.00140686,0.00013945,-0.00062970,-0.
 00030152,-0.00009235,0.00007521,0.00090760,-0.00000435,0.00020189,0.00
 301458,-0.00552174,-0.00032795,0.00268526,0.00033246,-0.00143987,-0.00
 005280,0.00050576,0.00001888,0.00022355,0.00009201,0.00009593,0.000205
 31,-0.00004445,-0.00004946,-0.00005470,0.00002531,0.00002987,0.0000040
 0,0.00008462,0.00000003,-0.00010047,-0.00005722,0.00000237,0.00006669,
 -0.00004490,-0.00002155,0.00000061,-0.00001131,-0.00000551,0.00000767,
 -0.00003637,0.00001046,0.00026549,-0.00010951,0.00008302,-0.02216561,-
 0.01456665,-0.00579946,0.00816421,0.00875552,0.00163019,-0.00002189,0.
 00000055,-0.00003565,-0.00000654,0.00000267,0.00000260,-0.00001115,0.0
 0000068,0.00000140,-0.00000204,-0.00000337,-0.00000105,-0.00000013,0.0
 0000685,-0.00000296,0.00000824,-0.00005493,0.00003817,0.00000961,0.000
 00815,0.00001116,-0.00002243,-0.00001829,-0.00000698,-0.00000162,0.000
 00922,-0.00000214,-0.00086018,0.00154755,0.00000722,-0.13360255,-0.191
 67985,-0.03811993,0.00003047,-0.00004416,-0.00000346,0.00094629,-0.000
 22539,0.00026509,0.14226524,0.20061083,0.00005996,0.00002342,-0.000016
 69,-0.00004184,-0.00005435,-0.00010851,0.00009163,-0.00006802,0.000045
 27,-0.00006426,-0.00005800,0.00005031,0.00018128,0.00019232,-0.0000377
 7,-0.00040826,-0.00013784,0.00026408,-0.00001748,0.00007704,-0.0005648
 9,-0.00017342,0.00052132,-0.00056278,0.00089535,-0.00060300,0.00393159
 ,-0.00078099,-0.00107939,0.00910997,-0.00000722,-0.00045308,0.00028301
 ,-0.00034850,0.00010425,-0.00083077,-0.00007272,0.00003783,0.00015321,
 0.00003043,-0.00000978,-0.00009642,-0.00001484,-0.00005768,0.00009027,
 0.00006826,0.00001477,0.00006617,-0.00004350,0.00005249,-0.00000356,-0
 .00000125,-0.00000335,0.00000009,0.00000063,-0.00000385,0.00000675,-0.
 00006126,-0.00032087,-0.00018422,-0.00229294,-0.00408832,0.00153456,0.
 00073144,-0.00181602,0.00346809,0.00005155,-0.00003392,0.00025221,-0.0
 0000375,0.00000325,-0.00001665,-0.00000275,-0.00000137,-0.00000108,-0.
 00000482,0.00000070,-0.00001593,-0.00000033,-0.00000496,0.00001711,-0.
 00000142,0.00001075,-0.00000233,0.00000532,-0.00000566,-0.00000703,-0.
 00000822,0.00000745,0.00002730,-0.00000236,0.00000057,-0.00000392,0.00
 030090,0.00062618,-0.00165024,-0.03933870,-0.03667544,-0.04502605,-0.0
 0001886,-0.00000271,0.00008683,0.00010518,-0.00010610,0.00027000,0.040
 68000,0.04264417,0.03521155,0.00003830,-0.00001444,0.00002110,0.000100
 71,0.00001835,0.00002127,-0.00029175,-0.00029394,0.00002208,0.00000615
 ,-0.00008152,0.00002439,-0.00019757,0.00000027,-0.00003164,0.00025352,
 -0.00016287,0.00005109,0.00070738,-0.00076052,-0.00031207,-0.00381714,
 -0.00302112,-0.00044001,-0.00070756,-0.00019551,0.00000979,0.00918793,
 -0.02219670,-0.00395875,0.00153949,0.00006650,-0.00019725,-0.00002257,
 0.00034484,0.00004089,0.00026396,-0.00005124,-0.00003234,-0.00006198,-
 0.00002528,-0.00000102,0.00001975,0.00004902,0.00000243,-0.00005875,0.
 00004509,0.00002080,0.00000704,-0.00006847,-0.00000547,0.00001812,-0.0
 0000541,0.00000099,-0.00000429,-0.00000240,-0.00000448,-0.00041329,0.0
 0020069,-0.00011438,-0.00529145,0.00046068,-0.00119268,-0.07025047,0.0
 5675675,0.00855115,-0.00028519,0.00066930,0.00016766,-0.00001946,-0.00
 000080,0.00000472,0.00000209,-0.00000069,0.00000306,-0.00000388,0.0000
 0422,0.00000049,0.00000164,0.00000251,-0.00000006,0.00001359,0.0000139
 5,-0.00001669,-0.00000530,0.00000726,0.00000195,-0.00000035,-0.0000013
 4,0.00000191,0.00000548,-0.00000042,0.00000487,0.00066006,0.00119206,0
 .00027462,-0.00438247,0.03043309,0.00478023,0.00000210,0.00015400,-0.0
 0002904,-0.00003855,-0.00002301,-0.00001461,0.00080395,-0.00020783,0.0
 0050778,0.07222079,0.00003095,-0.00002133,0.00002397,0.00008836,0.0000
 5878,0.00004519,-0.00021710,-0.00036164,-0.00000218,-0.00001647,-0.000
 05091,0.00000874,-0.00009645,0.00006549,-0.00004486,0.00014576,-0.0001
 3978,0.00007859,0.00085113,-0.00016760,-0.00041863,-0.00396901,-0.0013
 1587,-0.00038568,-0.00044622,0.00055716,0.00023659,0.00700716,-0.01511
 647,-0.00320170,0.00082849,0.00091531,0.00018993,-0.00037055,0.0000646
 0,0.00005012,0.00003628,0.00004719,0.00001529,0.00007604,-0.00007500,-
 0.00002578,-0.00002981,-0.00005379,-0.00000301,-0.00004456,0.00006925,
 0.00001789,-0.00006183,-0.00003768,0.00001473,0.00001283,-0.00002017,-
 0.00000872,0.00000810,-0.00000928,0.00000147,0.00016313,0.00004953,0.0
 0014369,0.00119368,0.00177916,-0.00123827,0.05905521,-0.31242666,-0.04
 389176,-0.00088776,0.00003198,0.00020008,-0.00001860,0.00002072,0.0000
 0461,-0.00000987,-0.00000498,0.00000408,-0.00001083,-0.00000357,0.0000
 0058,-0.00001590,-0.00000442,0.00000270,-0.00000827,-0.00000513,0.0000
 0756,0.00001065,0.00001265,0.00000591,-0.00000493,-0.00001121,-0.00000
 047,0.00000168,0.00000789,-0.00000350,-0.00015287,-0.00021304,-0.00015
 889,-0.00001767,-0.00539601,-0.00164891,-0.00000212,-0.00003123,0.0000
 1658,0.00004193,0.00000098,-0.00001695,0.00013454,0.00083270,0.0012671
 9,-0.06330508,0.33095241,-0.00000261,0.00001577,-0.00004470,0.00004738
 ,-0.00007966,-0.00023343,-0.00006051,-0.00005844,0.00025037,0.00000921
 ,0.00001479,0.00001996,-0.00002533,0.00001455,0.00015837,0.00018760,-0
 .00016626,-0.00061097,0.00038820,-0.00018465,0.00040913,-0.00141824,-0
 .00036124,0.00355032,0.00050842,0.00053860,-0.00069583,-0.00026757,-0.
 00544361,0.00139131,0.00043127,0.00073773,-0.00179547,-0.00024388,-0.0
 0029070,-0.00021231,-0.00013004,0.00015171,0.00001544,0.00013996,0.000
 01292,0.00000031,-0.00002294,-0.00011725,0.00000101,0.00003905,0.00005
 024,0.00005476,-0.00006697,0.00005524,-0.00000495,-0.00000906,0.000020
 40,0.00007653,-0.00000256,0.00000401,-0.00000119,0.00024665,-0.0000153
 9,-0.00052993,-0.00089382,-0.00118609,0.00877327,0.01103136,-0.0440872
 6,-0.04133139,-0.00011832,-0.00003113,0.00034675,-0.00000022,0.0000023
 9,0.00001501,0.00000038,-0.00000228,-0.00000315,-0.00000492,-0.0000024
 0,0.00000121,-0.00000400,-0.00000307,0.00000193,-0.00002600,-0.0000031
 0,-0.00000926,0.00000350,0.00000599,0.00001743,0.00000192,-0.00000010,
 0.00000218,-0.00000149,-0.00000586,-0.00000579,-0.00016625,-0.00035132
 ,0.00035358,-0.00203757,0.00085238,0.00392662,0.00001401,-0.00001992,-
 0.00004827,-0.00003089,0.00000355,0.00013434,0.00064708,0.00121564,-0.
 00573957,-0.00816279,0.04871382,0.03176640\\-0.00000347,-0.00000246,0.
 00000342,0.00000654,0.00000855,0.00000285,0.00000100,-0.00000523,-0.00
 000022,0.00000973,0.00000224,0.00000409,-0.00000427,0.00000620,0.00000
 184,0.00000294,-0.00000115,0.00000025,-0.00000682,-0.00000423,0.000001
 22,0.00000268,0.00000558,-0.00000294,0.00000055,0.00000356,0.00000800,
 0.00000385,-0.00000826,-0.00000397,-0.00000807,0.00000445,-0.00000518,
 0.00000513,-0.00000696,-0.00000473,0.00000565,0.00000231,-0.00000455,-
 0.00000233,0.00000459,-0.00000294,-0.00000558,0.00000036,-0.00000173,-
 0.00000867,-0.00000629,0.00000597,0.00000198,-0.00000965,0.00000222,0.
 00000330,0.00000161,0.00000804,0.00000030,0.00000229,0.00000654,0.0000
 0323,-0.00000605,0.00000063,-0.00000407,-0.00000167,-0.00000529,-0.000
 00820,0.00000488,-0.00000762,-0.00000145,-0.00000115,-0.00000646,-0.00
 000245,-0.00000260,-0.00000499,0.00000216,-0.00000350,0.00000320,-0.00
 000055,-0.00000051,0.00000158,-0.00000071,-0.00000197,-0.00000185,-0.0
 0000871,-0.00001191,0.00000996,0.00000680,0.00000172,-0.00000867,0.000
 00196,0.00000262,0.00001236,0.00000268,-0.00000029,0.00000581,0.000001
 50,0.00001167,0.00000051,0.00000708,0.00000102,-0.00000520,0.00000077,
 0.00000519,0.00000251,-0.00000004,0.00000154,-0.00000180,-0.00000329,0
 .00000295,-0.00000584,-0.00000118,0.00000059,-0.00000703\\\@


 A SCIENTIST IS SOMEONE WHOSE CURIOSITY SURVIVES
 EDUCATION'S ASSAULTS ON IT.
                          - SIR HERMANN BONDI
 Job cpu time:       3 days 16 hours  3 minutes 18.0 seconds.
 File lengths (MBytes):  RWF=  10972 Int=      0 D2E=      0 Chk=     37 Scr=      1
 Normal termination of Gaussian 09 at Sat Feb  1 22:30:31 2020.
