 Entering Gaussian System, Link 0=/share/apps/gaussian16/g16/g16
 Initial command:
 /share/apps/gaussian16/g16/l1.exe "/home/am2145//scratch/3563/Gau-15824.inp" -scrdir="/home/am2145//scratch/3563/"
 Entering Link 1 = /share/apps/gaussian16/g16/l1.exe PID=     15825.
  
 Copyright (c) 1988,1990,1992,1993,1995,1998,2003,2009,2016,
            Gaussian, Inc.  All Rights Reserved.
  
 This is part of the Gaussian(R) 16 program.  It is based on
 the Gaussian(R) 09 system (copyright 2009, Gaussian, Inc.),
 the Gaussian(R) 03 system (copyright 2003, Gaussian, Inc.),
 the Gaussian(R) 98 system (copyright 1998, Gaussian, Inc.),
 the Gaussian(R) 94 system (copyright 1995, Gaussian, Inc.),
 the Gaussian 92(TM) system (copyright 1992, Gaussian, Inc.),
 the Gaussian 90(TM) system (copyright 1990, Gaussian, Inc.),
 the Gaussian 88(TM) system (copyright 1988, Gaussian, Inc.),
 the Gaussian 86(TM) system (copyright 1986, Carnegie Mellon
 University), and the Gaussian 82(TM) system (copyright 1983,
 Carnegie Mellon University). Gaussian is a federally registered
 trademark of Gaussian, Inc.
  
 This software contains proprietary and confidential information,
 including trade secrets, belonging to Gaussian, Inc.
  
 This software is provided under written license and may be
 used, copied, transmitted, or stored only in accord with that
 written license.
  
 The following legend is applicable only to US Government
 contracts under FAR:
  
                    RESTRICTED RIGHTS LEGEND
  
 Use, reproduction and disclosure by the US Government is
 subject to restrictions as set forth in subparagraphs (a)
 and (c) of the Commercial Computer Software - Restricted
 Rights clause in FAR 52.227-19.
  
 Gaussian, Inc.
 340 Quinnipiac St., Bldg. 40, Wallingford CT 06492
  
  
 ---------------------------------------------------------------
 Warning -- This program may not be used in any manner that
 competes with the business of Gaussian, Inc. or will provide
 assistance to any competitor of Gaussian, Inc.  The licensee
 of this program is prohibited from giving any competitor of
 Gaussian, Inc. access to this program.  By using this program,
 the user acknowledges that Gaussian, Inc. is engaged in the
 business of creating and licensing software in the field of
 computational chemistry and represents and warrants to the
 licensee that it is not a competitor of Gaussian, Inc. and that
 it will not use this program in any manner prohibited above.
 ---------------------------------------------------------------
  

 Cite this work as:
 Gaussian 16, Revision A.03,
 M. J. Frisch, G. W. Trucks, H. B. Schlegel, G. E. Scuseria, 
 M. A. Robb, J. R. Cheeseman, G. Scalmani, V. Barone, 
 G. A. Petersson, H. Nakatsuji, X. Li, M. Caricato, A. V. Marenich, 
 J. Bloino, B. G. Janesko, R. Gomperts, B. Mennucci, H. P. Hratchian, 
 J. V. Ortiz, A. F. Izmaylov, J. L. Sonnenberg, D. Williams-Young, 
 F. Ding, F. Lipparini, F. Egidi, J. Goings, B. Peng, A. Petrone, 
 T. Henderson, D. Ranasinghe, V. G. Zakrzewski, J. Gao, N. Rega, 
 G. Zheng, W. Liang, M. Hada, M. Ehara, K. Toyota, R. Fukuda, 
 J. Hasegawa, M. Ishida, T. Nakajima, Y. Honda, O. Kitao, H. Nakai, 
 T. Vreven, K. Throssell, J. A. Montgomery, Jr., J. E. Peralta, 
 F. Ogliaro, M. J. Bearpark, J. J. Heyd, E. N. Brothers, K. N. Kudin, 
 V. N. Staroverov, T. A. Keith, R. Kobayashi, J. Normand, 
 K. Raghavachari, A. P. Rendell, J. C. Burant, S. S. Iyengar, 
 J. Tomasi, M. Cossi, J. M. Millam, M. Klene, C. Adamo, R. Cammi, 
 J. W. Ochterski, R. L. Martin, K. Morokuma, O. Farkas, 
 J. B. Foresman, and D. J. Fox, Gaussian, Inc., Wallingford CT, 2016.
 
 ******************************************
 Gaussian 16:  ES64L-G16RevA.03 25-Dec-2016
                26-Mar-2019 
 ******************************************
 %nprocshared=20
 Will use up to   20 processors via shared memory.
 %mem=100GB
 %chk=7-memb-4c.chk
 -------------------------------------------
 # opt freq b3lyp/6-311+g(d,p) int=grid=fine
 -------------------------------------------
 1/18=20,19=15,26=3,38=1/1,3;
 2/9=110,12=2,17=6,18=5,40=1/2;
 3/5=4,6=6,7=111,11=2,25=1,30=1,71=1,74=-5,75=-4/1,2,3;
 4//1;
 5/5=2,38=5/2;
 6/7=2,8=2,9=2,10=2,28=1/1;
 7//1,2,3,16;
 1/18=20,19=15,26=3/3(2);
 2/9=110/2;
 99//99;
 2/9=110/2;
 3/5=4,6=6,7=111,11=2,25=1,30=1,71=1,74=-5,75=-4/1,2,3;
 4/5=5,16=3,69=1/1;
 5/5=2,38=5/2;
 7//1,2,3,16;
 1/18=20,19=15,26=3/3(-5);
 2/9=110/2;
 6/7=2,8=2,9=2,10=2,19=2,28=1/1;
 99/9=1/99;
 ---------
 7-memb-4c
 ---------
 Symbolic Z-matrix:
 Charge =  0 Multiplicity = 2
 C                    -1.95461   2.96708  -0.08335 
 C                    -0.67031   2.37447  -0.00932 
 C                    -0.63776   1.00357  -0.05415 
 C                    -3.15174   2.18969  -0.174 
 C                    -3.10009   0.77457  -0.16185 
 C                    -1.81449   0.27892  -0.09965 
 C                     0.43069   0.03853   0.0176 
 C                    -0.17678  -1.20287   0.05537 
 C                    -1.5199   -1.04116  -0.02668 
 C                     0.44003  -2.4305    0.13811 
 C                     1.85319  -2.34067   0.18763 
 C                     2.53234  -1.07677   0.10839 
 C                     1.80613   0.15592  -0.00118 
 C                     3.93046  -1.01615   0.11815 
 C                     4.60095   0.20389   0.00987 
 C                     2.47003   1.41413  -0.21531 
 C                     3.88852   1.39714  -0.14022 
 H                    -2.04968   4.05103  -0.04522 
 H                    -4.1132    2.6955   -0.21743 
 C                    -4.12106  -0.22402  -0.18166 
 C                    -2.44782  -2.06408  -0.02562 
 C                    -0.45331  -3.54571   0.15057 
 H                     2.43221  -3.25896   0.26115 
 H                     4.51815  -1.92685   0.21334 
 H                     4.45215   2.32496  -0.23264 
 H                     5.68794   0.22549   0.03634 
 C                     0.54726   3.1524    0.25478 
 C                     1.83418   2.74754   0.22376 
 H                     0.35922   4.17591   0.57615 
 C                    -3.80005  -1.61826  -0.1149 
 C                    -1.87157  -3.36521   0.06841 
 H                    -5.1645    0.07804  -0.23447 
 H                    -4.60542  -2.34893  -0.12359 
 H                    -2.51906  -4.23878   0.0783 
 H                    -0.05001  -4.5535    0.21721 
 H                     2.24283   1.62878  -1.30669 
 H                     2.57341   3.49059   0.52832 
 

 GradGradGradGradGradGradGradGradGradGradGradGradGradGradGradGradGradGrad
 Berny optimization.
 Initialization pass.
                           ----------------------------
                           !    Initial Parameters    !
                           ! (Angstroms and Degrees)  !
 --------------------------                            --------------------------
 ! Name  Definition              Value          Derivative Info.                !
 --------------------------------------------------------------------------------
 ! R1    R(1,2)                  1.4164         estimate D2E/DX2                !
 ! R2    R(1,4)                  1.4303         estimate D2E/DX2                !
 ! R3    R(1,18)                 1.0888         estimate D2E/DX2                !
 ! R4    R(2,3)                  1.372          estimate D2E/DX2                !
 ! R5    R(2,27)                 1.4688         estimate D2E/DX2                !
 ! R6    R(3,6)                  1.3827         estimate D2E/DX2                !
 ! R7    R(3,7)                  1.4415         estimate D2E/DX2                !
 ! R8    R(4,5)                  1.4161         estimate D2E/DX2                !
 ! R9    R(4,19)                 1.0873         estimate D2E/DX2                !
 ! R10   R(5,6)                  1.3792         estimate D2E/DX2                !
 ! R11   R(5,20)                 1.4283         estimate D2E/DX2                !
 ! R12   R(6,9)                  1.3545         estimate D2E/DX2                !
 ! R13   R(7,8)                  1.3826         estimate D2E/DX2                !
 ! R14   R(7,13)                 1.3806         estimate D2E/DX2                !
 ! R15   R(8,9)                  1.3553         estimate D2E/DX2                !
 ! R16   R(8,10)                 1.3764         estimate D2E/DX2                !
 ! R17   R(9,21)                 1.3811         estimate D2E/DX2                !
 ! R18   R(10,11)                1.4169         estimate D2E/DX2                !
 ! R19   R(10,22)                1.429          estimate D2E/DX2                !
 ! R20   R(11,12)                1.437          estimate D2E/DX2                !
 ! R21   R(11,23)                1.0881         estimate D2E/DX2                !
 ! R22   R(12,13)                1.4349         estimate D2E/DX2                !
 ! R23   R(12,14)                1.3995         estimate D2E/DX2                !
 ! R24   R(13,16)                1.4386         estimate D2E/DX2                !
 ! R25   R(14,15)                1.3963         estimate D2E/DX2                !
 ! R26   R(14,24)                1.088          estimate D2E/DX2                !
 ! R27   R(15,17)                1.3978         estimate D2E/DX2                !
 ! R28   R(15,26)                1.0875         estimate D2E/DX2                !
 ! R29   R(16,17)                1.4206         estimate D2E/DX2                !
 ! R30   R(16,28)                1.5411         estimate D2E/DX2                !
 ! R31   R(16,36)                1.1353         estimate D2E/DX2                !
 ! R32   R(17,25)                1.0895         estimate D2E/DX2                !
 ! R33   R(20,30)                1.4323         estimate D2E/DX2                !
 ! R34   R(20,32)                1.0876         estimate D2E/DX2                !
 ! R35   R(21,30)                1.4266         estimate D2E/DX2                !
 ! R36   R(21,31)                1.4261         estimate D2E/DX2                !
 ! R37   R(22,31)                1.4321         estimate D2E/DX2                !
 ! R38   R(22,35)                1.0875         estimate D2E/DX2                !
 ! R39   R(27,28)                1.3495         estimate D2E/DX2                !
 ! R40   R(27,29)                1.0891         estimate D2E/DX2                !
 ! R41   R(28,37)                1.0915         estimate D2E/DX2                !
 ! R42   R(30,33)                1.0875         estimate D2E/DX2                !
 ! R43   R(31,34)                1.0874         estimate D2E/DX2                !
 ! A1    A(2,1,4)              122.3339         estimate D2E/DX2                !
 ! A2    A(2,1,18)             119.5967         estimate D2E/DX2                !
 ! A3    A(4,1,18)             118.0506         estimate D2E/DX2                !
 ! A4    A(1,2,3)              115.9677         estimate D2E/DX2                !
 ! A5    A(1,2,27)             122.6466         estimate D2E/DX2                !
 ! A6    A(3,2,27)             121.0249         estimate D2E/DX2                !
 ! A7    A(2,3,6)              120.3007         estimate D2E/DX2                !
 ! A8    A(2,3,7)              133.2248         estimate D2E/DX2                !
 ! A9    A(6,3,7)              106.3537         estimate D2E/DX2                !
 ! A10   A(1,4,5)              120.802          estimate D2E/DX2                !
 ! A11   A(1,4,19)             119.3292         estimate D2E/DX2                !
 ! A12   A(5,4,19)             119.8337         estimate D2E/DX2                !
 ! A13   A(4,5,6)              113.1722         estimate D2E/DX2                !
 ! A14   A(4,5,20)             132.2587         estimate D2E/DX2                !
 ! A15   A(6,5,20)             114.5615         estimate D2E/DX2                !
 ! A16   A(3,6,5)              127.3298         estimate D2E/DX2                !
 ! A17   A(3,6,9)              108.8986         estimate D2E/DX2                !
 ! A18   A(5,6,9)              123.7368         estimate D2E/DX2                !
 ! A19   A(3,7,8)              106.0689         estimate D2E/DX2                !
 ! A20   A(3,7,13)             132.9088         estimate D2E/DX2                !
 ! A21   A(8,7,13)             120.9615         estimate D2E/DX2                !
 ! A22   A(7,8,9)              109.0648         estimate D2E/DX2                !
 ! A23   A(7,8,10)             127.2719         estimate D2E/DX2                !
 ! A24   A(9,8,10)             123.6541         estimate D2E/DX2                !
 ! A25   A(6,9,8)              109.5771         estimate D2E/DX2                !
 ! A26   A(6,9,21)             125.1521         estimate D2E/DX2                !
 ! A27   A(8,9,21)             125.269          estimate D2E/DX2                !
 ! A28   A(8,10,11)            113.1115         estimate D2E/DX2                !
 ! A29   A(8,10,22)            114.6113         estimate D2E/DX2                !
 ! A30   A(11,10,22)           132.2763         estimate D2E/DX2                !
 ! A31   A(10,11,12)           121.6825         estimate D2E/DX2                !
 ! A32   A(10,11,23)           118.6596         estimate D2E/DX2                !
 ! A33   A(12,11,23)           119.6378         estimate D2E/DX2                !
 ! A34   A(11,12,13)           121.3735         estimate D2E/DX2                !
 ! A35   A(11,12,14)           120.6556         estimate D2E/DX2                !
 ! A36   A(13,12,14)           117.9656         estimate D2E/DX2                !
 ! A37   A(7,13,12)            115.4765         estimate D2E/DX2                !
 ! A38   A(7,13,16)            122.422          estimate D2E/DX2                !
 ! A39   A(12,13,16)           121.9477         estimate D2E/DX2                !
 ! A40   A(12,14,15)           121.1325         estimate D2E/DX2                !
 ! A41   A(12,14,24)           120.2632         estimate D2E/DX2                !
 ! A42   A(15,14,24)           118.6041         estimate D2E/DX2                !
 ! A43   A(14,15,17)           120.6277         estimate D2E/DX2                !
 ! A44   A(14,15,26)           119.6964         estimate D2E/DX2                !
 ! A45   A(17,15,26)           119.6747         estimate D2E/DX2                !
 ! A46   A(13,16,17)           116.2615         estimate D2E/DX2                !
 ! A47   A(13,16,28)           121.594          estimate D2E/DX2                !
 ! A48   A(13,16,36)           102.4798         estimate D2E/DX2                !
 ! A49   A(17,16,28)           114.0334         estimate D2E/DX2                !
 ! A50   A(17,16,36)           104.65           estimate D2E/DX2                !
 ! A51   A(28,16,36)            91.5889         estimate D2E/DX2                !
 ! A52   A(15,17,16)           121.6551         estimate D2E/DX2                !
 ! A53   A(15,17,25)           118.1899         estimate D2E/DX2                !
 ! A54   A(16,17,25)           120.1249         estimate D2E/DX2                !
 ! A55   A(5,20,30)            121.3145         estimate D2E/DX2                !
 ! A56   A(5,20,32)            119.493          estimate D2E/DX2                !
 ! A57   A(30,20,32)           119.1869         estimate D2E/DX2                !
 ! A58   A(9,21,30)            113.9121         estimate D2E/DX2                !
 ! A59   A(9,21,31)            113.8481         estimate D2E/DX2                !
 ! A60   A(30,21,31)           132.2395         estimate D2E/DX2                !
 ! A61   A(10,22,31)           121.351          estimate D2E/DX2                !
 ! A62   A(10,22,35)           119.4661         estimate D2E/DX2                !
 ! A63   A(31,22,35)           119.1817         estimate D2E/DX2                !
 ! A64   A(2,27,28)            128.8661         estimate D2E/DX2                !
 ! A65   A(2,27,29)            114.0578         estimate D2E/DX2                !
 ! A66   A(28,27,29)           116.9603         estimate D2E/DX2                !
 ! A67   A(16,28,27)           131.2691         estimate D2E/DX2                !
 ! A68   A(16,28,37)           112.8971         estimate D2E/DX2                !
 ! A69   A(27,28,37)           115.7997         estimate D2E/DX2                !
 ! A70   A(20,30,21)           121.3026         estimate D2E/DX2                !
 ! A71   A(20,30,33)           119.1896         estimate D2E/DX2                !
 ! A72   A(21,30,33)           119.5055         estimate D2E/DX2                !
 ! A73   A(21,31,22)           121.2618         estimate D2E/DX2                !
 ! A74   A(21,31,34)           119.5338         estimate D2E/DX2                !
 ! A75   A(22,31,34)           119.2044         estimate D2E/DX2                !
 ! D1    D(4,1,2,3)              1.1419         estimate D2E/DX2                !
 ! D2    D(4,1,2,27)          -172.0188         estimate D2E/DX2                !
 ! D3    D(18,1,2,3)           179.5306         estimate D2E/DX2                !
 ! D4    D(18,1,2,27)            6.3699         estimate D2E/DX2                !
 ! D5    D(2,1,4,5)              1.4956         estimate D2E/DX2                !
 ! D6    D(2,1,4,19)           179.3379         estimate D2E/DX2                !
 ! D7    D(18,1,4,5)          -176.9169         estimate D2E/DX2                !
 ! D8    D(18,1,4,19)            0.9254         estimate D2E/DX2                !
 ! D9    D(1,2,3,6)             -3.1586         estimate D2E/DX2                !
 ! D10   D(1,2,3,7)           -178.5634         estimate D2E/DX2                !
 ! D11   D(27,2,3,6)           170.1217         estimate D2E/DX2                !
 ! D12   D(27,2,3,7)            -5.283          estimate D2E/DX2                !
 ! D13   D(1,2,27,28)         -172.8818         estimate D2E/DX2                !
 ! D14   D(1,2,27,29)           11.198          estimate D2E/DX2                !
 ! D15   D(3,2,27,28)           14.2953         estimate D2E/DX2                !
 ! D16   D(3,2,27,29)         -161.6249         estimate D2E/DX2                !
 ! D17   D(2,3,6,5)              2.8802         estimate D2E/DX2                !
 ! D18   D(2,3,6,9)           -175.0197         estimate D2E/DX2                !
 ! D19   D(7,3,6,5)            179.3921         estimate D2E/DX2                !
 ! D20   D(7,3,6,9)              1.4923         estimate D2E/DX2                !
 ! D21   D(2,3,7,8)            173.9281         estimate D2E/DX2                !
 ! D22   D(2,3,7,13)            -8.9857         estimate D2E/DX2                !
 ! D23   D(6,3,7,8)             -1.938          estimate D2E/DX2                !
 ! D24   D(6,3,7,13)           175.1482         estimate D2E/DX2                !
 ! D25   D(1,4,5,6)             -1.9245         estimate D2E/DX2                !
 ! D26   D(1,4,5,20)           176.9949         estimate D2E/DX2                !
 ! D27   D(19,4,5,6)          -179.7559         estimate D2E/DX2                !
 ! D28   D(19,4,5,20)           -0.8365         estimate D2E/DX2                !
 ! D29   D(4,5,6,3)             -0.1708         estimate D2E/DX2                !
 ! D30   D(4,5,6,9)            177.4397         estimate D2E/DX2                !
 ! D31   D(20,5,6,3)          -179.2915         estimate D2E/DX2                !
 ! D32   D(20,5,6,9)            -1.681          estimate D2E/DX2                !
 ! D33   D(4,5,20,30)         -177.7743         estimate D2E/DX2                !
 ! D34   D(4,5,20,32)            1.3617         estimate D2E/DX2                !
 ! D35   D(6,5,20,30)            1.1334         estimate D2E/DX2                !
 ! D36   D(6,5,20,32)         -179.7306         estimate D2E/DX2                !
 ! D37   D(3,6,9,8)             -0.467          estimate D2E/DX2                !
 ! D38   D(3,6,9,21)           179.0679         estimate D2E/DX2                !
 ! D39   D(5,6,9,8)           -178.4589         estimate D2E/DX2                !
 ! D40   D(5,6,9,21)             1.076          estimate D2E/DX2                !
 ! D41   D(3,7,8,9)              1.6977         estimate D2E/DX2                !
 ! D42   D(3,7,8,10)          -179.3788         estimate D2E/DX2                !
 ! D43   D(13,7,8,9)          -175.8139         estimate D2E/DX2                !
 ! D44   D(13,7,8,10)            3.1097         estimate D2E/DX2                !
 ! D45   D(3,7,13,12)          179.398          estimate D2E/DX2                !
 ! D46   D(3,7,13,16)           -5.0307         estimate D2E/DX2                !
 ! D47   D(8,7,13,12)           -3.8675         estimate D2E/DX2                !
 ! D48   D(8,7,13,16)          171.7037         estimate D2E/DX2                !
 ! D49   D(7,8,9,6)             -0.8147         estimate D2E/DX2                !
 ! D50   D(7,8,9,21)           179.6512         estimate D2E/DX2                !
 ! D51   D(10,8,9,6)          -179.7856         estimate D2E/DX2                !
 ! D52   D(10,8,9,21)            0.6802         estimate D2E/DX2                !
 ! D53   D(7,8,10,11)            0.0531         estimate D2E/DX2                !
 ! D54   D(7,8,10,22)         -179.6253         estimate D2E/DX2                !
 ! D55   D(9,8,10,11)          178.8309         estimate D2E/DX2                !
 ! D56   D(9,8,10,22)           -0.8476         estimate D2E/DX2                !
 ! D57   D(6,9,21,30)            0.1981         estimate D2E/DX2                !
 ! D58   D(6,9,21,31)         -179.6323         estimate D2E/DX2                !
 ! D59   D(8,9,21,30)          179.6613         estimate D2E/DX2                !
 ! D60   D(8,9,21,31)           -0.1691         estimate D2E/DX2                !
 ! D61   D(8,10,11,12)          -2.0646         estimate D2E/DX2                !
 ! D62   D(8,10,11,23)         179.572          estimate D2E/DX2                !
 ! D63   D(22,10,11,12)        177.5403         estimate D2E/DX2                !
 ! D64   D(22,10,11,23)         -0.8232         estimate D2E/DX2                !
 ! D65   D(8,10,22,31)           0.5953         estimate D2E/DX2                !
 ! D66   D(8,10,22,35)        -179.809          estimate D2E/DX2                !
 ! D67   D(11,10,22,31)       -179.005          estimate D2E/DX2                !
 ! D68   D(11,10,22,35)          0.5907         estimate D2E/DX2                !
 ! D69   D(10,11,12,13)          1.1094         estimate D2E/DX2                !
 ! D70   D(10,11,12,14)       -178.0275         estimate D2E/DX2                !
 ! D71   D(23,11,12,13)        179.4571         estimate D2E/DX2                !
 ! D72   D(23,11,12,14)          0.3202         estimate D2E/DX2                !
 ! D73   D(11,12,13,7)           1.9222         estimate D2E/DX2                !
 ! D74   D(11,12,13,16)       -173.6721         estimate D2E/DX2                !
 ! D75   D(14,12,13,7)        -178.9184         estimate D2E/DX2                !
 ! D76   D(14,12,13,16)          5.4873         estimate D2E/DX2                !
 ! D77   D(11,12,14,15)        178.4724         estimate D2E/DX2                !
 ! D78   D(11,12,14,24)         -1.6667         estimate D2E/DX2                !
 ! D79   D(13,12,14,15)         -0.6933         estimate D2E/DX2                !
 ! D80   D(13,12,14,24)        179.1676         estimate D2E/DX2                !
 ! D81   D(7,13,16,17)         176.8553         estimate D2E/DX2                !
 ! D82   D(7,13,16,28)          30.0685         estimate D2E/DX2                !
 ! D83   D(7,13,16,36)         -69.6884         estimate D2E/DX2                !
 ! D84   D(12,13,16,17)         -7.8571         estimate D2E/DX2                !
 ! D85   D(12,13,16,28)       -154.6439         estimate D2E/DX2                !
 ! D86   D(12,13,16,36)        105.5992         estimate D2E/DX2                !
 ! D87   D(12,14,15,17)         -1.3757         estimate D2E/DX2                !
 ! D88   D(12,14,15,26)        179.0061         estimate D2E/DX2                !
 ! D89   D(24,14,15,17)        178.7612         estimate D2E/DX2                !
 ! D90   D(24,14,15,26)         -0.857          estimate D2E/DX2                !
 ! D91   D(14,15,17,16)         -1.2936         estimate D2E/DX2                !
 ! D92   D(14,15,17,25)       -179.2996         estimate D2E/DX2                !
 ! D93   D(26,15,17,16)        178.3246         estimate D2E/DX2                !
 ! D94   D(26,15,17,25)          0.3186         estimate D2E/DX2                !
 ! D95   D(13,16,17,15)          5.7128         estimate D2E/DX2                !
 ! D96   D(13,16,17,25)       -176.3191         estimate D2E/DX2                !
 ! D97   D(28,16,17,15)        154.992          estimate D2E/DX2                !
 ! D98   D(28,16,17,25)        -27.0399         estimate D2E/DX2                !
 ! D99   D(36,16,17,15)       -106.4998         estimate D2E/DX2                !
 ! D100  D(36,16,17,25)         71.4682         estimate D2E/DX2                !
 ! D101  D(13,16,28,27)        -34.6477         estimate D2E/DX2                !
 ! D102  D(13,16,28,37)        147.6063         estimate D2E/DX2                !
 ! D103  D(17,16,28,27)        177.8893         estimate D2E/DX2                !
 ! D104  D(17,16,28,37)          0.1433         estimate D2E/DX2                !
 ! D105  D(36,16,28,27)         71.0675         estimate D2E/DX2                !
 ! D106  D(36,16,28,37)       -106.6785         estimate D2E/DX2                !
 ! D107  D(5,20,30,21)           0.0177         estimate D2E/DX2                !
 ! D108  D(5,20,30,33)         179.4605         estimate D2E/DX2                !
 ! D109  D(32,20,30,21)       -179.1209         estimate D2E/DX2                !
 ! D110  D(32,20,30,33)          0.3219         estimate D2E/DX2                !
 ! D111  D(9,21,30,20)          -0.6942         estimate D2E/DX2                !
 ! D112  D(9,21,30,33)         179.8648         estimate D2E/DX2                !
 ! D113  D(31,21,30,20)        179.0963         estimate D2E/DX2                !
 ! D114  D(31,21,30,33)         -0.3447         estimate D2E/DX2                !
 ! D115  D(9,21,31,22)          -0.07           estimate D2E/DX2                !
 ! D116  D(9,21,31,34)         179.9193         estimate D2E/DX2                !
 ! D117  D(30,21,31,22)       -179.8606         estimate D2E/DX2                !
 ! D118  D(30,21,31,34)          0.1286         estimate D2E/DX2                !
 ! D119  D(10,22,31,21)         -0.1643         estimate D2E/DX2                !
 ! D120  D(10,22,31,34)        179.8464         estimate D2E/DX2                !
 ! D121  D(35,22,31,21)       -179.7611         estimate D2E/DX2                !
 ! D122  D(35,22,31,34)          0.2496         estimate D2E/DX2                !
 ! D123  D(2,27,28,16)           6.5879         estimate D2E/DX2                !
 ! D124  D(2,27,28,37)        -175.7184         estimate D2E/DX2                !
 ! D125  D(29,27,28,16)       -177.5919         estimate D2E/DX2                !
 ! D126  D(29,27,28,37)          0.1018         estimate D2E/DX2                !
 --------------------------------------------------------------------------------
 Trust Radius=3.00D-01 FncErr=1.00D-07 GrdErr=1.00D-06 EigMax=2.50D+02 EigMin=1.00D-04
 Number of steps in this run=    222 maximum allowed number of steps=    222.
 GradGradGradGradGradGradGradGradGradGradGradGradGradGradGradGradGradGrad

                          Input orientation:                          
 ---------------------------------------------------------------------
 Center     Atomic      Atomic             Coordinates (Angstroms)
 Number     Number       Type             X           Y           Z
 ---------------------------------------------------------------------
      1          6           0       -1.954610    2.967080   -0.083350
      2          6           0       -0.670310    2.374470   -0.009320
      3          6           0       -0.637760    1.003570   -0.054150
      4          6           0       -3.151740    2.189690   -0.174000
      5          6           0       -3.100090    0.774570   -0.161850
      6          6           0       -1.814490    0.278920   -0.099650
      7          6           0        0.430690    0.038530    0.017600
      8          6           0       -0.176780   -1.202870    0.055370
      9          6           0       -1.519900   -1.041160   -0.026680
     10          6           0        0.440030   -2.430500    0.138110
     11          6           0        1.853190   -2.340670    0.187630
     12          6           0        2.532340   -1.076770    0.108390
     13          6           0        1.806130    0.155920   -0.001180
     14          6           0        3.930460   -1.016150    0.118150
     15          6           0        4.600950    0.203890    0.009870
     16          6           0        2.470030    1.414130   -0.215310
     17          6           0        3.888520    1.397140   -0.140220
     18          1           0       -2.049680    4.051030   -0.045220
     19          1           0       -4.113200    2.695500   -0.217430
     20          6           0       -4.121060   -0.224020   -0.181660
     21          6           0       -2.447820   -2.064080   -0.025620
     22          6           0       -0.453310   -3.545710    0.150570
     23          1           0        2.432210   -3.258960    0.261150
     24          1           0        4.518150   -1.926850    0.213340
     25          1           0        4.452150    2.324960   -0.232640
     26          1           0        5.687940    0.225490    0.036340
     27          6           0        0.547260    3.152400    0.254780
     28          6           0        1.834180    2.747540    0.223760
     29          1           0        0.359220    4.175910    0.576150
     30          6           0       -3.800050   -1.618260   -0.114900
     31          6           0       -1.871570   -3.365210    0.068410
     32          1           0       -5.164500    0.078040   -0.234470
     33          1           0       -4.605420   -2.348930   -0.123590
     34          1           0       -2.519060   -4.238780    0.078300
     35          1           0       -0.050010   -4.553500    0.217210
     36          1           0        2.242830    1.628780   -1.306690
     37          1           0        2.573410    3.490590    0.528320
 ---------------------------------------------------------------------
                    Distance matrix (angstroms):
                    1          2          3          4          5
     1  C    0.000000
     2  C    1.416366   0.000000
     3  C    2.364385   1.372019   0.000000
     4  C    1.430270   2.493744   2.782326   0.000000
     5  C    2.474952   2.913207   2.475300   1.416114   0.000000
     6  C    2.691859   2.389275   1.382708   2.333411   1.379241
     7  C    3.778393   2.582546   1.441539   4.183062   3.611144
     8  C    4.535240   3.611803   2.256740   4.518015   3.535986
     9  C    4.032142   3.519749   2.227071   3.622568   2.410839
    10  C    5.909079   4.933794   3.604363   5.860408   4.784861
    11  C    6.537965   5.351578   4.176988   6.760493   5.861897
    12  C    6.043361   4.709764   3.795230   6.561880   5.935045
    13  C    4.696013   3.324874   2.587260   5.361582   4.947680
    14  C    7.109203   5.716611   4.997759   7.779481   7.260421
    15  C    7.114722   5.700699   5.299780   8.005087   7.724065
    16  C    4.691109   3.290353   3.138931   5.675165   5.606972
    17  C    6.050629   4.664251   4.544174   7.084810   7.016319
    18  H    1.088779   2.171360   3.358662   2.166958   3.442696
    19  H    2.179735   3.464082   3.868846   1.087260   2.172430
    20  C    3.858275   4.323139   3.695486   2.601084   1.428270
    21  C    5.055607   4.781269   3.561967   4.314172   2.915810
    22  C    6.687679   5.926313   4.557618   6.346785   5.076206
    23  H    7.624070   6.436949   5.262442   7.813939   6.859638
    24  H    8.120049   6.743222   5.936524   8.713389   8.091725
    25  H    6.440588   5.127565   5.261665   7.605319   7.710062
    26  H    8.120296   6.711747   6.374016   9.057719   8.807397
    27  C    2.531408   1.468809   2.473293   3.846201   4.373879
    28  C    3.807551   2.542829   3.037952   5.032773   5.328070
    29  H    2.692586   2.155897   3.384522   4.103003   4.907197
    30  C    4.942872   5.074280   4.108255   3.863196   2.493548
    31  C    6.334653   5.864554   4.541316   5.705656   4.324357
    32  H    4.321202   5.051933   4.623905   2.917863   2.179958
    33  H    5.940402   6.148874   5.194844   4.766004   3.467526
    34  H    7.229741   6.867360   5.571272   6.464454   5.052618
    35  H    7.763824   6.959372   5.594650   7.432657   6.151017
    36  H    4.572320   3.274997   3.202740   5.540667   5.530563
    37  H    4.599040   3.472247   4.103188   5.912947   6.327851
                    6          7          8          9         10
     6  C    0.000000
     7  C    2.261055   0.000000
     8  C    2.214007   1.382577   0.000000
     9  C    1.354518   2.229909   1.355306   0.000000
    10  C    3.532753   2.471987   1.376363   2.408059   0.000000
    11  C    4.516266   2.777230   2.330850   3.621104   1.416878
    12  C    4.558082   2.380981   2.712571   4.054647   2.492234
    13  C    3.624047   1.380568   2.404463   3.534986   2.928344
    14  C    5.893140   3.656617   4.111961   5.452341   3.766150
    15  C    6.416813   4.173544   4.980738   6.246302   4.926430
    16  C    4.433869   2.470917   3.731965   4.688664   4.361993
    17  C    5.811745   3.718510   4.829593   5.933735   5.159494
    18  H    3.779827   4.717662   5.578650   5.119708   6.945682
    19  H    3.337334   5.268934   5.546811   4.552386   6.865434
    20  C    2.362190   4.563668   4.070832   2.730892   5.076844
    21  C    2.428217   3.564920   2.430198   1.381087   2.915604
    22  C    4.067335   3.694038   2.361023   2.727967   1.428952
    23  H    5.539064   3.865079   3.328165   4.540997   2.161080
    24  H    6.713100   4.539643   4.753048   6.107381   4.109791
    25  H    6.593538   4.632766   5.827137   6.858467   6.232894
    26  H    7.503853   5.260607   6.036184   7.318561   5.882618
    27  C    3.736358   3.125065   4.419545   4.683836   5.585148
    28  C    4.417179   3.057944   4.435995   5.066243   5.363123
    29  H    4.513120   4.175524   5.430450   5.577841   6.621409
    30  C    2.746265   4.545511   3.650976   2.353702   4.324584
    31  C    3.648450   4.109553   2.747398   2.352429   2.494401
    32  H    3.358734   5.601005   5.157721   3.818232   6.151613
    33  H    3.833466   5.575151   4.578027   3.352624   5.052891
    34  H    4.575773   5.196161   3.834521   3.351733   3.468381
    35  H    5.154229   4.621434   3.356931   3.815310   2.180258
    36  H    4.443075   2.750725   3.965849   4.788021   4.670684
    37  H    5.473832   4.094973   5.460384   6.131881   6.305782
                   11         12         13         14         15
    11  C    0.000000
    12  C    1.436999   0.000000
    13  C    2.504162   1.434891   0.000000
    14  C    2.464596   1.399468   2.429149   0.000000
    15  C    3.749209   2.434942   2.795253   1.396345   0.000000
    16  C    3.826405   2.512618   1.438648   2.854875   2.460936
    17  C    4.268639   2.832183   2.428231   2.427444   1.397830
    18  H    7.492693   6.878433   5.480975   7.839967   7.683385
    19  H    7.818241   7.648489   6.444742   8.865068   9.066212
    20  C    6.348877   6.714093   5.942096   8.095945   8.734601
    21  C    4.315167   5.078852   4.798446   6.465391   7.404735
    22  C    2.602583   3.874474   4.339373   5.061340   6.294827
    23  H    1.088084   2.189821   3.481695   2.701000   4.093642
    24  H    2.697021   2.162659   3.426223   1.088033   2.142034
    25  H    5.357175   3.920936   3.429246   3.399740   2.140068
    26  H    4.616641   3.414511   3.882615   2.153392   1.087527
    27  C    5.646572   4.674169   3.260239   5.370430   5.018575
    28  C    5.088374   3.889227   2.601515   4.309397   3.764428
    29  H    6.696918   5.703674   4.311285   6.318307   5.838655
    30  C    5.707234   6.359421   5.881318   7.757424   8.597244
    31  C    3.864936   4.963162   5.092021   6.259721   7.391577
    32  H    7.434803   7.790538   6.974968   9.167327   9.769317
    33  H    6.466109   7.253952   6.884565   8.642684   9.554682
    34  H    4.767740   5.959518   6.166601   7.209940   8.392648
    35  H    2.918846   4.332208   5.066714   5.326049   6.656364
    36  H    4.259266   3.066964   2.016031   3.445855   3.053583
    37  H    5.885438   4.586808   3.462530   4.724461   3.896422
                   16         17         18         19         20
    16  C    0.000000
    17  C    1.420578   0.000000
    18  H    5.235451   6.504950   0.000000
    19  H    6.706775   8.106739   2.474921   0.000000
    20  C    6.791696   8.172102   4.752398   2.919750   0.000000
    21  C    6.026539   7.220968   6.128089   5.046175   2.491967
    22  C    5.768865   6.585424   7.765126   7.244510   4.959475
    23  H    4.697469   4.895018   8.580044   8.861548   7.235488
    24  H    3.942167   3.401521   8.884722   9.800606   8.814284
    25  H    2.181447   1.089528   6.729654   8.573375   8.944262
    26  H    3.439642   2.154495   8.632043  10.110771   9.821714
    27  C    2.634314   3.794862   2.764350   4.706552   5.777881
    28  C    1.541126   2.485231   4.105582   5.963949   6.667790
    29  H    3.565018   4.548704   2.490882   4.777439   6.325075
    30  C    6.965585   8.258776   5.933759   4.326326   1.432274
    31  C    6.463132   7.476773   7.419249   6.468293   3.871668
    32  H    7.750584   9.149103   5.051987   2.820748   1.087564
    33  H    8.014426   9.283336   6.891838   5.069256   2.180188
    34  H    7.545371   8.536301   8.304007   7.121304   4.330390
    35  H    6.492325   7.144921   8.837731   8.321444   5.956252
    36  H    1.135255   2.030420   5.087656   6.536321   6.722920
    37  H    2.208022   2.561053   4.692121   6.774885   7.688844
                   21         22         23         24         25
    21  C    0.000000
    22  C    2.490851   0.000000
    23  H    5.032362   2.901841   0.000000
    24  H    6.971418   5.228773   2.475469   0.000000
    25  H    8.180227   7.659971   5.958536   4.275645   0.000000
    26  H    8.452015   7.207631   4.774066   2.456075   2.450980
    27  C    6.021693   6.773232   6.682710   6.447361   4.021244
    28  C    6.445883   6.696489   6.036313   5.390151   2.690844
    29  H    6.868703   7.775908   7.724882   7.394052   4.564234
    30  C    1.426623   3.871202   6.455569   8.330391   9.146674
    31  C    1.426129   1.432059   4.309404   6.551214   8.512232
    32  H    3.465927   5.956100   8.312112   9.898173   9.875657
    33  H    2.178526   4.329834   7.106646   9.139541  10.192974
    34  H    2.178347   2.180113   5.050600   7.408480   9.580038
    35  H    3.464920   1.087535   2.799854   5.269477   8.233166
    36  H    6.105780   6.013994   5.136535   4.486655   2.553301
    37  H    7.508259   7.668980   6.756311   5.764537   2.338251
                   26         27         28         29         30
    26  H    0.000000
    27  C    5.919553   0.000000
    28  C    4.609482   1.349458   0.000000
    29  H    6.655259   1.089133   2.083249   0.000000
    30  C    9.666656   6.464903   7.135786   7.165855   0.000000
    31  C    8.369011   6.954474   7.149995   7.880528   2.608538
    32  H   10.856820   6.505018   7.504514   6.925397   2.180242
    33  H   10.611620   7.547046   8.219678   8.228659   1.087463
    34  H    9.342715   8.003937   8.232893   8.907264   2.923249
    35  H    7.469641   7.729103   7.540252   8.746365   4.773754
    36  H    3.954963   2.763071   1.939303   3.685233   6.962760
    37  H    4.539077   2.072313   1.091486   2.318316   8.193599
                   31         32         33         34         35
    31  C    0.000000
    32  H    4.774002   0.000000
    33  H    2.922948   2.493000   0.000000
    34  H    1.087412   5.072584   2.822267   0.000000
    35  H    2.179967   6.914708   5.072281   2.492900   0.000000
    36  H    6.615068   7.643493   8.007523   7.682581   6.767568
    37  H    8.183603   8.491325   9.276884   9.267089   8.466788
                   36         37
    36  H    0.000000
    37  H    2.634935   0.000000
 Stoichiometry    C24H13(2)
 Framework group  C1[X(C24H13)]
 Deg. of freedom   105
 Full point group                 C1      NOp   1
 Largest Abelian subgroup         C1      NOp   1
 Largest concise Abelian subgroup C1      NOp   1
                         Standard orientation:                         
 ---------------------------------------------------------------------
 Center     Atomic      Atomic             Coordinates (Angstroms)
 Number     Number       Type             X           Y           Z
 ---------------------------------------------------------------------
      1          6           0        1.428181    3.266432   -0.011650
      2          6           0        0.252653    2.477164   -0.047485
      3          6           0        0.438195    1.119557    0.022621
      4          6           0        2.734667    2.689769    0.067248
      5          6           0        2.907303    1.284290    0.081599
      6          6           0        1.715372    0.590789    0.055877
      7          6           0       -0.465282   -0.003284   -0.008881
      8          6           0        0.330114   -1.133794   -0.037387
      9          6           0        1.632019   -0.760479    0.012935
     10          6           0       -0.086150   -2.444843   -0.084846
     11          6           0       -1.496395   -2.580191   -0.105662
     12          6           0       -2.365355   -1.437903   -0.034569
     13          6           0       -1.841395   -0.104030    0.037273
     14          6           0       -3.755402   -1.598876   -0.015439
     15          6           0       -4.608342   -0.497910    0.085283
     16          6           0       -2.691927    1.037893    0.242978
     17          6           0       -4.091005    0.795706    0.198633
     18          1           0        1.349874    4.350755   -0.071251
     19          1           0        3.604643    3.341757    0.080973
     20          6           0        4.073570    0.459956    0.097429
     21          6           0        2.709889   -1.623956    0.010335
     22          6           0        0.971970   -3.405129   -0.096445
     23          1           0       -1.924115   -3.579687   -0.150265
     24          1           0       -4.193280   -2.592704   -0.081654
     25          1           0       -4.792515    1.624707    0.286454
     26          1           0       -5.685364   -0.648664    0.081740
     27          6           0       -1.077278    3.047474   -0.299336
     28          6           0       -2.283165    2.445364   -0.233475
     29          1           0       -1.059433    4.080820   -0.642975
     30          6           0        3.975979   -0.968565    0.062592
     31          6           0        2.345087   -3.001405   -0.047960
     32          1           0        5.056882    0.923926    0.122429
     33          1           0        4.886812   -1.562651    0.067121
     34          1           0        3.122318   -3.761873   -0.056055
     35          1           0        0.732012   -4.465111   -0.136331
     36          1           0       -2.481571    1.308688    1.325210
     37          1           0       -3.136085    3.055865   -0.535399
 ---------------------------------------------------------------------
 Rotational constants (GHZ):           0.4277090           0.2600685           0.1623971
 Standard basis: 6-311+G(d,p) (5D, 7F)
 There are   630 symmetry adapted cartesian basis functions of A   symmetry.
 There are   606 symmetry adapted basis functions of A   symmetry.
   606 basis functions,   968 primitive gaussians,   630 cartesian basis functions
    79 alpha electrons       78 beta electrons
       nuclear repulsion energy      1853.9752764339 Hartrees.
 NAtoms=   37 NActive=   37 NUniq=   37 SFac= 1.00D+00 NAtFMM=   60 NAOKFM=F Big=F
 Integral buffers will be    131072 words long.
 Raffenetti 2 integral format.
 Two-electron integral symmetry is turned on.
 One-electron integrals computed using PRISM.
 NBasis=   606 RedAO= T EigKep=  1.23D-06  NBF=   606
 NBsUse=   589 1.00D-06 EigRej=  8.44D-07 NBFU=   589
 ExpMin= 4.38D-02 ExpMax= 4.56D+03 ExpMxC= 6.82D+02 IAcc=2 IRadAn=         4 AccDes= 0.00D+00
 Harris functional with IExCor=  402 and IRadAn=       4 diagonalized for initial guess.
 HarFok:  IExCor=  402 AccDes= 0.00D+00 IRadAn=         4 IDoV= 1 UseB2=F ITyADJ=14
 ICtDFT=  3500011 ScaDFX=  1.000000  1.000000  1.000000  1.000000
 FoFCou: FMM=F IPFlag=           0 FMFlag=      100000 FMFlg1=           0
         NFxFlg=           0 DoJE=T BraDBF=F KetDBF=T FulRan=T
         wScrn=  0.000000 ICntrl=       500 IOpCl=  0 I1Cent=   200000004 NGrid=           0
         NMat0=    1 NMatS0=      1 NMatT0=    0 NMatD0=    1 NMtDS0=    0 NMtDT0=    0
 Petite list used in FoFCou.
 Initial guess <Sx>= 0.0000 <Sy>= 0.0000 <Sz>= 0.5000 <S**2>= 0.7500 S= 0.5000
 Requested convergence on RMS density matrix=1.00D-08 within 128 cycles.
 Requested convergence on MAX density matrix=1.00D-06.
 Requested convergence on             energy=1.00D-06.
 No special actions if energy rises.
 Restarting incremental Fock formation.
 SCF Done:  E(UB3LYP) =  -922.529581989     A.U. after   22 cycles
            NFock= 22  Conv=0.99D-08     -V/T= 2.0037
 <Sx>= 0.0000 <Sy>= 0.0000 <Sz>= 0.5000 <S**2>= 0.7888 S= 0.5192
 <L.S>=  0.00000000000    
 Annihilation of the first spin contaminant:
 S**2 before annihilation     0.7888,   after     0.7511

 **********************************************************************

            Population analysis using the SCF density.

 **********************************************************************

 Orbital symmetries:
 Alpha Orbitals:
       Occupied  (A) (A) (A) (A) (A) (A) (A) (A) (A) (A) (A) (A)
                 (A) (A) (A) (A) (A) (A) (A) (A) (A) (A) (A) (A)
                 (A) (A) (A) (A) (A) (A) (A) (A) (A) (A) (A) (A)
                 (A) (A) (A) (A) (A) (A) (A) (A) (A) (A) (A) (A)
                 (A) (A) (A) (A) (A) (A) (A) (A) (A) (A) (A) (A)
                 (A) (A) (A) (A) (A) (A) (A) (A) (A) (A) (A) (A)
                 (A) (A) (A) (A) (A) (A) (A)
       Virtual   (A) (A) (A) (A) (A) (A) (A) (A) (A) (A) (A) (A)
                 (A) (A) (A) (A) (A) (A) (A) (A) (A) (A) (A) (A)
                 (A) (A) (A) (A) (A) (A) (A) (A) (A) (A) (A) (A)
                 (A) (A) (A) (A) (A) (A) (A) (A) (A) (A) (A) (A)
                 (A) (A) (A) (A) (A) (A) (A) (A) (A) (A) (A) (A)
                 (A) (A) (A) (A) (A) (A) (A) (A) (A) (A) (A) (A)
                 (A) (A) (A) (A) (A) (A) (A) (A) (A) (A) (A) (A)
                 (A) (A) (A) (A) (A) (A) (A) (A) (A) (A) (A) (A)
                 (A) (A) (A) (A) (A) (A) (A) (A) (A) (A) (A) (A)
                 (A) (A) (A) (A) (A) (A) (A) (A) (A) (A) (A) (A)
                 (A) (A) (A) (A) (A) (A) (A) (A) (A) (A) (A) (A)
                 (A) (A) (A) (A) (A) (A) (A) (A) (A) (A) (A) (A)
                 (A) (A) (A) (A) (A) (A) (A) (A) (A) (A) (A) (A)
                 (A) (A) (A) (A) (A) (A) (A) (A) (A) (A) (A) (A)
                 (A) (A) (A) (A) (A) (A) (A) (A) (A) (A) (A) (A)
                 (A) (A) (A) (A) (A) (A) (A) (A) (A) (A) (A) (A)
                 (A) (A) (A) (A) (A) (A) (A) (A) (A) (A) (A) (A)
                 (A) (A) (A) (A) (A) (A) (A) (A) (A) (A) (A) (A)
                 (A) (A) (A) (A) (A) (A) (A) (A) (A) (A) (A) (A)
                 (A) (A) (A) (A) (A) (A) (A) (A) (A) (A) (A) (A)
                 (A) (A) (A) (A) (A) (A) (A) (A) (A) (A) (A) (A)
                 (A) (A) (A) (A) (A) (A) (A) (A) (A) (A) (A) (A)
                 (A) (A) (A) (A) (A) (A) (A) (A) (A) (A) (A) (A)
                 (A) (A) (A) (A) (A) (A) (A) (A) (A) (A) (A) (A)
                 (A) (A) (A) (A) (A) (A) (A) (A) (A) (A) (A) (A)
                 (A) (A) (A) (A) (A) (A) (A) (A) (A) (A) (A) (A)
                 (A) (A) (A) (A) (A) (A) (A) (A) (A) (A) (A) (A)
                 (A) (A) (A) (A) (A) (A) (A) (A) (A) (A) (A) (A)
                 (A) (A) (A) (A) (A) (A) (A) (A) (A) (A) (A) (A)
                 (A) (A) (A) (A) (A) (A) (A) (A) (A) (A) (A) (A)
                 (A) (A) (A) (A) (A) (A) (A) (A) (A) (A) (A) (A)
                 (A) (A) (A) (A) (A) (A) (A) (A) (A) (A) (A) (A)
                 (A) (A) (A) (A) (A) (A) (A) (A) (A) (A) (A) (A)
                 (A) (A) (A) (A) (A) (A) (A) (A) (A) (A) (A) (A)
                 (A) (A) (A) (A) (A) (A) (A) (A) (A) (A) (A) (A)
                 (A) (A) (A) (A) (A) (A) (A) (A) (A) (A) (A) (A)
                 (A) (A) (A) (A) (A) (A) (A) (A) (A) (A) (A) (A)
                 (A) (A) (A) (A) (A) (A) (A) (A) (A) (A) (A) (A)
                 (A) (A) (A) (A) (A) (A) (A) (A) (A) (A) (A) (A)
                 (A) (A) (A) (A) (A) (A) (A) (A) (A) (A) (A) (A)
                 (A) (A) (A) (A) (A) (A) (A) (A) (A) (A) (A) (A)
                 (A) (A) (A) (A) (A) (A) (A) (A) (A) (A) (A) (A)
                 (A) (A) (A) (A) (A) (A)
 Beta  Orbitals:
       Occupied  (A) (A) (A) (A) (A) (A) (A) (A) (A) (A) (A) (A)
                 (A) (A) (A) (A) (A) (A) (A) (A) (A) (A) (A) (A)
                 (A) (A) (A) (A) (A) (A) (A) (A) (A) (A) (A) (A)
                 (A) (A) (A) (A) (A) (A) (A) (A) (A) (A) (A) (A)
                 (A) (A) (A) (A) (A) (A) (A) (A) (A) (A) (A) (A)
                 (A) (A) (A) (A) (A) (A) (A) (A) (A) (A) (A) (A)
                 (A) (A) (A) (A) (A) (A)
       Virtual   (A) (A) (A) (A) (A) (A) (A) (A) (A) (A) (A) (A)
                 (A) (A) (A) (A) (A) (A) (A) (A) (A) (A) (A) (A)
                 (A) (A) (A) (A) (A) (A) (A) (A) (A) (A) (A) (A)
                 (A) (A) (A) (A) (A) (A) (A) (A) (A) (A) (A) (A)
                 (A) (A) (A) (A) (A) (A) (A) (A) (A) (A) (A) (A)
                 (A) (A) (A) (A) (A) (A) (A) (A) (A) (A) (A) (A)
                 (A) (A) (A) (A) (A) (A) (A) (A) (A) (A) (A) (A)
                 (A) (A) (A) (A) (A) (A) (A) (A) (A) (A) (A) (A)
                 (A) (A) (A) (A) (A) (A) (A) (A) (A) (A) (A) (A)
                 (A) (A) (A) (A) (A) (A) (A) (A) (A) (A) (A) (A)
                 (A) (A) (A) (A) (A) (A) (A) (A) (A) (A) (A) (A)
                 (A) (A) (A) (A) (A) (A) (A) (A) (A) (A) (A) (A)
                 (A) (A) (A) (A) (A) (A) (A) (A) (A) (A) (A) (A)
                 (A) (A) (A) (A) (A) (A) (A) (A) (A) (A) (A) (A)
                 (A) (A) (A) (A) (A) (A) (A) (A) (A) (A) (A) (A)
                 (A) (A) (A) (A) (A) (A) (A) (A) (A) (A) (A) (A)
                 (A) (A) (A) (A) (A) (A) (A) (A) (A) (A) (A) (A)
                 (A) (A) (A) (A) (A) (A) (A) (A) (A) (A) (A) (A)
                 (A) (A) (A) (A) (A) (A) (A) (A) (A) (A) (A) (A)
                 (A) (A) (A) (A) (A) (A) (A) (A) (A) (A) (A) (A)
                 (A) (A) (A) (A) (A) (A) (A) (A) (A) (A) (A) (A)
                 (A) (A) (A) (A) (A) (A) (A) (A) (A) (A) (A) (A)
                 (A) (A) (A) (A) (A) (A) (A) (A) (A) (A) (A) (A)
                 (A) (A) (A) (A) (A) (A) (A) (A) (A) (A) (A) (A)
                 (A) (A) (A) (A) (A) (A) (A) (A) (A) (A) (A) (A)
                 (A) (A) (A) (A) (A) (A) (A) (A) (A) (A) (A) (A)
                 (A) (A) (A) (A) (A) (A) (A) (A) (A) (A) (A) (A)
                 (A) (A) (A) (A) (A) (A) (A) (A) (A) (A) (A) (A)
                 (A) (A) (A) (A) (A) (A) (A) (A) (A) (A) (A) (A)
                 (A) (A) (A) (A) (A) (A) (A) (A) (A) (A) (A) (A)
                 (A) (A) (A) (A) (A) (A) (A) (A) (A) (A) (A) (A)
                 (A) (A) (A) (A) (A) (A) (A) (A) (A) (A) (A) (A)
                 (A) (A) (A) (A) (A) (A) (A) (A) (A) (A) (A) (A)
                 (A) (A) (A) (A) (A) (A) (A) (A) (A) (A) (A) (A)
                 (A) (A) (A) (A) (A) (A) (A) (A) (A) (A) (A) (A)
                 (A) (A) (A) (A) (A) (A) (A) (A) (A) (A) (A) (A)
                 (A) (A) (A) (A) (A) (A) (A) (A) (A) (A) (A) (A)
                 (A) (A) (A) (A) (A) (A) (A) (A) (A) (A) (A) (A)
                 (A) (A) (A) (A) (A) (A) (A) (A) (A) (A) (A) (A)
                 (A) (A) (A) (A) (A) (A) (A) (A) (A) (A) (A) (A)
                 (A) (A) (A) (A) (A) (A) (A) (A) (A) (A) (A) (A)
                 (A) (A) (A) (A) (A) (A) (A) (A) (A) (A) (A) (A)
                 (A) (A) (A) (A) (A) (A) (A)
 The electronic state is 2-A.
 Alpha  occ. eigenvalues --  -10.20491 -10.20135 -10.19844 -10.19586 -10.19504
 Alpha  occ. eigenvalues --  -10.19367 -10.19279 -10.19250 -10.19136 -10.19114
 Alpha  occ. eigenvalues --  -10.18963 -10.18925 -10.18908 -10.18816 -10.18703
 Alpha  occ. eigenvalues --  -10.18666 -10.18579 -10.18220 -10.18160 -10.17629
 Alpha  occ. eigenvalues --  -10.17579 -10.15848 -10.15795 -10.15680  -0.93530
 Alpha  occ. eigenvalues --   -0.89151  -0.86853  -0.84468  -0.82256  -0.81918
 Alpha  occ. eigenvalues --   -0.79023  -0.77700  -0.75808  -0.72787  -0.72405
 Alpha  occ. eigenvalues --   -0.71225  -0.66989  -0.65923  -0.63827  -0.62925
 Alpha  occ. eigenvalues --   -0.60450  -0.59675  -0.57668  -0.56627  -0.53535
 Alpha  occ. eigenvalues --   -0.51667  -0.51203  -0.49908  -0.49250  -0.48646
 Alpha  occ. eigenvalues --   -0.46859  -0.46433  -0.45074  -0.44709  -0.43807
 Alpha  occ. eigenvalues --   -0.43499  -0.43263  -0.42160  -0.42087  -0.40958
 Alpha  occ. eigenvalues --   -0.40195  -0.39709  -0.38861  -0.37737  -0.37049
 Alpha  occ. eigenvalues --   -0.35979  -0.35499  -0.35010  -0.34568  -0.33785
 Alpha  occ. eigenvalues --   -0.32973  -0.32007  -0.30365  -0.28900  -0.26179
 Alpha  occ. eigenvalues --   -0.23441  -0.22816  -0.21793  -0.16919
 Alpha virt. eigenvalues --   -0.08995  -0.05863  -0.03612  -0.00999  -0.00365
 Alpha virt. eigenvalues --    0.00784   0.00873   0.00965   0.01904   0.01944
 Alpha virt. eigenvalues --    0.02022   0.02755   0.03331   0.03504   0.03910
 Alpha virt. eigenvalues --    0.04360   0.04879   0.05165   0.05572   0.05655
 Alpha virt. eigenvalues --    0.06151   0.06749   0.07444   0.07877   0.08182
 Alpha virt. eigenvalues --    0.08455   0.08929   0.09138   0.09386   0.10000
 Alpha virt. eigenvalues --    0.10300   0.10734   0.11002   0.11368   0.11611
 Alpha virt. eigenvalues --    0.11911   0.12590   0.13030   0.13730   0.13843
 Alpha virt. eigenvalues --    0.14044   0.14382   0.14666   0.15171   0.15588
 Alpha virt. eigenvalues --    0.16316   0.16737   0.16874   0.17007   0.17214
 Alpha virt. eigenvalues --    0.17412   0.17563   0.17748   0.18041   0.18131
 Alpha virt. eigenvalues --    0.18295   0.18961   0.19199   0.19299   0.19660
 Alpha virt. eigenvalues --    0.19799   0.20064   0.20253   0.20630   0.20916
 Alpha virt. eigenvalues --    0.21134   0.21438   0.21816   0.21910   0.22557
 Alpha virt. eigenvalues --    0.22698   0.22803   0.23189   0.23775   0.23902
 Alpha virt. eigenvalues --    0.23990   0.24116   0.24363   0.24656   0.25022
 Alpha virt. eigenvalues --    0.25263   0.25421   0.25753   0.26015   0.26225
 Alpha virt. eigenvalues --    0.26566   0.26989   0.27451   0.27587   0.27924
 Alpha virt. eigenvalues --    0.28348   0.28778   0.29115   0.29510   0.29554
 Alpha virt. eigenvalues --    0.29801   0.30398   0.30693   0.31178   0.31421
 Alpha virt. eigenvalues --    0.31731   0.32476   0.32741   0.33521   0.33705
 Alpha virt. eigenvalues --    0.34282   0.34459   0.35266   0.35698   0.36092
 Alpha virt. eigenvalues --    0.36552   0.37369   0.37638   0.39374   0.39565
 Alpha virt. eigenvalues --    0.40196   0.41194   0.41467   0.42357   0.43026
 Alpha virt. eigenvalues --    0.43617   0.44815   0.45208   0.46078   0.46998
 Alpha virt. eigenvalues --    0.47131   0.48230   0.49256   0.50237   0.50791
 Alpha virt. eigenvalues --    0.51682   0.52107   0.52638   0.53011   0.53649
 Alpha virt. eigenvalues --    0.54128   0.54342   0.55230   0.55660   0.55833
 Alpha virt. eigenvalues --    0.56306   0.56418   0.57263   0.57546   0.58020
 Alpha virt. eigenvalues --    0.58729   0.58999   0.59220   0.60057   0.60262
 Alpha virt. eigenvalues --    0.60890   0.61665   0.61857   0.62314   0.62751
 Alpha virt. eigenvalues --    0.62852   0.63598   0.64112   0.64596   0.65056
 Alpha virt. eigenvalues --    0.65481   0.65821   0.66215   0.66763   0.67187
 Alpha virt. eigenvalues --    0.67228   0.67715   0.68642   0.68949   0.69263
 Alpha virt. eigenvalues --    0.69815   0.70082   0.70321   0.70796   0.71274
 Alpha virt. eigenvalues --    0.72019   0.72203   0.72369   0.72945   0.73912
 Alpha virt. eigenvalues --    0.74281   0.74473   0.75371   0.75686   0.76001
 Alpha virt. eigenvalues --    0.76619   0.77174   0.77382   0.78406   0.79440
 Alpha virt. eigenvalues --    0.81490   0.81693   0.82677   0.83418   0.84124
 Alpha virt. eigenvalues --    0.84250   0.84915   0.86488   0.87269   0.87525
 Alpha virt. eigenvalues --    0.88478   0.89207   0.90006   0.91235   0.91394
 Alpha virt. eigenvalues --    0.91877   0.92779   0.93688   0.94477   0.95125
 Alpha virt. eigenvalues --    0.95504   0.95643   0.96284   0.96424   0.96944
 Alpha virt. eigenvalues --    0.97417   0.97524   0.97630   0.98561   0.99187
 Alpha virt. eigenvalues --    1.00436   1.00882   1.02016   1.02114   1.02946
 Alpha virt. eigenvalues --    1.03586   1.04845   1.05211   1.05939   1.06747
 Alpha virt. eigenvalues --    1.07397   1.07424   1.07968   1.09185   1.10165
 Alpha virt. eigenvalues --    1.10341   1.11334   1.12798   1.13464   1.14126
 Alpha virt. eigenvalues --    1.14728   1.15549   1.16301   1.16939   1.17245
 Alpha virt. eigenvalues --    1.19246   1.21906   1.22617   1.22994   1.24302
 Alpha virt. eigenvalues --    1.27523   1.28831   1.30438   1.33268   1.35200
 Alpha virt. eigenvalues --    1.36473   1.38833   1.39339   1.40848   1.41743
 Alpha virt. eigenvalues --    1.42645   1.44417   1.44587   1.46324   1.46977
 Alpha virt. eigenvalues --    1.47775   1.47978   1.48560   1.49134   1.49544
 Alpha virt. eigenvalues --    1.50729   1.51437   1.51822   1.52558   1.53955
 Alpha virt. eigenvalues --    1.55137   1.55370   1.55716   1.57193   1.57733
 Alpha virt. eigenvalues --    1.58560   1.59118   1.59345   1.60135   1.60990
 Alpha virt. eigenvalues --    1.62494   1.63543   1.65448   1.66991   1.67303
 Alpha virt. eigenvalues --    1.67955   1.68864   1.69297   1.71119   1.72051
 Alpha virt. eigenvalues --    1.73152   1.73588   1.74350   1.74661   1.75903
 Alpha virt. eigenvalues --    1.76289   1.77666   1.77714   1.79266   1.79909
 Alpha virt. eigenvalues --    1.81247   1.82435   1.83101   1.84028   1.84239
 Alpha virt. eigenvalues --    1.84279   1.85180   1.86237   1.87239   1.87392
 Alpha virt. eigenvalues --    1.87883   1.88252   1.88854   1.89039   1.90003
 Alpha virt. eigenvalues --    1.90825   1.91956   1.93254   1.93483   1.95712
 Alpha virt. eigenvalues --    1.96240   1.96982   1.97095   1.97876   1.98470
 Alpha virt. eigenvalues --    1.99633   2.01208   2.02101   2.02257   2.02604
 Alpha virt. eigenvalues --    2.03715   2.04769   2.05235   2.06084   2.08531
 Alpha virt. eigenvalues --    2.09806   2.10032   2.11540   2.11867   2.12148
 Alpha virt. eigenvalues --    2.13672   2.14888   2.15766   2.17244   2.18773
 Alpha virt. eigenvalues --    2.19446   2.21222   2.21290   2.22948   2.23886
 Alpha virt. eigenvalues --    2.24024   2.26202   2.27159   2.28387   2.29990
 Alpha virt. eigenvalues --    2.30184   2.32972   2.34578   2.37253   2.40090
 Alpha virt. eigenvalues --    2.41449   2.42209   2.43115   2.43998   2.45827
 Alpha virt. eigenvalues --    2.48525   2.48820   2.49231   2.50551   2.52445
 Alpha virt. eigenvalues --    2.55889   2.56570   2.57279   2.59701   2.60882
 Alpha virt. eigenvalues --    2.62116   2.63780   2.64670   2.66097   2.66850
 Alpha virt. eigenvalues --    2.68324   2.69946   2.70234   2.70869   2.71553
 Alpha virt. eigenvalues --    2.71792   2.72325   2.73087   2.73853   2.73857
 Alpha virt. eigenvalues --    2.74521   2.75196   2.75878   2.75973   2.76459
 Alpha virt. eigenvalues --    2.77039   2.77207   2.77912   2.78159   2.78907
 Alpha virt. eigenvalues --    2.79652   2.80870   2.81424   2.83130   2.84368
 Alpha virt. eigenvalues --    2.84806   2.85865   2.86467   2.87372   2.88328
 Alpha virt. eigenvalues --    2.90768   2.91524   2.92231   2.92290   2.93378
 Alpha virt. eigenvalues --    2.97256   2.98669   3.00166   3.01928   3.04327
 Alpha virt. eigenvalues --    3.04978   3.05121   3.07585   3.10610   3.11829
 Alpha virt. eigenvalues --    3.14876   3.15179   3.17196   3.18532   3.21201
 Alpha virt. eigenvalues --    3.21369   3.22656   3.23511   3.24950   3.30507
 Alpha virt. eigenvalues --    3.31660   3.35461   3.38723   3.39728   3.40865
 Alpha virt. eigenvalues --    3.41785   3.44021   3.44987   3.46177   3.47114
 Alpha virt. eigenvalues --    3.47948   3.49137   3.50462   3.51409   3.54452
 Alpha virt. eigenvalues --    3.55654   3.57302   3.61991   3.62857   3.66305
 Alpha virt. eigenvalues --    3.69622   3.71874   3.76264   3.81868   3.86443
 Alpha virt. eigenvalues --    3.87179   3.92183   4.02037   4.05031   4.06466
 Alpha virt. eigenvalues --    4.07059   4.07448   4.09363   4.11476   4.21571
 Alpha virt. eigenvalues --    4.24993   4.30222   4.37072   4.49222   4.72472
 Alpha virt. eigenvalues --    4.77308   4.79278   4.81792   4.87007   4.90830
 Alpha virt. eigenvalues --    4.95361  23.38481  23.70171  23.72961  23.80038
 Alpha virt. eigenvalues --   23.85283  23.89428  23.92152  23.94513  23.97516
 Alpha virt. eigenvalues --   23.97716  23.99495  24.00272  24.03156  24.04787
 Alpha virt. eigenvalues --   24.05822  24.07257  24.07816  24.09814  24.14652
 Alpha virt. eigenvalues --   24.15987  24.16733  24.21314  24.26824  24.35195
  Beta  occ. eigenvalues --  -10.20551 -10.19995 -10.19762 -10.19674 -10.19586
  Beta  occ. eigenvalues --  -10.19314 -10.19271 -10.19207 -10.19156 -10.19136
  Beta  occ. eigenvalues --  -10.18910 -10.18893 -10.18816 -10.18715 -10.18668
  Beta  occ. eigenvalues --  -10.18594 -10.18443 -10.17981 -10.17678 -10.17611
  Beta  occ. eigenvalues --  -10.17536 -10.15843 -10.15746 -10.15654  -0.93486
  Beta  occ. eigenvalues --   -0.88794  -0.86762  -0.84288  -0.82006  -0.81829
  Beta  occ. eigenvalues --   -0.78659  -0.77394  -0.75656  -0.72638  -0.72331
  Beta  occ. eigenvalues --   -0.70900  -0.66821  -0.65488  -0.63519  -0.62795
  Beta  occ. eigenvalues --   -0.60283  -0.59550  -0.57540  -0.56374  -0.53454
  Beta  occ. eigenvalues --   -0.51562  -0.51091  -0.49708  -0.49095  -0.48239
  Beta  occ. eigenvalues --   -0.46557  -0.46339  -0.44869  -0.44600  -0.43663
  Beta  occ. eigenvalues --   -0.43400  -0.43081  -0.42070  -0.41986  -0.40862
  Beta  occ. eigenvalues --   -0.40118  -0.39533  -0.38548  -0.37618  -0.36814
  Beta  occ. eigenvalues --   -0.35752  -0.35379  -0.34867  -0.33735  -0.33625
  Beta  occ. eigenvalues --   -0.32797  -0.31897  -0.29569  -0.28141  -0.25956
  Beta  occ. eigenvalues --   -0.22861  -0.22600  -0.21140
  Beta virt. eigenvalues --   -0.09848  -0.08007  -0.05586  -0.03220  -0.00377
  Beta virt. eigenvalues --   -0.00254   0.00811   0.00889   0.01122   0.01907
  Beta virt. eigenvalues --    0.01976   0.02118   0.02835   0.03355   0.03523
  Beta virt. eigenvalues --    0.03997   0.04548   0.04943   0.05412   0.05623
  Beta virt. eigenvalues --    0.05721   0.06360   0.06906   0.07513   0.07945
  Beta virt. eigenvalues --    0.08234   0.08583   0.08969   0.09329   0.09473
  Beta virt. eigenvalues --    0.10102   0.10326   0.10874   0.11035   0.11489
  Beta virt. eigenvalues --    0.11675   0.12027   0.12740   0.13051   0.13766
  Beta virt. eigenvalues --    0.13906   0.14141   0.14541   0.14757   0.15259
  Beta virt. eigenvalues --    0.15675   0.16383   0.16785   0.16975   0.17080
  Beta virt. eigenvalues --    0.17282   0.17517   0.17603   0.17776   0.18091
  Beta virt. eigenvalues --    0.18246   0.18328   0.19003   0.19293   0.19426
  Beta virt. eigenvalues --    0.19747   0.19829   0.20183   0.20294   0.20720
  Beta virt. eigenvalues --    0.20971   0.21195   0.21480   0.21887   0.21923
  Beta virt. eigenvalues --    0.22593   0.22822   0.22938   0.23225   0.23847
  Beta virt. eigenvalues --    0.23938   0.24086   0.24149   0.24414   0.24810
  Beta virt. eigenvalues --    0.25110   0.25287   0.25547   0.25874   0.26058
  Beta virt. eigenvalues --    0.26274   0.26661   0.27094   0.27523   0.27620
  Beta virt. eigenvalues --    0.28012   0.28401   0.28821   0.29141   0.29568
  Beta virt. eigenvalues --    0.29577   0.29854   0.30425   0.30724   0.31258
  Beta virt. eigenvalues --    0.31531   0.31791   0.32542   0.32834   0.33562
  Beta virt. eigenvalues --    0.33764   0.34335   0.34531   0.35331   0.35831
  Beta virt. eigenvalues --    0.36134   0.36632   0.37419   0.37723   0.39432
  Beta virt. eigenvalues --    0.39647   0.40246   0.41227   0.41523   0.42389
  Beta virt. eigenvalues --    0.43180   0.43692   0.44897   0.45456   0.46160
  Beta virt. eigenvalues --    0.47023   0.47224   0.48335   0.49494   0.50312
  Beta virt. eigenvalues --    0.51064   0.51867   0.52348   0.52853   0.53191
  Beta virt. eigenvalues --    0.53869   0.54281   0.54586   0.55465   0.55949
  Beta virt. eigenvalues --    0.56131   0.56467   0.56668   0.57376   0.57730
  Beta virt. eigenvalues --    0.58118   0.58836   0.59222   0.59401   0.60402
  Beta virt. eigenvalues --    0.60691   0.61056   0.61738   0.62090   0.62382
  Beta virt. eigenvalues --    0.62853   0.63162   0.63866   0.64225   0.64723
  Beta virt. eigenvalues --    0.65183   0.65663   0.65840   0.66340   0.66993
  Beta virt. eigenvalues --    0.67367   0.67402   0.67844   0.68775   0.69078
  Beta virt. eigenvalues --    0.69599   0.69907   0.70318   0.70369   0.70869
  Beta virt. eigenvalues --    0.71384   0.72057   0.72323   0.72544   0.73103
  Beta virt. eigenvalues --    0.74007   0.74415   0.74580   0.75435   0.75791
  Beta virt. eigenvalues --    0.76037   0.76667   0.77270   0.77574   0.78521
  Beta virt. eigenvalues --    0.79527   0.81568   0.81775   0.82822   0.83448
  Beta virt. eigenvalues --    0.84173   0.84520   0.85150   0.86759   0.87384
  Beta virt. eigenvalues --    0.87731   0.88648   0.89346   0.90210   0.91316
  Beta virt. eigenvalues --    0.91465   0.92001   0.92893   0.93854   0.94574
  Beta virt. eigenvalues --    0.95222   0.95651   0.95706   0.96310   0.96505
  Beta virt. eigenvalues --    0.97024   0.97552   0.97617   0.97714   0.98673
  Beta virt. eigenvalues --    0.99249   1.00630   1.01080   1.02087   1.02326
  Beta virt. eigenvalues --    1.03114   1.03914   1.05029   1.05441   1.06186
  Beta virt. eigenvalues --    1.06929   1.07550   1.07707   1.08147   1.09354
  Beta virt. eigenvalues --    1.10329   1.10532   1.11574   1.12918   1.13910
  Beta virt. eigenvalues --    1.14270   1.14887   1.15695   1.16428   1.17004
  Beta virt. eigenvalues --    1.17390   1.19389   1.21988   1.22749   1.23206
  Beta virt. eigenvalues --    1.24466   1.27626   1.28927   1.30496   1.33434
  Beta virt. eigenvalues --    1.35327   1.36569   1.38891   1.39430   1.40948
  Beta virt. eigenvalues --    1.41930   1.42881   1.44626   1.44764   1.46565
  Beta virt. eigenvalues --    1.47077   1.47896   1.48138   1.48683   1.49168
  Beta virt. eigenvalues --    1.49615   1.50827   1.51628   1.51942   1.52628
  Beta virt. eigenvalues --    1.54253   1.55242   1.55507   1.56061   1.57451
  Beta virt. eigenvalues --    1.57982   1.58646   1.59198   1.59401   1.60267
  Beta virt. eigenvalues --    1.61212   1.62574   1.63732   1.65901   1.67092
  Beta virt. eigenvalues --    1.67378   1.68072   1.68983   1.69419   1.71408
  Beta virt. eigenvalues --    1.72382   1.73224   1.73780   1.74624   1.74863
  Beta virt. eigenvalues --    1.76039   1.76471   1.77786   1.78040   1.79525
  Beta virt. eigenvalues --    1.80124   1.81289   1.82686   1.83416   1.84160
  Beta virt. eigenvalues --    1.84462   1.84648   1.85341   1.86561   1.87374
  Beta virt. eigenvalues --    1.87583   1.87977   1.88479   1.88927   1.89121
  Beta virt. eigenvalues --    1.90289   1.91019   1.92240   1.93521   1.93742
  Beta virt. eigenvalues --    1.95774   1.96389   1.97084   1.97287   1.98060
  Beta virt. eigenvalues --    1.98688   1.99759   2.01305   2.02216   2.02455
  Beta virt. eigenvalues --    2.02911   2.03902   2.05079   2.05515   2.06219
  Beta virt. eigenvalues --    2.08798   2.09970   2.10218   2.11839   2.11988
  Beta virt. eigenvalues --    2.12477   2.13849   2.14990   2.15871   2.17425
  Beta virt. eigenvalues --    2.18982   2.19799   2.21347   2.21415   2.23068
  Beta virt. eigenvalues --    2.24168   2.24432   2.26505   2.27325   2.28464
  Beta virt. eigenvalues --    2.30175   2.30292   2.33157   2.34869   2.37354
  Beta virt. eigenvalues --    2.40216   2.41615   2.42259   2.43330   2.44102
  Beta virt. eigenvalues --    2.45891   2.48663   2.49049   2.49331   2.50699
  Beta virt. eigenvalues --    2.52978   2.56176   2.56661   2.57314   2.59847
  Beta virt. eigenvalues --    2.61080   2.62297   2.63890   2.64853   2.66197
  Beta virt. eigenvalues --    2.67040   2.68660   2.70138   2.70580   2.71029
  Beta virt. eigenvalues --    2.71677   2.71822   2.72512   2.73145   2.73864
  Beta virt. eigenvalues --    2.73922   2.74677   2.75299   2.75964   2.76033
  Beta virt. eigenvalues --    2.76481   2.77128   2.77363   2.78004   2.78244
  Beta virt. eigenvalues --    2.78991   2.79753   2.81062   2.81562   2.83816
  Beta virt. eigenvalues --    2.84858   2.85044   2.85996   2.86892   2.87803
  Beta virt. eigenvalues --    2.89140   2.91094   2.91561   2.92556   2.92607
  Beta virt. eigenvalues --    2.93479   2.97635   2.98941   3.00497   3.02558
  Beta virt. eigenvalues --    3.04466   3.05104   3.05522   3.07607   3.10735
  Beta virt. eigenvalues --    3.11969   3.15023   3.15212   3.17280   3.18574
  Beta virt. eigenvalues --    3.21229   3.21431   3.22732   3.23549   3.25033
  Beta virt. eigenvalues --    3.30563   3.31748   3.35523   3.38833   3.39821
  Beta virt. eigenvalues --    3.41009   3.41852   3.44077   3.45009   3.46222
  Beta virt. eigenvalues --    3.47145   3.47982   3.49201   3.50591   3.51454
  Beta virt. eigenvalues --    3.54574   3.55794   3.57438   3.62157   3.62892
  Beta virt. eigenvalues --    3.66518   3.69770   3.72027   3.76648   3.81904
  Beta virt. eigenvalues --    3.86508   3.87195   3.92321   4.02318   4.05122
  Beta virt. eigenvalues --    4.06502   4.07099   4.07495   4.09459   4.12107
  Beta virt. eigenvalues --    4.21741   4.25134   4.30455   4.37145   4.49499
  Beta virt. eigenvalues --    4.72568   4.77419   4.79411   4.82211   4.87081
  Beta virt. eigenvalues --    4.90910   4.95360  23.38512  23.70302  23.73012
  Beta virt. eigenvalues --   23.80082  23.85342  23.89506  23.92270  23.94537
  Beta virt. eigenvalues --   23.97596  23.97842  23.99534  24.00198  24.03267
  Beta virt. eigenvalues --   24.04835  24.06227  24.07305  24.07858  24.09822
  Beta virt. eigenvalues --   24.14831  24.16056  24.16754  24.21357  24.26848
  Beta virt. eigenvalues --   24.35202
          Condensed to atoms (all electrons):
               1          2          3          4          5          6
     1  C   10.823253  -3.277095  -0.056424   1.451644  -1.400585   1.256917
     2  C   -3.277095  13.148668   0.365359  -1.261401   0.717097  -0.392450
     3  C   -0.056424   0.365359   6.897313   0.935560   0.013996   0.294538
     4  C    1.451644  -1.261401   0.935560   9.613007  -1.231476  -0.310599
     5  C   -1.400585   0.717097   0.013996  -1.231476   8.603443  -0.350301
     6  C    1.256917  -0.392450   0.294538  -0.310599  -0.350301   7.564410
     7  C   -1.109035   1.208577  -0.023603  -0.459909   0.139303  -0.099846
     8  C    0.094654  -0.466204   0.370351   0.028231   0.336161  -0.129421
     9  C   -0.438578   0.337709  -0.245565  -0.795199   0.314862   0.119334
    10  C   -0.249918   0.112340  -0.350574  -0.159062  -0.356736   0.482405
    11  C   -0.099259   0.167976   0.138141   0.051575  -0.045441  -0.075753
    12  C    0.078039  -0.477185  -0.218140  -0.176314   0.184394  -0.225216
    13  C    0.136657   0.123349   0.231570   0.038831  -0.121228   0.115286
    14  C    0.065015  -0.132683   0.038313  -0.035071   0.069938   0.021844
    15  C   -0.040535  -0.010380   0.102397   0.010317  -0.001448  -0.062826
    16  C   -0.128599   0.036753   0.085459  -0.114786   0.014841  -0.132948
    17  C   -0.051535  -0.407811  -0.448371   0.000368  -0.078437  -0.008488
    18  H    0.405847  -0.147586   0.016863   0.018896  -0.015790   0.002414
    19  H    0.034663  -0.035946   0.000100   0.376458  -0.081419   0.042431
    20  C   -0.117432   0.351153  -0.757639  -1.258671  -0.817462  -0.143016
    21  C    0.221274  -0.552750   0.533947   0.406113   0.589246   0.536909
    22  C    0.163478  -0.363419  -0.292702  -0.077114   0.175893  -0.494496
    23  H    0.000014   0.000085  -0.001047  -0.000101  -0.000468   0.003190
    24  H   -0.000004  -0.000367   0.001034  -0.000016   0.000031  -0.000034
    25  H   -0.000418  -0.000287   0.000812   0.000055  -0.000029  -0.000409
    26  H    0.000032   0.000050  -0.000065  -0.000003   0.000006   0.000084
    27  C   -0.718711  -1.330206  -0.999847  -0.627118  -0.017101  -0.913432
    28  C   -0.645766  -2.469740  -0.374891  -0.173017   0.141104  -0.862301
    29  H    0.058040  -0.060794   0.017218   0.023109   0.010542  -0.005908
    30  C   -0.243989   0.522108  -0.679094  -0.259878  -1.602821   0.531209
    31  C   -0.045740  -0.270272   0.280597   0.269747   0.399257  -0.927389
    32  H   -0.004211   0.016391  -0.015102   0.009751  -0.113469   0.027036
    33  H   -0.001020   0.001881   0.000362   0.000332  -0.010182   0.009731
    34  H    0.000307  -0.000666   0.002405   0.000592   0.011164  -0.018543
    35  H   -0.000086  -0.000236   0.002005   0.000214   0.001539  -0.002222
    36  H   -0.002255   0.014962  -0.020379  -0.000084  -0.004840   0.015766
    37  H    0.006586  -0.000588  -0.012939  -0.000932  -0.000907   0.005115
               7          8          9         10         11         12
     1  C   -1.109035   0.094654  -0.438578  -0.249918  -0.099259   0.078039
     2  C    1.208577  -0.466204   0.337709   0.112340   0.167976  -0.477185
     3  C   -0.023603   0.370351  -0.245565  -0.350574   0.138141  -0.218140
     4  C   -0.459909   0.028231  -0.795199  -0.159062   0.051575  -0.176314
     5  C    0.139303   0.336161   0.314862  -0.356736  -0.045441   0.184394
     6  C   -0.099846  -0.129421   0.119334   0.482405  -0.075753  -0.225216
     7  C    8.626716  -0.189329  -0.377593   0.702825   1.369115  -0.422052
     8  C   -0.189329   6.922435   0.470406  -0.320613   0.260431  -0.771638
     9  C   -0.377593   0.470406   7.791365  -0.783974  -0.878831  -0.058622
    10  C    0.702825  -0.320613  -0.783974  10.286899   1.347464  -1.130044
    11  C    1.369115   0.260431  -0.878831   1.347464   8.394030   0.252253
    12  C   -0.422052  -0.771638  -0.058622  -1.130044   0.252253  10.570517
    13  C    1.449332   0.489859  -0.219675  -0.894249   1.182012   0.226939
    14  C   -1.737694  -0.642591   0.203769  -0.254894  -2.579157  -1.189992
    15  C   -0.069316  -0.067090  -0.051960  -0.466448  -0.520079  -0.812570
    16  C   -1.708641  -0.372356  -0.440837  -0.485624  -1.061353  -0.768344
    17  C    0.133585   0.124636  -0.048598   0.230040   0.138447   0.867101
    18  H   -0.011329   0.001147  -0.000855  -0.000077   0.000041  -0.000681
    19  H   -0.001344   0.003674  -0.015682  -0.000795  -0.000097   0.000266
    20  C   -0.011905  -0.578474   0.607192   0.091433  -0.050757  -0.023265
    21  C    0.053829   0.179005   0.245565   0.564567  -0.120482  -0.193199
    22  C   -1.557039   0.592351   1.916522  -2.504908  -2.360779  -0.174307
    23  H   -0.016091   0.017761  -0.011609  -0.043404   0.342117  -0.072842
    24  H   -0.005027   0.004299   0.001476   0.036844   0.072478  -0.106224
    25  H   -0.002177   0.001239  -0.000222  -0.000437   0.001473  -0.006141
    26  H    0.002578   0.001525   0.000114   0.005245   0.014158   0.053706
    27  C    0.373514  -0.034063   0.042442   0.168077  -0.023550   0.228030
    28  C    0.043423  -0.166767  -0.027454   0.057219  -0.095492   0.201833
    29  H   -0.007078  -0.000859   0.002209  -0.000364   0.000311   0.000284
    30  C    0.440599  -1.039415  -0.792749   1.104022   0.193152   0.011761
    31  C   -0.395602   1.003538  -0.861466  -1.508400   0.194363  -0.470318
    32  H    0.005078  -0.002840  -0.000111   0.003636   0.000320   0.000131
    33  H    0.002732  -0.018034   0.022768   0.008796   0.000403  -0.000476
    34  H    0.000069   0.011479   0.046134  -0.010256  -0.002047   0.003281
    35  H   -0.005825   0.023295  -0.006743  -0.071331   0.053941   0.020242
    36  H   -0.099487   0.019677  -0.013605  -0.015890  -0.015309  -0.043239
    37  H    0.001472   0.000052   0.000243   0.002453   0.000408   0.011691
              13         14         15         16         17         18
     1  C    0.136657   0.065015  -0.040535  -0.128599  -0.051535   0.405847
     2  C    0.123349  -0.132683  -0.010380   0.036753  -0.407811  -0.147586
     3  C    0.231570   0.038313   0.102397   0.085459  -0.448371   0.016863
     4  C    0.038831  -0.035071   0.010317  -0.114786   0.000368   0.018896
     5  C   -0.121228   0.069938  -0.001448   0.014841  -0.078437  -0.015790
     6  C    0.115286   0.021844  -0.062826  -0.132948  -0.008488   0.002414
     7  C    1.449332  -1.737694  -0.069316  -1.708641   0.133585  -0.011329
     8  C    0.489859  -0.642591  -0.067090  -0.372356   0.124636   0.001147
     9  C   -0.219675   0.203769  -0.051960  -0.440837  -0.048598  -0.000855
    10  C   -0.894249  -0.254894  -0.466448  -0.485624   0.230040  -0.000077
    11  C    1.182012  -2.579157  -0.520079  -1.061353   0.138447   0.000041
    12  C    0.226939  -1.189992  -0.812570  -0.768344   0.867101  -0.000681
    13  C    9.381072  -3.029074   0.986232  -0.914693  -1.049059   0.002408
    14  C   -3.029074  12.345018   0.493679   3.204065  -1.705184  -0.000048
    15  C    0.986232   0.493679   7.057736  -0.153040   0.098466  -0.000013
    16  C   -0.914693   3.204065  -0.153040  13.226290  -2.780917  -0.001164
    17  C   -1.049059  -1.705184   0.098466  -2.780917  10.293585   0.000202
    18  H    0.002408  -0.000048  -0.000013  -0.001164   0.000202   0.545070
    19  H    0.000720   0.000016  -0.000006  -0.000018  -0.000006  -0.007203
    20  C   -0.021028   0.002925  -0.004480   0.029828   0.004341   0.000113
    21  C    0.008974  -0.073630  -0.004192   0.027447   0.012615   0.001127
    22  C   -0.812397   0.551722  -0.151844  -0.049913   0.037385  -0.000014
    23  H   -0.019294   0.063115   0.011256   0.011077   0.003639  -0.000000
    24  H    0.008150   0.396827  -0.046435  -0.020212  -0.011628  -0.000000
    25  H    0.055153  -0.014944   0.013700  -0.082199   0.366037   0.000000
    26  H   -0.003908  -0.064941   0.352933  -0.000310  -0.013914   0.000000
    27  C   -0.395821  -0.163687  -0.067167  -1.201290   0.510285   0.049862
    28  C   -0.963055  -0.032848  -0.154192  -0.362134   0.130262   0.016014
    29  H   -0.009164  -0.000686  -0.000395   0.005622  -0.001306   0.003065
    30  C   -0.055879  -0.003179   0.004189   0.003091  -0.013047  -0.000534
    31  C    0.121444  -0.228769  -0.005867  -0.191106   0.020601   0.000139
    32  H   -0.000484   0.000004   0.000002  -0.000032  -0.000009  -0.000005
    33  H   -0.000176  -0.000031  -0.000001   0.000056   0.000005  -0.000000
    34  H    0.000161   0.000372   0.000004   0.000103  -0.000012  -0.000000
    35  H    0.004445   0.003855   0.000962  -0.000517  -0.000092  -0.000000
    36  H    0.025420   0.033142   0.000616   0.540989   0.052633  -0.000010
    37  H   -0.013702   0.004051   0.010266  -0.131459   0.088571  -0.000011
[...]
 0015888,-0.00000940,0.00001755,0.00001192,0.00000660,0.00000437,0.0000
 0219,-0.00000048,-0.00005289,-0.00000863,-0.00001209,-0.00002247,-0.00
 003937,-0.00001866,0.00003946,0.00002210,0.00000178,0.00000085,-0.0000
 2021,0.00002524,0.00764515,0.00658101,-0.00113896,-0.01569634,-0.02080
 859,0.00485683,-0.00015891,0.00023986,-0.00004784,-0.00003868,0.000008
 23,-0.00000764,-0.00000698,0.00000488,-0.00000253,-0.00001214,-0.00000
 566,-0.00000004,-0.00000856,-0.00000320,-0.00000091,0.00003505,-0.0000
 2860,-0.00000591,-0.00002997,0.00004892,0.00003268,-0.00000082,-0.0000
 1051,-0.00000547,-0.21072440,-0.13352710,0.03472494,0.00152347,-0.0008
 5844,-0.00009107,0.00088985,-0.00019418,-0.00101302,0.22139997,-0.0000
 1678,-0.00046746,-0.00016248,0.00016248,-0.00013099,0.00001035,0.00000
 587,0.00018728,-0.00002435,-0.00126197,0.00008338,0.00027183,0.0029578
 8,-0.00427870,0.00040005,0.00052291,-0.00023323,-0.00012524,0.00013148
 ,-0.00012757,0.00001539,0.00040343,0.00056727,-0.00004357,0.00265592,-
 0.00003341,0.00011175,0.00001255,0.00019151,-0.00004585,-0.00006997,-0
 .00004776,0.00000049,0.00004280,0.00002824,-0.00000141,0.00001284,0.00
 008622,-0.00000677,-0.00003531,-0.00000130,-0.00000422,-0.00000039,0.0
 0001862,-0.00000109,0.00002572,-0.00002118,-0.00000037,0.00001287,-0.0
 0000037,0.00000874,-0.00013191,-0.00007403,-0.00003509,0.00004473,-0.0
 0003570,0.00001086,-0.02381268,-0.01708001,0.00503021,0.00813624,0.010
 19022,-0.00194217,-0.00030274,-0.00004428,0.00000979,0.00000085,0.0000
 0397,0.00000059,-0.00000241,0.00000339,-0.00000082,0.00000013,-0.00000
 287,-0.00000099,-0.00000602,0.00000089,-0.00000137,-0.00000017,0.00003
 560,0.00002551,-0.00001529,-0.00001764,-0.00001626,0.00000359,-0.00000
 396,-0.00000051,-0.13115610,-0.17204029,0.02964847,-0.00031149,0.00095
 811,-0.00031181,0.00016789,0.00080338,-0.00047461,0.14239817,0.1816619
 1,-0.00005887,0.00020755,-0.00065540,-0.00004542,-0.00006431,0.0001856
 4,0.00008484,0.00011344,-0.00064175,0.00037289,0.00002878,0.00040410,0
 .00095795,0.00050248,0.00849428,-0.00060739,0.00004018,-0.00065700,0.0
 0003303,-0.00012236,-0.00001473,0.00015658,0.00041424,0.00026690,0.000
 57021,-0.00052520,0.00453292,-0.00023553,-0.00015041,-0.00007807,0.000
 10963,0.00007417,0.00002859,-0.00013214,-0.00002682,-0.00002941,0.0001
 4809,0.00009327,-0.00003255,0.00009360,0.00002205,0.00000723,-0.000005
 74,-0.00005094,-0.00000104,0.00001826,-0.00010899,-0.00003609,-0.00001
 791,0.00002105,-0.00000388,0.00001232,0.00002398,-0.00006398,0.0000091
 5,-0.00002064,0.00018085,0.00151870,-0.00054246,0.00319247,0.00329905,
 0.00166961,0.00200019,0.00029648,0.00004879,-0.00016160,0.00000362,0.0
 0000014,0.00001075,0.00000085,0.00000062,0.00000633,0.00000150,0.00000
 513,0.00000809,0.00000231,0.00000008,-0.00000066,0.00002470,-0.0000129
 1,0.00009119,-0.00006326,0.00001642,0.00000138,-0.00000267,0.00000567,
 -0.00000265,0.03365702,0.03138168,-0.04223507,-0.00057038,-0.00020439,
 -0.00191442,-0.00105989,-0.00037336,-0.00545072,-0.03868877,-0.0324177
 9,0.03223242,0.00004710,0.00002423,-0.00000492,0.00005801,0.00002631,0
 .00002080,-0.00016385,0.00015612,-0.00000448,-0.00003633,-0.00006439,-
 0.00000191,0.00020941,0.00002038,-0.00003156,0.00064720,0.00049919,-0.
 00012520,0.00021094,0.00005536,-0.00000826,-0.00040301,0.00049780,-0.0
 0006797,-0.00064042,0.00300793,-0.00039931,-0.00479263,0.00236933,-0.0
 0033516,0.00020723,-0.00135121,0.00025033,-0.00039827,-0.00001838,-0.0
 0011263,-0.00015890,0.00012481,-0.00003430,-0.00003599,-0.00015491,0.0
 0002514,-0.00003751,0.00003747,-0.00000961,0.00000155,-0.00000675,0.00
 002171,-0.00000737,-0.00001657,-0.00001611,-0.00000085,-0.00000631,0.0
 0000039,0.00000238,0.00000609,0.00000135,-0.00003704,-0.00031008,0.000
 03039,0.01120851,0.01064578,-0.00242672,-0.01534153,-0.02592567,0.0053
 4392,-0.00004315,0.00004368,0.00000150,-0.00000189,0.00000970,-0.00000
 227,-0.00000324,-0.00000832,0.00000099,-0.00001641,-0.00001732,-0.0000
 0266,-0.00000500,0.00001372,0.00000632,-0.00000861,0.00002617,0.000012
 76,0.00001123,-0.00000170,-0.00000073,0.00110509,-0.00033097,-0.000096
 09,-0.14838543,-0.12516829,0.02682327,0.00000120,-0.00002264,0.0000003
 3,-0.00022993,-0.00053497,0.00009435,0.15620948,0.00000861,-0.00005446
 ,-0.00000763,-0.00014444,0.00004287,-0.00003106,0.00019447,-0.00051763
 ,0.00002037,0.00004682,0.00002504,-0.00002683,0.00002446,0.00005917,0.
 00000683,-0.00140452,-0.00003248,0.00039619,-0.00021326,-0.00014826,-0
 .00013080,0.00091624,0.00018196,-0.00019741,0.00363431,-0.00455765,0.0
 0111172,0.00187441,0.00135166,0.00156767,-0.00012550,0.00024385,0.0000
 5226,0.00004159,0.00016349,-0.00014225,0.00017080,-0.00007456,0.000082
 03,0.00001595,0.00003043,-0.00001821,0.00000554,-0.00000074,0.00000491
 ,-0.00000426,-0.00000141,-0.00000788,-0.00000922,-0.00001218,-0.000001
 50,0.00000350,-0.00001196,0.00000272,0.00001468,-0.00003494,-0.0000042
 8,0.00023476,-0.00014327,-0.00005187,-0.01818126,-0.01627781,0.0044679
 3,0.00423643,0.00566427,-0.00050780,-0.00002544,0.00000355,0.00003388,
 -0.00000492,0.00000357,-0.00000185,-0.00000130,-0.00000293,-0.00000321
 ,-0.00000522,0.00000242,0.00000219,0.00002222,-0.00001583,-0.00001053,
 -0.00000649,-0.00002679,-0.00000992,-0.00001790,-0.00001929,-0.0000077
 6,-0.00089389,0.00132472,-0.00033900,-0.12745193,-0.23303733,0.0403935
 2,0.00003997,-0.00004194,0.00001680,0.00096703,-0.00018368,-0.00009927
 ,0.13619047,0.24528469,-0.00007043,-0.00002635,-0.00001224,0.00008624,
 -0.00001188,-0.00005951,-0.00008680,0.00012090,0.00003551,0.00003267,0
 .00008299,0.00004019,-0.00011228,-0.00019875,-0.00007268,0.00041156,0.
 00013157,0.00028385,0.00003564,-0.00008371,-0.00062329,0.00024014,-0.0
 0041930,-0.00072335,-0.00143828,0.00104425,0.00424800,-0.00002998,0.00
 136857,0.00863500,-0.00012022,0.00025268,0.00034766,0.00016930,-0.0000
 7155,-0.00066261,0.00006435,-0.00007931,0.00018940,0.00002751,0.000019
 01,-0.00006815,0.00000554,-0.00002008,0.00001644,-0.00000714,0.0000317
 3,0.00007501,-0.00000510,0.00000162,0.00000223,-0.00000141,0.00000338,
 -0.00000186,-0.00000097,0.00000533,0.00000824,0.00000940,0.00024580,-0
 .00016312,0.00267756,0.00520446,0.00144101,-0.00161252,0.00008165,0.00
 331224,-0.00003201,0.00002306,0.00019628,0.00000015,-0.00000059,0.0000
 0463,0.00000197,0.00000253,-0.00000514,0.00000168,0.00000354,0.0000106
 8,-0.00002604,0.00001280,-0.00001207,0.00001526,-0.00001443,-0.0000076
 5,0.00000184,0.00000321,0.00000938,0.00001901,-0.00078092,-0.00184905,
 0.02877025,0.03953561,-0.04290223,0.00001228,0.00001180,0.00011545,-0.
 00018755,0.00006598,0.00021731,-0.02884093,-0.04521952,0.03345066,0.00
 001388,-0.00002075,-0.00000855,0.00010740,0.00002154,-0.00000277,-0.00
 017595,-0.00026616,-0.00000582,0.00003622,-0.00002466,-0.00001389,-0.0
 0015744,-0.00009770,0.00001049,0.00019567,-0.00012751,-0.00000376,0.00
 063368,-0.00067872,0.00019893,-0.00261484,-0.00340296,0.00024581,-0.00
 071146,-0.00041407,0.00008136,0.01105339,-0.01818093,0.00392341,0.0013
 7876,0.00030279,0.00019378,-0.00014189,0.00034673,-0.00005042,0.000343
 66,-0.00007275,0.00002916,0.00007009,0.00000919,0.00001448,-0.00000575
 ,-0.00003889,-0.00000125,-0.00005012,0.00003465,-0.00001353,-0.0000038
 8,-0.00000495,0.00001455,0.00001423,0.00000073,-0.00000043,-0.00000481
 ,-0.00000157,0.00000289,-0.00047355,0.00015337,0.00007724,-0.00550336,
 -0.00047597,0.00025228,-0.09189996,0.08820747,-0.01802371,-0.00027926,
 0.00059793,-0.00014885,-0.00001396,-0.00000429,-0.00000320,-0.00000604
 ,0.00000427,-0.00000195,0.00000367,0.00000249,0.00000046,0.00000022,-0
 .00000071,0.00000160,0.00000818,0.00001635,0.00000346,-0.00000133,0.00
 000173,0.00000057,0.00054201,0.00121896,-0.00029601,-0.00869832,0.0294
 9967,-0.00588311,-0.00002404,0.00015562,0.00001802,-0.00004378,-0.0000
 2688,0.00000721,0.00082008,-0.00015091,-0.00000273,0.09559870,0.000010
 80,-0.00002794,-0.00002239,0.00011996,0.00004442,-0.00005234,-0.000198
 16,-0.00040269,0.00001864,0.00001910,-0.00002282,-0.00000487,-0.000097
 08,-0.00001814,0.00002775,0.00014594,-0.00013526,-0.00006669,0.0009849
 4,-0.00015233,0.00039546,-0.00421571,-0.00255037,0.00069934,-0.0006607
 0,0.00041961,-0.00028794,0.01073831,-0.01676054,0.00421860,0.00088689,
 0.00106257,-0.00034889,-0.00040063,-0.00002610,-0.00005304,0.00004779,
 0.00003183,-0.00004618,0.00014673,-0.00002597,0.00003098,-0.00003062,-
 0.00005677,0.00000933,-0.00005960,0.00003263,-0.00002417,-0.00000005,-
 0.00001725,0.00001571,0.00001628,-0.00001974,0.00001363,0.00000871,-0.
 00000789,-0.00000067,0.00010113,0.00009634,-0.00011485,-0.00000240,0.0
 0198022,0.00137774,0.09057933,-0.28827283,0.04948241,-0.00092778,-0.00
 004776,-0.00011718,-0.00002480,0.00001508,-0.00000615,-0.00001718,-0.0
 0000440,-0.00000479,-0.00001532,-0.00000715,-0.00000337,0.00000778,0.0
 0001879,0.00000806,-0.00002358,0.00001808,0.00000941,-0.00000115,-0.00
 001283,-0.00000695,-0.00007054,-0.00005662,0.00011903,-0.00070322,-0.0
 0073934,0.00083512,0.00000128,-0.00000979,-0.00001260,0.00003382,0.000
 00404,0.00001857,0.00020447,0.00080187,-0.00132205,-0.09658452,0.30488
 086,-0.00004844,-0.00000801,-0.00002561,0.00002585,0.00003709,-0.00027
 995,0.00004363,0.00009266,0.00021976,0.00001099,0.00004371,0.00001973,
 0.00007406,-0.00003436,0.00015397,-0.00015435,0.00011790,-0.00059535,-
 0.00043256,0.00006572,0.00043339,0.00094231,0.00089878,0.00395031,-0.0
 0016687,-0.00058077,-0.00077727,-0.00113157,0.00409532,0.00154737,-0.0
 0010407,-0.00066411,-0.00182534,0.00004068,0.00020818,-0.00025763,0.00
 013578,-0.00014129,0.00002892,0.00000269,0.00001084,0.00002021,0.00000
 267,-0.00000568,0.00002189,0.00000572,0.00000409,0.00006038,-0.0000005
 4,0.00000568,-0.00001009,0.00000018,-0.00001434,0.00007889,0.00000240,
 -0.00000094,-0.00000300,-0.00016744,-0.00006871,-0.00050163,0.00008059
 ,0.00138107,0.00840722,-0.01966929,0.04938942,-0.04388201,0.00014214,0
 .00007069,0.00028036,0.00000469,-0.00000204,0.00001163,0.00000495,0.00
 000264,0.00000015,0.00000370,0.00000272,0.00000321,-0.00000411,0.00000
 274,0.00000019,0.00000798,-0.00000537,-0.00001335,-0.00000202,0.000001
 29,0.00000218,0.00006947,0.00032977,0.00042843,0.00101388,0.00086440,0
 .00336340,-0.00001342,0.00001129,-0.00006583,0.00000895,0.00000600,0.0
 0011941,-0.00011717,-0.00134326,-0.00546538,0.01939345,-0.05478674,0.0
 3455479,0.00006864,-0.00000555,-0.00020040,-0.00023195,-0.00042980,0.0
 0036633,-0.00050194,0.00031405,-0.00010490,-0.00007934,-0.00019241,0.0
 0001306,-0.00052179,0.00004430,0.00005569,0.00033692,-0.00021111,-0.00
 016543,-0.00002471,-0.00232332,0.00017718,0.00109699,0.00122186,-0.000
 69259,-0.00054457,0.00021636,0.00009137,0.00074448,-0.00065021,0.00008
 488,-0.00049232,-0.00037048,-0.00039572,-0.00208098,0.00096882,0.00021
 199,-0.00086292,-0.00788395,0.01555507,0.00129028,0.00050196,0.0000168
 9,-0.00214865,-0.00295806,-0.00040056,-0.03773349,-0.00171043,-0.00002
 360,-0.00761054,0.00826296,-0.03198370,0.00004193,-0.00001209,0.000025
 80,-0.00001150,-0.00000315,0.00000708,0.00029398,0.00033791,-0.0000419
 8,0.00000789,0.00035523,0.00004765,-0.00020555,-0.00001118,0.00014000,
 0.00000018,-0.00009494,-0.00004556,0.00009436,0.00000228,-0.00008597,0
 .00018692,-0.00056612,0.00101490,-0.00057718,0.00041515,0.00160511,0.0
 0109722,0.00132607,0.00051819,-0.00199113,0.00280738,0.01704381,0.0000
 7061,0.00036542,-0.00104013,0.00006667,-0.00023321,-0.00004398,0.00024
 900,-0.00040335,0.00002829,-0.00000684,0.00000236,0.00001739,0.0000168
 1,-0.00000327,0.00001627,0.00000921,0.00000998,-0.00001002,-0.00001253
 ,-0.00001462,-0.00000301,0.05004842,0.00040031,0.00012838,0.00009533,-
 0.00067995,0.00106360,-0.00112794,0.00087831,-0.00026932,0.00102328,-0
 .00025316,-0.00014226,-0.00004106,0.00003306,0.00048964,0.00003675,0.0
 0009867,-0.00039502,0.00006951,0.00156182,0.00036952,-0.00019063,-0.00
 012225,-0.00076039,-0.00117057,0.00046912,0.00027890,-0.00005075,-0.00
 079336,-0.00034679,0.00000906,0.00024083,-0.00037667,-0.00055620,-0.00
 109204,-0.00115688,0.00015114,-0.00610273,-0.01024200,0.02769292,-0.00
 024285,0.00064810,-0.00043303,0.00046071,0.00015854,-0.00015107,-0.002
 58631,-0.04222480,0.02838988,0.00249912,0.00152707,0.00233486,-0.00005
 714,0.00001887,0.00004102,0.00001717,-0.00000502,0.00001310,-0.0001378
 6,-0.00011718,-0.00002172,0.00007803,-0.00078790,0.00018007,0.00041169
 ,0.00038653,0.00005706,-0.00001034,-0.00009475,-0.00000185,-0.00002355
 ,0.00000361,0.00019569,-0.00012614,0.00002140,0.00024669,0.00006851,-0
 .00006427,-0.00006067,-0.00092442,-0.00110690,-0.00046750,0.00607957,-
 0.00124521,-0.02608100,-0.00009418,-0.00063609,0.00164638,0.00009301,0
 .00014590,-0.00002721,-0.00064292,0.00016564,-0.00004915,0.00000714,0.
 00001211,0.00000248,-0.00000925,0.00000161,0.00002530,-0.00001418,0.00
 001210,-0.00000370,0.00000186,-0.00001890,0.00000916,0.00061804,0.0558
 1426,-0.00072422,0.00012703,0.00006078,0.00154753,0.00109745,-0.000455
 38,0.00097499,-0.00085710,-0.00069434,0.00027915,0.00048529,0.00006482
 ,-0.00006917,-0.00055106,0.00003172,-0.00016267,-0.00024564,-0.0000963
 2,-0.00297878,-0.00072608,0.00158283,0.00077210,0.00155593,0.00013257,
 -0.00043174,0.00013871,-0.00001850,0.00090754,-0.00026170,0.00005748,-
 0.00073579,-0.00031136,0.00000928,0.00163150,0.00016676,-0.00033851,0.
 00419267,0.00789798,-0.00466316,0.00031328,0.00174347,-0.00049583,-0.0
 0046358,-0.00449012,0.00012770,0.00516554,0.03068702,-0.25664364,-0.01
 135647,0.00434597,-0.01039777,-0.00001874,-0.00002442,-0.00002892,0.00
 001418,0.00000764,-0.00000254,0.00006805,0.00042285,-0.00000739,-0.000
 16082,0.00051695,-0.00005973,-0.00030486,-0.00016883,0.00001695,0.0000
 1318,0.00004464,-0.00000506,0.00000810,0.00000721,0.00001062,-0.000603
 81,-0.00009663,0.00015848,-0.00019931,0.00017633,0.00028417,-0.0029802
 1,-0.00070297,0.00087137,0.00622158,-0.00686119,-0.01520509,0.00009378
 ,-0.00045073,0.00078909,0.00027437,-0.00024408,-0.00001618,0.00034575,
 -0.00031096,0.00007713,0.00001009,0.00000495,0.00000155,0.00000148,0.0
 0000259,-0.00000163,0.00001041,-0.00000196,-0.00001318,-0.00001129,0.0
 0000429,-0.00000726,-0.00210177,-0.03238808,0.28558387,-0.00069003,-0.
 00126909,-0.00023958,-0.00276045,0.00385899,-0.00021691,0.00021802,0.0
 0035577,0.00010030,-0.00028895,0.00042130,0.00013508,0.00005132,-0.000
 05897,-0.00002678,0.00003735,-0.00008819,0.00004854,0.00002625,0.00028
 641,-0.00008444,-0.00001732,-0.00020321,-0.00002552,-0.00003308,-0.000
 04442,0.00001765,0.00001216,0.00008995,0.00001673,-0.00008751,0.000058
 34,-0.00012538,0.00016872,0.00044607,-0.00019922,-0.00128778,0.0008573
 5,0.00108076,0.00020583,0.00004184,0.00003944,-0.00004538,-0.00005791,
 0.00021261,0.00630997,0.01059008,0.00425750,0.00058007,0.00327016,0.00
 045125,-0.00002538,0.00007861,0.00000900,-0.00012526,-0.00008252,0.000
 00214,0.00005830,0.00002602,-0.00001508,-0.00005549,0.00002832,-0.0000
 1240,-0.00004805,-0.00006387,0.00000961,0.00003517,0.00003908,-0.00000
 402,-0.00001090,-0.00002833,-0.00001934,-0.00016324,0.00009624,0.00024
 231,-0.00000045,-0.00000696,-0.00000948,-0.02319094,-0.02066565,-0.010
 86807,-0.16891402,-0.12054229,-0.06254165,-0.00001561,-0.00027852,0.00
 068061,0.00001051,-0.00006357,0.00001199,0.00006008,0.00000752,-0.0000
 0016,-0.00001129,0.00000160,0.00000329,-0.00000357,-0.00000998,-0.0000
 0061,-0.00000129,-0.00001182,0.00000205,0.00000241,-0.00000562,-0.0000
 0191,-0.00008260,-0.00010436,0.00045796,0.19008242,-0.00016222,0.00015
 527,0.00024340,0.00216866,0.00249671,-0.00384181,0.00119063,-0.0005213
 5,0.00011373,0.00012181,0.00014971,0.00022620,0.00013146,-0.00008377,-
 0.00003118,-0.00024711,-0.00018891,0.00029958,-0.00041635,0.00024210,-
 0.00003104,0.00006186,0.00015146,0.00010707,-0.00008045,0.00007841,-0.
 00003255,-0.00020959,-0.00009720,-0.00002723,0.00036087,-0.00009708,0.
 00020369,-0.00076682,-0.00080302,0.00031703,0.00313094,-0.00060133,-0.
 00251344,-0.00021040,0.00029015,-0.00017411,0.00058827,-0.00004064,0.0
 0023849,-0.01272057,-0.01802027,-0.00904446,-0.00311920,0.00030439,0.0
 0017524,-0.00003046,-0.00001770,-0.00004450,0.00001915,0.00001672,-0.0
 0004516,-0.00004291,-0.00000528,-0.00001525,0.00004056,-0.00013181,-0.
 00003737,0.00009288,0.00008573,-0.00001123,-0.00003059,-0.00011687,-0.
 00003846,0.00008035,0.00003103,-0.00000370,0.00136688,0.00038723,-0.00
 010635,0.00005596,-0.00009543,-0.00000923,0.00876576,0.00650002,0.0006
 6663,-0.12413204,-0.17284114,-0.06873870,0.00079553,0.00032321,0.00378
 530,0.00003460,0.00001699,0.00000082,-0.00015585,-0.00000186,0.0000070
 6,-0.00000476,0.00000311,0.00000132,-0.00000880,-0.00000120,0.00000666
 ,-0.00000634,-0.00000049,-0.00000031,-0.00000045,-0.00001292,0.0000044
 7,0.00030710,-0.00125542,-0.00074016,0.12303162,0.18370145,0.00079008,
 0.00004780,0.00011661,-0.00078200,-0.00346870,0.00957913,-0.00112945,0
 .00059945,-0.00029600,-0.00037892,-0.00047816,-0.00060977,-0.00040763,
 0.00047380,0.00019774,0.00048441,0.00033913,-0.00060823,0.00078114,-0.
 00082369,0.00036331,0.00013243,0.00041879,-0.00003123,0.00007153,-0.00
 004590,0.00001079,0.00032514,-0.00026760,0.00000108,-0.00012276,-0.000
 26930,0.00006968,-0.00060039,-0.00002795,-0.00077728,0.00170775,-0.000
 41137,-0.00055349,-0.00002420,0.00025380,-0.00004246,0.00025998,0.0000
 7973,0.00014172,-0.00685844,-0.00934331,0.00222580,-0.00095015,0.00028
 791,0.00043592,0.00001935,0.00000627,0.00009929,0.00000999,-0.00000081
 ,-0.00000799,0.00001188,0.00003572,0.00003322,0.00002787,-0.00001451,0
 .00008351,0.00004255,0.00006910,-0.00002226,-0.00005590,-0.00003003,0.
 00013043,0.00004019,0.00002590,0.00000119,0.00067808,0.00014099,0.0002
 2971,0.00002672,-0.00004383,-0.00001920,0.00265964,-0.00128322,0.00551
 514,-0.06450542,-0.06941992,-0.07023396,0.00083386,0.00341179,-0.00659
 547,-0.00000189,0.00006371,-0.00002849,0.00000255,-0.00002000,-0.00000
 867,0.00000250,0.00000158,-0.00000484,-0.00000066,-0.00000183,0.000000
 61,-0.00000599,0.00000479,0.00000236,0.00000212,-0.00000218,0.00000390
 ,0.00030237,0.00060249,-0.00070999,0.06661171,0.07908956,0.06130818\\0
 .00000093,-0.00000085,0.00001180,0.00000662,-0.00001243,-0.00001601,-0
 .00000153,0.00001430,-0.00001284,-0.00000395,0.00000284,0.00001184,0.0
 0001188,-0.00001077,-0.00001282,0.00000449,-0.00002761,0.00000492,-0.0
 0002058,0.00002295,0.00002297,-0.00002312,-0.00002456,-0.00000040,0.00
 001981,0.00003261,0.00000421,-0.00000934,0.00000963,-0.00000010,-0.000
 00591,-0.00001146,0.00001007,0.00002924,0.00003056,-0.00003215,0.00000
 836,-0.00003359,0.00001227,-0.00002911,-0.00001349,0.00001992,-0.00001
 333,0.00001007,-0.00000705,-0.00003439,0.00003298,0.00004463,0.0000413
 1,-0.00002257,0.00001172,0.00000096,0.00000075,-0.00000585,0.00000239,
 0.00000175,-0.00000727,0.00000090,0.00000840,0.00000590,-0.00000252,0.
 00000127,-0.00001328,-0.00000266,-0.00000070,-0.00000607,-0.00000526,-
 0.00000063,0.00000049,0.00000179,-0.00000008,-0.00000089,-0.00000622,-
 0.00000044,0.00000298,0.00000021,-0.00000694,-0.00000075,-0.00000786,-
 0.00000220,0.00000398,0.00004669,-0.00000153,-0.00006555,0.00000100,-0
 .00000386,0.00000346,0.00000335,-0.00000522,-0.00000149,-0.00000277,0.
 00000532,0.00000911,0.00000130,0.00000212,-0.00000329,-0.00000209,0.00
 000439,-0.00000118,-0.00000338,0.00000094,0.00000060,-0.00000389,0.000
 00014,0.00000193,-0.00000474,0.00000229,-0.00000947,0.00000143,-0.0000
 0439,0.00001368\\\@


 THE CHYMISTS ARE A STRANGE CLASS OF MORTALS IMPELLED
 BY AN ALMOST INSANE IMPULSE TO SEEK THEIR PLEASURE
 AMONG SMOKE AND VAPOR, SOOT AND FLAME, POISONS AND
 POVERTY; YET AMONG ALL THESE EVILS I SEEM TO LIVE
 SO SWEETLY, THAT I MAY DIE IF I WOULD CHANGE PLACES
 WITH THE PERSIAN KING.
   --  JOHANN JOACHIM BECHER, 1635-1682
 ACTA LABORATORII CHYMICA MONACENSIS, 1669
 Job cpu time:       1 days  0 hours 37 minutes 53.2 seconds.
 Elapsed time:       0 days  1 hours 13 minutes 52.6 seconds.
 File lengths (MBytes):  RWF=   2407 Int=      0 D2E=      0 Chk=     47 Scr=      1
 Normal termination of Gaussian 16 at Tue Mar 26 20:36:34 2019.
