 Entering Gaussian System, Link 0=g09
 Initial command:
 /usr/local/Cluster-Apps/gaussian/g09/l1.exe "/rds/user/am2145/hpc-work/scratch/19184500/Gau-205625.inp" -scrdir="/rds/user/am2145/hpc-work/scratch/19184500/"
 Entering Link 1 = /usr/local/Cluster-Apps/gaussian/g09/l1.exe PID=    205626.
  
 Copyright (c) 1988,1990,1992,1993,1995,1998,2003,2009,2013,
            Gaussian, Inc.  All Rights Reserved.
  
 This is part of the Gaussian(R) 09 program.  It is based on
 the Gaussian(R) 03 system (copyright 2003, Gaussian, Inc.),
 the Gaussian(R) 98 system (copyright 1998, Gaussian, Inc.),
 the Gaussian(R) 94 system (copyright 1995, Gaussian, Inc.),
 the Gaussian 92(TM) system (copyright 1992, Gaussian, Inc.),
 the Gaussian 90(TM) system (copyright 1990, Gaussian, Inc.),
 the Gaussian 88(TM) system (copyright 1988, Gaussian, Inc.),
 the Gaussian 86(TM) system (copyright 1986, Carnegie Mellon
 University), and the Gaussian 82(TM) system (copyright 1983,
 Carnegie Mellon University). Gaussian is a federally registered
 trademark of Gaussian, Inc.
  
 This software contains proprietary and confidential information,
 including trade secrets, belonging to Gaussian, Inc.
  
 This software is provided under written license and may be
 used, copied, transmitted, or stored only in accord with that
 written license.
  
 The following legend is applicable only to US Government
 contracts under FAR:
  
                    RESTRICTED RIGHTS LEGEND
  
 Use, reproduction and disclosure by the US Government is
 subject to restrictions as set forth in subparagraphs (a)
 and (c) of the Commercial Computer Software - Restricted
 Rights clause in FAR 52.227-19.
  
 Gaussian, Inc.
 340 Quinnipiac St., Bldg. 40, Wallingford CT 06492
  
  
 ---------------------------------------------------------------
 Warning -- This program may not be used in any manner that
 competes with the business of Gaussian, Inc. or will provide
 assistance to any competitor of Gaussian, Inc.  The licensee
 of this program is prohibited from giving any competitor of
 Gaussian, Inc. access to this program.  By using this program,
 the user acknowledges that Gaussian, Inc. is engaged in the
 business of creating and licensing software in the field of
 computational chemistry and represents and warrants to the
 licensee that it is not a competitor of Gaussian, Inc. and that
 it will not use this program in any manner prohibited above.
 ---------------------------------------------------------------
  

 Cite this work as:
 Gaussian 09, Revision D.01,
 M. J. Frisch, G. W. Trucks, H. B. Schlegel, G. E. Scuseria, 
 M. A. Robb, J. R. Cheeseman, G. Scalmani, V. Barone, B. Mennucci, 
 G. A. Petersson, H. Nakatsuji, M. Caricato, X. Li, H. P. Hratchian, 
 A. F. Izmaylov, J. Bloino, G. Zheng, J. L. Sonnenberg, M. Hada, 
 M. Ehara, K. Toyota, R. Fukuda, J. Hasegawa, M. Ishida, T. Nakajima, 
 Y. Honda, O. Kitao, H. Nakai, T. Vreven, J. A. Montgomery, Jr., 
 J. E. Peralta, F. Ogliaro, M. Bearpark, J. J. Heyd, E. Brothers, 
 K. N. Kudin, V. N. Staroverov, T. Keith, R. Kobayashi, J. Normand, 
 K. Raghavachari, A. Rendell, J. C. Burant, S. S. Iyengar, J. Tomasi, 
 M. Cossi, N. Rega, J. M. Millam, M. Klene, J. E. Knox, J. B. Cross, 
 V. Bakken, C. Adamo, J. Jaramillo, R. Gomperts, R. E. Stratmann, 
 O. Yazyev, A. J. Austin, R. Cammi, C. Pomelli, J. W. Ochterski, 
 R. L. Martin, K. Morokuma, V. G. Zakrzewski, G. A. Voth, 
 P. Salvador, J. J. Dannenberg, S. Dapprich, A. D. Daniels, 
 O. Farkas, J. B. Foresman, J. V. Ortiz, J. Cioslowski, 
 and D. J. Fox, Gaussian, Inc., Wallingford CT, 2013.
 
 ******************************************
 Gaussian 09:  ES64L-G09RevD.01 24-Apr-2013
                 1-Feb-2020 
 ******************************************
 %NProcShared=20
 Will use up to   20 processors via shared memory.
 %mem=64GB
 %Chk=AS2a_ethy_ener.chk
 ------------------------------
 #n opt freq b3lyp/6-311+g(d,p)
 ------------------------------
 1/14=-1,18=20,19=15,26=3,38=1/1,3;
 2/9=110,12=2,17=6,18=5,40=1/2;
 3/5=4,6=6,7=111,11=2,16=1,25=1,30=1,71=1,74=-5/1,2,3;
 4//1;
 5/5=2,38=5/2;
 6/7=2,8=2,9=2,10=2,28=1/1;
 7//1,2,3,16;
 1/14=-1,18=20,19=15,26=3/3(2);
 2/9=110/2;
 99//99;
 2/9=110/2;
 3/5=4,6=6,7=111,11=2,16=1,25=1,30=1,71=1,74=-5/1,2,3;
 4/5=5,16=3,69=1/1;
 5/5=2,38=5/2;
 7//1,2,3,16;
 1/14=-1,18=20,19=15,26=3/3(-5);
 2/9=110/2;
 6/7=2,8=2,9=2,10=2,19=2,28=1/1;
 99/9=1/99;
 --------------
 AS2a_ethy_ener
 --------------
 Symbolic Z-matrix:
 Charge =  0 Multiplicity = 1
 C                    -1.83551   3.30109  -0.30669 
 C                    -0.57356   2.64029  -0.24847 
 C                    -0.53296   1.26995  -0.05429 
 C                    -3.0559    2.65322  -0.20558 
 C                    -3.07166   1.24247  -0.04478 
 C                    -1.81362   0.65048   0.02923 
 C                     0.47575   0.13646   0.00631 
 C                    -0.30517  -1.03718   0.07201 
 C                    -1.67475  -0.73084   0.1036 
 C                     0.10478  -2.37789   0.05361 
 C                     1.47946  -2.56268  -0.05039 
 C                     2.35159  -1.44947  -0.0904 
 C                     1.88244  -0.06112  -0.01945 
 C                     3.74631  -1.71274  -0.20896 
 C                     4.67042  -0.70571  -0.23129 
 C                     2.90255   0.96071   0.03785 
 C                     4.24274   0.62697  -0.08724 
 H                     0.32285   3.2277   -0.36958 
 H                    -1.82967   4.37637  -0.4496 
 H                    -3.97923   3.21933  -0.26868 
 C                    -4.18496   0.32832   0.00776 
 C                    -2.71094  -1.63858   0.11988 
 C                    -0.95811  -3.36611   0.09759 
 H                     1.91177  -3.55638  -0.10961 
 H                     4.06301  -2.74772  -0.27954 
 H                     4.97475   1.42386  -0.04258 
 H                     5.72722  -0.92386  -0.3288 
 C                     2.63727   2.33509   0.31528 
 C                     2.55986   3.50374   0.59872 
 H                     2.45867   4.53012   0.8533 
 C                    -4.01975  -1.04391   0.08652 
 C                    -2.28921  -3.02473   0.13086 
 H                    -5.19234   0.73047  -0.02994 
 H                    -4.89971  -1.67852   0.10854 
 H                    -3.03547  -3.81221   0.15286 
 H                    -0.6843   -4.41613   0.09357 
 

 GradGradGradGradGradGradGradGradGradGradGradGradGradGradGradGradGradGrad
 Berny optimization.
 Initialization pass.
                           ----------------------------
                           !    Initial Parameters    !
                           ! (Angstroms and Degrees)  !
 --------------------------                            --------------------------
 ! Name  Definition              Value          Derivative Info.                !
 --------------------------------------------------------------------------------
 ! R1    R(1,2)                  1.4257         estimate D2E/DX2                !
 ! R2    R(1,4)                  1.3854         estimate D2E/DX2                !
 ! R3    R(1,19)                 1.0848         estimate D2E/DX2                !
 ! R4    R(2,3)                  1.3846         estimate D2E/DX2                !
 ! R5    R(2,18)                 1.0785         estimate D2E/DX2                !
 ! R6    R(3,6)                  1.4251         estimate D2E/DX2                !
 ! R7    R(3,7)                  1.5185         estimate D2E/DX2                !
 ! R8    R(4,5)                  1.42           estimate D2E/DX2                !
 ! R9    R(4,20)                 1.0849         estimate D2E/DX2                !
 ! R10   R(5,6)                  1.3923         estimate D2E/DX2                !
 ! R11   R(5,21)                 1.4415         estimate D2E/DX2                !
 ! R12   R(6,9)                  1.3903         estimate D2E/DX2                !
 ! R13   R(7,8)                  1.4112         estimate D2E/DX2                !
 ! R14   R(7,13)                 1.4207         estimate D2E/DX2                !
 ! R15   R(8,9)                  1.4038         estimate D2E/DX2                !
 ! R16   R(8,10)                 1.4021         estimate D2E/DX2                !
 ! R17   R(9,22)                 1.3777         estimate D2E/DX2                !
 ! R18   R(10,11)                1.3909         estimate D2E/DX2                !
 ! R19   R(10,23)                1.452          estimate D2E/DX2                !
 ! R20   R(11,12)                1.4147         estimate D2E/DX2                !
 ! R21   R(11,24)                1.0853         estimate D2E/DX2                !
 ! R22   R(12,13)                1.4672         estimate D2E/DX2                !
 ! R23   R(12,14)                1.4243         estimate D2E/DX2                !
 ! R24   R(13,16)                1.445          estimate D2E/DX2                !
 ! R25   R(14,15)                1.367          estimate D2E/DX2                !
 ! R26   R(14,25)                1.0846         estimate D2E/DX2                !
 ! R27   R(15,17)                1.407          estimate D2E/DX2                !
 ! R28   R(15,27)                1.0835         estimate D2E/DX2                !
 ! R29   R(16,17)                1.3868         estimate D2E/DX2                !
 ! R30   R(16,28)                1.427          estimate D2E/DX2                !
 ! R31   R(17,26)                1.083          estimate D2E/DX2                !
 ! R32   R(21,31)                1.3844         estimate D2E/DX2                !
 ! R33   R(21,33)                1.0853         estimate D2E/DX2                !
 ! R34   R(22,31)                1.438          estimate D2E/DX2                !
 ! R35   R(22,32)                1.4489         estimate D2E/DX2                !
 ! R36   R(23,32)                1.3746         estimate D2E/DX2                !
 ! R37   R(23,36)                1.0851         estimate D2E/DX2                !
 ! R38   R(28,29)                1.205          estimate D2E/DX2                !
 ! R39   R(29,30)                1.0623         estimate D2E/DX2                !
 ! R40   R(31,34)                1.0851         estimate D2E/DX2                !
 ! R41   R(32,35)                1.0851         estimate D2E/DX2                !
 ! A1    A(2,1,4)              124.0559         estimate D2E/DX2                !
 ! A2    A(2,1,19)             117.3914         estimate D2E/DX2                !
 ! A3    A(4,1,19)             118.5495         estimate D2E/DX2                !
 ! A4    A(1,2,3)              119.3667         estimate D2E/DX2                !
 ! A5    A(1,2,18)             118.5976         estimate D2E/DX2                !
 ! A6    A(3,2,18)             122.0317         estimate D2E/DX2                !
 ! A7    A(2,3,6)              114.3356         estimate D2E/DX2                !
 ! A8    A(2,3,7)              139.8009         estimate D2E/DX2                !
 ! A9    A(6,3,7)              105.6727         estimate D2E/DX2                !
 ! A10   A(1,4,5)              118.8585         estimate D2E/DX2                !
 ! A11   A(1,4,20)             120.0957         estimate D2E/DX2                !
 ! A12   A(5,4,20)             121.035          estimate D2E/DX2                !
 ! A13   A(4,5,6)              114.7341         estimate D2E/DX2                !
 ! A14   A(4,5,21)             129.9976         estimate D2E/DX2                !
 ! A15   A(6,5,21)             115.2306         estimate D2E/DX2                !
 ! A16   A(3,6,5)              128.6125         estimate D2E/DX2                !
 ! A17   A(3,6,9)              110.1981         estimate D2E/DX2                !
 ! A18   A(5,6,9)              121.0333         estimate D2E/DX2                !
 ! A19   A(3,7,8)              104.7763         estimate D2E/DX2                !
 ! A20   A(3,7,13)             139.533          estimate D2E/DX2                !
 ! A21   A(8,7,13)             115.6631         estimate D2E/DX2                !
 ! A22   A(7,8,9)              111.0659         estimate D2E/DX2                !
 ! A23   A(7,8,10)             129.2586         estimate D2E/DX2                !
 ! A24   A(9,8,10)             119.6186         estimate D2E/DX2                !
 ! A25   A(6,9,8)              108.2443         estimate D2E/DX2                !
 ! A26   A(6,9,22)             125.4618         estimate D2E/DX2                !
 ! A27   A(8,9,22)             126.1777         estimate D2E/DX2                !
 ! A28   A(8,10,11)            114.6441         estimate D2E/DX2                !
 ! A29   A(8,10,23)            115.8725         estimate D2E/DX2                !
 ! A30   A(11,10,23)           129.4434         estimate D2E/DX2                !
 ! A31   A(10,11,12)           120.4533         estimate D2E/DX2                !
 ! A32   A(10,11,24)           121.2923         estimate D2E/DX2                !
 ! A33   A(12,11,24)           118.2531         estimate D2E/DX2                !
 ! A34   A(11,12,13)           123.0999         estimate D2E/DX2                !
 ! A35   A(11,12,14)           117.424          estimate D2E/DX2                !
 ! A36   A(13,12,14)           119.4758         estimate D2E/DX2                !
 ! A37   A(7,13,12)            116.6842         estimate D2E/DX2                !
 ! A38   A(7,13,16)            126.8639         estimate D2E/DX2                !
 ! A39   A(12,13,16)           116.4443         estimate D2E/DX2                !
 ! A40   A(12,14,15)           121.8153         estimate D2E/DX2                !
 ! A41   A(12,14,25)           117.8861         estimate D2E/DX2                !
 ! A42   A(15,14,25)           120.2984         estimate D2E/DX2                !
 ! A43   A(14,15,17)           119.3806         estimate D2E/DX2                !
 ! A44   A(14,15,27)           120.8324         estimate D2E/DX2                !
 ! A45   A(17,15,27)           119.7619         estimate D2E/DX2                !
 ! A46   A(13,16,17)           120.5629         estimate D2E/DX2                !
 ! A47   A(13,16,28)           123.8866         estimate D2E/DX2                !
 ! A48   A(17,16,28)           115.4032         estimate D2E/DX2                !
 ! A49   A(15,17,16)           122.0684         estimate D2E/DX2                !
 ! A50   A(15,17,26)           119.7171         estimate D2E/DX2                !
 ! A51   A(16,17,26)           118.1908         estimate D2E/DX2                !
 ! A52   A(5,21,31)            122.5824         estimate D2E/DX2                !
 ! A53   A(5,21,33)            118.7252         estimate D2E/DX2                !
 ! A54   A(31,21,33)           118.6867         estimate D2E/DX2                !
 ! A55   A(9,22,31)            114.3193         estimate D2E/DX2                !
 ! A56   A(9,22,32)            114.3005         estimate D2E/DX2                !
 ! A57   A(31,22,32)           131.3557         estimate D2E/DX2                !
 ! A58   A(10,23,32)           122.7229         estimate D2E/DX2                !
 ! A59   A(10,23,36)           118.2781         estimate D2E/DX2                !
 ! A60   A(32,23,36)           118.996          estimate D2E/DX2                !
 ! A61   A(21,31,22)           121.3229         estimate D2E/DX2                !
 ! A62   A(21,31,34)           118.9511         estimate D2E/DX2                !
 ! A63   A(22,31,34)           119.7198         estimate D2E/DX2                !
 ! A64   A(22,32,23)           121.283          estimate D2E/DX2                !
 ! A65   A(22,32,35)           119.6198         estimate D2E/DX2                !
 ! A66   A(23,32,35)           119.0925         estimate D2E/DX2                !
 ! A67   L(16,28,29,1,-1)      187.3168         estimate D2E/DX2                !
 ! A68   L(28,29,30,1,-1)      178.3028         estimate D2E/DX2                !
 ! A69   L(16,28,29,1,-2)      179.0974         estimate D2E/DX2                !
 ! A70   L(28,29,30,1,-2)      179.3789         estimate D2E/DX2                !
 ! D1    D(4,1,2,3)             -1.2861         estimate D2E/DX2                !
 ! D2    D(4,1,2,18)           178.0061         estimate D2E/DX2                !
 ! D3    D(19,1,2,3)           179.3798         estimate D2E/DX2                !
 ! D4    D(19,1,2,18)           -1.328          estimate D2E/DX2                !
 ! D5    D(2,1,4,5)             -0.5507         estimate D2E/DX2                !
 ! D6    D(2,1,4,20)          -179.3702         estimate D2E/DX2                !
 ! D7    D(19,1,4,5)           178.7762         estimate D2E/DX2                !
 ! D8    D(19,1,4,20)           -0.0433         estimate D2E/DX2                !
 ! D9    D(1,2,3,6)              1.8034         estimate D2E/DX2                !
 ! D10   D(1,2,3,7)            175.8185         estimate D2E/DX2                !
 ! D11   D(18,2,3,6)          -177.4635         estimate D2E/DX2                !
 ! D12   D(18,2,3,7)            -3.4484         estimate D2E/DX2                !
 ! D13   D(2,3,6,5)             -0.7271         estimate D2E/DX2                !
 ! D14   D(2,3,6,9)            174.7017         estimate D2E/DX2                !
 ! D15   D(7,3,6,5)           -176.719          estimate D2E/DX2                !
 ! D16   D(7,3,6,9)             -1.2902         estimate D2E/DX2                !
 ! D17   D(2,3,7,8)           -172.359          estimate D2E/DX2                !
 ! D18   D(2,3,7,13)             5.5104         estimate D2E/DX2                !
 ! D19   D(6,3,7,8)              1.9783         estimate D2E/DX2                !
 ! D20   D(6,3,7,13)           179.8477         estimate D2E/DX2                !
 ! D21   D(1,4,5,6)              1.5734         estimate D2E/DX2                !
 ! D22   D(1,4,5,21)          -176.0568         estimate D2E/DX2                !
 ! D23   D(20,4,5,6)          -179.6185         estimate D2E/DX2                !
 ! D24   D(20,4,5,21)            2.7513         estimate D2E/DX2                !
 ! D25   D(4,5,6,3)             -0.9966         estimate D2E/DX2                !
 ! D26   D(4,5,6,9)           -175.9888         estimate D2E/DX2                !
 ! D27   D(21,5,6,3)           176.9967         estimate D2E/DX2                !
 ! D28   D(21,5,6,9)             2.0044         estimate D2E/DX2                !
 ! D29   D(4,5,21,31)          175.799          estimate D2E/DX2                !
 ! D30   D(4,5,21,33)           -3.319          estimate D2E/DX2                !
 ! D31   D(6,5,21,31)           -1.8216         estimate D2E/DX2                !
 ! D32   D(6,5,21,33)          179.0604         estimate D2E/DX2                !
 ! D33   D(3,6,9,8)              0.0827         estimate D2E/DX2                !
 ! D34   D(3,6,9,22)          -176.1914         estimate D2E/DX2                !
 ! D35   D(5,6,9,8)            175.915          estimate D2E/DX2                !
 ! D36   D(5,6,9,22)            -0.3591         estimate D2E/DX2                !
 ! D37   D(3,7,8,9)             -2.0178         estimate D2E/DX2                !
 ! D38   D(3,7,8,10)           175.1807         estimate D2E/DX2                !
 ! D39   D(13,7,8,9)           179.5161         estimate D2E/DX2                !
 ! D40   D(13,7,8,10)           -3.2853         estimate D2E/DX2                !
 ! D41   D(3,7,13,12)         -172.6729         estimate D2E/DX2                !
 ! D42   D(3,7,13,16)            8.3688         estimate D2E/DX2                !
 ! D43   D(8,7,13,12)            5.0415         estimate D2E/DX2                !
 ! D44   D(8,7,13,16)         -173.9169         estimate D2E/DX2                !
 ! D45   D(7,8,9,6)              1.2925         estimate D2E/DX2                !
 ! D46   D(7,8,9,22)           177.5328         estimate D2E/DX2                !
 ! D47   D(10,8,9,6)          -176.2125         estimate D2E/DX2                !
 ! D48   D(10,8,9,22)            0.0278         estimate D2E/DX2                !
 ! D49   D(7,8,10,11)           -0.3098         estimate D2E/DX2                !
 ! D50   D(7,8,10,23)         -178.2311         estimate D2E/DX2                !
 ! D51   D(9,8,10,11)          176.6829         estimate D2E/DX2                !
 ! D52   D(9,8,10,23)           -1.2384         estimate D2E/DX2                !
 ! D53   D(6,9,22,31)           -1.5176         estimate D2E/DX2                !
 ! D54   D(6,9,22,32)          176.888          estimate D2E/DX2                !
 ! D55   D(8,9,22,31)         -177.1326         estimate D2E/DX2                !
 ! D56   D(8,9,22,32)            1.273          estimate D2E/DX2                !
 ! D57   D(8,10,11,12)           1.7822         estimate D2E/DX2                !
 ! D58   D(8,10,11,24)        -177.8009         estimate D2E/DX2                !
 ! D59   D(23,10,11,12)        179.3601         estimate D2E/DX2                !
 ! D60   D(23,10,11,24)         -0.223          estimate D2E/DX2                !
 ! D61   D(8,10,23,32)           1.1448         estimate D2E/DX2                !
 ! D62   D(8,10,23,36)        -179.4969         estimate D2E/DX2                !
 ! D63   D(11,10,23,32)       -176.4084         estimate D2E/DX2                !
 ! D64   D(11,10,23,36)          2.9499         estimate D2E/DX2                !
 ! D65   D(10,11,12,13)          0.3479         estimate D2E/DX2                !
 ! D66   D(10,11,12,14)       -179.4828         estimate D2E/DX2                !
 ! D67   D(24,11,12,13)        179.9435         estimate D2E/DX2                !
 ! D68   D(24,11,12,14)          0.1128         estimate D2E/DX2                !
 ! D69   D(11,12,13,7)          -3.9777         estimate D2E/DX2                !
 ! D70   D(11,12,13,16)        175.0916         estimate D2E/DX2                !
 ! D71   D(14,12,13,7)         175.8498         estimate D2E/DX2                !
 ! D72   D(14,12,13,16)         -5.081          estimate D2E/DX2                !
 ! D73   D(11,12,14,15)       -178.7872         estimate D2E/DX2                !
 ! D74   D(11,12,14,25)          1.049          estimate D2E/DX2                !
 ! D75   D(13,12,14,15)          1.3756         estimate D2E/DX2                !
 ! D76   D(13,12,14,25)       -178.7881         estimate D2E/DX2                !
 ! D77   D(7,13,16,17)        -175.636          estimate D2E/DX2                !
 ! D78   D(7,13,16,28)           8.9835         estimate D2E/DX2                !
 ! D79   D(12,13,16,17)          5.4034         estimate D2E/DX2                !
 ! D80   D(12,13,16,28)       -169.9771         estimate D2E/DX2                !
 ! D81   D(12,14,15,17)          2.2401         estimate D2E/DX2                !
 ! D82   D(12,14,15,27)       -179.5837         estimate D2E/DX2                !
 ! D83   D(25,14,15,17)       -177.5923         estimate D2E/DX2                !
 ! D84   D(25,14,15,27)          0.5839         estimate D2E/DX2                !
 ! D85   D(14,15,17,16)         -1.9671         estimate D2E/DX2                !
 ! D86   D(14,15,17,26)        176.2267         estimate D2E/DX2                !
 ! D87   D(27,15,17,16)        179.8369         estimate D2E/DX2                !
 ! D88   D(27,15,17,26)         -1.9693         estimate D2E/DX2                !
 ! D89   D(13,16,17,15)         -2.0216         estimate D2E/DX2                !
 ! D90   D(13,16,17,26)        179.7582         estimate D2E/DX2                !
 ! D91   D(28,16,17,15)        173.7339         estimate D2E/DX2                !
 ! D92   D(28,16,17,26)         -4.4864         estimate D2E/DX2                !
 ! D93   D(5,21,31,22)          -0.0325         estimate D2E/DX2                !
 ! D94   D(5,21,31,34)        -179.1289         estimate D2E/DX2                !
 ! D95   D(33,21,31,22)        179.0858         estimate D2E/DX2                !
 ! D96   D(33,21,31,34)         -0.0105         estimate D2E/DX2                !
 ! D97   D(9,22,31,21)           1.6649         estimate D2E/DX2                !
 ! D98   D(9,22,31,34)        -179.2456         estimate D2E/DX2                !
 ! D99   D(32,22,31,21)       -176.3991         estimate D2E/DX2                !
 ! D100  D(32,22,31,34)          2.6904         estimate D2E/DX2                !
 ! D101  D(9,22,32,23)          -1.34           estimate D2E/DX2                !
 ! D102  D(9,22,32,35)         179.4574         estimate D2E/DX2                !
 ! D103  D(31,22,32,23)        176.7243         estimate D2E/DX2                !
 ! D104  D(31,22,32,35)         -2.4783         estimate D2E/DX2                !
 ! D105  D(10,23,32,22)          0.179          estimate D2E/DX2                !
 ! D106  D(10,23,32,35)        179.3857         estimate D2E/DX2                !
 ! D107  D(36,23,32,22)       -179.1749         estimate D2E/DX2                !
 ! D108  D(36,23,32,35)          0.0318         estimate D2E/DX2                !
 --------------------------------------------------------------------------------
 Trust Radius=3.00D-01 FncErr=1.00D-07 GrdErr=1.00D-06
 Number of steps in this run=    216 maximum allowed number of steps=    216.
 GradGradGradGradGradGradGradGradGradGradGradGradGradGradGradGradGradGrad

                          Input orientation:                          
 ---------------------------------------------------------------------
 Center     Atomic      Atomic             Coordinates (Angstroms)
 Number     Number       Type             X           Y           Z
 ---------------------------------------------------------------------
      1          6           0       -1.835510    3.301090   -0.306690
      2          6           0       -0.573560    2.640290   -0.248470
      3          6           0       -0.532960    1.269950   -0.054290
      4          6           0       -3.055900    2.653220   -0.205580
      5          6           0       -3.071660    1.242470   -0.044780
      6          6           0       -1.813620    0.650480    0.029230
      7          6           0        0.475750    0.136460    0.006310
      8          6           0       -0.305170   -1.037180    0.072010
      9          6           0       -1.674750   -0.730840    0.103600
     10          6           0        0.104780   -2.377890    0.053610
     11          6           0        1.479460   -2.562680   -0.050390
     12          6           0        2.351590   -1.449470   -0.090400
     13          6           0        1.882440   -0.061120   -0.019450
     14          6           0        3.746310   -1.712740   -0.208960
     15          6           0        4.670420   -0.705710   -0.231290
     16          6           0        2.902550    0.960710    0.037850
     17          6           0        4.242740    0.626970   -0.087240
     18          1           0        0.322850    3.227700   -0.369580
     19          1           0       -1.829670    4.376370   -0.449600
     20          1           0       -3.979230    3.219330   -0.268680
     21          6           0       -4.184960    0.328320    0.007760
     22          6           0       -2.710940   -1.638580    0.119880
     23          6           0       -0.958110   -3.366110    0.097590
     24          1           0        1.911770   -3.556380   -0.109610
     25          1           0        4.063010   -2.747720   -0.279540
     26          1           0        4.974750    1.423860   -0.042580
     27          1           0        5.727220   -0.923860   -0.328800
     28          6           0        2.637270    2.335090    0.315280
     29          6           0        2.559860    3.503740    0.598720
     30          1           0        2.458670    4.530120    0.853300
     31          6           0       -4.019750   -1.043910    0.086520
     32          6           0       -2.289210   -3.024730    0.130860
     33          1           0       -5.192340    0.730470   -0.029940
     34          1           0       -4.899710   -1.678520    0.108540
     35          1           0       -3.035470   -3.812210    0.152860
     36          1           0       -0.684300   -4.416130    0.093570
 ---------------------------------------------------------------------
                    Distance matrix (angstroms):
                    1          2          3          4          5
     1  C    0.000000
     2  C    1.425680   0.000000
     3  C    2.426082   1.384625   0.000000
     4  C    1.385392   2.482744   2.881241   0.000000
     5  C    2.415488   2.869825   2.538867   1.419972   0.000000
     6  C    2.671901   2.360976   1.425064   2.368409   1.392334
     7  C    3.931256   2.726743   1.518541   4.341835   3.716179
     8  C    4.615836   3.701152   2.321786   4.611141   3.586629
     9  C    4.055939   3.563859   2.309064   3.668110   2.422256
    10  C    6.012101   5.072822   3.704739   5.947196   4.817308
    11  C    6.740810   5.596876   4.328845   6.913696   5.932275
    12  C    6.336119   5.030668   3.964490   6.788688   6.054772
    13  C    5.020968   3.658142   2.758100   5.638217   5.122802
    14  C    7.503650   6.132838   5.218478   8.082801   7.432694
    15  C    7.641155   6.220558   5.568638   8.424909   7.985612
    16  C    5.295781   3.871215   3.450630   6.198949   5.981421
    17  C    6.644110   5.222662   4.818902   7.575608   7.340374
    18  H    2.160523   1.078550   2.159769   3.431162   3.945799
    19  H    1.084751   2.152264   3.389332   2.128951   3.395254
    20  H    2.145615   3.454603   3.965201   1.084897   2.186730
    21  C    3.802125   4.295704   3.771952   2.593347   1.441481
    22  C    5.034747   4.797166   3.637785   4.317924   2.908209
    23  C    6.736826   6.028638   4.657990   6.381612   5.072117
    24  H    7.817023   6.677939   5.410474   7.952741   6.918652
    25  H    8.448750   7.108403   6.108629   8.936135   8.178034
    26  H    7.069186   5.683822   5.509872   8.125837   8.048455
    27  H    8.662885   7.239437   6.639127   9.484402   9.066087
    28  C    4.617983   3.274201   3.364738   5.725791   5.823688
    29  C    4.492228   3.358809   3.870630   5.736466   6.102577
    30  H    4.614767   3.738954   4.516888   5.920681   6.496133
    31  C    4.878990   5.055865   4.187061   3.831853   2.478638
    32  C    6.357145   5.931256   4.643595   5.739349   4.341897
    33  H    4.237096   5.002829   4.690571   2.879617   2.181662
    34  H    5.861591   6.123328   5.271479   4.718292   3.449269
    35  H    7.228425   6.917863   5.668670   6.475390   5.058672
    36  H    7.812873   7.065573   5.690015   7.462552   6.143157
                    6          7          8          9         10
     6  C    0.000000
     7  C    2.346478   0.000000
     8  C    2.263945   1.411235   0.000000
     9  C    1.390274   2.320846   1.403778   0.000000
    10  C    3.584952   2.542009   1.402106   2.425283   0.000000
    11  C    4.601642   2.880279   2.350965   3.650807   1.390938
    12  C    4.666163   2.458313   2.693461   4.094567   2.435335
    13  C    3.764253   1.420732   2.397227   3.621777   2.921102
    14  C    6.046021   3.763302   4.117015   5.518126   3.711079
    15  C    6.629472   4.284969   4.995834   6.354051   4.870567
    16  C    4.726370   2.563151   3.779180   4.880301   4.355917
    17  C    6.057525   3.799943   4.845435   6.074270   5.115832
    18  H    3.371293   3.117761   4.333430   4.459186   5.625770
    19  H    3.756567   4.847644   5.648248   5.139419   7.043816
    20  H    3.373071   5.424625   5.633175   4.588362   6.936273
    21  C    2.393220   4.664658   4.113574   2.726199   5.072233
    22  C    2.460324   3.649474   2.480263   1.377660   2.911915
    23  C    4.107258   3.785800   2.418863   2.730981   1.451981
    24  H    5.620986   3.963920   3.360681   4.570805   2.163491
    25  H    6.795431   4.611793   4.704310   6.093972   3.989404
    26  H    6.832660   4.679828   5.826440   6.991420   6.178929
    27  H    7.711744   5.367915   6.046753   7.417101   5.819989
    28  C    4.767615   3.098646   4.482113   5.295116   5.356693
    29  C    5.252879   4.004128   5.394977   6.009054   6.396728
    30  H    5.829508   4.894243   6.264508   6.732378   7.341724
    31  C    2.782310   4.648573   3.714614   2.365868   4.335013
    32  C    3.707247   4.201623   2.808956   2.374918   2.481040
    33  H    3.380185   5.699246   5.198020   3.811391   6.142342
    34  H    3.867103   5.674520   4.639229   3.361322   5.053420
    35  H    4.628586   5.286032   3.893824   3.368802   3.453736
    36  H    5.191343   4.698873   3.400222   3.816078   2.186016
                   11         12         13         14         15
    11  C    0.000000
    12  C    1.414725   0.000000
    13  C    2.533999   1.467192   0.000000
    14  C    2.426139   1.424293   2.497554   0.000000
    15  C    3.696389   2.439262   2.869356   1.366963   0.000000
    16  C    3.800954   2.475676   1.445007   2.814282   2.444331
    17  C    4.220301   2.808569   2.459488   2.394891   1.407017
    18  H    5.913386   5.105844   3.656672   6.012805   5.864487
    19  H    7.698060   7.179998   5.801388   8.259947   8.253870
    20  H    7.954658   7.868212   6.721804   9.165852   9.498620
    21  C    6.359789   6.774707   6.079946   8.192554   8.918751
    22  C    4.294462   5.070423   4.858697   6.466043   7.448358
    23  C    2.570826   3.829225   4.359516   4.995916   6.234279
    24  H    1.085283   2.152413   3.496546   2.602771   3.968788
    25  H    2.600285   2.156429   3.469921   1.084649   2.130981
    26  H    5.301850   3.890923   3.430464   3.372685   2.159467
    27  H    4.561437   3.424614   3.952512   2.135579   1.083478
    28  C    5.046027   3.816947   2.534489   4.229625   3.698500
    29  C    6.195971   5.005252   3.680932   5.410330   4.781511
    30  H    7.216877   6.054546   4.708845   6.462176   5.786371
    31  C    5.706726   6.386686   5.984392   7.800406   8.702553
    32  C    3.801212   4.905856   5.119399   6.185814   7.344757
    33  H    7.440307   7.852813   7.118935   9.268268   9.968811
    34  H    6.442112   7.257644   6.973516   8.651915   9.625447
    35  H    4.689054   5.887455   6.187585   7.108532   8.317371
    36  H    2.852693   4.248711   5.056386   5.199052   6.522712
                   16         17         18         19         20
    16  C    0.000000
    17  C    1.386773   0.000000
    18  H    3.458337   4.712648   0.000000
    19  H    5.856471   7.145871   2.441145   0.000000
    20  H    7.249429   8.622879   4.303271   2.447873   0.000000
    21  C    7.115730   8.433525   5.373001   4.705664   2.911474
    22  C    6.186623   7.316371   5.755357   6.105782   5.035755
    23  C    5.799106   6.559550   6.733308   7.810572   7.254608
    24  H    4.626823   4.788981   6.972517   8.777385   8.979946
    25  H    3.898699   3.384939   7.050003   9.246905  10.014161
    26  H    2.124851   1.082990   5.000094   7.428534   9.135020
    27  H    3.415377   2.160349   6.815008   9.231122  10.553900
    28  C    1.426976   2.378493   2.573388   4.970455   6.700818
    29  C    2.626597   3.402709   2.453165   4.596567   6.602497
    30  H    3.688181   4.393416   2.784504   4.484534   6.665101
    31  C    7.206879   8.431534   6.108425   5.870546   4.278203
    32  C    6.545743   7.486578   6.794570   7.438037   6.481056
    33  H    8.098447   9.435822   6.063731   4.977575   2.779039
    34  H    8.236856   9.430695   7.181555   6.811634   4.997851
    35  H    7.619322   8.528558   7.817390   8.298780   7.107104
    36  H    6.463668   7.052749   7.723794   8.883409   8.323944
                   21         22         23         24         25
    21  C    0.000000
    22  C    2.460488   0.000000
    23  C    4.906062   2.461152   0.000000
    24  H    7.230130   5.009997   2.883634   0.000000
    25  H    8.807586   6.875764   5.073094   2.304483   0.000000
    26  H    9.225130   8.274948   7.626420   5.847147   4.276622
    27  H    9.996626   8.480253   7.130220   4.640675   2.469511
    28  C    7.117901   6.665702   6.743725   5.951160   5.312391
    29  C    7.478310   7.379300   7.734474   7.125100   6.489341
    30  H    7.906193   8.081809   8.636894   8.161971   7.538182
    31  C    1.384382   1.437960   3.842704   6.444680   8.268493
    32  C    3.853825   1.448927   1.374582   4.241310   6.371488
    33  H    1.085339   3.433976   5.892956   8.297699   9.890481
    34  H    2.132705   2.189164   4.287691   7.068961   9.034608
    35  H    4.299578   2.197971   2.125437   4.960799   7.190864
    36  H    5.896761   3.438422   1.085141   2.742268   5.045766
                   26         27         28         29         30
    26  H    0.000000
    27  H    2.481919   0.000000
    28  C    2.534209   4.536892   0.000000
    29  C    3.250978   5.522328   1.205020   0.000000
    30  H    4.096597   6.467355   2.267051   1.062312   0.000000
    31  C    9.327786   9.756553   7.468995   8.014658   8.580658
    32  C    8.519692   8.299885   7.282300   8.145753   8.952097
    33  H   10.190715  11.048209   7.999798   8.257290   8.588097
    34  H   10.351452  10.662665   8.541538   9.096223   9.656481
    35  H    9.571742   9.239010   8.366341   9.221151  10.013524
    36  H    8.133195   7.313134   7.527347   8.573453   9.512667
                   31         32         33         34         35
    31  C    0.000000
    32  C    2.630662   0.000000
    33  H    2.130013   4.749268   0.000000
    34  H    1.085147   2.937259   2.430646   0.000000
    35  H    2.938825   1.085133   5.032042   2.833723   0.000000
    36  H    4.743115   2.124411   6.842892   5.026372   2.428216
                   36
    36  H    0.000000
 Stoichiometry    C24H12
 Framework group  C1[X(C24H12)]
 Deg. of freedom   102
 Full point group                 C1      NOp   1
 Largest Abelian subgroup         C1      NOp   1
 Largest concise Abelian subgroup C1      NOp   1
                         Standard orientation:                         
 ---------------------------------------------------------------------
 Center     Atomic      Atomic             Coordinates (Angstroms)
 Number     Number       Type             X           Y           Z
 ---------------------------------------------------------------------
      1          6           0       -1.835507    3.301091   -0.306690
      2          6           0       -0.573558    2.640290   -0.248470
      3          6           0       -0.532959    1.269950   -0.054290
      4          6           0       -3.055898    2.653222   -0.205580
      5          6           0       -3.071659    1.242472   -0.044780
      6          6           0       -1.813619    0.650481    0.029230
      7          6           0        0.475750    0.136460    0.006310
      8          6           0       -0.305171   -1.037180    0.072010
      9          6           0       -1.674750   -0.730839    0.103600
     10          6           0        0.104778   -2.377890    0.053610
     11          6           0        1.479458   -2.562681   -0.050390
     12          6           0        2.351589   -1.449472   -0.090400
     13          6           0        1.882440   -0.061122   -0.019450
     14          6           0        3.746309   -1.712743   -0.208960
     15          6           0        4.670420   -0.705714   -0.231290
     16          6           0        2.902551    0.960708    0.037850
     17          6           0        4.242741    0.626966   -0.087240
     18          1           0        0.322853    3.227700   -0.369580
     19          1           0       -1.829666    4.376371   -0.449600
     20          1           0       -3.979227    3.219333   -0.268680
     21          6           0       -4.184960    0.328323    0.007760
     22          6           0       -2.710941   -1.638578    0.119880
     23          6           0       -0.958113   -3.366109    0.097590
     24          1           0        1.911767   -3.556382   -0.109610
     25          1           0        4.063008   -2.747723   -0.279540
     26          1           0        4.974751    1.423856   -0.042580
     27          1           0        5.727219   -0.923865   -0.328800
     28          6           0        2.637272    2.335088    0.315280
     29          6           0        2.559863    3.503738    0.598720
     30          1           0        2.458674    4.530118    0.853300
     31          6           0       -4.019751   -1.043907    0.086520
     32          6           0       -2.289212   -3.024728    0.130860
     33          1           0       -5.192339    0.730474   -0.029940
     34          1           0       -4.899711   -1.678516    0.108540
     35          1           0       -3.035473   -3.812208    0.152860
     36          1           0       -0.684303   -4.416130    0.093570
 ---------------------------------------------------------------------
 Rotational constants (GHZ):      0.4112942      0.2364449      0.1511726
 Standard basis: 6-311+G(d,p) (5D, 7F)
 There are   624 symmetry adapted cartesian basis functions of A   symmetry.
 There are   600 symmetry adapted basis functions of A   symmetry.
   600 basis functions,   960 primitive gaussians,   624 cartesian basis functions
    78 alpha electrons       78 beta electrons
       nuclear repulsion energy      1783.8334217357 Hartrees.
 NAtoms=   36 NActive=   36 NUniq=   36 SFac= 1.00D+00 NAtFMM=   60 NAOKFM=F Big=F
 Integral buffers will be    131072 words long.
 Raffenetti 2 integral format.
 Two-electron integral symmetry is turned on.
 One-electron integrals computed using PRISM.
 NBasis=   600 RedAO= T EigKep=  1.48D-06  NBF=   600
 NBsUse=   583 1.00D-06 EigRej=  9.20D-07 NBFU=   583
 ExpMin= 4.38D-02 ExpMax= 4.56D+03 ExpMxC= 6.82D+02 IAcc=2 IRadAn=         4 AccDes= 0.00D+00
 Harris functional with IExCor=  402 and IRadAn=       4 diagonalized for initial guess.
 HarFok:  IExCor=  402 AccDes= 0.00D+00 IRadAn=         4 IDoV= 1 UseB2=F ITyADJ=14
 ICtDFT=  3500011 ScaDFX=  1.000000  1.000000  1.000000  1.000000
 FoFCou: FMM=F IPFlag=           0 FMFlag=      100000 FMFlg1=           0
         NFxFlg=           0 DoJE=T BraDBF=F KetDBF=T FulRan=T
         wScrn=  0.000000 ICntrl=     500 IOpCl=  0 I1Cent=   200000004 NGrid=           0
         NMat0=    1 NMatS0=      1 NMatT0=    0 NMatD0=    1 NMtDS0=    0 NMtDT0=    0
 Petite list used in FoFCou.
 Requested convergence on RMS density matrix=1.00D-08 within 128 cycles.
 Requested convergence on MAX density matrix=1.00D-06.
 Requested convergence on             energy=1.00D-06.
 No special actions if energy rises.
 SCF Done:  E(RB3LYP) =  -921.947628740     A.U. after   16 cycles
            NFock= 16  Conv=0.43D-08     -V/T= 2.0044

 **********************************************************************

            Population analysis using the SCF density.

 **********************************************************************

 Orbital symmetries:
       Occupied  (A) (A) (A) (A) (A) (A) (A) (A) (A) (A) (A) (A)
                 (A) (A) (A) (A) (A) (A) (A) (A) (A) (A) (A) (A)
                 (A) (A) (A) (A) (A) (A) (A) (A) (A) (A) (A) (A)
                 (A) (A) (A) (A) (A) (A) (A) (A) (A) (A) (A) (A)
                 (A) (A) (A) (A) (A) (A) (A) (A) (A) (A) (A) (A)
                 (A) (A) (A) (A) (A) (A) (A) (A) (A) (A) (A) (A)
                 (A) (A) (A) (A) (A) (A)
       Virtual   (A) (A) (A) (A) (A) (A) (A) (A) (A) (A) (A) (A)
                 (A) (A) (A) (A) (A) (A) (A) (A) (A) (A) (A) (A)
                 (A) (A) (A) (A) (A) (A) (A) (A) (A) (A) (A) (A)
                 (A) (A) (A) (A) (A) (A) (A) (A) (A) (A) (A) (A)
                 (A) (A) (A) (A) (A) (A) (A) (A) (A) (A) (A) (A)
                 (A) (A) (A) (A) (A) (A) (A) (A) (A) (A) (A) (A)
                 (A) (A) (A) (A) (A) (A) (A) (A) (A) (A) (A) (A)
                 (A) (A) (A) (A) (A) (A) (A) (A) (A) (A) (A) (A)
                 (A) (A) (A) (A) (A) (A) (A) (A) (A) (A) (A) (A)
                 (A) (A) (A) (A) (A) (A) (A) (A) (A) (A) (A) (A)
                 (A) (A) (A) (A) (A) (A) (A) (A) (A) (A) (A) (A)
                 (A) (A) (A) (A) (A) (A) (A) (A) (A) (A) (A) (A)
                 (A) (A) (A) (A) (A) (A) (A) (A) (A) (A) (A) (A)
                 (A) (A) (A) (A) (A) (A) (A) (A) (A) (A) (A) (A)
                 (A) (A) (A) (A) (A) (A) (A) (A) (A) (A) (A) (A)
                 (A) (A) (A) (A) (A) (A) (A) (A) (A) (A) (A) (A)
                 (A) (A) (A) (A) (A) (A) (A) (A) (A) (A) (A) (A)
                 (A) (A) (A) (A) (A) (A) (A) (A) (A) (A) (A) (A)
                 (A) (A) (A) (A) (A) (A) (A) (A) (A) (A) (A) (A)
                 (A) (A) (A) (A) (A) (A) (A) (A) (A) (A) (A) (A)
                 (A) (A) (A) (A) (A) (A) (A) (A) (A) (A) (A) (A)
                 (A) (A) (A) (A) (A) (A) (A) (A) (A) (A) (A) (A)
                 (A) (A) (A) (A) (A) (A) (A) (A) (A) (A) (A) (A)
                 (A) (A) (A) (A) (A) (A) (A) (A) (A) (A) (A) (A)
                 (A) (A) (A) (A) (A) (A) (A) (A) (A) (A) (A) (A)
                 (A) (A) (A) (A) (A) (A) (A) (A) (A) (A) (A) (A)
                 (A) (A) (A) (A) (A) (A) (A) (A) (A) (A) (A) (A)
                 (A) (A) (A) (A) (A) (A) (A) (A) (A) (A) (A) (A)
                 (A) (A) (A) (A) (A) (A) (A) (A) (A) (A) (A) (A)
                 (A) (A) (A) (A) (A) (A) (A) (A) (A) (A) (A) (A)
                 (A) (A) (A) (A) (A) (A) (A) (A) (A) (A) (A) (A)
                 (A) (A) (A) (A) (A) (A) (A) (A) (A) (A) (A) (A)
                 (A) (A) (A) (A) (A) (A) (A) (A) (A) (A) (A) (A)
                 (A) (A) (A) (A) (A) (A) (A) (A) (A) (A) (A) (A)
                 (A) (A) (A) (A) (A) (A) (A) (A) (A) (A) (A) (A)
                 (A) (A) (A) (A) (A) (A) (A) (A) (A) (A) (A) (A)
                 (A) (A) (A) (A) (A) (A) (A) (A) (A) (A) (A) (A)
                 (A) (A) (A) (A) (A) (A) (A) (A) (A) (A) (A) (A)
                 (A) (A) (A) (A) (A) (A) (A) (A) (A) (A) (A) (A)
                 (A) (A) (A) (A) (A) (A) (A) (A) (A) (A) (A) (A)
                 (A) (A) (A) (A) (A) (A) (A) (A) (A) (A) (A) (A)
                 (A) (A) (A) (A) (A) (A) (A) (A) (A) (A) (A) (A)
                 (A)
 The electronic state is 1-A.
 Alpha  occ. eigenvalues --  -10.21294 -10.21199 -10.20254 -10.19996 -10.19592
 Alpha  occ. eigenvalues --  -10.19427 -10.19403 -10.19325 -10.19256 -10.19194
 Alpha  occ. eigenvalues --  -10.19190 -10.19041 -10.19021 -10.18952 -10.18918
 Alpha  occ. eigenvalues --  -10.18619 -10.18516 -10.18485 -10.18323 -10.18219
 Alpha  occ. eigenvalues --  -10.17499 -10.17249 -10.16764 -10.16708  -0.91915
 Alpha  occ. eigenvalues --   -0.88507  -0.86021  -0.84079  -0.81975  -0.80376
 Alpha  occ. eigenvalues --   -0.79177  -0.76420  -0.75056  -0.73356  -0.72692
 Alpha  occ. eigenvalues --   -0.71739  -0.66551  -0.64964  -0.63361  -0.62905
 Alpha  occ. eigenvalues --   -0.60667  -0.59140  -0.56979  -0.54978  -0.53349
 Alpha  occ. eigenvalues --   -0.52847  -0.51548  -0.49856  -0.49395  -0.49184
 Alpha  occ. eigenvalues --   -0.47065  -0.46073  -0.44749  -0.44094  -0.43550
 Alpha  occ. eigenvalues --   -0.43366  -0.42537  -0.42122  -0.40961  -0.40413
 Alpha  occ. eigenvalues --   -0.40051  -0.39302  -0.37898  -0.37297  -0.35697
 Alpha  occ. eigenvalues --   -0.35435  -0.34906  -0.33797  -0.33480  -0.33325
 Alpha  occ. eigenvalues --   -0.31129  -0.29803  -0.28778  -0.27220  -0.25964
 Alpha  occ. eigenvalues --   -0.23247  -0.23032  -0.21001
 Alpha virt. eigenvalues --   -0.09681  -0.05186  -0.04388  -0.02700  -0.00095
 Alpha virt. eigenvalues --    0.00050   0.00535   0.00847   0.01416   0.01672
 Alpha virt. eigenvalues --    0.01876   0.02490   0.03187   0.03234   0.03695
 Alpha virt. eigenvalues --    0.04007   0.04328   0.04783   0.05182   0.05759
 Alpha virt. eigenvalues --    0.06002   0.06241   0.06358   0.06714   0.07459
 Alpha virt. eigenvalues --    0.07899   0.08477   0.08502   0.08728   0.08995
 Alpha virt. eigenvalues --    0.09716   0.10007   0.10503   0.11081   0.11612
 Alpha virt. eigenvalues --    0.11774   0.11834   0.12403   0.12850   0.13171
 Alpha virt. eigenvalues --    0.13496   0.13941   0.14429   0.14681   0.14859
 Alpha virt. eigenvalues --    0.14993   0.15518   0.15908   0.16161   0.16556
 Alpha virt. eigenvalues --    0.16856   0.17052   0.17517   0.17555   0.17715
 Alpha virt. eigenvalues --    0.18092   0.18180   0.18609   0.18781   0.18996
 Alpha virt. eigenvalues --    0.19206   0.19316   0.19878   0.20103   0.20307
 Alpha virt. eigenvalues --    0.20528   0.21117   0.21288   0.21580   0.21755
 Alpha virt. eigenvalues --    0.21862   0.22447   0.22689   0.22929   0.23148
 Alpha virt. eigenvalues --    0.23377   0.23584   0.24253   0.24344   0.24719
 Alpha virt. eigenvalues --    0.24779   0.24989   0.25134   0.25233   0.25861
 Alpha virt. eigenvalues --    0.26204   0.26656   0.26683   0.26988   0.27439
 Alpha virt. eigenvalues --    0.27774   0.28233   0.28665   0.29041   0.29421
 Alpha virt. eigenvalues --    0.30065   0.30115   0.30520   0.30995   0.31595
 Alpha virt. eigenvalues --    0.32006   0.32258   0.32477   0.32821   0.33038
 Alpha virt. eigenvalues --    0.33650   0.33859   0.34525   0.35573   0.35859
 Alpha virt. eigenvalues --    0.36165   0.36636   0.36857   0.38571   0.39579
 Alpha virt. eigenvalues --    0.39980   0.40125   0.41256   0.41317   0.43159
 Alpha virt. eigenvalues --    0.43234   0.43819   0.45613   0.46267   0.47206
 Alpha virt. eigenvalues --    0.47814   0.48409   0.49454   0.50215   0.51492
 Alpha virt. eigenvalues --    0.51842   0.52236   0.52676   0.53374   0.53596
 Alpha virt. eigenvalues --    0.54057   0.54326   0.54654   0.55359   0.55631
 Alpha virt. eigenvalues --    0.55862   0.56606   0.57160   0.57662   0.57869
 Alpha virt. eigenvalues --    0.57966   0.58600   0.58836   0.59446   0.60220
 Alpha virt. eigenvalues --    0.60560   0.60916   0.61926   0.62157   0.62722
 Alpha virt. eigenvalues --    0.63254   0.64011   0.64274   0.64710   0.65263
 Alpha virt. eigenvalues --    0.65439   0.65734   0.66463   0.67088   0.67418
 Alpha virt. eigenvalues --    0.67749   0.67911   0.68327   0.68691   0.69504
 Alpha virt. eigenvalues --    0.70682   0.70850   0.71304   0.71428   0.72001
 Alpha virt. eigenvalues --    0.72364   0.72567   0.72732   0.73676   0.73972
 Alpha virt. eigenvalues --    0.74453   0.74954   0.75566   0.76022   0.76343
 Alpha virt. eigenvalues --    0.77080   0.77907   0.79236   0.80105   0.81048
 Alpha virt. eigenvalues --    0.81829   0.82338   0.83319   0.84194   0.85017
 Alpha virt. eigenvalues --    0.85478   0.86632   0.87498   0.88085   0.88455
 Alpha virt. eigenvalues --    0.89567   0.90167   0.90381   0.91220   0.92391
 Alpha virt. eigenvalues --    0.93606   0.93719   0.93777   0.94444   0.94736
 Alpha virt. eigenvalues --    0.95452   0.95575   0.95772   0.96019   0.96999
 Alpha virt. eigenvalues --    0.97648   0.97849   0.98752   0.99159   0.99248
 Alpha virt. eigenvalues --    1.00376   1.00947   1.01449   1.02215   1.02915
 Alpha virt. eigenvalues --    1.03704   1.04762   1.04931   1.05568   1.06158
 Alpha virt. eigenvalues --    1.06662   1.07615   1.08148   1.08692   1.09084
 Alpha virt. eigenvalues --    1.10765   1.11008   1.12034   1.12604   1.13490
 Alpha virt. eigenvalues --    1.14800   1.16150   1.16351   1.17317   1.17657
 Alpha virt. eigenvalues --    1.20364   1.21272   1.22209   1.23555   1.24973
 Alpha virt. eigenvalues --    1.27230   1.28448   1.29338   1.31404   1.32954
 Alpha virt. eigenvalues --    1.34956   1.35492   1.36828   1.39416   1.39843
 Alpha virt. eigenvalues --    1.41507   1.42192   1.43564   1.45676   1.46933
 Alpha virt. eigenvalues --    1.47135   1.47718   1.48495   1.48931   1.49526
 Alpha virt. eigenvalues --    1.50187   1.50591   1.50958   1.51985   1.53459
 Alpha virt. eigenvalues --    1.54470   1.54755   1.55542   1.56021   1.56985
 Alpha virt. eigenvalues --    1.57134   1.57865   1.58618   1.59284   1.61296
 Alpha virt. eigenvalues --    1.62719   1.63558   1.64839   1.65648   1.65857
 Alpha virt. eigenvalues --    1.67604   1.68399   1.69231   1.70211   1.70804
 Alpha virt. eigenvalues --    1.72181   1.73212   1.73744   1.74476   1.75193
 Alpha virt. eigenvalues --    1.75290   1.76277   1.77349   1.79159   1.79498
 Alpha virt. eigenvalues --    1.80617   1.81813   1.81889   1.82269   1.82523
 Alpha virt. eigenvalues --    1.84670   1.85903   1.86066   1.86707   1.87114
 Alpha virt. eigenvalues --    1.88573   1.89087   1.89733   1.90447   1.90975
 Alpha virt. eigenvalues --    1.91961   1.92523   1.93240   1.94020   1.94765
 Alpha virt. eigenvalues --    1.95188   1.96521   1.97422   1.97806   1.99004
 Alpha virt. eigenvalues --    1.99646   2.00426   2.01564   2.02434   2.03153
 Alpha virt. eigenvalues --    2.03986   2.04956   2.05571   2.06363   2.06917
 Alpha virt. eigenvalues --    2.09283   2.11143   2.12288   2.13289   2.13989
 Alpha virt. eigenvalues --    2.15312   2.16630   2.18422   2.19257   2.19745
 Alpha virt. eigenvalues --    2.21760   2.23460   2.24648   2.24909   2.26939
 Alpha virt. eigenvalues --    2.27348   2.29188   2.33171   2.34993   2.36098
 Alpha virt. eigenvalues --    2.39172   2.39738   2.41067   2.41545   2.42781
 Alpha virt. eigenvalues --    2.44406   2.45107   2.45894   2.46856   2.48439
 Alpha virt. eigenvalues --    2.53678   2.55175   2.56583   2.57740   2.58099
 Alpha virt. eigenvalues --    2.59347   2.62395   2.62734   2.64964   2.66305
 Alpha virt. eigenvalues --    2.67066   2.68006   2.69309   2.69477   2.70756
 Alpha virt. eigenvalues --    2.71389   2.72163   2.72709   2.72988   2.73219
 Alpha virt. eigenvalues --    2.73720   2.74591   2.74990   2.75372   2.75781
 Alpha virt. eigenvalues --    2.76092   2.76295   2.76913   2.77449   2.78200
 Alpha virt. eigenvalues --    2.78754   2.80361   2.80640   2.82179   2.83217
 Alpha virt. eigenvalues --    2.83819   2.84299   2.85613   2.85806   2.87514
 Alpha virt. eigenvalues --    2.87896   2.88835   2.90093   2.91138   2.91844
 Alpha virt. eigenvalues --    2.92678   2.93423   2.94432   2.98283   3.00064
 Alpha virt. eigenvalues --    3.00839   3.02662   3.04945   3.07751   3.09119
 Alpha virt. eigenvalues --    3.10239   3.10690   3.12458   3.13729   3.14856
 Alpha virt. eigenvalues --    3.18093   3.19564   3.21977   3.23317   3.25432
 Alpha virt. eigenvalues --    3.26850   3.29069   3.32745   3.34444   3.35954
 Alpha virt. eigenvalues --    3.38292   3.38567   3.40499   3.42001   3.43800
 Alpha virt. eigenvalues --    3.44525   3.45133   3.46630   3.48029   3.50527
 Alpha virt. eigenvalues --    3.51712   3.53945   3.56281   3.56483   3.57998
 Alpha virt. eigenvalues --    3.62284   3.63557   3.66523   3.71442   3.75736
 Alpha virt. eigenvalues --    3.82636   3.83957   3.87891   4.01691   4.04810
 Alpha virt. eigenvalues --    4.06330   4.06766   4.07163   4.09993   4.13938
 Alpha virt. eigenvalues --    4.23281   4.26630   4.29968   4.36822   4.58913
 Alpha virt. eigenvalues --    4.75982   4.77191   4.78347   4.80434   4.84852
 Alpha virt. eigenvalues --    4.87740  23.40122  23.55448  23.69384  23.77164
 Alpha virt. eigenvalues --   23.82298  23.83269  23.86007  23.90932  23.93885
 Alpha virt. eigenvalues --   23.94283  23.98461  23.99410  24.00279  24.06374
 Alpha virt. eigenvalues --   24.08329  24.09243  24.10280  24.12263  24.13826
 Alpha virt. eigenvalues --   24.14790  24.16283  24.19233  24.20927  25.15058
          Condensed to atoms (all electrons):
               1          2          3          4          5          6
     1  C   10.077183  -1.015407  -2.069627  -0.339574   0.453670   0.878466
     2  C   -1.015407  10.655398  -0.863726  -1.609324   0.311009  -0.785495
     3  C   -2.069627  -0.863726   9.127824   1.450010  -0.998384  -0.047737
     4  C   -0.339574  -1.609324   1.450010  10.856948  -2.768707  -1.475879
     5  C    0.453670   0.311009  -0.998384  -2.768707   9.783858   1.205810
     6  C    0.878466  -0.785495  -0.047737  -1.475879   1.205810   6.564758
     7  C   -0.965235  -0.199707   0.603021   0.307115  -0.261942  -0.048355
     8  C   -0.028440  -0.823055  -0.402732   0.098503   0.379491   0.143425
     9  C   -0.198945  -0.225580  -0.096947  -0.154854   0.120509   0.317698
    10  C   -0.075091   0.119658  -0.476385  -0.094635  -0.306859   0.365149
    11  C   -0.052631   0.027721  -0.031097  -0.010913  -0.034590  -0.031328
    12  C   -0.017990  -0.131443  -0.428416  -0.080205   0.070519  -0.251242
    13  C   -0.107655  -0.383503   0.838830   0.135063  -0.031922  -0.006362
    14  C    0.078378   0.152388   0.564256  -0.029033   0.015411  -0.140732
    15  C   -0.023213  -0.040828   0.097390   0.005320   0.007011  -0.018580
    16  C   -0.031536   0.497270   0.041361   0.045982  -0.028339  -0.240068
    17  C   -0.021741   0.185723  -0.703828   0.014141  -0.051962  -0.072065
    18  H   -0.020824   0.373953  -0.040305  -0.027601  -0.030125   0.046826
    19  H    0.382577  -0.070639   0.046056  -0.010149  -0.012600   0.000539
    20  H    0.037708  -0.048007  -0.012024   0.356921  -0.055308   0.043302
    21  C   -0.379868   0.218350  -0.538985   0.181756  -1.373352  -0.434647
    22  C    0.148092   0.008170  -0.301805  -0.322983   0.438117   0.496618
    23  C    0.073434  -0.192287  -0.189430  -0.161047  -0.065163  -0.369588
    24  H   -0.000010   0.000164  -0.001752  -0.000042  -0.000391   0.002976
    25  H   -0.000047  -0.000823  -0.000781  -0.000004   0.000045   0.000314
    26  H    0.000169   0.001469   0.000913  -0.000003   0.000014  -0.000284
    27  H    0.000003  -0.000019  -0.000407  -0.000002  -0.000009   0.000016
    28  C    0.216678   0.322805   0.247782  -0.021578  -0.001823   0.067968
    29  C   -0.360832  -0.291230   0.201364   0.010390   0.020352  -0.043775
    30  H   -0.017362  -0.001273   0.012539  -0.001439  -0.000324  -0.000146
    31  C   -0.170034   0.388496  -0.301240  -0.101754  -1.146926   0.196714
    32  C   -0.005108  -0.092576   0.009397  -0.059644   0.137110  -0.436001
    33  H    0.003035   0.009280  -0.008044   0.046348  -0.122636   0.006900
    34  H   -0.000919   0.000561  -0.002100   0.002656  -0.022720  -0.002250
    35  H    0.000252   0.000020   0.003023  -0.000446   0.007184  -0.011368
    36  H   -0.000026   0.000055   0.003828   0.000059   0.001247  -0.003326
               7          8          9         10         11         12
     1  C   -0.965235  -0.028440  -0.198945  -0.075091  -0.052631  -0.017990
     2  C   -0.199707  -0.823055  -0.225580   0.119658   0.027721  -0.131443
     3  C    0.603021  -0.402732  -0.096947  -0.476385  -0.031097  -0.428416
     4  C    0.307115   0.098503  -0.154854  -0.094635  -0.010913  -0.080205
     5  C   -0.261942   0.379491   0.120509  -0.306859  -0.034590   0.070519
     6  C   -0.048355   0.143425   0.317698   0.365149  -0.031328  -0.251242
     7  C    6.887460   0.031449  -0.214933   0.315406   0.254644  -0.476100
     8  C    0.031449   7.152555   0.671281   0.492587   0.261557   0.365991
     9  C   -0.214933   0.671281   6.869990  -0.552021  -0.757118  -0.401712
    10  C    0.315406   0.492587  -0.552021   9.392441   1.341560  -1.082593
    11  C    0.254644   0.261557  -0.757118   1.341560   7.823219   1.735655
    12  C   -0.476100   0.365991  -0.401712  -1.082593   1.735655  12.565354
    13  C    0.713522  -0.465624  -0.091212  -0.970252  -0.249635  -1.032541
    14  C    0.315047  -1.210246   0.231055  -0.562627  -1.739655  -2.910673
    15  C   -0.169904  -0.164418  -0.034503  -0.370704  -0.562840  -0.841389
    16  C    0.122525  -0.343458  -0.248031  -0.332707  -0.345826  -1.821097
    17  C   -0.408749   0.359042  -0.114021  -0.144219  -0.294300   1.872355
    18  H    0.024413   0.007511  -0.000656   0.003548  -0.000955   0.008081
    19  H   -0.001047   0.001294   0.000295  -0.000080   0.000046  -0.000235
    20  H   -0.002800   0.003432  -0.010946  -0.000567  -0.000048   0.000112
    21  C    0.015773  -0.629430   0.370096  -0.024099  -0.056052  -0.078331
    22  C   -0.029878   0.106032   0.776425   0.548277  -0.413124  -0.359740
    23  C   -0.841724   0.327612   1.003791  -0.939342  -1.273054  -0.625215
    24  H   -0.015394   0.029797  -0.009385  -0.028643   0.367056  -0.092419
    25  H   -0.007522   0.010243   0.001960   0.055369   0.106779  -0.118810
    26  H   -0.005343   0.001723  -0.000156   0.000273   0.001822   0.001128
    27  H    0.001424   0.001799   0.000068   0.004646   0.006478   0.041188
    28  C    0.434916  -0.411016   0.090227   0.000279  -0.089128  -1.316727
    29  C   -0.241693   0.234952  -0.049917  -0.010888   0.043173   0.710292
    30  H    0.002997   0.000704  -0.000058   0.000071   0.000173   0.003188
    31  C   -0.019397  -0.778005  -0.882718   0.329593   0.075904  -0.011160
    32  C   -0.211514   0.528846  -0.330349  -1.252894  -0.158563   0.043960
    33  H    0.003943  -0.001736  -0.007886   0.002554   0.000286   0.000104
    34  H    0.003460  -0.017705   0.022194   0.007412   0.000144  -0.000421
    35  H   -0.001910   0.003836   0.031825  -0.020368  -0.004138   0.002127
    36  H   -0.002460   0.016884  -0.006976  -0.082204   0.070028   0.035779
              13         14         15         16         17         18
     1  C   -0.107655   0.078378  -0.023213  -0.031536  -0.021741  -0.020824
     2  C   -0.383503   0.152388  -0.040828   0.497270   0.185723   0.373953
     3  C    0.838830   0.564256   0.097390   0.041361  -0.703828  -0.040305
     4  C    0.135063  -0.029033   0.005320   0.045982   0.014141  -0.027601
     5  C   -0.031922   0.015411   0.007011  -0.028339  -0.051962  -0.030125
     6  C   -0.006362  -0.140732  -0.018580  -0.240068  -0.072065   0.046826
     7  C    0.713522   0.315047  -0.169904   0.122525  -0.408749   0.024413
     8  C   -0.465624  -1.210246  -0.164418  -0.343458   0.359042   0.007511
     9  C   -0.091212   0.231055  -0.034503  -0.248031  -0.114021  -0.000656
    10  C   -0.970252  -0.562627  -0.370704  -0.332707  -0.144219   0.003548
    11  C   -0.249635  -1.739655  -0.562840  -0.345826  -0.294300  -0.000955
    12  C   -1.032541  -2.910673  -0.841389  -1.821097   1.872355   0.008081
    13  C    6.919692   0.899357   0.371521   1.157929  -1.136108   0.011651
    14  C    0.899357  10.592508   1.094894   1.115972  -2.442018   0.000141
    15  C    0.371521   1.094894   7.575224  -0.455998   0.169427  -0.002279
    16  C    1.157929   1.115972  -0.455998   8.570577  -1.849066   0.003357
    17  C   -1.136108  -2.442018   0.169427  -1.849066  11.308312   0.000344
    18  H    0.011651   0.000141  -0.002279   0.003357   0.000344   0.532173
    19  H    0.001277  -0.000065   0.000009   0.001875   0.000472  -0.008179
    20  H   -0.000011   0.000008  -0.000001  -0.000188  -0.000014  -0.000267
    21  C   -0.051249  -0.025482  -0.000684   0.014417   0.006816  -0.006768
    22  C   -0.301491  -0.198187  -0.014801   0.031002   0.023728   0.001825
    23  C   -0.626008   0.057840  -0.162108  -0.160657  -0.043316   0.000959
    24  H   -0.026977   0.015906   0.020859  -0.005699   0.006729   0.000000
    25  H   -0.011462   0.381388  -0.060337  -0.007065  -0.025245   0.000000
    26  H    0.026253  -0.011708  -0.053883  -0.094760   0.456793   0.000000
    27  H   -0.009343  -0.058541   0.353221   0.012230  -0.008294   0.000000
    28  C    0.783748   0.232180  -0.550793  -0.489632  -0.824139  -0.042833
    29  C   -0.368299  -0.129203   0.232455   0.865906   0.183378   0.021514
    30  H   -0.001410  -0.000491   0.000329   0.026997  -0.003254  -0.000063
    31  C   -0.074141   0.014547   0.002140  -0.019728  -0.010291  -0.002577
    32  C    0.053245  -0.050398  -0.018607   0.001633   0.002114   0.000186
    33  H   -0.000165   0.000006   0.000001   0.000029  -0.000004  -0.000001
    34  H   -0.000060  -0.000034  -0.000001   0.000071   0.000006   0.000000
    35  H   -0.000400   0.000263  -0.000003  -0.000014  -0.000014   0.000000
    36  H    0.010447   0.008572   0.000683   0.000595   0.000065   0.000000
              19         20         21         22         23         24
     1  C    0.382577   0.037708  -0.379868   0.148092   0.073434  -0.000010
     2  C   -0.070639  -0.048007   0.218350   0.008170  -0.192287   0.000164
     3  C    0.046056  -0.012024  -0.538985  -0.301805  -0.189430  -0.001752
     4  C   -0.010149   0.356921   0.181756  -0.322983  -0.161047  -0.000042
     5  C   -0.012600  -0.055308  -1.373352   0.438117  -0.065163  -0.000391
     6  C    0.000539   0.043302  -0.434647   0.496618  -0.369588   0.002976
     7  C   -0.001047  -0.002800   0.015773  -0.029878  -0.841724  -0.015394
     8  C    0.001294   0.003432  -0.629430   0.106032   0.327612   0.029797
     9  C    0.000295  -0.010946   0.370096   0.776425   1.003791  -0.009385
    10  C   -0.000080  -0.000567  -0.024099   0.548277  -0.939342  -0.028643
    11  C    0.000046  -0.000048  -0.056052  -0.413124  -1.273054   0.367056
    12  C   -0.000235   0.000112  -0.078331  -0.359740  -0.625215  -0.092419
    13  C    0.001277  -0.000011  -0.051249  -0.301491  -0.626008  -0.026977
    14  C   -0.000065   0.000008  -0.025482  -0.198187   0.057840   0.015906
    15  C    0.000009  -0.000001  -0.000684  -0.014801  -0.162108   0.020859
    16  C    0.001875  -0.000188   0.014417   0.031002  -0.160657  -0.005699
    17  C    0.000472  -0.000014   0.006816   0.023728  -0.043316   0.006729
    18  H   -0.008179  -0.000267  -0.006768   0.001825   0.000959   0.000000
    19  H    0.547694  -0.008436   0.005457   0.000857  -0.000027   0.000000
    20  H   -0.008436   0.544418   0.008997   0.009901   0.000268   0.000000
    21  C    0.005457   0.008997   8.819004  -1.013923   0.038256   0.000220
    22  C    0.000857   0.009901  -1.013923   9.173716  -1.188235   0.012657
    23  C   -0.000027   0.000268   0.038256  -1.188235  10.034596   0.037714
    24  H    0.000000   0.000000   0.000220   0.012657   0.037714   0.550620
    25  H    0.000000   0.000000   0.000011   0.000274   0.007842   0.001837
    26  H    0.000000   0.000000   0.000000   0.000047   0.000061  -0.000001
    27  H    0.000000   0.000000   0.000000   0.000033   0.000552  -0.000025
    28  C   -0.002649  -0.000080  -0.042980  -0.001858   0.004698   0.000061
    29  C    0.001968   0.000037   0.033485  -0.005978  -0.010895   0.000337
    30  H    0.000013   0.000000   0.000010  -0.000026   0.000009   0.000000
    31  C   -0.000375   0.008112   1.354020  -0.769708  -0.265389   0.000812
    32  C    0.000079   0.000156  -0.530347  -1.047038   1.631210   0.013493
    33  H   -0.000006   0.002853   0.395776  -0.010172  -0.000861   0.000000
    34  H    0.000000  -0.000010   0.015304  -0.103883   0.007186   0.000000
    35  H    0.000000   0.000000   0.009796  -0.085483  -0.009153  -0.000013
    36  H    0.000000   0.000000  -0.002130  -0.051145   0.369168   0.003114
              25         26         27         28         29         30
     1  C   -0.000047   0.000169   0.000003   0.216678  -0.360832  -0.017362
     2  C   -0.000823   0.001469  -0.000019   0.322805  -0.291230  -0.001273
     3  C   -0.000781   0.000913  -0.000407   0.247782   0.201364   0.012539
     4  C   -0.000004  -0.000003  -0.000002  -0.021578   0.010390  -0.001439
     5  C    0.000045   0.000014  -0.000009  -0.001823   0.020352  -0.000324
     6  C    0.000314  -0.000284   0.000016   0.067968  -0.043775  -0.000146
     7  C   -0.007522  -0.005343   0.001424   0.434916  -0.241693   0.002997
     8  C    0.010243   0.001723   0.001799  -0.411016   0.234952   0.000704
     9  C    0.001960  -0.000156   0.000068   0.090227  -0.049917  -0.000058
    10  C    0.055369   0.000273   0.004646   0.000279  -0.010888   0.000071
    11  C    0.106779   0.001822   0.006478  -0.089128   0.043173   0.000173
    12  C   -0.118810   0.001128   0.041188  -1.316727   0.710292   0.003188
    13  C   -0.011462   0.026253  -0.009343   0.783748  -0.368299  -0.001410
    14  C    0.381388  -0.011708  -0.058541   0.232180  -0.129203  -0.000491
    15  C   -0.060337  -0.053883   0.353221  -0.550793   0.232455   0.000329
    16  C   -0.007065  -0.094760   0.012230  -0.489632   0.865906   0.026997
    17  C   -0.025245   0.456793  -0.008294  -0.824139   0.183378  -0.003254
    18  H    0.000000   0.000000   0.000000  -0.042833   0.021514  -0.000063
    19  H    0.000000   0.000000   0.000000  -0.002649   0.001968   0.000013
    20  H    0.000000   0.000000   0.000000  -0.000080   0.000037   0.000000
    21  C    0.000011   0.000000   0.000000  -0.042980   0.033485   0.000010
    22  C    0.000274   0.000047   0.000033  -0.001858  -0.005978  -0.000026
    23  C    0.007842   0.000061   0.000552   0.004698  -0.010895   0.000009
    24  H    0.001837  -0.000001  -0.000025   0.000061   0.000337   0.000000
    25  H    0.553235  -0.000292  -0.008026   0.000657   0.000048   0.000000
    26  H   -0.000292   0.529329  -0.006713   0.054500  -0.039248  -0.000048
    27  H   -0.008026  -0.006713   0.538327   0.004841  -0.002312   0.000000
    28  C    0.000657   0.054500   0.004841  12.076969  -5.322611  -0.175656
    29  C    0.000048  -0.039248  -0.002312  -5.322611  10.442233   0.521503
    30  H    0.000000  -0.000048   0.000000  -0.175656   0.521503   0.474895
    31  C   -0.000013   0.000004   0.000001   0.019679  -0.004861  -0.000003
    32  C   -0.000008   0.000007   0.000023   0.010486  -0.012454  -0.000003
    33  H    0.000000   0.000000   0.000000  -0.000011   0.000009   0.000000
    34  H    0.000000   0.000000   0.000000  -0.000012   0.000005   0.000000
    35  H    0.000000   0.000000   0.000000   0.000007  -0.000001   0.000000
    36  H    0.000002   0.000000   0.000000  -0.000015  -0.000019   0.000000
              31         32         33         34         35         36
     1  C   -0.170034  -0.005108   0.003035  -0.000919   0.000252  -0.000026
     2  C    0.388496  -0.092576   0.009280   0.000561   0.000020   0.000055
     3  C   -0.301240   0.009397  -0.008044  -0.002100   0.003023   0.003828
     4  C   -0.101754  -0.059644   0.046348   0.002656  -0.000446   0.000059
     5  C   -1.146926   0.137110  -0.122636  -0.022720   0.007184   0.001247
     6  C    0.196714  -0.436001   0.006900  -0.002250  -0.011368  -0.003326
     7  C   -0.019397  -0.211514   0.003943   0.003460  -0.001910  -0.002460
     8  C   -0.778005   0.528846  -0.001736  -0.017705   0.003836   0.016884
     9  C   -0.882718  -0.330349  -0.007886   0.022194   0.031825  -0.006976
    10  C    0.329593  -1.252894   0.002554   0.007412  -0.020368  -0.082204
    11  C    0.075904  -0.158563   0.000286   0.000144  -0.004138   0.070028
    12  C   -0.011160   0.043960   0.000104  -0.000421   0.002127   0.035779
    13  C   -0.074141   0.053245  -0.000165  -0.000060  -0.000400   0.010447
    14  C    0.014547  -0.050398   0.000006  -0.000034   0.000263   0.008572
    15  C    0.002140  -0.018607   0.000001  -0.000001  -0.000003   0.000683
    16  C   -0.019728   0.001633   0.000029   0.000071  -0.000014   0.000595
    17  C   -0.010291   0.002114  -0.000004   0.000006  -0.000014   0.000065
    18  H   -0.002577   0.000186  -0.000001   0.000000   0.000000   0.000000
    19  H   -0.000375   0.000079  -0.000006   0.000000   0.000000   0.000000
    20  H    0.008112   0.000156   0.002853  -0.000010   0.000000   0.000000
    21  C    1.354020  -0.530347   0.395776   0.015304   0.009796  -0.002130
    22  C   -0.769708  -1.047038  -0.010172  -0.103883  -0.085483  -0.051145
    23  C   -0.265389   1.631210  -0.000861   0.007186  -0.009153   0.369168
    24  H    0.000812   0.013493   0.000000   0.000000  -0.000013   0.003114
    25  H   -0.000013  -0.000008   0.000000   0.000000   0.000000   0.000002
    26  H    0.000004   0.000007   0.000000   0.000000   0.000000   0.000000
    27  H    0.000001   0.000023   0.000000   0.000000   0.000000   0.000000
    28  C    0.019679   0.010486  -0.000011  -0.000012   0.000007  -0.000015
    29  C   -0.004861  -0.012454   0.000009   0.000005  -0.000001  -0.000019
    30  H   -0.000003  -0.000003   0.000000   0.000000   0.000000   0.000000
    31  C    8.494957  -0.508997   0.014700   0.419172   0.009429  -0.001386
    32  C   -0.508997   8.352449   0.005970   0.011402   0.404641  -0.031748
    33  H    0.014700   0.005970   0.546798  -0.008977  -0.000009   0.000000
    34  H    0.419172   0.011402  -0.008977   0.544573   0.002843  -0.000008
    35  H    0.009429   0.404641  -0.000009   0.002843   0.541715  -0.009415
    36  H   -0.001386  -0.031748   0.000000  -0.000008  -0.009415   0.550379
 Mulliken charges:
               1
     1  C   -0.447529
     2  C   -0.497566
     3  C    0.268162
     4  C   -0.241398
     5  C    0.362723
     6  C    0.081749
     7  C    0.088490
     8  C    0.045319
     9  C   -0.118491
    10  C    0.348355
    11  C   -0.011250
    12  C    0.622623
    13  C    0.023292
    14  C   -0.261024
    15  C   -0.384613
    16  C   -0.035860
    17  C   -0.436795
    18  H    0.146950
    19  H    0.123979
    20  H    0.122484
    21  C   -0.299217
    22  C    0.443686
    23  C   -0.471698
    24  H    0.116400
    25  H    0.120432
    26  H    0.137933
    27  H    0.128840
    28  C    0.725062
    29  C   -0.629187
    30  H    0.158128
    31  C   -0.259577
    32  C   -0.460160
    33  H    0.121918
    34  H    0.122114
    35  H    0.125774
    36  H    0.119953
 Sum of Mulliken charges =   0.00000
 Mulliken charges with hydrogens summed into heavy atoms:
               1
     1  C   -0.323550
     2  C   -0.350616
     3  C    0.268162
     4  C   -0.118914
     5  C    0.362723
     6  C    0.081749
     7  C    0.088490
     8  C    0.045319
     9  C   -0.118491
    10  C    0.348355
    11  C    0.105150
    12  C    0.622623
    13  C    0.023292
    14  C   -0.140593
    15  C   -0.255773
    16  C   -0.035860
    17  C   -0.298862
    21  C   -0.177300
    22  C    0.443686
    23  C   -0.351745
    28  C    0.725062
    29  C   -0.471060
    31  C   -0.137462
    32  C   -0.334385
 Electronic spatial extent (au):  <R**2>=           6780.4323
 Charge=              0.0000 electrons
 Dipole moment (field-independent basis, Debye):
    X=              0.0943    Y=             -0.6491    Z=             -0.2203  Tot=              0.6919
 Quadrupole moment (field-independent basis, Debye-Ang):
   XX=           -119.1491   YY=           -116.8639   ZZ=           -145.9766
   XY=             -2.2327   XZ=             -0.3927   YZ=              0.6160
 Traceless Quadrupole moment (field-independent basis, Debye-Ang):
   XX=              8.1808   YY=             10.4659   ZZ=            -18.6467
   XY=             -2.2327   XZ=             -0.3927   YZ=              0.6160
 Octapole moment (field-independent basis, Debye-Ang**2):
  XXX=             -2.8856  YYY=             15.5783  ZZZ=             -0.1099  XYY=              1.7124
  XXY=            -14.0352  XXZ=             -5.8311  XZZ=              0.6537  YZZ=              0.8551
  YYZ=              4.0340  XYZ=              7.3785
 Hexadecapole moment (field-independent basis, Debye-Ang**3):
 XXXX=          -5374.0208 YYYY=          -3052.0700 ZZZZ=           -209.7647 XXXY=            -70.8326
 XXXZ=            -27.0727 YYYX=             24.1194 YYYZ=             35.4197 ZZZX=             -0.3786
 ZZZY=              1.3831 XXYY=          -1450.0614 XXZZ=          -1138.3666 YYZZ=           -680.5249
 XXYZ=              3.9607 YYXZ=             21.5484 ZZXY=              1.1787
 N-N= 1.783833421736D+03 E-N=-5.706585069908D+03  KE= 9.178962612883D+02
 Calling FoFJK, ICntrl=      2127 FMM=F ISym2X=0 I1Cent= 0 IOpClX= 0 NMat=1 NMatS=1 NMatT=0.
 ***** Axes restored to original set *****
 -------------------------------------------------------------------
 Center     Atomic                   Forces (Hartrees/Bohr)
 Number     Number              X              Y              Z
 -------------------------------------------------------------------
      1        6           0.000386595    0.000598462   -0.000078490
      2        6           0.000399196    0.000024016   -0.000244224
      3        6           0.000123833   -0.000193771    0.000064265
      4        6          -0.000782481   -0.000094891    0.000032383
      5        6           0.000243575   -0.000077535   -0.000079185
      6        6          -0.000104735    0.000079960    0.000267403
      7        6          -0.000040198    0.000104055   -0.000303031
      8        6           0.000058581   -0.000121365    0.000238483
      9        6          -0.000096428   -0.000152648    0.000047687
     10        6          -0.000146833    0.000261730   -0.000101608
     11        6           0.000164483   -0.000393867    0.000068881
     12        6          -0.000066897    0.000369773    0.000007138
     13        6           0.000071005    0.000059691    0.000182960
     14        6          -0.000251907   -0.000671279   -0.000061978
     15        6           0.000618564    0.000209036   -0.000040183
     16        6          -0.000332541    0.000110662   -0.000137188
     17        6           0.000172497    0.000372545    0.000018005
     18        1          -0.000076712    0.000098680    0.000106807
     19        1          -0.000023816    0.000022081   -0.000018317
     20        1          -0.000001432    0.000054685   -0.000013325
     21        6          -0.000358519    0.000639864   -0.000032562
     22        6           0.000220669    0.000100703   -0.000057442
     23        6           0.000663203   -0.000388101   -0.000011179
     24        1           0.000011244   -0.000057182   -0.000006063
     25        1           0.000056047   -0.000033817   -0.000003006
     26        1           0.000109481    0.000003106    0.000000027
     27        1           0.000027906   -0.000018068    0.000005614
     28        6           0.000185317   -0.001353262   -0.000187065
     29        6          -0.000081470    0.001140709    0.000297573
     30        1           0.000006488    0.000182978    0.000015746
     31        6          -0.000174197   -0.000743227    0.000008321
     32        6          -0.000834760    0.000002305    0.000018770
     33        1          -0.000053004   -0.000030841   -0.000002744
     34        1          -0.000060240    0.000029296   -0.000001422
     35        1           0.000007928   -0.000072345    0.000000417
     36        1          -0.000040442   -0.000062137   -0.000001467
 -------------------------------------------------------------------
 Cartesian Forces:  Max     0.001353262 RMS     0.000294839

 GradGradGradGradGradGradGradGradGradGradGradGradGradGradGradGradGradGrad
 Berny optimization.
 FormGI is forming the generalized inverse of G from B-inverse, IUseBI=4.
 Internal  Forces:  Max     0.001361411 RMS     0.000174113
 Search for a local minimum.
 Step number   1 out of a maximum of  216
 All quantities printed in internal units (Hartrees-Bohrs-Radians)
 Mixed Optimization -- En-DIIS/RFO-DIIS
 Second derivative matrix not updated -- first step.
 ITU=  0
     Eigenvalues ---    0.00601   0.00601   0.01195   0.01502   0.01574
     Eigenvalues ---    0.01590   0.01635   0.01660   0.01729   0.01750
     Eigenvalues ---    0.01781   0.01838   0.01846   0.01856   0.01905
     Eigenvalues ---    0.01911   0.01926   0.01951   0.01963   0.01983
     Eigenvalues ---    0.02025   0.02031   0.02046   0.02060   0.02078
     Eigenvalues ---    0.02092   0.02099   0.02121   0.02147   0.02172
     Eigenvalues ---    0.02208   0.02214   0.02323   0.04668   0.04668
     Eigenvalues ---    0.15990   0.15995   0.15996   0.15998   0.15998
     Eigenvalues ---    0.15999   0.15999   0.15999   0.15999   0.16000
     Eigenvalues ---    0.16000   0.22092   0.22124   0.22454   0.22637
     Eigenvalues ---    0.23306   0.23489   0.23707   0.24414   0.24542
     Eigenvalues ---    0.24776   0.24845   0.24853   0.24899   0.24925
     Eigenvalues ---    0.24955   0.29394   0.32549   0.33872   0.35055
     Eigenvalues ---    0.35357   0.35364   0.35380   0.35380   0.35381
     Eigenvalues ---    0.35409   0.35426   0.35438   0.35577   0.35635
[...]
 272956,0.00346371,-0.06063777,0.00059287,0.00005907,0.00391307,0.00000
 983,0.00000015,0.00009083,-0.00000182,0.00000332,0.00001019,-0.0000036
 3,-0.00000085,0.00002369,-0.00000100,-0.00000118,-0.00000194,0.0000061
 1,0.00000510,0.00002327,-0.00000276,-0.00002762,0.00001254,-0.00000389
 ,0.00000231,-0.00000674,0.00332547,-0.02737027,0.13259562,0.00273199,0
 .00095561,-0.00018208,-0.00153613,0.00180049,-0.00016883,0.00068554,-0
 .00175290,0.00045616,-0.00080409,-0.00321062,0.00038991,0.00329698,0.0
 0505141,-0.00032092,-0.00393364,-0.00145724,-0.00035877,0.00540393,0.0
 0527815,-0.00075602,-0.02030033,0.00751821,0.00040920,0.03501429,-0.01
 985117,0.00038618,-0.05613065,-0.02331093,0.00264344,0.01825859,0.0003
 2075,-0.00091652,-0.00699605,-0.00852244,0.00051083,-0.00725985,0.0032
 4446,0.00041261,0.00482521,0.00039732,-0.00049087,-0.00079500,-0.00438
 329,-0.00029121,0.00260146,0.00148289,0.00003838,-0.00276004,0.0023373
 5,0.00034433,-0.00010737,-0.00008637,0.00000567,0.00008767,0.00000214,
 0.00001469,-0.00006502,-0.00007954,-0.00001772,-0.00709515,-0.00870906
 ,0.00034547,-0.11646352,0.00949660,-0.00028620,-0.36701355,0.08264579,
 0.00806285,0.00002901,0.00036539,-0.00008935,0.00002282,0.00009596,-0.
 00000158,-0.00005393,0.00002917,0.00003641,-0.00009028,-0.00009629,0.0
 0001735,-0.00005372,0.00012759,0.00009974,0.00012024,-0.00037571,-0.00
 006147,-0.00005263,0.00003138,-0.00000083,-0.00905866,0.03891986,-0.00
 069388,0.71739802,-0.00166523,-0.00051663,0.00008218,0.00025660,-0.000
 78541,0.00013990,0.00077932,-0.00160057,-0.00020071,0.00130066,0.00228
 850,-0.00021604,-0.00587760,-0.00508103,0.00036750,-0.00287956,-0.0021
 8811,0.00008867,-0.00718215,-0.00392615,0.00053848,0.01737466,-0.00304
 326,-0.00043727,-0.02769534,-0.04562564,0.00121228,-0.00093814,0.02845
 082,-0.00022096,-0.01562816,-0.00847837,0.00070111,0.00490888,0.008597
 82,-0.00034558,0.00788701,-0.00297965,-0.00028940,-0.00487299,-0.00130
 741,0.00043542,0.00095115,0.00440952,0.00028348,-0.00337095,-0.0016311
 1,0.00016211,0.00292569,-0.00298927,-0.00040338,0.00003206,-0.00007603
 ,0.00002748,-0.00000903,0.00002465,-0.00002480,0.00001929,0.00002440,0
 .00001552,0.00152427,0.01325223,-0.00072892,0.03426925,-0.23061948,0.0
 0165751,0.03764828,-0.13894493,-0.00136049,-0.00036363,-0.00011036,0.0
 0011393,0.00001909,-0.00006945,0.00000767,0.00004981,-0.00003272,-0.00
 007825,-0.00001095,0.00003897,-0.00000758,-0.00009953,0.00015245,-0.00
 004348,0.00003534,0.00000397,0.00001011,0.00000104,-0.00001209,-0.0000
 0113,0.01728480,-0.01641846,0.00049503,0.04953527,0.61623961,0.0000594
 2,0.00001328,0.00021673,-0.00007075,0.00003781,-0.00020205,-0.00005336
 ,-0.00020821,-0.00065355,0.00001029,-0.00012153,-0.00068834,0.00010215
 ,-0.00004888,-0.00123160,-0.00006064,0.00083980,0.00741630,-0.00010710
 ,-0.00006674,-0.00038870,0.00042203,-0.00037326,-0.00206285,-0.0005655
 2,-0.00016484,0.00486325,0.00190354,0.00082192,0.00388691,-0.00010885,
 -0.00001523,0.00402555,0.00010421,0.00023309,0.00031048,0.00016605,-0.
 00007070,-0.00018372,-0.00011036,0.00001550,-0.00060817,0.00000006,0.0
 0004745,0.00013163,-0.00000258,-0.00007289,0.00027595,0.00000820,0.000
 01991,-0.00006972,-0.00002552,-0.00003552,-0.00009278,0.00000490,-0.00
 000305,-0.00002195,0.00000455,0.00000078,0.00008054,-0.00020604,0.0000
 4807,0.00472942,0.00049412,0.00177210,-0.05981508,0.00723440,-0.002245
 98,-0.05832512,-0.00004505,0.00001594,-0.00015806,-0.00000134,0.000000
 14,-0.00000512,-0.00000243,-0.00000008,-0.00003244,0.00000678,-0.00000
 519,0.00005289,0.00002635,0.00002838,-0.00000623,-0.00000620,0.0000046
 7,-0.00001185,-0.00000025,-0.00000127,-0.00000125,-0.00045442,0.000823
 55,0.00015078,-0.01255230,-0.00502189,0.13180719,0.00000290,-0.0002608
 0,0.00003100,0.00002461,0.00000523,-0.00000182,-0.00006317,0.00101644,
 -0.00020924,0.00123594,0.00095556,-0.00010654,-0.01823978,0.01123220,-
 0.00131964,-0.00249394,-0.00424908,0.00041449,-0.00045917,-0.00010914,
 0.00001898,-0.00021067,0.00016491,0.00000453,0.00057028,-0.00066517,0.
 00005561,-0.00001439,-0.00009119,0.00000179,-0.00002701,0.00000792,-0.
 00000101,-0.00003629,0.00003819,-0.00000404,0.00010387,0.00012562,0.00
 000298,0.00000232,0.00000743,0.00000359,0.00000124,0.00001116,-0.00000
 107,-0.00002679,-0.00000689,0.00000393,0.00000840,-0.00003779,-0.00000
 425,0.00002778,-0.00007395,0.00001307,-0.00003423,-0.00004889,0.000006
 85,0.00002574,-0.00099870,0.00014454,-0.29544578,0.09447294,-0.0107217
 4,0.00167664,0.00000774,-0.00014867,0.00008996,0.00013440,0.00000975,-
 0.00000852,0.00000683,0.00000237,-0.00000451,0.00000595,0.00000173,-0.
 00000376,-0.00000214,-0.00000142,-0.00000633,0.00000070,0.00000070,-0.
 00001139,0.00001072,0.00000174,-0.00001355,-0.00002095,-0.00000641,0.0
 0000680,0.00001144,0.00000620,-0.00045953,-0.00094768,-0.00003926,-0.0
 0012224,-0.00011925,-0.00002009,0.31293457,0.00045377,-0.00001444,-0.0
 0001319,-0.00013895,0.00034554,-0.00004647,-0.00062713,0.00053622,-0.0
 0005911,-0.00000474,0.00134484,-0.00031692,-0.01842884,0.01093816,-0.0
 0102565,-0.00328717,-0.00245119,0.00050632,-0.00026885,-0.00009961,0.0
 0004828,-0.00013159,0.00015654,-0.00004861,-0.00042373,-0.00074148,-0.
 00001272,-0.00009536,-0.00013294,0.00001573,-0.00002525,0.00004037,0.0
 0000690,-0.00001797,0.00000096,-0.00000264,0.00001046,0.00010197,-0.00
 002809,-0.00001016,0.00002158,0.00000740,0.00000762,0.00000974,-0.0000
 0016,0.00000635,-0.00001067,-0.00000560,0.00001210,0.00000351,-0.00000
 215,0.00002185,-0.00003677,0.00000971,0.00002122,-0.00000156,0.0000037
 4,0.00062909,-0.00023884,0.00005373,0.09234890,-0.09427845,0.00574429,
 -0.00055117,-0.00553175,0.00080171,0.00009253,-0.00050651,-0.00003549,
 -0.00000314,-0.00000350,-0.00000106,-0.00000394,-0.00000152,-0.0000003
 6,0.00000079,0.00000137,0.00000107,0.00000315,0.00000058,0.00000002,0.
 00001206,-0.00000865,0.00000074,0.00000094,0.00001231,0.00000631,-0.00
 000370,-0.00000319,-0.00000025,0.03006102,-0.00843260,0.00133629,0.001
 29786,0.00046848,0.00002043,-0.10087847,0.09773642,-0.00017486,-0.0000
 0635,-0.00015808,0.00008772,-0.00010915,-0.00001333,-0.00000618,0.0000
 9574,0.00054983,0.00018150,-0.00025938,-0.00235642,0.00020678,-0.00081
 980,0.00264559,0.00036418,0.00013679,0.00411309,0.00005510,-0.00001316
 ,0.00034844,0.00004499,-0.00000548,-0.00059633,0.00011295,0.00025112,-
 0.00101421,0.00000264,0.00004108,0.00015756,0.00001924,0.00000525,0.00
 001216,0.00002164,-0.00001210,-0.00001520,-0.00003738,-0.00002013,-0.0
 0032446,-0.00000064,-0.00000873,0.00006309,0.00000384,0.00000494,-0.00
 000104,-0.00000616,0.00000853,0.00001312,0.00000370,-0.00000591,0.0000
 0424,0.00000728,0.00001617,0.00007009,-0.00000004,0.00001342,0.0000963
 5,-0.00004307,0.00003036,0.00031881,-0.01042998,0.00638414,-0.03543099
 ,-0.00013718,0.00087029,0.00852776,-0.00003685,0.00005969,-0.00047569,
 0.00000092,0.00000019,-0.00000441,0.00000029,-0.00000037,-0.00000610,0
 .00000013,-0.00000023,0.00000175,-0.00000042,0.00000021,-0.00000422,-0
 .00000446,-0.00000259,-0.00001556,-0.00000380,0.00000368,-0.00000494,0
 .00000025,-0.00000047,0.00000666,-0.00192818,0.00029848,0.00364919,-0.
 00016683,-0.00005712,0.00042933,0.01172400,-0.00656708,0.02484639,0.00
 018779,-0.00000316,0.00000613,-0.00007164,0.00015890,-0.00001754,-0.00
 014461,-0.00018704,0.00001414,0.00016843,-0.00004781,-0.00000313,0.001
 07145,0.00174392,-0.00028688,0.00024098,0.00082555,-0.00001036,-0.0005
 2917,0.00018900,0.00002520,-0.00004874,-0.00146520,-0.00005392,-0.0045
 7570,0.00388182,-0.00008809,0.00011825,-0.00002377,-0.00000796,0.00001
 496,0.00006786,0.00000571,-0.00003864,0.00002962,-0.00000216,0.0000887
 3,-0.00017564,0.00000741,0.00003969,-0.00001252,-0.00000426,-0.0000388
 3,-0.00000577,0.00000340,-0.00006980,0.00003457,0.00000754,-0.00000480
 ,-0.00001986,-0.00000399,-0.00000893,-0.00001804,0.00000496,0.00002428
 ,0.00001000,-0.00000271,0.00000282,-0.00001703,-0.00000161,0.00594371,
 0.00443472,-0.00017091,-0.01762386,-0.01865859,0.00043441,-0.00013383,
 0.00029284,-0.00000486,-0.00003487,0.00001674,0.00000494,-0.00000502,0
 .00000861,0.00000133,-0.00001027,-0.00000242,0.00000054,-0.00000594,-0
 .00000039,-0.00000004,-0.00001458,0.00003761,0.00000492,0.00000184,-0.
 00004886,-0.00001066,0.00000208,0.00000920,0.00000284,-0.24002049,-0.1
 3086875,0.00358953,0.00147512,-0.00108818,0.00000484,0.00098006,-0.000
 20803,0.00015327,0.25317965,-0.00007979,-0.00051177,0.00004794,0.00015
 167,-0.00017230,0.00002495,0.00006282,0.00021378,-0.00006204,-0.001367
 47,0.00017137,-0.00002785,0.00252407,-0.00464614,0.00082374,0.00045915
 ,-0.00045026,0.00000104,0.00013799,-0.00017898,-0.00000327,0.00050852,
 0.00062997,0.00000759,0.00300585,-0.00055841,0.00024883,0.00002627,0.0
 0019759,-0.00000287,-0.00006766,-0.00003226,0.00000386,0.00002939,0.00
 004368,-0.00000548,0.00005897,0.00008701,-0.00000748,-0.00002389,-0.00
 001031,0.00000043,0.00000953,0.00002029,0.00000159,-0.00000387,-0.0000
 1651,0.00000531,0.00001303,-0.00002255,-0.00000116,0.00000168,0.000001
 10,0.00000545,-0.00014219,-0.00007456,0.00001651,0.00004357,-0.0000335
 0,0.00001149,-0.02666520,-0.01495024,0.00047872,0.01079905,0.01096432,
 -0.00019868,-0.00029770,-0.00001379,0.00000045,0.00000573,0.00000012,0
 .00000077,0.00000062,0.00000255,0.00000080,0.00000175,-0.00000184,-0.0
 0000141,-0.00000393,0.00000086,0.00000039,-0.00001025,-0.00000659,-0.0
 0000548,-0.00001496,0.00000271,-0.00000503,0.00000897,0.00000568,0.000
 00397,-0.12868310,-0.15032628,0.00376673,-0.00018746,0.00120803,-0.000
 13147,0.00026075,0.00085145,-0.00033949,0.14004609,0.15776434,-0.00001
 718,-0.00009885,-0.00068821,0.00001883,0.00002167,0.00019836,-0.000019
 60,-0.00007393,-0.00070051,-0.00003161,0.00003383,0.00044311,-0.000286
 35,0.00080727,0.00870876,0.00011628,-0.00015803,-0.00080390,-0.0000103
 6,0.00003733,-0.00000762,-0.00008700,-0.00009128,0.00052730,-0.0000687
 3,0.00048277,0.00461560,0.00007068,0.00002343,-0.00009033,-0.00003006,
 -0.00001191,0.00003059,0.00002467,0.00000655,-0.00000938,-0.00000784,-
 0.00001305,-0.00009010,-0.00001656,-0.00000218,-0.00000422,0.00000813,
 0.00000938,-0.00000740,-0.00000641,-0.00000143,-0.00001740,0.00000092,
 -0.00001224,0.00001009,-0.00000005,0.00001657,0.00009674,0.00000082,-0
 .00000981,-0.00007460,-0.00000012,0.00002530,0.00017522,0.00141758,0.0
 0148543,0.00310510,-0.00140026,-0.00049954,0.00233533,-0.00007582,-0.0
 0002250,-0.00011406,0.00000079,-0.00000057,0.00001188,0.00000036,-0.00
 000065,0.00000487,-0.00000036,0.00000005,0.00000853,0.00000006,0.00000
 002,0.00000236,-0.00000815,0.00000522,-0.00000765,0.00000320,-0.000002
 45,-0.00000286,-0.00000175,-0.00000026,0.00000165,0.00374092,0.0032162
 5,-0.03473655,0.00011221,-0.00013989,-0.00216804,0.00013787,-0.0003918
 0,-0.00546607,-0.00361388,-0.00468450,0.02442378,0.00003096,0.00001334
 ,-0.00000357,0.00004627,0.00002300,-0.00000156,-0.00013053,0.00009932,
 -0.00000703,-0.00002519,-0.00004518,0.00000849,0.00020488,-0.00000616,
 0.00000151,0.00047066,0.00039404,-0.00000640,0.00018679,0.00000450,-0.
 00001903,-0.00023127,0.00041569,-0.00002979,0.00009596,0.00243449,0.00
 006060,-0.00389675,0.00326964,0.00033636,-0.00007788,-0.00136378,-0.00
 001087,-0.00050530,0.00011646,0.00005325,-0.00010007,0.00005749,0.0000
 1143,0.00008129,-0.00014846,-0.00002113,-0.00009512,-0.00007685,0.0000
 0265,0.00007948,0.00004321,0.00000293,-0.00007137,0.00006351,0.0000086
 5,-0.00000219,0.00001740,-0.00000488,0.00000025,-0.00000777,0.00000014
 ,0.00000469,0.00000225,-0.00000009,-0.00005025,-0.00030342,0.00001057,
 0.00951159,0.00723895,-0.00014910,-0.01774643,-0.02358114,0.00054171,-
 0.00003029,0.00004886,0.00000331,0.00000478,0.00001268,0.00000047,-0.0
 0000563,-0.00000454,0.00000087,-0.00001823,-0.00001453,0.00000126,-0.0
 0001853,0.00002240,0.00000209,0.00000211,-0.00004793,-0.00001100,0.000
 00273,0.00000912,0.00000218,0.00106896,-0.00015371,-0.00003140,-0.1863
 4819,-0.13599557,0.00362347,0.00000371,-0.00002644,0.00000501,-0.00011
 820,-0.00058289,0.00002394,0.19679513,0.00002241,-0.00004618,0.0000057
 0,-0.00020451,0.00001554,0.00000559,0.00017172,-0.00052957,0.00003785,
 0.00004582,0.00001199,0.00000815,0.00002989,0.00013547,-0.00001987,-0.
 00160798,0.00005313,-0.00008210,-0.00026445,-0.00011429,0.00002007,0.0
 0087382,0.00012521,-0.00002072,0.00336810,-0.00533832,0.00020608,0.002
 47732,0.00025655,-0.00005936,-0.00005586,0.00040023,-0.00000342,0.0001
 3642,0.00010551,-0.00002706,0.00021252,-0.00005251,-0.00001194,-0.0000
 2856,0.00003036,0.00000676,-0.00000717,0.00006264,0.00000719,-0.000079
 51,-0.00003192,-0.00000015,0.00005368,-0.00003536,-0.00000638,0.000012
 48,-0.00006708,0.00001853,0.00000322,-0.00001074,-0.00000056,0.0000126
 9,-0.00003600,0.00000424,0.00025331,-0.00016500,0.00001565,-0.02218049
 ,-0.01578838,0.00034027,0.00764658,0.00855940,-0.00019496,-0.00001290,
 -0.00000231,0.00000511,-0.00000681,0.00000344,0.00000076,-0.00000282,-
 0.00000204,0.00000002,0.00000139,0.00000452,-0.00000081,-0.00000459,0.
 00000488,-0.00000175,-0.00001689,0.00000095,-0.00000535,0.00000847,0.0
 0000601,0.00000451,-0.00097529,0.00162524,-0.00010286,-0.13859720,-0.2
 0430687,0.00381757,0.00003162,-0.00004364,0.00000324,0.00102826,-0.000
 16098,0.00004397,0.14782795,0.21432643,0.00000925,0.00000552,-0.000018
 59,-0.00000291,0.00000156,-0.00004943,0.00002510,-0.00000848,-0.000026
 29,-0.00001401,-0.00001463,0.00003836,0.00001469,0.00004510,-0.0000458
 4,-0.00004887,-0.00004912,0.00028755,0.00002590,0.00002542,-0.00057189
 ,-0.00009526,-0.00001997,-0.00065356,0.00027621,0.00023452,0.00389674,
 0.00022393,0.00000298,0.00954616,0.00003885,-0.00008990,0.00033690,-0.
 00014835,0.00004416,-0.00100995,-0.00002918,0.00001236,0.00016851,0.00
 002989,-0.00000131,-0.00008339,-0.00001047,-0.00003456,0.00009446,0.00
 003385,0.00000348,0.00008290,-0.00001729,0.00002617,-0.00000883,-0.000
 00621,-0.00000066,0.00000694,-0.00000009,-0.00000045,-0.00000074,-0.00
 000009,0.00000087,0.00000397,-0.00002338,-0.00005124,-0.00014722,0.000
 10338,-0.00054984,0.00260948,0.00080400,0.00041280,0.00377426,0.000030
 96,-0.00000724,0.00028657,-0.00000289,0.00000141,-0.00002338,-0.000001
 67,0.00000177,-0.00001473,0.00000084,-0.00000246,0.00001539,-0.0000082
 1,0.00000007,-0.00000278,0.00000374,-0.00000326,-0.00000460,-0.0000008
 3,-0.00000026,0.00000251,-0.00000353,0.00001251,-0.00168187,0.00320559
 ,0.00399662,-0.03565040,-0.00000184,0.00000713,0.00007973,0.00001173,0
 .00001703,0.00016763,-0.00425221,-0.00401610,0.02454605,0.00008634,-0.
 00001224,0.00000376,0.00008273,0.00008229,-0.00002449,-0.00019208,-0.0
 0034037,0.00004194,0.00001729,-0.00008926,0.00001404,-0.00014178,-0.00
 002224,0.00001221,0.00021384,-0.00014030,-0.00001530,0.00064177,-0.000
 65787,-0.00004932,-0.00373225,-0.00295032,0.00033957,-0.00063054,-0.00
 024392,-0.00000894,0.00916893,-0.02227940,-0.00031292,0.00159669,-0.00
 011576,-0.00021840,0.00001965,0.00035470,-0.00003232,0.00028333,-0.000
 06144,0.00000936,-0.00007791,-0.00002483,0.00000906,0.00002796,0.00006
 799,0.00000125,-0.00008268,0.00003797,0.00000472,0.00002438,-0.0000762
 2,-0.00000801,-0.00000615,0.00000655,-0.00000089,0.00001603,-0.0000003
 1,0.00000162,-0.00000551,-0.00000227,-0.00000128,-0.00045910,0.0001462
 5,-0.00004357,-0.00552315,0.00010003,0.00035120,-0.07392790,0.06468291
 ,0.00134591,-0.00029400,0.00070162,0.00005568,-0.00002571,0.00000115,0
 .00000486,-0.00000274,0.00000444,-0.00000029,0.00000207,0.00000296,-0.
 00000008,0.00000776,0.00000605,0.00000320,0.00000290,0.00000466,0.0000
 0253,-0.00000342,-0.00000218,-0.00000072,0.00063263,0.00123596,0.00000
 257,-0.00491082,0.03099380,0.00021746,-0.00001374,0.00015492,-0.000019
 41,-0.00004193,-0.00002513,0.00000482,0.00088120,-0.00017264,-0.000170
 62,0.07636590,0.00006856,-0.00001529,0.00000393,0.00004608,0.00008064,
 -0.00000669,-0.00017101,-0.00040217,0.00004404,-0.00000305,-0.00006322
 ,0.00001136,-0.00008031,0.00004275,0.00000071,0.00012588,-0.00015726,-
 0.00001298,0.00094004,-0.00014151,-0.00009762,-0.00409991,-0.00127064,
 0.00024387,-0.00035680,0.00062892,0.00001624,0.00739879,-0.01680833,-0
 .00032047,0.00104680,0.00107972,-0.00010972,-0.00042530,0.00005421,-0.
 00001290,0.00002700,0.00007523,0.00002474,0.00010903,-0.00008676,-0.00
 000475,-0.00003762,-0.00007880,-0.00000820,-0.00002492,0.00009549,0.00
 000973,-0.00008272,-0.00002693,0.00000480,-0.00000428,-0.00000245,-0.0
 0000076,0.00001319,-0.00001581,0.00000090,0.00000708,-0.00000694,0.,0.
 00020345,0.00005794,-0.00000434,0.00091652,0.00158853,-0.00003791,0.06
 696401,-0.31619856,-0.00151812,-0.00094733,0.00009212,0.00011613,-0.00
 001785,0.00001973,0.00000517,-0.00000937,0.00000136,0.00000028,-0.0000
 1493,-0.00000516,0.00000093,-0.00001255,0.00003205,0.00000728,-0.00000
 488,-0.00004341,-0.00001161,0.00000453,0.00000999,0.00000411,-0.000179
 33,-0.00027266,-0.00000023,-0.00031341,-0.00441644,0.00002635,0.000002
 35,-0.00003275,0.00000423,0.00003575,0.00000241,-0.00000017,0.00024405
 ,0.00100369,-0.00000199,-0.07136756,0.33518030,0.00001714,-0.00000097,
 -0.00003735,-0.00002628,-0.00003779,-0.00029836,0.00002029,0.00001009,
 0.00028917,-0.00000919,-0.00001224,0.00002870,-0.00000861,0.00003183,0
 .00015170,0.00001664,-0.00007746,-0.00054110,0.00008724,0.00007778,0.0
 0059399,0.00013124,0.00016050,0.00347037,0.00015257,0.00013789,-0.0009
 8075,-0.00070864,0.00044429,0.00218277,-0.00008022,0.00009433,-0.00191
 110,-0.00006837,-0.00013335,-0.00016009,-0.00007973,0.00004100,-0.0000
 1367,0.00004382,0.00000659,0.00000474,-0.00001055,-0.00003831,0.000012
 14,0.00002400,0.00001284,0.00005334,-0.00002444,0.00002429,-0.00002375
 ,0.00000223,0.00000408,0.00001036,0.00000153,0.00001220,0.00007685,-0.
 00000157,0.00000075,-0.00000005,0.00004752,-0.00004151,-0.00059008,0.0
 0036531,0.00000487,0.00910556,0.00190935,-0.00141518,-0.03445099,0.000
 04490,-0.00005544,0.00029683,0.00000409,-0.00000065,0.00002223,-0.0000
 0057,-0.00000058,0.00000042,-0.00000066,-0.00000077,-0.00000049,0.0000
 0105,0.00000200,0.00000551,-0.00000048,-0.00000464,-0.00000780,-0.0000
 0031,-0.00000044,0.00000318,-0.00004310,-0.00010988,0.00042961,-0.0001
 3565,-0.00075809,0.00400008,0.00000133,-0.00001246,-0.00004614,0.00000
 012,0.00000863,0.00012203,-0.00015280,0.00000214,-0.00595059,-0.001519
 20,0.00162365,0.02415271\\0.00001016,-0.00000981,0.,-0.00001184,-0.000
 00188,0.00000965,0.00000542,-0.00000911,0.00001298,-0.00000534,-0.0000
 1280,0.00000338,0.00001026,0.00000344,0.00000325,-0.00000438,0.0000070
 6,-0.00000184,-0.00001468,0.00000924,-0.00000772,0.00000089,-0.0000081
 8,-0.00000285,-0.00000107,0.00000004,-0.00000592,-0.00001185,0.0000014
 9,0.00000073,-0.00000384,-0.00001278,-0.00000449,0.00001198,0.00001441
 ,-0.00000200,0.00001545,-0.00000094,-0.00000274,-0.00001264,-0.0000001
 5,-0.00000285,-0.00000652,0.00001657,-0.00000225,-0.00001232,0.0000009
 7,0.00001171,0.00000973,-0.00002379,-0.00000425,-0.00000146,0.00000157
 ,-0.00000336,-0.00000213,0.00000022,0.00000286,0.00000584,0.00000361,0
 .00000332,0.00000452,0.00000211,0.00000036,0.00000693,-0.00000073,0.00
 000521,0.00001273,0.00000648,0.00000265,-0.00000173,0.00000568,-0.0000
 0220,0.00000256,0.00000402,0.00000005,-0.00000218,-0.00000071,-0.00000
 380,-0.00000149,-0.00000268,-0.00000607,-0.00002400,0.00005396,-0.0000
 0505,0.00002346,-0.00005046,-0.00000592,-0.00000205,-0.00000878,0.0000
 0151,0.00000699,-0.00000189,0.00000115,-0.00000726,0.00001285,-0.00000
 054,0.00000088,-0.00000463,0.00000463,-0.00000111,0.00000614,0.0000033
 6,0.00000655,-0.00000200,0.00000017,-0.00000643,0.00000144,-0.00000313
 \\\@


 EVERYBODY NEEDS BEAUTY AS WELL AS BREAD, PLACES TO PLAY IN AND PRAY IN,
 WHERE NATURE MAY HEAL AND CHEER AND GIVE STRENGTH TO BODY AND SOUL ALIKE.

                                    -- JOHN MUIR
 Job cpu time:       0 days 21 hours  9 minutes 57.4 seconds.
 File lengths (MBytes):  RWF=   2747 Int=      0 D2E=      0 Chk=     28 Scr=      1
 Normal termination of Gaussian 09 at Sat Feb  1 17:53:25 2020.
