 Entering Gaussian System, Link 0=g09
 Initial command:
 /usr/local/Cluster-Apps/gaussian/g09/l1.exe "/rds/user/am2145/hpc-work/scratch/19184503/Gau-71437.inp" -scrdir="/rds/user/am2145/hpc-work/scratch/19184503/"
 Entering Link 1 = /usr/local/Cluster-Apps/gaussian/g09/l1.exe PID=     71438.
  
 Copyright (c) 1988,1990,1992,1993,1995,1998,2003,2009,2013,
            Gaussian, Inc.  All Rights Reserved.
  
 This is part of the Gaussian(R) 09 program.  It is based on
 the Gaussian(R) 03 system (copyright 2003, Gaussian, Inc.),
 the Gaussian(R) 98 system (copyright 1998, Gaussian, Inc.),
 the Gaussian(R) 94 system (copyright 1995, Gaussian, Inc.),
 the Gaussian 92(TM) system (copyright 1992, Gaussian, Inc.),
 the Gaussian 90(TM) system (copyright 1990, Gaussian, Inc.),
 the Gaussian 88(TM) system (copyright 1988, Gaussian, Inc.),
 the Gaussian 86(TM) system (copyright 1986, Carnegie Mellon
 University), and the Gaussian 82(TM) system (copyright 1983,
 Carnegie Mellon University). Gaussian is a federally registered
 trademark of Gaussian, Inc.
  
 This software contains proprietary and confidential information,
 including trade secrets, belonging to Gaussian, Inc.
  
 This software is provided under written license and may be
 used, copied, transmitted, or stored only in accord with that
 written license.
  
 The following legend is applicable only to US Government
 contracts under FAR:
  
                    RESTRICTED RIGHTS LEGEND
  
 Use, reproduction and disclosure by the US Government is
 subject to restrictions as set forth in subparagraphs (a)
 and (c) of the Commercial Computer Software - Restricted
 Rights clause in FAR 52.227-19.
  
 Gaussian, Inc.
 340 Quinnipiac St., Bldg. 40, Wallingford CT 06492
  
  
 ---------------------------------------------------------------
 Warning -- This program may not be used in any manner that
 competes with the business of Gaussian, Inc. or will provide
 assistance to any competitor of Gaussian, Inc.  The licensee
 of this program is prohibited from giving any competitor of
 Gaussian, Inc. access to this program.  By using this program,
 the user acknowledges that Gaussian, Inc. is engaged in the
 business of creating and licensing software in the field of
 computational chemistry and represents and warrants to the
 licensee that it is not a competitor of Gaussian, Inc. and that
 it will not use this program in any manner prohibited above.
 ---------------------------------------------------------------
  

 Cite this work as:
 Gaussian 09, Revision D.01,
 M. J. Frisch, G. W. Trucks, H. B. Schlegel, G. E. Scuseria, 
 M. A. Robb, J. R. Cheeseman, G. Scalmani, V. Barone, B. Mennucci, 
 G. A. Petersson, H. Nakatsuji, M. Caricato, X. Li, H. P. Hratchian, 
 A. F. Izmaylov, J. Bloino, G. Zheng, J. L. Sonnenberg, M. Hada, 
 M. Ehara, K. Toyota, R. Fukuda, J. Hasegawa, M. Ishida, T. Nakajima, 
 Y. Honda, O. Kitao, H. Nakai, T. Vreven, J. A. Montgomery, Jr., 
 J. E. Peralta, F. Ogliaro, M. Bearpark, J. J. Heyd, E. Brothers, 
 K. N. Kudin, V. N. Staroverov, T. Keith, R. Kobayashi, J. Normand, 
 K. Raghavachari, A. Rendell, J. C. Burant, S. S. Iyengar, J. Tomasi, 
 M. Cossi, N. Rega, J. M. Millam, M. Klene, J. E. Knox, J. B. Cross, 
 V. Bakken, C. Adamo, J. Jaramillo, R. Gomperts, R. E. Stratmann, 
 O. Yazyev, A. J. Austin, R. Cammi, C. Pomelli, J. W. Ochterski, 
 R. L. Martin, K. Morokuma, V. G. Zakrzewski, G. A. Voth, 
 P. Salvador, J. J. Dannenberg, S. Dapprich, A. D. Daniels, 
 O. Farkas, J. B. Foresman, J. V. Ortiz, J. Cioslowski, 
 and D. J. Fox, Gaussian, Inc., Wallingford CT, 2013.
 
 ******************************************
 Gaussian 09:  ES64L-G09RevD.01 24-Apr-2013
                 1-Feb-2020 
 ******************************************
 %NProcShared=20
 Will use up to   20 processors via shared memory.
 %mem=64GB
 %Chk=AS2b_ethy.chk
 ------------------------------
 #n opt freq b3lyp/6-311+g(d,p)
 ------------------------------
 1/14=-1,18=20,19=15,26=3,38=1/1,3;
 2/9=110,12=2,17=6,18=5,40=1/2;
 3/5=4,6=6,7=111,11=2,16=1,25=1,30=1,71=1,74=-5/1,2,3;
 4//1;
 5/5=2,38=5/2;
 6/7=2,8=2,9=2,10=2,28=1/1;
 7//1,2,3,16;
 1/14=-1,18=20,19=15,26=3/3(2);
 2/9=110/2;
 99//99;
 2/9=110/2;
 3/5=4,6=6,7=111,11=2,16=1,25=1,30=1,71=1,74=-5/1,2,3;
 4/5=5,16=3,69=1/1;
 5/5=2,38=5/2;
 7//1,2,3,16;
 1/14=-1,18=20,19=15,26=3/3(-5);
 2/9=110/2;
 6/7=2,8=2,9=2,10=2,19=2,28=1/1;
 99/9=1/99;
 ---------
 AS2b_ethy
 ---------
 Symbolic Z-matrix:
 Charge =  0 Multiplicity = 1
 C                    -2.01402   3.06676   0.00001 
 C                    -0.67407   2.53229   0.00005 
 C                    -0.51573   1.14195   0.00006 
 C                    -3.1626    2.30266   0.00002 
 C                    -3.05036   0.88725   0.00003 
 C                    -1.7431    0.41153   0.00005 
 C                     0.57526   0.09286  -0.00003 
 C                    -0.09562  -1.14265  -0.00004 
 C                    -1.4855   -0.95624   0. 
 C                     0.44237  -2.43778  -0.00003 
 C                     1.8364   -2.49577  -0.00001 
 C                     2.60001  -1.30562   0. 
 C                     1.99094   0.02428   0. 
 C                     4.02438  -1.39566   0.00003 
 C                     4.81627  -0.28068   0.00003 
 C                     2.85948   1.15094   0.00002 
 C                     4.22215   1.00614   0.00002 
 H                    -2.10089   4.1465   -0.00002 
 H                    -4.13156   2.79013   0. 
 C                    -4.07889  -0.12227   0.00001 
 C                    -2.43534  -1.95308  -0.00001 
 C                    -0.53032  -3.51526  -0.00003 
 H                     2.35972  -3.4469    0. 
 H                     4.47246  -2.38385   0.00006 
 H                     2.42327   2.13861   0.00003 
 H                     4.85568   1.8864   -0.00001 
 H                     5.89606  -0.37659   0.00006 
 C                     0.37443   3.49795  -0.00003 
 C                     1.186     4.38887  -0.0001 
 H                     1.91939   5.15762  -0.00016 
 C                    -3.79281  -1.47622   0. 
 C                    -1.8887   -3.29458  -0.00002 
 H                    -5.11739   0.19246   0.00002 
 H                    -4.61343  -2.18618   0. 
 H                    -2.56068  -4.14655  -0.00005 
 H                    -0.1664   -4.53764  -0.00006 
 

 GradGradGradGradGradGradGradGradGradGradGradGradGradGradGradGradGradGrad
 Berny optimization.
 Initialization pass.
                           ----------------------------
                           !    Initial Parameters    !
                           ! (Angstroms and Degrees)  !
 --------------------------                            --------------------------
 ! Name  Definition              Value          Derivative Info.                !
 --------------------------------------------------------------------------------
 ! R1    R(1,2)                  1.4426         estimate D2E/DX2                !
 ! R2    R(1,4)                  1.3795         estimate D2E/DX2                !
 ! R3    R(1,18)                 1.0832         estimate D2E/DX2                !
 ! R4    R(2,3)                  1.3993         estimate D2E/DX2                !
 ! R5    R(2,28)                 1.4254         estimate D2E/DX2                !
 ! R6    R(3,6)                  1.4283         estimate D2E/DX2                !
 ! R7    R(3,7)                  1.5136         estimate D2E/DX2                !
 ! R8    R(4,5)                  1.4199         estimate D2E/DX2                !
 ! R9    R(4,19)                 1.0847         estimate D2E/DX2                !
 ! R10   R(5,6)                  1.3911         estimate D2E/DX2                !
 ! R11   R(5,20)                 1.4412         estimate D2E/DX2                !
 ! R12   R(6,9)                  1.3918         estimate D2E/DX2                !
 ! R13   R(7,8)                  1.4059         estimate D2E/DX2                !
 ! R14   R(7,13)                 1.4173         estimate D2E/DX2                !
 ! R15   R(8,9)                  1.4023         estimate D2E/DX2                !
 ! R16   R(8,10)                 1.4024         estimate D2E/DX2                !
 ! R17   R(9,21)                 1.3769         estimate D2E/DX2                !
 ! R18   R(10,11)                1.3952         estimate D2E/DX2                !
 ! R19   R(10,22)                1.4516         estimate D2E/DX2                !
 ! R20   R(11,12)                1.4141         estimate D2E/DX2                !
 ! R21   R(11,23)                1.0856         estimate D2E/DX2                !
 ! R22   R(12,13)                1.4627         estimate D2E/DX2                !
 ! R23   R(12,14)                1.4272         estimate D2E/DX2                !
 ! R24   R(13,16)                1.4226         estimate D2E/DX2                !
 ! R25   R(14,15)                1.3676         estimate D2E/DX2                !
 ! R26   R(14,24)                1.085          estimate D2E/DX2                !
 ! R27   R(15,17)                1.4174         estimate D2E/DX2                !
 ! R28   R(15,27)                1.084          estimate D2E/DX2                !
 ! R29   R(16,17)                1.3703         estimate D2E/DX2                !
 ! R30   R(16,25)                1.0797         estimate D2E/DX2                !
 ! R31   R(17,26)                1.0845         estimate D2E/DX2                !
 ! R32   R(20,31)                1.3838         estimate D2E/DX2                !
 ! R33   R(20,33)                1.0851         estimate D2E/DX2                !
 ! R34   R(21,31)                1.4388         estimate D2E/DX2                !
 ! R35   R(21,32)                1.4486         estimate D2E/DX2                !
 ! R36   R(22,32)                1.3762         estimate D2E/DX2                !
 ! R37   R(22,36)                1.0852         estimate D2E/DX2                !
 ! R38   R(28,29)                1.2051         estimate D2E/DX2                !
 ! R39   R(29,30)                1.0625         estimate D2E/DX2                !
 ! R40   R(31,34)                1.0851         estimate D2E/DX2                !
 ! R41   R(32,35)                1.0851         estimate D2E/DX2                !
 ! A1    A(2,1,4)              124.6202         estimate D2E/DX2                !
 ! A2    A(2,1,18)             116.3455         estimate D2E/DX2                !
 ! A3    A(4,1,18)             119.0343         estimate D2E/DX2                !
 ! A4    A(1,2,3)              118.2429         estimate D2E/DX2                !
 ! A5    A(1,2,28)             115.6095         estimate D2E/DX2                !
 ! A6    A(3,2,28)             126.1476         estimate D2E/DX2                !
 ! A7    A(2,3,6)              114.2601         estimate D2E/DX2                !
 ! A8    A(2,3,7)              140.3755         estimate D2E/DX2                !
 ! A9    A(6,3,7)              105.3643         estimate D2E/DX2                !
 ! A10   A(1,4,5)              119.1001         estimate D2E/DX2                !
 ! A11   A(1,4,19)             119.6596         estimate D2E/DX2                !
 ! A12   A(5,4,19)             121.2403         estimate D2E/DX2                !
 ! A13   A(4,5,6)              114.5307         estimate D2E/DX2                !
 ! A14   A(4,5,20)             129.9316         estimate D2E/DX2                !
 ! A15   A(6,5,20)             115.5377         estimate D2E/DX2                !
 ! A16   A(3,6,5)              129.2459         estimate D2E/DX2                !
 ! A17   A(3,6,9)              110.0914         estimate D2E/DX2                !
 ! A18   A(5,6,9)              120.6627         estimate D2E/DX2                !
 ! A19   A(3,7,8)              105.3765         estimate D2E/DX2                !
 ! A20   A(3,7,13)             138.8951         estimate D2E/DX2                !
 ! A21   A(8,7,13)             115.7285         estimate D2E/DX2                !
 ! A22   A(7,8,9)              110.863          estimate D2E/DX2                !
 ! A23   A(7,8,10)             128.9404         estimate D2E/DX2                !
 ! A24   A(9,8,10)             120.1966         estimate D2E/DX2                !
 ! A25   A(6,9,8)              108.3048         estimate D2E/DX2                !
 ! A26   A(6,9,21)             125.7172         estimate D2E/DX2                !
 ! A27   A(8,9,21)             125.978          estimate D2E/DX2                !
 ! A28   A(8,10,11)            114.9398         estimate D2E/DX2                !
 ! A29   A(8,10,22)            115.3683         estimate D2E/DX2                !
 ! A30   A(11,10,22)           129.6919         estimate D2E/DX2                !
 ! A31   A(10,11,12)           120.3025         estimate D2E/DX2                !
 ! A32   A(10,11,23)           121.202          estimate D2E/DX2                !
 ! A33   A(12,11,23)           118.4955         estimate D2E/DX2                !
 ! A34   A(11,12,13)           122.7085         estimate D2E/DX2                !
 ! A35   A(11,12,14)           119.0675         estimate D2E/DX2                !
 ! A36   A(13,12,14)           118.224          estimate D2E/DX2                !
 ! A37   A(7,13,12)            117.3803         estimate D2E/DX2                !
 ! A38   A(7,13,16)            124.8551         estimate D2E/DX2                !
 ! A39   A(12,13,16)           117.7645         estimate D2E/DX2                !
 ! A40   A(12,14,15)           121.7664         estimate D2E/DX2                !
 ! A41   A(12,14,24)           118.0083         estimate D2E/DX2                !
 ! A42   A(15,14,24)           120.2254         estimate D2E/DX2                !
 ! A43   A(14,15,17)           119.834          estimate D2E/DX2                !
 ! A44   A(14,15,27)           120.3076         estimate D2E/DX2                !
 ! A45   A(17,15,27)           119.8584         estimate D2E/DX2                !
 ! A46   A(13,16,17)           121.563          estimate D2E/DX2                !
 ! A47   A(13,16,25)           118.5425         estimate D2E/DX2                !
 ! A48   A(17,16,25)           119.8945         estimate D2E/DX2                !
 ! A49   A(15,17,16)           120.8482         estimate D2E/DX2                !
 ! A50   A(15,17,26)           119.4745         estimate D2E/DX2                !
 ! A51   A(16,17,26)           119.6773         estimate D2E/DX2                !
 ! A52   A(5,20,31)            122.5349         estimate D2E/DX2                !
 ! A53   A(5,20,33)            118.6743         estimate D2E/DX2                !
 ! A54   A(31,20,33)           118.7908         estimate D2E/DX2                !
 ! A55   A(9,21,31)            114.2613         estimate D2E/DX2                !
 ! A56   A(9,21,32)            114.2129         estimate D2E/DX2                !
 ! A57   A(31,21,32)           131.5258         estimate D2E/DX2                !
 ! A58   A(10,22,32)           122.8464         estimate D2E/DX2                !
 ! A59   A(10,22,36)           118.3326         estimate D2E/DX2                !
 ! A60   A(32,22,36)           118.8209         estimate D2E/DX2                !
 ! A61   A(20,31,21)           121.2864         estimate D2E/DX2                !
 ! A62   A(20,31,34)           118.934          estimate D2E/DX2                !
 ! A63   A(21,31,34)           119.7796         estimate D2E/DX2                !
 ! A64   A(21,32,22)           121.3977         estimate D2E/DX2                !
 ! A65   A(21,32,35)           119.5657         estimate D2E/DX2                !
 ! A66   A(22,32,35)           119.0366         estimate D2E/DX2                !
 ! A67   L(2,28,29,14,-1)      185.0237         estimate D2E/DX2                !
 ! A68   L(28,29,30,14,-1)     178.68           estimate D2E/DX2                !
 ! A69   L(2,28,29,14,-2)      179.9999         estimate D2E/DX2                !
 ! A70   L(28,29,30,14,-2)     180.0001         estimate D2E/DX2                !
 ! D1    D(4,1,2,3)              0.002          estimate D2E/DX2                !
 ! D2    D(4,1,2,28)           179.9973         estimate D2E/DX2                !
 ! D3    D(18,1,2,3)          -179.9986         estimate D2E/DX2                !
 ! D4    D(18,1,2,28)           -0.0033         estimate D2E/DX2                !
 ! D5    D(2,1,4,5)             -0.002          estimate D2E/DX2                !
 ! D6    D(2,1,4,19)           179.9992         estimate D2E/DX2                !
 ! D7    D(18,1,4,5)           179.9986         estimate D2E/DX2                !
 ! D8    D(18,1,4,19)           -0.0001         estimate D2E/DX2                !
 ! D9    D(1,2,3,6)             -0.001          estimate D2E/DX2                !
 ! D10   D(1,2,3,7)            179.9926         estimate D2E/DX2                !
 ! D11   D(28,2,3,6)          -179.9957         estimate D2E/DX2                !
 ! D12   D(28,2,3,7)            -0.0022         estimate D2E/DX2                !
 ! D13   D(2,3,6,5)              0.0001         estimate D2E/DX2                !
 ! D14   D(2,3,6,9)            179.9973         estimate D2E/DX2                !
 ! D15   D(7,3,6,5)           -179.9956         estimate D2E/DX2                !
 ! D16   D(7,3,6,9)              0.0016         estimate D2E/DX2                !
 ! D17   D(2,3,7,8)           -179.9958         estimate D2E/DX2                !
 ! D18   D(2,3,7,13)             0.0105         estimate D2E/DX2                !
 ! D19   D(6,3,7,8)             -0.0019         estimate D2E/DX2                !
 ! D20   D(6,3,7,13)          -179.9956         estimate D2E/DX2                !
 ! D21   D(1,4,5,6)              0.001          estimate D2E/DX2                !
 ! D22   D(1,4,5,20)          -179.9984         estimate D2E/DX2                !
 ! D23   D(19,4,5,6)           179.9997         estimate D2E/DX2                !
 ! D24   D(19,4,5,20)            0.0004         estimate D2E/DX2                !
 ! D25   D(4,5,6,3)             -0.0001         estimate D2E/DX2                !
 ! D26   D(4,5,6,9)           -179.9971         estimate D2E/DX2                !
 ! D27   D(20,5,6,3)           179.9994         estimate D2E/DX2                !
 ! D28   D(20,5,6,9)             0.0024         estimate D2E/DX2                !
 ! D29   D(4,5,20,31)          179.9988         estimate D2E/DX2                !
 ! D30   D(4,5,20,33)           -0.0022         estimate D2E/DX2                !
 ! D31   D(6,5,20,31)           -0.0005         estimate D2E/DX2                !
 ! D32   D(6,5,20,33)          179.9984         estimate D2E/DX2                !
 ! D33   D(3,6,9,8)             -0.0007         estimate D2E/DX2                !
 ! D34   D(3,6,9,21)           179.9994         estimate D2E/DX2                !
 ! D35   D(5,6,9,8)            179.9968         estimate D2E/DX2                !
 ! D36   D(5,6,9,21)            -0.0031         estimate D2E/DX2                !
 ! D37   D(3,7,8,9)              0.0015         estimate D2E/DX2                !
 ! D38   D(3,7,8,10)          -179.9957         estimate D2E/DX2                !
 ! D39   D(13,7,8,9)           179.9969         estimate D2E/DX2                !
 ! D40   D(13,7,8,10)           -0.0003         estimate D2E/DX2                !
 ! D41   D(3,7,13,12)          179.9941         estimate D2E/DX2                !
 ! D42   D(3,7,13,16)           -0.0064         estimate D2E/DX2                !
 ! D43   D(8,7,13,12)            0.0008         estimate D2E/DX2                !
 ! D44   D(8,7,13,16)         -179.9997         estimate D2E/DX2                !
 ! D45   D(7,8,9,6)             -0.0006         estimate D2E/DX2                !
 ! D46   D(7,8,9,21)           179.9994         estimate D2E/DX2                !
 ! D47   D(10,8,9,6)           179.9969         estimate D2E/DX2                !
 ! D48   D(10,8,9,21)           -0.0031         estimate D2E/DX2                !
 ! D49   D(7,8,10,11)           -0.0001         estimate D2E/DX2                !
 ! D50   D(7,8,10,22)          179.9993         estimate D2E/DX2                !
 ! D51   D(9,8,10,11)         -179.9972         estimate D2E/DX2                !
 ! D52   D(9,8,10,22)            0.0023         estimate D2E/DX2                !
 ! D53   D(6,9,21,31)            0.0016         estimate D2E/DX2                !
 ! D54   D(6,9,21,32)         -179.998          estimate D2E/DX2                !
 ! D55   D(8,9,21,31)         -179.9983         estimate D2E/DX2                !
 ! D56   D(8,9,21,32)            0.0021         estimate D2E/DX2                !
 ! D57   D(8,10,11,12)           0.0001         estimate D2E/DX2                !
 ! D58   D(8,10,11,23)         179.9999         estimate D2E/DX2                !
 ! D59   D(22,10,11,12)       -179.9993         estimate D2E/DX2                !
 ! D60   D(22,10,11,23)          0.0006         estimate D2E/DX2                !
 ! D61   D(8,10,22,32)          -0.0009         estimate D2E/DX2                !
 ! D62   D(8,10,22,36)         179.9977         estimate D2E/DX2                !
 ! D63   D(11,10,22,32)        179.9984         estimate D2E/DX2                !
 ! D64   D(11,10,22,36)         -0.0029         estimate D2E/DX2                !
 ! D65   D(10,11,12,13)          0.0005         estimate D2E/DX2                !
 ! D66   D(10,11,12,14)        179.9996         estimate D2E/DX2                !
 ! D67   D(23,11,12,13)       -179.9994         estimate D2E/DX2                !
 ! D68   D(23,11,12,14)         -0.0003         estimate D2E/DX2                !
 ! D69   D(11,12,13,7)          -0.0009         estimate D2E/DX2                !
 ! D70   D(11,12,13,16)        179.9996         estimate D2E/DX2                !
 ! D71   D(14,12,13,7)        -180.0            estimate D2E/DX2                !
 ! D72   D(14,12,13,16)          0.0005         estimate D2E/DX2                !
 ! D73   D(11,12,14,15)        179.9995         estimate D2E/DX2                !
 ! D74   D(11,12,14,24)         -0.0009         estimate D2E/DX2                !
 ! D75   D(13,12,14,15)         -0.0014         estimate D2E/DX2                !
 ! D76   D(13,12,14,24)        179.9982         estimate D2E/DX2                !
 ! D77   D(7,13,16,17)        -179.9986         estimate D2E/DX2                !
 ! D78   D(7,13,16,25)           0.0011         estimate D2E/DX2                !
 ! D79   D(12,13,16,17)          0.0009         estimate D2E/DX2                !
 ! D80   D(12,13,16,25)       -179.9994         estimate D2E/DX2                !
 ! D81   D(12,14,15,17)          0.001          estimate D2E/DX2                !
 ! D82   D(12,14,15,27)        179.9996         estimate D2E/DX2                !
 ! D83   D(24,14,15,17)       -179.9986         estimate D2E/DX2                !
 ! D84   D(24,14,15,27)          0.0            estimate D2E/DX2                !
 ! D85   D(14,15,17,16)          0.0005         estimate D2E/DX2                !
 ! D86   D(14,15,17,26)       -179.9982         estimate D2E/DX2                !
 ! D87   D(27,15,17,16)       -179.9982         estimate D2E/DX2                !
 ! D88   D(27,15,17,26)          0.0032         estimate D2E/DX2                !
 ! D89   D(13,16,17,15)         -0.0014         estimate D2E/DX2                !
 ! D90   D(13,16,17,26)        179.9972         estimate D2E/DX2                !
 ! D91   D(25,16,17,15)        179.9989         estimate D2E/DX2                !
 ! D92   D(25,16,17,26)         -0.0024         estimate D2E/DX2                !
 ! D93   D(5,20,31,21)          -0.0009         estimate D2E/DX2                !
 ! D94   D(5,20,31,34)         179.9991         estimate D2E/DX2                !
 ! D95   D(33,20,31,21)       -179.9998         estimate D2E/DX2                !
 ! D96   D(33,20,31,34)          0.0001         estimate D2E/DX2                !
 ! D97   D(9,21,31,20)           0.0004         estimate D2E/DX2                !
 ! D98   D(9,21,31,34)        -179.9996         estimate D2E/DX2                !
 ! D99   D(32,21,31,20)        179.9999         estimate D2E/DX2                !
 ! D100  D(32,21,31,34)         -0.0001         estimate D2E/DX2                !
 ! D101  D(9,21,32,22)          -0.0005         estimate D2E/DX2                !
 ! D102  D(9,21,32,35)        -179.9987         estimate D2E/DX2                !
 ! D103  D(31,21,32,22)        179.9999         estimate D2E/DX2                !
 ! D104  D(31,21,32,35)          0.0018         estimate D2E/DX2                !
 ! D105  D(10,22,32,21)          0.0001         estimate D2E/DX2                !
 ! D106  D(10,22,32,35)        179.9982         estimate D2E/DX2                !
 ! D107  D(36,22,32,21)       -179.9986         estimate D2E/DX2                !
 ! D108  D(36,22,32,35)         -0.0005         estimate D2E/DX2                !
 --------------------------------------------------------------------------------
 Trust Radius=3.00D-01 FncErr=1.00D-07 GrdErr=1.00D-06
 Number of steps in this run=    216 maximum allowed number of steps=    216.
 GradGradGradGradGradGradGradGradGradGradGradGradGradGradGradGradGradGrad

                          Input orientation:                          
 ---------------------------------------------------------------------
 Center     Atomic      Atomic             Coordinates (Angstroms)
 Number     Number       Type             X           Y           Z
 ---------------------------------------------------------------------
      1          6           0       -2.014020    3.066760    0.000010
      2          6           0       -0.674070    2.532290    0.000050
      3          6           0       -0.515730    1.141950    0.000060
      4          6           0       -3.162600    2.302660    0.000020
      5          6           0       -3.050360    0.887250    0.000030
      6          6           0       -1.743100    0.411530    0.000050
      7          6           0        0.575260    0.092860   -0.000030
      8          6           0       -0.095620   -1.142650   -0.000040
      9          6           0       -1.485500   -0.956240    0.000000
     10          6           0        0.442370   -2.437780   -0.000030
     11          6           0        1.836400   -2.495770   -0.000010
     12          6           0        2.600010   -1.305620    0.000000
     13          6           0        1.990940    0.024280    0.000000
     14          6           0        4.024380   -1.395660    0.000030
     15          6           0        4.816270   -0.280680    0.000030
     16          6           0        2.859480    1.150940    0.000020
     17          6           0        4.222150    1.006140    0.000020
     18          1           0       -2.100890    4.146500   -0.000020
     19          1           0       -4.131560    2.790130    0.000000
     20          6           0       -4.078890   -0.122270    0.000010
     21          6           0       -2.435340   -1.953080   -0.000010
     22          6           0       -0.530320   -3.515260   -0.000030
     23          1           0        2.359720   -3.446900    0.000000
     24          1           0        4.472460   -2.383850    0.000060
     25          1           0        2.423270    2.138610    0.000030
     26          1           0        4.855680    1.886400   -0.000010
     27          1           0        5.896060   -0.376590    0.000060
     28          6           0        0.374430    3.497950   -0.000030
     29          6           0        1.186000    4.388870   -0.000100
     30          1           0        1.919390    5.157620   -0.000160
     31          6           0       -3.792810   -1.476220    0.000000
     32          6           0       -1.888700   -3.294580   -0.000020
     33          1           0       -5.117390    0.192460    0.000020
     34          1           0       -4.613430   -2.186180    0.000000
     35          1           0       -2.560680   -4.146550   -0.000050
     36          1           0       -0.166400   -4.537640   -0.000060
 ---------------------------------------------------------------------
                    Distance matrix (angstroms):
                    1          2          3          4          5
     1  C    0.000000
     2  C    1.442610   0.000000
     3  C    2.439214   1.399327   0.000000
     4  C    1.379523   2.499102   2.890185   0.000000
     5  C    2.413351   2.890140   2.547395   1.419853   0.000000
     6  C    2.669016   2.374963   1.428268   2.364604   1.391128
     7  C    3.943153   2.740738   1.513555   4.342213   3.711627
     8  C    4.625948   3.720187   2.322905   4.612649   3.584827
     9  C    4.057569   3.581656   2.311462   3.665119   2.418107
    10  C    6.027754   5.093921   3.705728   5.955466   4.822343
    11  C    6.765166   5.619951   4.331919   6.929281   5.943505
    12  C    6.356648   5.044715   3.962125   6.799070   6.060970
    13  C    5.029552   3.659562   2.744555   5.634713   5.114628
    14  C    7.508360   6.124069   5.201160   8.082713   7.433951
    15  C    7.606459   6.169006   5.518523   8.386657   7.952857
    16  C    5.236542   3.793956   3.375222   6.131224   5.915720
    17  C    6.567798   5.128558   4.739826   7.497699   7.273482
    18  H    1.083229   2.154412   3.397065   2.127669   3.394732
    19  H    2.135533   3.467091   3.973754   1.084671   2.188594
    20  C    3.799158   4.317347   3.780788   2.592272   1.441182
    21  C    5.037490   4.818777   3.641993   4.317433   2.906153
    22  C    6.747174   6.049258   4.657233   6.385694   5.072740
    23  H    7.845850   6.704819   5.415326   7.972042   6.932086
    24  H    8.472519   7.117247   6.108462   8.958656   8.203226
    25  H    4.533322   3.122259   3.103394   5.588278   5.614849
    26  H    6.970368   5.567343   5.422753   8.029078   7.968925
    27  H    8.627052   7.185276   6.589159   9.446571   9.035249
    28  C    2.427060   1.425430   2.518555   3.733537   4.306384
    29  C    3.462384   2.628070   3.665839   4.823131   5.496189
    30  H    4.454594   3.690311   4.696319   5.829015   6.552440
    31  C    4.878807   5.078847   4.194528   3.831070   2.477342
    32  C    6.362574   5.952121   4.644119   5.740376   4.340179
    33  H    4.229953   5.021742   4.698596   2.876482   2.180676
    34  H    5.860914   6.146748   5.278977   4.717477   3.448066
    35  H    7.233995   6.940187   5.670102   6.477238   5.057562
    36  H    7.825637   7.088134   5.690323   7.467725   6.143831
                    6          7          8          9         10
     6  C    0.000000
     7  C    2.340159   0.000000
     8  C    2.264877   1.405904   0.000000
     9  C    1.391816   2.312432   1.402325   0.000000
    10  C    3.590940   2.534127   1.402425   2.431387   0.000000
    11  C    4.611422   2.879493   2.358736   3.661307   1.395236
    12  C    4.670247   2.460764   2.700552   4.100422   2.436636
    13  C    3.754067   1.417340   2.390702   3.612071   2.908575
    14  C    6.043986   3.756610   4.127761   5.527374   3.730524
    15  C    6.595793   4.257429   4.986949   6.337877   4.876893
    16  C    4.661595   2.517378   3.740745   4.828981   4.326815
    17  C    5.994812   3.759506   4.822907   6.035578   5.113445
    18  H    3.752068   4.857342   5.656520   5.139714   7.058393
    19  H    3.370828   5.424889   5.635208   4.586602   6.946357
    20  C    2.396009   4.659119   4.111887   2.724184   5.079703
    21  C    2.463854   3.639998   2.476103   1.376912   2.918244
    22  C    4.109807   3.773703   2.412103   2.731474   1.451582
    23  H    5.632106   3.964114   3.367234   4.581387   2.166692
    24  H    6.815228   4.617603   4.733702   6.126611   4.030451
    25  H    4.510149   2.756852   4.136602   4.985637   4.986713
    26  H    6.761593   4.640989   5.804353   6.949185   6.178660
    27  H    7.679707   5.341469   6.040453   7.404284   5.830201
    28  C    3.742983   3.411007   4.664345   4.826919   5.936119
    29  C    4.939520   4.339206   5.678051   5.975543   6.867033
    30  H    5.994931   5.240084   6.614656   6.998040   7.737680
    31  C    2.786559   4.641341   3.712207   2.365176   4.342965
    32  C    3.708969   4.188777   2.801060   2.372847   2.483545
    33  H    3.381394   5.693521   5.196219   3.809217   6.150536
    34  H    3.871291   5.667145   4.636762   3.361056   5.062057
    35  H    4.630824   5.273207   3.885864   3.366614   3.455171
    36  H    5.194253   4.689519   3.395728   3.816602   2.186324
                   11         12         13         14         15
    11  C    0.000000
    12  C    1.414057   0.000000
    13  C    2.524784   1.462737   0.000000
    14  C    2.448979   1.427213   2.480143   0.000000
    15  C    3.712984   2.441784   2.841741   1.367578   0.000000
    16  C    3.787504   2.470225   1.422577   2.800386   2.424575
    17  C    4.237355   2.824106   2.437693   2.409929   1.417351
    18  H    7.721529   7.198894   5.808250   8.260416   8.212614
    19  H    7.972282   7.879670   6.718254   9.167344   9.460102
    20  C    6.373708   6.782921   6.071599   8.202713   8.896570
    21  C    4.306074   5.076805   4.847877   6.483726   7.441960
    22  C    2.576960   3.831641   4.345698   5.023743   6.248882
    23  H    1.085593   2.154720   3.490715   2.641719   4.007441
    24  H    2.638435   2.160706   3.457894   1.085032   2.131086
    25  H    4.671391   3.448762   2.158078   3.880028   3.402854
    26  H    5.321604   3.908585   3.416757   3.385702   2.167438
    27  H    4.579494   3.424477   3.925641   2.131124   1.084041
    28  C    6.169444   5.294100   3.831382   6.104880   5.831637
    29  C    6.915294   5.867422   4.438195   6.443383   5.914690
    30  H    7.653840   6.498978   5.133839   6.883056   6.161738
    31  C    5.720794   6.395096   5.975221   7.817605   8.691696
    32  C    3.809786   4.909631   5.105530   6.210508   7.351205
    33  H    7.455319   7.861457   7.110319   9.278690   9.944921
    34  H    6.457256   7.266987   6.964470   8.673908   9.620300
    35  H    4.696742   5.890977   6.173578   7.136555   8.328526
    36  H    2.860147   4.254289   5.046309   5.237812   6.553526
                   16         17         18         19         20
    16  C    0.000000
    17  C    1.370342   0.000000
    18  H    5.794709   7.059936   0.000000
    19  H    7.180640   8.542078   2.441999   0.000000
    20  C    7.054222   8.377385   4.704772   2.912876   0.000000
    21  C    6.137594   7.285544   6.108742   5.037381   2.460309
    22  C    5.767510   6.559652   7.821078   7.261327   4.909657
    23  H    4.624921   4.826822   8.806632   9.002070   7.246300
    24  H    3.885414   3.399219   9.265765  10.039882   8.845356
    25  H    1.079709   2.125666   4.949712   6.587129   6.884015
    26  H    2.127373   1.084536   7.314501   9.032564   9.157581
    27  H    3.399142   2.171156   9.187467  10.515763   9.978192
    28  C    3.418176   4.584110   2.558872   4.561245   5.739168
    29  C    3.644822   4.545445   3.295814   5.552694   6.933214
    30  H    4.115490   4.747367   4.145481   6.497615   7.991033
    31  C    7.152268   8.390572   5.871761   4.279777   1.383843
    32  C    6.504449   7.472528   7.444105   6.484915   3.854930
    33  H    8.034248   9.374918   4.973299   2.778444   1.085144
    34  H    8.184177   9.394593   6.812906   4.999586   2.132008
    35  H    7.579019   8.518040   8.305786   7.112327   4.301138
    36  H    6.443283   7.070563   8.896996   8.331789   5.899413
                   21         22         23         24         25
    21  C    0.000000
    22  C    2.463637   0.000000
    23  H    5.022360   2.890848   0.000000
    24  H    6.921218   5.129122   2.365110   0.000000
    25  H    6.352009   6.378867   5.585872   4.965060   0.000000
    26  H    8.240181   7.628036   5.888455   4.287411   2.445451
    27  H    8.479242   7.151896   4.683215   2.460839   4.287948
    28  C    6.132580   7.071329   7.223041   7.168642   2.458770
    29  C    7.303043   8.088326   7.923188   7.527985   2.567977
    30  H    8.338209   9.012210   8.615779   7.961905   3.060771
    31  C    1.438791   3.847275   6.460434   8.314955   7.190733
    32  C    1.448598   1.376189   4.251150   6.426024   6.936327
    33  H    3.434637   5.898169   8.315775   9.929884   7.787750
    34  H    2.190528   4.293977   7.086200   9.088040   8.259477
    35  H    2.197048   2.126238   4.969894   7.250667   8.021408
    36  H    3.439192   1.085218   2.751544   5.114473   7.160915
                   26         27         28         29         30
    26  H    0.000000
    27  H    2.490686   0.000000
    28  C    4.762215   6.745403   0.000000
    29  C    4.441723   6.700319   1.205149   0.000000
    30  H    4.395757   6.814792   2.267467   1.062468   0.000000
    31  C    9.279202   9.751071   6.489087   7.693363   8.754260
    32  C    8.504658   8.313673   7.159624   8.275819   9.270450
    33  H   10.115906  11.028141   6.409864   7.572489   8.612148
    34  H   10.307762  10.664145   7.562280   8.767250   9.828995
    35  H    9.560276   9.258998   8.188605   9.321535  10.326597
    36  H    8.154114   7.353078   8.053770   9.028376   9.917086
                   31         32         33         34         35
    31  C    0.000000
    32  C    2.632882   0.000000
    33  H    2.130494   4.752251   0.000000
    34  H    1.085108   2.941548   2.431441   0.000000
    35  H    2.940885   1.085085   5.036246   2.838456   0.000000
    36  H    4.745855   2.124033   6.847346   5.030451   2.426011
                   36
    36  H    0.000000
 Stoichiometry    C24H12
 Framework group  C1[X(C24H12)]
 Deg. of freedom   102
 Full point group                 C1      NOp   1
 Largest Abelian subgroup         C1      NOp   1
 Largest concise Abelian subgroup C1      NOp   1
                         Standard orientation:                         
 ---------------------------------------------------------------------
 Center     Atomic      Atomic             Coordinates (Angstroms)
 Number     Number       Type             X           Y           Z
 ---------------------------------------------------------------------
      1          6           0        2.014022    3.066759   -0.000010
      2          6           0        0.674072    2.532289   -0.000050
      3          6           0        0.515731    1.141949   -0.000060
      4          6           0        3.162601    2.302658   -0.000020
      5          6           0        3.050361    0.887248   -0.000030
      6          6           0        1.743100    0.411529   -0.000050
      7          6           0       -0.575260    0.092860    0.000030
      8          6           0        0.095619   -1.142650    0.000040
      9          6           0        1.485499   -0.956241    0.000000
     10          6           0       -0.442371   -2.437780    0.000030
     11          6           0       -1.836401   -2.495769    0.000010
     12          6           0       -2.600011   -1.305619    0.000000
     13          6           0       -1.990940    0.024281    0.000000
     14          6           0       -4.024381   -1.395658   -0.000030
     15          6           0       -4.816270   -0.280677   -0.000030
     16          6           0       -2.859479    1.150942   -0.000020
     17          6           0       -4.222149    1.006142   -0.000020
     18          1           0        2.100893    4.146499    0.000020
     19          1           0        4.131562    2.790127    0.000000
     20          6           0        4.078890   -0.122273   -0.000010
     21          6           0        2.435339   -1.953082    0.000010
     22          6           0        0.530318   -3.515261    0.000030
     23          1           0       -2.359722   -3.446899    0.000000
     24          1           0       -4.472461   -2.383847   -0.000060
     25          1           0       -2.423269    2.138611   -0.000030
     26          1           0       -4.855679    1.886403    0.000010
     27          1           0       -5.896060   -0.376587   -0.000060
     28          6           0       -0.374428    3.497950    0.000030
     29          6           0       -1.185997    4.388871    0.000100
     30          1           0       -1.919387    5.157621    0.000160
     31          6           0        3.792809   -1.476222    0.000000
     32          6           0        1.888698   -3.294581    0.000020
     33          1           0        5.117390    0.192457   -0.000020
     34          1           0        4.613429   -2.186183    0.000000
     35          1           0        2.560678   -4.146552    0.000050
     36          1           0        0.166397   -4.537640    0.000060
 ---------------------------------------------------------------------
 Rotational constants (GHZ):      0.3673495      0.2538610      0.1501193
 Standard basis: 6-311+G(d,p) (5D, 7F)
 There are   624 symmetry adapted cartesian basis functions of A   symmetry.
 There are   600 symmetry adapted basis functions of A   symmetry.
   600 basis functions,   960 primitive gaussians,   624 cartesian basis functions
    78 alpha electrons       78 beta electrons
       nuclear repulsion energy      1779.9929403590 Hartrees.
 NAtoms=   36 NActive=   36 NUniq=   36 SFac= 1.00D+00 NAtFMM=   60 NAOKFM=F Big=F
 Integral buffers will be    131072 words long.
 Raffenetti 2 integral format.
 Two-electron integral symmetry is turned on.
 One-electron integrals computed using PRISM.
 NBasis=   600 RedAO= T EigKep=  1.15D-06  NBF=   600
 NBsUse=   583 1.00D-06 EigRej=  7.01D-07 NBFU=   583
 ExpMin= 4.38D-02 ExpMax= 4.56D+03 ExpMxC= 6.82D+02 IAcc=2 IRadAn=         4 AccDes= 0.00D+00
 Harris functional with IExCor=  402 and IRadAn=       4 diagonalized for initial guess.
 HarFok:  IExCor=  402 AccDes= 0.00D+00 IRadAn=         4 IDoV= 1 UseB2=F ITyADJ=14
 ICtDFT=  3500011 ScaDFX=  1.000000  1.000000  1.000000  1.000000
 FoFCou: FMM=F IPFlag=           0 FMFlag=      100000 FMFlg1=           0
         NFxFlg=           0 DoJE=T BraDBF=F KetDBF=T FulRan=T
         wScrn=  0.000000 ICntrl=     500 IOpCl=  0 I1Cent=   200000004 NGrid=           0
         NMat0=    1 NMatS0=      1 NMatT0=    0 NMatD0=    1 NMtDS0=    0 NMtDT0=    0
 Petite list used in FoFCou.
 Requested convergence on RMS density matrix=1.00D-08 within 128 cycles.
 Requested convergence on MAX density matrix=1.00D-06.
 Requested convergence on             energy=1.00D-06.
 No special actions if energy rises.
 SCF Done:  E(RB3LYP) =  -921.953791293     A.U. after   15 cycles
            NFock= 15  Conv=0.81D-08     -V/T= 2.0044

 **********************************************************************

            Population analysis using the SCF density.

 **********************************************************************

 Orbital symmetries:
       Occupied  (A) (A) (A) (A) (A) (A) (A) (A) (A) (A) (A) (A)
                 (A) (A) (A) (A) (A) (A) (A) (A) (A) (A) (A) (A)
                 (A) (A) (A) (A) (A) (A) (A) (A) (A) (A) (A) (A)
                 (A) (A) (A) (A) (A) (A) (A) (A) (A) (A) (A) (A)
                 (A) (A) (A) (A) (A) (A) (A) (A) (A) (A) (A) (A)
                 (A) (A) (A) (A) (A) (A) (A) (A) (A) (A) (A) (A)
                 (A) (A) (A) (A) (A) (A)
       Virtual   (A) (A) (A) (A) (A) (A) (A) (A) (A) (A) (A) (A)
                 (A) (A) (A) (A) (A) (A) (A) (A) (A) (A) (A) (A)
                 (A) (A) (A) (A) (A) (A) (A) (A) (A) (A) (A) (A)
                 (A) (A) (A) (A) (A) (A) (A) (A) (A) (A) (A) (A)
                 (A) (A) (A) (A) (A) (A) (A) (A) (A) (A) (A) (A)
                 (A) (A) (A) (A) (A) (A) (A) (A) (A) (A) (A) (A)
                 (A) (A) (A) (A) (A) (A) (A) (A) (A) (A) (A) (A)
                 (A) (A) (A) (A) (A) (A) (A) (A) (A) (A) (A) (A)
                 (A) (A) (A) (A) (A) (A) (A) (A) (A) (A) (A) (A)
                 (A) (A) (A) (A) (A) (A) (A) (A) (A) (A) (A) (A)
                 (A) (A) (A) (A) (A) (A) (A) (A) (A) (A) (A) (A)
                 (A) (A) (A) (A) (A) (A) (A) (A) (A) (A) (A) (A)
                 (A) (A) (A) (A) (A) (A) (A) (A) (A) (A) (A) (A)
                 (A) (A) (A) (A) (A) (A) (A) (A) (A) (A) (A) (A)
                 (A) (A) (A) (A) (A) (A) (A) (A) (A) (A) (A) (A)
                 (A) (A) (A) (A) (A) (A) (A) (A) (A) (A) (A) (A)
                 (A) (A) (A) (A) (A) (A) (A) (A) (A) (A) (A) (A)
                 (A) (A) (A) (A) (A) (A) (A) (A) (A) (A) (A) (A)
                 (A) (A) (A) (A) (A) (A) (A) (A) (A) (A) (A) (A)
                 (A) (A) (A) (A) (A) (A) (A) (A) (A) (A) (A) (A)
                 (A) (A) (A) (A) (A) (A) (A) (A) (A) (A) (A) (A)
                 (A) (A) (A) (A) (A) (A) (A) (A) (A) (A) (A) (A)
                 (A) (A) (A) (A) (A) (A) (A) (A) (A) (A) (A) (A)
                 (A) (A) (A) (A) (A) (A) (A) (A) (A) (A) (A) (A)
                 (A) (A) (A) (A) (A) (A) (A) (A) (A) (A) (A) (A)
                 (A) (A) (A) (A) (A) (A) (A) (A) (A) (A) (A) (A)
                 (A) (A) (A) (A) (A) (A) (A) (A) (A) (A) (A) (A)
                 (A) (A) (A) (A) (A) (A) (A) (A) (A) (A) (A) (A)
                 (A) (A) (A) (A) (A) (A) (A) (A) (A) (A) (A) (A)
                 (A) (A) (A) (A) (A) (A) (A) (A) (A) (A) (A) (A)
                 (A) (A) (A) (A) (A) (A) (A) (A) (A) (A) (A) (A)
                 (A) (A) (A) (A) (A) (A) (A) (A) (A) (A) (A) (A)
                 (A) (A) (A) (A) (A) (A) (A) (A) (A) (A) (A) (A)
                 (A) (A) (A) (A) (A) (A) (A) (A) (A) (A) (A) (A)
                 (A) (A) (A) (A) (A) (A) (A) (A) (A) (A) (A) (A)
                 (A) (A) (A) (A) (A) (A) (A) (A) (A) (A) (A) (A)
                 (A) (A) (A) (A) (A) (A) (A) (A) (A) (A) (A) (A)
                 (A) (A) (A) (A) (A) (A) (A) (A) (A) (A) (A) (A)
                 (A) (A) (A) (A) (A) (A) (A) (A) (A) (A) (A) (A)
                 (A) (A) (A) (A) (A) (A) (A) (A) (A) (A) (A) (A)
                 (A) (A) (A) (A) (A) (A) (A) (A) (A) (A) (A) (A)
                 (A) (A) (A) (A) (A) (A) (A) (A) (A) (A) (A) (A)
                 (A)
 The electronic state is 1-A.
 Alpha  occ. eigenvalues --  -10.22169 -10.20668 -10.20117 -10.19767 -10.19690
 Alpha  occ. eigenvalues --  -10.19679 -10.19554 -10.19345 -10.19323 -10.19280
 Alpha  occ. eigenvalues --  -10.19265 -10.19246 -10.19207 -10.19184 -10.19165
 Alpha  occ. eigenvalues --  -10.18867 -10.18214 -10.18081 -10.17978 -10.17929
 Alpha  occ. eigenvalues --  -10.17455 -10.17349 -10.17324 -10.16939  -0.92187
 Alpha  occ. eigenvalues --   -0.88026  -0.86346  -0.84132  -0.82193  -0.80637
 Alpha  occ. eigenvalues --   -0.78284  -0.77078  -0.75229  -0.73466  -0.72969
 Alpha  occ. eigenvalues --   -0.71571  -0.66977  -0.64837  -0.63654  -0.62507
 Alpha  occ. eigenvalues --   -0.60432  -0.58647  -0.57701  -0.55988  -0.53342
 Alpha  occ. eigenvalues --   -0.52925  -0.51844  -0.50232  -0.49153  -0.48469
 Alpha  occ. eigenvalues --   -0.47223  -0.45102  -0.44778  -0.44250  -0.43627
 Alpha  occ. eigenvalues --   -0.43396  -0.43058  -0.42221  -0.41011  -0.40594
 Alpha  occ. eigenvalues --   -0.39601  -0.39570  -0.37930  -0.37549  -0.35830
 Alpha  occ. eigenvalues --   -0.35126  -0.34909  -0.34055  -0.33521  -0.33028
 Alpha  occ. eigenvalues --   -0.31921  -0.29264  -0.28952  -0.27877  -0.25978
 Alpha  occ. eigenvalues --   -0.23602  -0.22995  -0.20973
 Alpha virt. eigenvalues --   -0.09840  -0.05925  -0.03416  -0.02582   0.00166
 Alpha virt. eigenvalues --    0.00491   0.00591   0.00787   0.01185   0.01400
 Alpha virt. eigenvalues --    0.01834   0.02375   0.02813   0.03118   0.03178
 Alpha virt. eigenvalues --    0.03945   0.04051   0.05082   0.05192   0.05829
 Alpha virt. eigenvalues --    0.05947   0.06075   0.06308   0.06890   0.07539
 Alpha virt. eigenvalues --    0.07806   0.08550   0.08551   0.08776   0.08780
 Alpha virt. eigenvalues --    0.09702   0.10048   0.10959   0.11035   0.11371
 Alpha virt. eigenvalues --    0.11479   0.11650   0.12659   0.12906   0.13055
 Alpha virt. eigenvalues --    0.13594   0.14004   0.14151   0.14345   0.14743
 Alpha virt. eigenvalues --    0.15147   0.15340   0.16089   0.16222   0.16429
 Alpha virt. eigenvalues --    0.16884   0.17037   0.17193   0.17513   0.17572
 Alpha virt. eigenvalues --    0.17911   0.17968   0.18617   0.18723   0.18781
 Alpha virt. eigenvalues --    0.19243   0.19866   0.19919   0.20007   0.20315
 Alpha virt. eigenvalues --    0.20713   0.20851   0.20868   0.21633   0.21866
 Alpha virt. eigenvalues --    0.21990   0.22009   0.22586   0.22820   0.23216
 Alpha virt. eigenvalues --    0.23391   0.23608   0.23811   0.24059   0.24539
 Alpha virt. eigenvalues --    0.24732   0.24992   0.25030   0.25440   0.25992
 Alpha virt. eigenvalues --    0.26452   0.26982   0.27076   0.27348   0.27597
 Alpha virt. eigenvalues --    0.28358   0.28524   0.28991   0.29164   0.29562
 Alpha virt. eigenvalues --    0.29831   0.29998   0.30646   0.30837   0.31118
 Alpha virt. eigenvalues --    0.32232   0.32487   0.32843   0.33415   0.33648
 Alpha virt. eigenvalues --    0.34499   0.34934   0.35408   0.36425   0.36512
 Alpha virt. eigenvalues --    0.36908   0.37751   0.38211   0.40182   0.40357
 Alpha virt. eigenvalues --    0.40980   0.41396   0.41623   0.42718   0.43457
 Alpha virt. eigenvalues --    0.43894   0.44589   0.45816   0.46491   0.47126
 Alpha virt. eigenvalues --    0.48397   0.48729   0.48958   0.50780   0.51797
 Alpha virt. eigenvalues --    0.52013   0.52368   0.52530   0.53288   0.53542
 Alpha virt. eigenvalues --    0.53630   0.54134   0.55278   0.55447   0.56081
 Alpha virt. eigenvalues --    0.56160   0.56616   0.56858   0.57080   0.57864
 Alpha virt. eigenvalues --    0.57950   0.58476   0.59261   0.59718   0.60311
 Alpha virt. eigenvalues --    0.60444   0.61291   0.61428   0.62588   0.62856
 Alpha virt. eigenvalues --    0.63040   0.63683   0.63977   0.64227   0.64886
 Alpha virt. eigenvalues --    0.65035   0.65982   0.66154   0.66558   0.66674
 Alpha virt. eigenvalues --    0.66810   0.67605   0.68914   0.68955   0.69555
 Alpha virt. eigenvalues --    0.69895   0.69934   0.70671   0.71416   0.71588
 Alpha virt. eigenvalues --    0.72094   0.72149   0.73437   0.73750   0.74147
 Alpha virt. eigenvalues --    0.75068   0.75381   0.75661   0.76768   0.76957
 Alpha virt. eigenvalues --    0.77928   0.78459   0.79253   0.80024   0.81034
 Alpha virt. eigenvalues --    0.82481   0.83061   0.84040   0.84464   0.85534
 Alpha virt. eigenvalues --    0.85721   0.86879   0.87858   0.88726   0.89796
 Alpha virt. eigenvalues --    0.90656   0.91270   0.91998   0.92645   0.92702
 Alpha virt. eigenvalues --    0.94210   0.94308   0.94852   0.95351   0.95451
 Alpha virt. eigenvalues --    0.95685   0.96270   0.96424   0.97027   0.97692
 Alpha virt. eigenvalues --    0.98506   0.98545   0.99452   0.99907   1.00030
 Alpha virt. eigenvalues --    1.01088   1.01376   1.02734   1.03069   1.03470
 Alpha virt. eigenvalues --    1.04449   1.05121   1.05526   1.05924   1.06654
 Alpha virt. eigenvalues --    1.06776   1.07055   1.08570   1.09273   1.10444
 Alpha virt. eigenvalues --    1.10613   1.12821   1.13060   1.13733   1.14246
 Alpha virt. eigenvalues --    1.15172   1.15439   1.15730   1.16385   1.17568
 Alpha virt. eigenvalues --    1.18735   1.19608   1.20312   1.22937   1.25752
 Alpha virt. eigenvalues --    1.26014   1.29942   1.31063   1.33634   1.34583
 Alpha virt. eigenvalues --    1.35948   1.36531   1.38386   1.40258   1.40509
 Alpha virt. eigenvalues --    1.41496   1.43415   1.44084   1.46537   1.47021
 Alpha virt. eigenvalues --    1.47094   1.47967   1.48659   1.48673   1.49094
 Alpha virt. eigenvalues --    1.49732   1.50605   1.51205   1.51890   1.53694
 Alpha virt. eigenvalues --    1.53851   1.54287   1.55300   1.56574   1.56861
 Alpha virt. eigenvalues --    1.57210   1.57619   1.58582   1.58793   1.61287
 Alpha virt. eigenvalues --    1.62995   1.64303   1.64807   1.66712   1.67203
 Alpha virt. eigenvalues --    1.68444   1.69174   1.70271   1.70373   1.70608
 Alpha virt. eigenvalues --    1.71008   1.72836   1.73631   1.73897   1.74599
 Alpha virt. eigenvalues --    1.75488   1.76095   1.76889   1.77908   1.80588
 Alpha virt. eigenvalues --    1.80945   1.81744   1.81851   1.83515   1.84043
 Alpha virt. eigenvalues --    1.84865   1.85215   1.85927   1.86140   1.88075
 Alpha virt. eigenvalues --    1.88466   1.88905   1.90215   1.90624   1.90903
 Alpha virt. eigenvalues --    1.91485   1.93532   1.93616   1.94135   1.94221
 Alpha virt. eigenvalues --    1.96203   1.96228   1.96834   1.98027   1.98429
 Alpha virt. eigenvalues --    1.98924   2.00520   2.02233   2.02835   2.03344
 Alpha virt. eigenvalues --    2.04024   2.04967   2.06278   2.06903   2.08222
 Alpha virt. eigenvalues --    2.09041   2.10799   2.11579   2.13741   2.13796
 Alpha virt. eigenvalues --    2.14053   2.16083   2.17733   2.18120   2.20609
 Alpha virt. eigenvalues --    2.23192   2.23196   2.23337   2.26081   2.26558
 Alpha virt. eigenvalues --    2.27647   2.29862   2.32936   2.34865   2.37103
 Alpha virt. eigenvalues --    2.40527   2.40582   2.42265   2.42513   2.43716
 Alpha virt. eigenvalues --    2.44350   2.45427   2.46917   2.47047   2.49364
 Alpha virt. eigenvalues --    2.54148   2.55092   2.56560   2.57456   2.59470
 Alpha virt. eigenvalues --    2.60815   2.62704   2.63387   2.64905   2.65489
 Alpha virt. eigenvalues --    2.66223   2.67353   2.69518   2.69586   2.70314
 Alpha virt. eigenvalues --    2.71606   2.72389   2.73385   2.73755   2.73848
 Alpha virt. eigenvalues --    2.73940   2.74730   2.75126   2.75913   2.76140
 Alpha virt. eigenvalues --    2.76317   2.76537   2.77081   2.77537   2.78030
 Alpha virt. eigenvalues --    2.79411   2.80570   2.80599   2.82604   2.83015
 Alpha virt. eigenvalues --    2.83304   2.84642   2.85196   2.85396   2.87426
 Alpha virt. eigenvalues --    2.87706   2.89766   2.90243   2.91388   2.91835
 Alpha virt. eigenvalues --    2.93096   2.93895   2.94308   2.96873   2.99571
 Alpha virt. eigenvalues --    3.00154   3.02184   3.05165   3.07768   3.08739
 Alpha virt. eigenvalues --    3.09579   3.12681   3.12910   3.13185   3.16180
 Alpha virt. eigenvalues --    3.19310   3.20325   3.21768   3.23813   3.24838
 Alpha virt. eigenvalues --    3.25642   3.28699   3.32539   3.34019   3.35906
 Alpha virt. eigenvalues --    3.37630   3.39264   3.42953   3.43170   3.45080
 Alpha virt. eigenvalues --    3.45646   3.45816   3.47403   3.48852   3.50691
 Alpha virt. eigenvalues --    3.51888   3.55045   3.56052   3.57600   3.59680
 Alpha virt. eigenvalues --    3.61767   3.64028   3.65632   3.70299   3.79999
 Alpha virt. eigenvalues --    3.81906   3.84722   3.85272   4.03589   4.04561
 Alpha virt. eigenvalues --    4.06570   4.06865   4.07801   4.08173   4.18897
 Alpha virt. eigenvalues --    4.22252   4.24383   4.29770   4.44070   4.55378
 Alpha virt. eigenvalues --    4.77262   4.77968   4.78947   4.82293   4.85981
 Alpha virt. eigenvalues --    4.87982  23.39496  23.57911  23.67876  23.77642
 Alpha virt. eigenvalues --   23.82414  23.84894  23.86718  23.87722  23.93554
 Alpha virt. eigenvalues --   23.95664  23.98575  23.99258  24.00594  24.06365
 Alpha virt. eigenvalues --   24.07426  24.09789  24.12224  24.13741  24.14354
 Alpha virt. eigenvalues --   24.14547  24.15371  24.20742  24.20928  25.15297
          Condensed to atoms (all electrons):
               1          2          3          4          5          6
     1  C   12.691848  -2.691339   0.734466   0.589555  -1.727853   2.123899
     2  C   -2.691339   9.909020  -0.161263  -1.620445  -0.357588  -1.873925
     3  C    0.734466  -0.161263   6.683891   0.156625   0.041576   0.721573
     4  C    0.589555  -1.620445   0.156625   9.294338   0.359455  -0.263694
     5  C   -1.727853  -0.357588   0.041576   0.359455   9.400876   0.034589
     6  C    2.123899  -1.873925   0.721573  -0.263694   0.034589   8.495485
     7  C   -1.520889   1.334976  -0.516424  -0.366965  -0.233593  -1.094694
     8  C   -0.167797  -0.156803   0.192100   0.035634   0.391966  -0.271557
     9  C   -0.367912   0.176629  -0.145547  -0.324355  -0.118738   0.448927
    10  C   -0.412826   0.403302  -0.594436  -0.068992  -0.723095   0.096842
    11  C   -0.065475   0.110622   0.026760   0.018615  -0.085366  -0.095194
    12  C   -0.174831  -0.213639  -0.373029  -0.106270   0.078899  -0.306978
    13  C    0.028686   0.180707   0.329069   0.017745  -0.056358  -0.348531
    14  C    0.050188   0.017944   0.345380  -0.010782   0.058639   0.024838
    15  C   -0.014725   0.000215   0.028453   0.005087   0.003375  -0.092259
    16  C   -0.107325   0.146130   0.202125  -0.077740   0.054395  -0.104555
    17  C   -0.019842   0.043977  -0.313860   0.006417  -0.053924   0.127829
    18  H    0.451676  -0.085797   0.036703  -0.047345  -0.029106  -0.004679
    19  H    0.032604  -0.030385  -0.003942   0.373141  -0.079819   0.043741
    20  C   -0.687915   0.714084  -0.920396  -0.795372  -1.418245  -0.458390
    21  C    0.185474  -0.752775   0.264497   0.132304   0.963190   1.153561
    22  C    0.123257  -0.409702  -0.084593  -0.036919   0.331342  -0.322657
    23  H   -0.000061  -0.000120  -0.002869  -0.000047  -0.000417   0.003742
    24  H   -0.000034  -0.000525   0.000075  -0.000008   0.000007  -0.000259
    25  H    0.004534  -0.002087   0.004873   0.003096   0.001190  -0.009204
    26  H   -0.000146   0.000104   0.000762  -0.000006   0.000029  -0.000264
    27  H    0.000023   0.000147  -0.000034   0.000000  -0.000006   0.000145
    28  C   -2.100837   0.306626  -0.538309  -0.710767  -0.330036  -1.860956
    29  C   -0.038168   0.822937   0.003242   0.024560   0.312190   0.510453
    30  H   -0.004054   0.043733  -0.001419  -0.000340   0.000939   0.002106
    31  C   -0.151459  -0.029311  -0.538026  -0.367977  -1.549941   0.438515
    32  C   -0.134338  -0.064939   0.348395   0.101689   0.402876  -1.011957
    33  H    0.000700   0.016401  -0.010013   0.022351  -0.134272   0.013895
    34  H   -0.001373   0.002567  -0.001876  -0.001107  -0.033549   0.011313
    35  H    0.000388  -0.001119   0.001745   0.000325   0.012442  -0.017663
    36  H   -0.000112   0.000165   0.003942   0.000150   0.001379  -0.004841
               7          8          9         10         11         12
     1  C   -1.520889  -0.167797  -0.367912  -0.412826  -0.065475  -0.174831
     2  C    1.334976  -0.156803   0.176629   0.403302   0.110622  -0.213639
     3  C   -0.516424   0.192100  -0.145547  -0.594436   0.026760  -0.373029
     4  C   -0.366965   0.035634  -0.324355  -0.068992   0.018615  -0.106270
     5  C   -0.233593   0.391966  -0.118738  -0.723095  -0.085366   0.078899
     6  C   -1.094694  -0.271557   0.448927   0.096842  -0.095194  -0.306978
     7  C    7.925409  -0.091223  -0.196544   1.052916   0.635768   0.179117
     8  C   -0.091223   7.045684   0.639517  -0.240307   0.116615  -0.277164
     9  C   -0.196544   0.639517   7.317366  -0.758322  -0.852914  -0.538556
    10  C    1.052916  -0.240307  -0.758322  10.264785   1.333086  -0.435854
    11  C    0.635768   0.116615  -0.852914   1.333086   7.408427   1.209147
    12  C    0.179117  -0.277164  -0.538556  -0.435854   1.209147  10.749151
    13  C    0.982988  -0.357103  -0.205900  -0.666881   0.206988   0.515905
    14  C   -0.622365  -0.758586   0.238477  -0.254895  -1.767582  -2.460142
    15  C   -0.181778  -0.217306  -0.080070  -0.350502  -0.502601  -0.803766
    16  C   -0.850569  -0.425387  -0.318659  -0.395778  -0.592357  -0.929980
    17  C   -0.056550   0.493926  -0.016653  -0.083691   0.189018   0.865798
    18  H   -0.000788   0.002077   0.000933   0.000169   0.000030  -0.000233
    19  H   -0.002811   0.002078  -0.013236  -0.000863  -0.000060   0.000092
    20  C    0.218643  -0.714503   0.838831   0.266763  -0.026699  -0.016446
    21  C   -0.350825  -0.083991   0.397699   0.385446  -0.193747  -0.318197
    22  C   -1.010487   0.789199   1.469286  -2.215233  -1.789211  -1.105224
    23  H   -0.015451   0.030441  -0.010091  -0.034915   0.368563  -0.073370
    24  H   -0.002364  -0.000008   0.001451   0.052351   0.081939  -0.138988
    25  H    0.042769  -0.016641  -0.001025   0.008624   0.006087   0.002515
    26  H   -0.007671   0.003942  -0.000292  -0.000179   0.003582   0.014203
    27  H    0.004595   0.002824   0.000215   0.005179   0.012132   0.060188
    28  C    1.865854  -0.045111  -0.075735   0.301638   0.035212   0.321754
    29  C   -0.825592   0.083453   0.071161  -0.112514   0.012017  -0.109524
    30  H   -0.002646   0.000172   0.000315  -0.000084   0.000029  -0.000235
    31  C    0.070043  -1.153878  -0.629374   0.490822   0.091627   0.003039
    32  C   -0.444176   1.191455  -0.873929  -1.498701   0.131290  -0.136160
    33  H    0.005576  -0.000696   0.007038   0.003952   0.000283   0.000184
    34  H    0.003482  -0.016763   0.037680   0.010374   0.000295  -0.000367
    35  H   -0.001575   0.008308   0.034975  -0.031493  -0.006855   0.000946
    36  H   -0.005058   0.023297  -0.007004  -0.091131   0.058537   0.026357
              13         14         15         16         17         18
     1  C    0.028686   0.050188  -0.014725  -0.107325  -0.019842   0.451676
     2  C    0.180707   0.017944   0.000215   0.146130   0.043977  -0.085797
     3  C    0.329069   0.345380   0.028453   0.202125  -0.313860   0.036703
     4  C    0.017745  -0.010782   0.005087  -0.077740   0.006417  -0.047345
     5  C   -0.056358   0.058639   0.003375   0.054395  -0.053924  -0.029106
     6  C   -0.348531   0.024838  -0.092259  -0.104555   0.127829  -0.004679
     7  C    0.982988  -0.622365  -0.181778  -0.850569  -0.056550  -0.000788
     8  C   -0.357103  -0.758586  -0.217306  -0.425387   0.493926   0.002077
     9  C   -0.205900   0.238477  -0.080070  -0.318659  -0.016653   0.000933
    10  C   -0.666881  -0.254895  -0.350502  -0.395778  -0.083691   0.000169
    11  C    0.206988  -1.767582  -0.502601  -0.592357   0.189018   0.000030
    12  C    0.515905  -2.460142  -0.803766  -0.929980   0.865798  -0.000233
    13  C    7.321071  -0.739727   0.643804  -0.172013  -0.881157   0.001399
    14  C   -0.739727  10.981668   0.530093   2.053920  -1.474268  -0.000064
    15  C    0.643804   0.530093   6.785492   0.010748   0.361495   0.000003
    16  C   -0.172013   2.053920   0.010748   9.376666  -1.830799   0.000630
    17  C   -0.881157  -1.474268   0.361495  -1.830799   8.850016   0.000300
    18  H    0.001399  -0.000064   0.000003   0.000630   0.000300   0.537613
    19  H    0.000160   0.000007  -0.000002  -0.000179  -0.000016  -0.008486
    20  C   -0.062188  -0.008048  -0.000669   0.020302  -0.003337   0.001434
    21  C   -0.372237  -0.161231  -0.026450   0.035468   0.072076  -0.000130
    22  C   -0.592669   0.025608  -0.176132  -0.216584   0.014463  -0.000030
    23  H   -0.020469   0.021634   0.008541   0.002919   0.004362   0.000000
    24  H    0.003449   0.383204  -0.034796  -0.000872  -0.023251   0.000000
    25  H    0.061022  -0.006349  -0.002249   0.418171  -0.210216   0.000007
    26  H    0.043397  -0.022381   0.006408  -0.120665   0.425363   0.000000
    27  H    0.001319  -0.066190   0.358510  -0.011098  -0.022451   0.000000
    28  C    0.301316  -0.081403   0.064704   0.093228  -0.589179   0.077053
    29  C   -0.309882  -0.025163  -0.007673   0.153215   0.510162  -0.067566
    30  H    0.000325  -0.000134  -0.000574   0.002215   0.000570  -0.000062
    31  C   -0.153306  -0.004324   0.000782   0.026852   0.003159  -0.001866
    32  C    0.199731  -0.164676  -0.000273  -0.154637  -0.016221   0.000030
    33  H   -0.000160   0.000006   0.000001   0.000040  -0.000004   0.000001
    34  H   -0.000096  -0.000032  -0.000001   0.000062   0.000005   0.000000
    35  H   -0.000139   0.000241  -0.000016   0.000092   0.000010   0.000000
    36  H    0.008600   0.006391   0.001091  -0.000589  -0.000213   0.000000
              19         20         21         22         23         24
     1  C    0.032604  -0.687915   0.185474   0.123257  -0.000061  -0.000034
     2  C   -0.030385   0.714084  -0.752775  -0.409702  -0.000120  -0.000525
     3  C   -0.003942  -0.920396   0.264497  -0.084593  -0.002869   0.000075
     4  C    0.373141  -0.795372   0.132304  -0.036919  -0.000047  -0.000008
     5  C   -0.079819  -1.418245   0.963190   0.331342  -0.000417   0.000007
     6  C    0.043741  -0.458390   1.153561  -0.322657   0.003742  -0.000259
     7  C   -0.002811   0.218643  -0.350825  -1.010487  -0.015451  -0.002364
     8  C    0.002078  -0.714503  -0.083991   0.789199   0.030441  -0.000008
     9  C   -0.013236   0.838831   0.397699   1.469286  -0.010091   0.001451
    10  C   -0.000863   0.266763   0.385446  -2.215233  -0.034915   0.052351
    11  C   -0.000060  -0.026699  -0.193747  -1.789211   0.368563   0.081939
    12  C    0.000092  -0.016446  -0.318197  -1.105224  -0.073370  -0.138988
    13  C    0.000160  -0.062188  -0.372237  -0.592669  -0.020469   0.003449
    14  C    0.000007  -0.008048  -0.161231   0.025608   0.021634   0.383204
    15  C   -0.000002  -0.000669  -0.026450  -0.176132   0.008541  -0.034796
    16  C   -0.000179   0.020302   0.035468  -0.216584   0.002919  -0.000872
    17  C   -0.000016  -0.003337   0.072076   0.014463   0.004362  -0.023251
    18  H   -0.008486   0.001434  -0.000130  -0.000030   0.000000   0.000000
    19  H    0.539562   0.005977   0.008199   0.000263   0.000000   0.000000
    20  C    0.005977   9.544037  -1.719450  -0.145044   0.000239   0.000007
    21  C    0.008199  -1.719450  10.232954  -1.124709   0.013700  -0.000217
    22  C    0.000263  -0.145044  -1.124709  11.512932   0.026448   0.011348
    23  H    0.000000   0.000239   0.013700   0.026448   0.548279   0.002489
    24  H    0.000000   0.000007  -0.000217   0.011348   0.002489   0.556368
    25  H    0.000000   0.000146  -0.001694   0.000405   0.000009   0.000065
    26  H    0.000000   0.000002   0.000077   0.000011  -0.000001  -0.000320
    27  H    0.000000   0.000000   0.000051   0.000442  -0.000026  -0.008412
    28  C   -0.005790   0.170506  -0.215371  -0.060532  -0.000007   0.000324
    29  C   -0.000909   0.003100   0.089753  -0.008408   0.000014  -0.000157
    30  H    0.000000   0.000035   0.000057  -0.000005   0.000000   0.000000
    31  C    0.011865   1.778848  -0.513664  -0.011231   0.000626  -0.000006
    32  C   -0.000077  -0.692550  -2.217424   1.069272   0.005559   0.001256
    33  H    0.002825   0.424348  -0.018307  -0.001760   0.000000   0.000000
    34  H   -0.000012   0.041640  -0.109192  -0.001899   0.000000   0.000000
    35  H    0.000000   0.001747  -0.102877   0.052833  -0.000016   0.000000
    36  H    0.000000  -0.001812  -0.068170   0.354205   0.003233   0.000003
              25         26         27         28         29         30
     1  C    0.004534  -0.000146   0.000023  -2.100837  -0.038168  -0.004054
     2  C   -0.002087   0.000104   0.000147   0.306626   0.822937   0.043733
     3  C    0.004873   0.000762  -0.000034  -0.538309   0.003242  -0.001419
     4  C    0.003096  -0.000006   0.000000  -0.710767   0.024560  -0.000340
     5  C    0.001190   0.000029  -0.000006  -0.330036   0.312190   0.000939
     6  C   -0.009204  -0.000264   0.000145  -1.860956   0.510453   0.002106
     7  C    0.042769  -0.007671   0.004595   1.865854  -0.825592  -0.002646
     8  C   -0.016641   0.003942   0.002824  -0.045111   0.083453   0.000172
     9  C   -0.001025  -0.000292   0.000215  -0.075735   0.071161   0.000315
    10  C    0.008624  -0.000179   0.005179   0.301638  -0.112514  -0.000084
    11  C    0.006087   0.003582   0.012132   0.035212   0.012017   0.000029
    12  C    0.002515   0.014203   0.060188   0.321754  -0.109524  -0.000235
    13  C    0.061022   0.043397   0.001319   0.301316  -0.309882   0.000325
    14  C   -0.006349  -0.022381  -0.066190  -0.081403  -0.025163  -0.000134
    15  C   -0.002249   0.006408   0.358510   0.064704  -0.007673  -0.000574
    16  C    0.418171  -0.120665  -0.011098   0.093228   0.153215   0.002215
    17  C   -0.210216   0.425363  -0.022451  -0.589179   0.510162   0.000570
    18  H    0.000007   0.000000   0.000000   0.077053  -0.067566  -0.000062
    19  H    0.000000   0.000000   0.000000  -0.005790  -0.000909   0.000000
    20  C    0.000146   0.000002   0.000000   0.170506   0.003100   0.000035
    21  C   -0.001694   0.000077   0.000051  -0.215371   0.089753   0.000057
    22  C    0.000405   0.000011   0.000442  -0.060532  -0.008408  -0.000005
    23  H    0.000009  -0.000001  -0.000026  -0.000007   0.000014   0.000000
    24  H    0.000065  -0.000320  -0.008412   0.000324  -0.000157   0.000000
    25  H    0.542414  -0.009358  -0.000257   0.065446  -0.071337  -0.000127
    26  H   -0.009358   0.546596  -0.007223  -0.005679   0.006390   0.000023
    27  H   -0.000257  -0.007223   0.545127  -0.000330   0.000239   0.000000
    28  C    0.065446  -0.005679  -0.000330  16.574796  -8.435955  -0.302249
    29  C   -0.071337   0.006390   0.000239  -8.435955  13.645369   0.628723
    30  H   -0.000127   0.000023   0.000000  -0.302249   0.628723   0.466901
    31  C   -0.000168   0.000005   0.000001  -0.001887   0.059860   0.000019
    32  C    0.000709  -0.000003  -0.000001   0.004862  -0.019977   0.000000
    33  H    0.000000   0.000000   0.000000   0.000818   0.000015   0.000000
    34  H    0.000000   0.000000   0.000000   0.000113  -0.000003   0.000000
    35  H    0.000000   0.000000   0.000000  -0.000027   0.000006   0.000000
    36  H    0.000000   0.000000   0.000000   0.000038  -0.000008   0.000000
              31         32         33         34         35         36
     1  C   -0.151459  -0.134338   0.000700  -0.001373   0.000388  -0.000112
     2  C   -0.029311  -0.064939   0.016401   0.002567  -0.001119   0.000165
     3  C   -0.538026   0.348395  -0.010013  -0.001876   0.001745   0.003942
     4  C   -0.367977   0.101689   0.022351  -0.001107   0.000325   0.000150
     5  C   -1.549941   0.402876  -0.134272  -0.033549   0.012442   0.001379
     6  C    0.438515  -1.011957   0.013895   0.011313  -0.017663  -0.004841
     7  C    0.070043  -0.444176   0.005576   0.003482  -0.001575  -0.005058
     8  C   -1.153878   1.191455  -0.000696  -0.016763   0.008308   0.023297
     9  C   -0.629374  -0.873929   0.007038   0.037680   0.034975  -0.007004
    10  C    0.490822  -1.498701   0.003952   0.010374  -0.031493  -0.091131
    11  C    0.091627   0.131290   0.000283   0.000295  -0.006855   0.058537
    12  C    0.003039  -0.136160   0.000184  -0.000367   0.000946   0.026357
    13  C   -0.153306   0.199731  -0.000160  -0.000096  -0.000139   0.008600
    14  C   -0.004324  -0.164676   0.000006  -0.000032   0.000241   0.006391
    15  C    0.000782  -0.000273   0.000001  -0.000001  -0.000016   0.001091
    16  C    0.026852  -0.154637   0.000040   0.000062   0.000092  -0.000589
    17  C    0.003159  -0.016221  -0.000004   0.000005   0.000010  -0.000213
    18  H   -0.001866   0.000030   0.000001   0.000000   0.000000   0.000000
    19  H    0.011865  -0.000077   0.002825  -0.000012   0.000000   0.000000
    20  C    1.778848  -0.692550   0.424348   0.041640   0.001747  -0.001812
    21  C   -0.513664  -2.217424  -0.018307  -0.109192  -0.102877  -0.068170
    22  C   -0.011231   1.069272  -0.001760  -0.001899   0.052833   0.354205
    23  H    0.000626   0.005559   0.000000   0.000000  -0.000016   0.003233
    24  H   -0.000006   0.001256   0.000000   0.000000   0.000000   0.000003
    25  H   -0.000168   0.000709   0.000000   0.000000   0.000000   0.000000
    26  H    0.000005  -0.000003   0.000000   0.000000   0.000000   0.000000
    27  H    0.000001  -0.000001   0.000000   0.000000   0.000000   0.000000
    28  C   -0.001887   0.004862   0.000818   0.000113  -0.000027   0.000038
    29  C    0.059860  -0.019977   0.000015  -0.000003   0.000006  -0.000008
    30  H    0.000019   0.000000   0.000000   0.000000   0.000000   0.000000
    31  C    9.436033  -1.447014   0.007091   0.410309   0.004549  -0.004421
    32  C   -1.447014  11.463166   0.000255  -0.011898   0.381910   0.034881
    33  H    0.007091   0.000255   0.545550  -0.008938  -0.000008   0.000000
    34  H    0.410309  -0.011898  -0.008938   0.540998   0.002937  -0.000008
    35  H    0.004549   0.381910  -0.000008   0.002937   0.542221  -0.009593
    36  H   -0.004421   0.034881   0.000000  -0.000008  -0.009593   0.548872
 Mulliken charges:
               1
     1  C   -0.627988
     2  C    0.221476
     3  C    0.079783
     4  C   -0.341957
     5  C    0.482551
     6  C   -0.109196
     7  C    0.078902
     8  C   -0.057865
     9  C   -0.145644
    10  C    0.294441
    11  C   -0.078609
    12  C    0.491655
    13  C    0.091134
    14  C   -0.109900
    15  C   -0.316960
    16  C   -0.287393
    17  C   -0.373315
    18  H    0.136092
    19  H    0.126071
    20  C   -0.359625
    21  C    0.416150
    22  C   -0.468289
    23  H    0.117063
    24  H    0.115880
    25  H    0.168627
    26  H    0.123295
    27  H    0.124889
    28  C    1.175873
    29  C   -0.904022
    30  H    0.165769
    31  C   -0.276192
    32  C   -0.448385
    33  H    0.122828
    34  H    0.125338
    35  H    0.125705
    36  H    0.121817
 Sum of Mulliken charges =   0.00000
 Mulliken charges with hydrogens summed into heavy atoms:
               1
     1  C   -0.491896
     2  C    0.221476
     3  C    0.079783
     4  C   -0.215886
     5  C    0.482551
     6  C   -0.109196
     7  C    0.078902
     8  C   -0.057865
     9  C   -0.145644
    10  C    0.294441
    11  C    0.038454
    12  C    0.491655
    13  C    0.091134
    14  C    0.005980
    15  C   -0.192071
    16  C   -0.118766
    17  C   -0.250020
    20  C   -0.236797
    21  C    0.416150
    22  C   -0.346472
    28  C    1.175873
    29  C   -0.738254
    31  C   -0.150853
    32  C   -0.322680
 Electronic spatial extent (au):  <R**2>=           6807.0423
 Charge=              0.0000 electrons
 Dipole moment (field-independent basis, Debye):
    X=              0.1435    Y=             -0.3826    Z=              0.0001  Tot=              0.4086
 Quadrupole moment (field-independent basis, Debye-Ang):
   XX=           -116.8429   YY=           -118.5444   ZZ=           -146.5061
   XY=             -1.8819   XZ=              0.0001   YZ=              0.0004
 Traceless Quadrupole moment (field-independent basis, Debye-Ang):
   XX=             10.4549   YY=              8.7534   ZZ=            -19.2083
   XY=             -1.8819   XZ=              0.0001   YZ=              0.0004
 Octapole moment (field-independent basis, Debye-Ang**2):
  XXX=              2.9941  YYY=              1.7231  ZZZ=              0.0000  XYY=            -19.3908
  XXY=              8.1220  XXZ=             -0.0003  XZZ=              1.3673  YZZ=             -1.4266
  YYZ=              0.0038  XYZ=             -0.0018
 Hexadecapole moment (field-independent basis, Debye-Ang**3):
 XXXX=          -5038.6812 YYYY=          -3513.6707 ZZZZ=           -173.7665 XXXY=            -11.3387
 XXXZ=              0.0044 YYYX=           -123.5913 YYYZ=              0.0124 ZZZX=             -0.0001
 ZZZY=              0.0001 XXYY=          -1375.5468 XXZZ=          -1077.2383 YYZZ=           -765.8452
 XXYZ=              0.0063 YYXZ=             -0.0038 ZZXY=              1.7557
 N-N= 1.779992940359D+03 E-N=-5.698825384246D+03  KE= 9.179023150693D+02
 Calling FoFJK, ICntrl=      2127 FMM=F ISym2X=0 I1Cent= 0 IOpClX= 0 NMat=1 NMatS=1 NMatT=0.
 ***** Axes restored to original set *****
 -------------------------------------------------------------------
 Center     Atomic                   Forces (Hartrees/Bohr)
 Number     Number              X              Y              Z
 -------------------------------------------------------------------
      1        6           0.000464543    0.000474617    0.000004238
      2        6           0.000231775   -0.000029982   -0.000007005
      3        6           0.000220285    0.000113982   -0.000006596
      4        6          -0.000657461   -0.000102872   -0.000000889
      5        6           0.000264701   -0.000106172    0.000001623
      6        6          -0.000193594    0.000060880   -0.000000846
      7        6          -0.000076449    0.000104674    0.000008317
      8        6           0.000090459   -0.000137035    0.000001890
      9        6          -0.000108766   -0.000122733   -0.000000175
     10        6          -0.000120464    0.000256852   -0.000000873
     11        6           0.000173139   -0.000389333   -0.000000614
     12        6          -0.000177305    0.000374226    0.000000286
     13        6          -0.000101609   -0.000239239   -0.000000786
     14        6          -0.000161607   -0.000721087    0.000000067
     15        6           0.000670241    0.000290075    0.000001342
     16        6          -0.000540703    0.000247525   -0.000000139
     17        6           0.000607989    0.000374617   -0.000001562
     18        1          -0.000090096    0.000064763    0.000000347
     19        1          -0.000020025    0.000059348   -0.000000282
     20        6          -0.000384096    0.000622859    0.000001197
     21        6           0.000140636    0.000143161    0.000001185
     22        6           0.000668510   -0.000364616   -0.000000993
     23        1           0.000022826   -0.000060135    0.000000113
     24        1           0.000056469   -0.000015351   -0.000000693
     25        1           0.000040440    0.000031650   -0.000000806
     26        1           0.000008556    0.000016031    0.000001778
     27        1           0.000011869   -0.000009357   -0.000000819
     28        6          -0.000947518   -0.000913988    0.000002204
     29        6           0.000776130    0.000868158    0.000000140
     30        1           0.000133243    0.000127145   -0.000000161
     31        6          -0.000063704   -0.000775163    0.000000203
     32        6          -0.000797706   -0.000091927   -0.000002847
     33        1          -0.000056239   -0.000036977   -0.000000619
     34        1          -0.000067078    0.000013159   -0.000000197
     35        1           0.000018989   -0.000070952    0.000000979
     36        1          -0.000036381   -0.000056805    0.000000992
 -------------------------------------------------------------------
 Cartesian Forces:  Max     0.000947518 RMS     0.000292059

 GradGradGradGradGradGradGradGradGradGradGradGradGradGradGradGradGradGrad
 Berny optimization.
 FormGI is forming the generalized inverse of G from B-inverse, IUseBI=4.
 Internal  Forces:  Max     0.001348523 RMS     0.000176969
 Search for a local minimum.
 Step number   1 out of a maximum of  216
 All quantities printed in internal units (Hartrees-Bohrs-Radians)
 Mixed Optimization -- En-DIIS/RFO-DIIS
 Second derivative matrix not updated -- first step.
 ITU=  0
     Eigenvalues ---    0.00599   0.00599   0.01214   0.01510   0.01600
     Eigenvalues ---    0.01642   0.01669   0.01695   0.01729   0.01735
     Eigenvalues ---    0.01768   0.01793   0.01832   0.01838   0.01896
     Eigenvalues ---    0.01908   0.01923   0.01955   0.01970   0.02000
     Eigenvalues ---    0.02009   0.02013   0.02027   0.02048   0.02051
     Eigenvalues ---    0.02073   0.02111   0.02136   0.02157   0.02172
     Eigenvalues ---    0.02204   0.02221   0.02326   0.04666   0.04666
     Eigenvalues ---    0.16000   0.16000   0.16000   0.16000   0.16000
     Eigenvalues ---    0.16000   0.16000   0.16000   0.16000   0.16000
     Eigenvalues ---    0.16000   0.22000   0.22392   0.22529   0.22570
     Eigenvalues ---    0.22686   0.23575   0.24402   0.24490   0.24568
     Eigenvalues ---    0.24757   0.25000   0.25000   0.25000   0.25000
     Eigenvalues ---    0.25000   0.29768   0.32787   0.33871   0.35233
     Eigenvalues ---    0.35327   0.35371   0.35380   0.35384   0.35387
     Eigenvalues ---    0.35393   0.35436   0.35452   0.35510   0.35607
[...]
 002241,-0.00000268,0.00000002,-0.00000483,-0.00002680,0.,-0.00003253,-
 0.00005418,-0.00000001,0.00006165,0.00002060,0.00000001,-0.00000987,-0
 .00002820,-0.00000001,-0.00000169,0.00001545,0.,0.00000221,0.00001970,
 0.,-0.00031462,-0.00010884,0.,0.00007265,-0.00003449,0.,-0.00002610,0.
 00002167,0.,0.00077049,0.00320874,-0.00000093,-0.19689274,-0.23002510,
 -0.00001163,0.19845447,0.22328685,0.00000017,0.,-0.00011635,-0.0000002
 4,-0.00000037,0.00538872,-0.00000005,0.00000026,0.00011075,0.00000002,
 -0.00000007,-0.00026690,-0.00000004,-0.00000004,0.00007591,-0.00000003
 ,0.00000006,-0.00062125,0.00000002,0.,0.00017250,-0.00000004,0.0000000
 2,-0.00001906,0.00000004,0.00000002,0.00000182,0.00000007,0.,-0.000028
 05,-0.00000004,-0.00000003,0.00000621,0.,0.00000002,-0.00006299,-0.000
 00004,-0.00000003,-0.00001448,-0.00000002,0.,-0.00001607,0.,0.00000002
 ,0.00001395,0.00000002,-0.00000001,-0.00012090,0.,0.00000001,-0.000042
 36,-0.00000002,0.,0.00016162,0.,0.,0.00000677,0.00000004,0.00000003,0.
 00006410,-0.00000009,0.00000003,0.00004341,-0.00000001,-0.00000002,0.0
 0000721,0.,0.,0.00002423,0.,0.,0.00000126,0.,0.,0.00021239,0.00000001,
 0.,0.00005586,0.,0.,0.00000964,0.00000296,0.00000318,0.00170616,-0.000
 01495,-0.00001570,-0.01974212,0.00001215,0.00001269,0.01300279,0.01216
 967,0.00058027,0.00000016,-0.00751072,0.00835697,-0.00000009,-0.003363
 46,-0.00681274,0.00000011,-0.00904294,-0.01363613,-0.00000004,0.033552
 00,-0.00398025,0.00000015,-0.00786564,0.02240409,0.,-0.00182005,0.0020
 5255,0.00000006,-0.00352425,-0.00403979,0.00000001,-0.04826738,-0.0324
 1781,-0.00000038,-0.00631504,-0.00533532,0.00000002,0.00344654,0.00143
 299,0.,-0.00186859,-0.00184202,0.,-0.00126448,-0.00017561,-0.00000005,
 0.00151070,0.00044364,0.00000001,-0.00030581,-0.00122138,0.,0.00061020
 ,0.00038463,0.,-0.00082233,0.00056562,0.,-0.00021586,-0.00027757,0.,-0
 .00014485,-0.00036327,0.00000002,-0.13432434,0.01738544,-0.00000056,-0
 .23764987,0.04527496,-0.00000055,0.01327066,0.00022728,-0.00000002,0.0
 0000822,0.00002865,0.,0.00000196,0.00001818,0.,-0.00003667,0.00004813,
 0.,-0.00003461,0.00000876,0.,-0.00000005,-0.00002402,0.,0.00012624,0.0
 0041591,0.,0.00018766,-0.00003724,-0.00000005,-0.00004594,-0.00002717,
 0.00000003,0.63182924,-0.01403839,-0.00241662,-0.00000017,0.00804534,-
 0.00836735,0.,0.00668419,0.00522930,0.,0.00226500,0.01721675,-0.000000
 11,-0.03660940,-0.05434546,0.00000005,0.01167933,-0.02809287,0.0000001
 2,-0.00145990,0.00018339,-0.00000006,-0.00056859,-0.00263616,0.0000000
 7,-0.01577750,0.04382028,0.00000017,0.00617246,0.00324866,-0.00000004,
 -0.00412475,-0.00080846,0.00000001,0.00226393,0.00248831,-0.00000001,0
 .00210049,-0.00041922,0.00000009,-0.00181072,-0.00029488,-0.00000003,0
 .00054476,0.00156526,0.,-0.00115587,-0.00075878,0.,0.00116666,-0.00090
 479,0.,-0.00039603,-0.00015528,0.00000004,0.00042799,0.00003491,-0.000
 00002,0.07128105,-0.34391586,0.00000145,0.01293548,-0.12269693,-0.0000
 0007,-0.00993163,-0.00673749,0.00000004,-0.00009460,-0.00005657,0.,-0.
 00000179,-0.00004490,0.,0.00015070,-0.00012235,0.00000001,0.00006078,0
 .00001191,0.,0.00001507,0.00004632,0.,-0.00070477,-0.00085649,-0.00000
 009,-0.00041093,0.00003965,0.00000017,0.00012659,0.00004970,-0.0000000
 5,0.05838103,0.68973310,0.00000008,0.,-0.00012777,-0.00000007,0.000000
 03,0.00001546,0.00000001,0.,-0.00059236,-0.00000013,-0.00000005,0.0049
 3947,0.00000025,0.00000006,0.00415352,-0.00000012,0.00000012,-0.001938
 24,-0.00000002,0.00000003,-0.00061378,-0.00000001,-0.00000003,0.007134
 50,-0.00000006,-0.00000011,0.00551157,-0.00000006,-0.00000007,-0.00105
 548,0.00000002,0.,-0.00075813,0.,0.,0.00051128,0.,0.,-0.00038891,0.,0.
 ,-0.00005361,0.,0.,-0.00005268,0.,0.,-0.00016015,0.,0.,0.00010004,0.,-
 0.00000001,-0.00054517,0.,0.,-0.00015038,-0.00000063,0.00000126,-0.059
 12360,-0.00000073,0.00000018,-0.06066107,0.00000013,0.00000004,0.00398
 630,0.,0.,0.00010010,0.,0.,0.00000419,0.,0.,0.00000486,0.,0.,0.0000114
 4,0.,0.,-0.00000607,0.,0.,0.00025856,0.00000002,0.00000002,-0.00001342
 ,0.,-0.00000001,-0.00002139,0.00000182,-0.00000167,0.13222123,0.003424
 64,0.00137568,0.00000006,-0.00206118,0.00222487,-0.00000006,0.00110813
 ,-0.00201742,-0.00000003,-0.00089913,-0.00405420,0.00000003,0.00304777
 ,0.00645952,-0.00000004,-0.00285270,-0.00224234,-0.00000003,0.00487490
 ,0.00667816,0.00000008,-0.02303207,0.00633227,0.,0.03876543,-0.0124641
 9,-0.00000017,-0.05358513,-0.03122997,0.00000021,0.01987650,0.00302003
 ,-0.00000004,-0.00662708,-0.01035994,0.00000006,-0.00814381,0.00281357
 ,0.,0.00546029,0.00123323,0.00000003,-0.00029037,-0.00512188,-0.000000
 02,0.00267047,0.00171150,0.00000001,-0.00342267,0.00233590,0.,0.000094
 17,-0.00000974,0.,-0.00006184,-0.00009175,0.,-0.00622647,-0.01057655,0
 .,-0.12104382,0.01869368,-0.00000007,-0.37123387,0.06077495,0.00000032
 ,0.00004304,0.00038577,-0.00000001,0.00000279,0.00012245,0.,-0.0001292
 7,-0.00002733,0.,-0.00009056,0.00001249,0.,-0.00009392,-0.00010768,0.,
 -0.00039746,-0.00044420,0.00000009,0.00048227,0.00022768,-0.00000011,-
 0.00008106,0.00001584,0.00000002,-0.01416741,0.03909120,-0.00000016,0.
 70256783,-0.00195112,-0.00065337,-0.00000004,0.00053470,-0.00115974,0.
 00000005,0.00027171,-0.00107898,-0.00000003,0.00121666,0.00249260,0.,-
 0.00517018,-0.00550481,0.00000004,-0.00312213,-0.00226078,-0.00000007,
 -0.00598344,-0.00502719,-0.00000009,0.01698292,-0.00125468,-0.00000002
 ,-0.02096051,-0.04912045,0.00000039,-0.00842230,0.02570812,-0.00000006
 ,-0.01313631,-0.00951784,0.00000013,0.00328857,0.00843947,-0.00000008,
 0.00757594,-0.00196360,0.00000004,-0.00427496,-0.00175546,-0.00000002,
 0.00042671,0.00413171,0.00000002,-0.00305105,-0.00178875,-0.00000002,0
 .00302418,-0.00247065,0.,-0.00000573,0.00002135,0.,0.00002105,0.000017
 05,0.,-0.00032159,0.01259186,-0.00000003,0.04400228,-0.22542454,0.0000
 0068,0.01512336,-0.12938556,0.00000011,-0.00035369,-0.00011546,0.00000
 001,0.00003410,-0.00006379,0.,-0.00001139,0.00001772,0.,0.00006695,-0.
 00002670,0.,-0.00001873,0.00003072,0.,0.00020722,-0.00000720,-0.000000
 03,-0.00009447,-0.00004154,0.00000003,-0.00000182,-0.00000447,0.,0.017
 39980,-0.01115918,0.00000012,0.05954761,0.62532090,0.,0.,0.00021376,0.
 00000002,0.,-0.00005566,-0.00000002,0.00000003,-0.00050287,0.,0.000000
 01,-0.00077065,0.00000011,0.00000001,-0.00102630,-0.00000003,0.0000000
 5,0.00703853,0.,-0.00000002,-0.00066651,0.00000001,0.00000003,-0.00211
 199,-0.00000007,-0.00000005,0.00538604,0.00000012,-0.00000003,0.004396
 44,0.00000002,0.00000009,0.00409601,-0.00000001,-0.00000002,0.00006020
 ,0.,0.,0.00010090,0.00000001,0.,-0.00059107,0.,0.,0.00016053,0.,0.,0.0
 0008453,0.,0.,-0.00003417,0.,0.,-0.00004222,0.,0.,0.00008660,-0.000000
 04,-0.00000011,0.00459321,-0.00000006,0.00000076,-0.06025181,0.0000001
 5,0.00000007,-0.05845559,0.,0.,-0.00016381,0.,0.,-0.00000057,0.,0.,-0.
 00000910,0.,0.,-0.00002459,0.,0.,0.00005394,0.,0.,-0.00006647,-0.00000
 001,0.00000001,-0.00003466,0.,0.,0.00000294,-0.00000014,0.00000015,0.0
 0023544,-0.00000003,-0.00000116,0.13104625,-0.00001746,-0.00027024,0.,
 0.00007704,0.00000368,-0.00000001,-0.00005690,0.00095352,0.,0.00113410
 ,0.00091989,0.,-0.01751781,0.00868218,-0.00000012,-0.00175727,-0.00419
 821,-0.00000005,-0.00043462,-0.00011241,0.,-0.00019352,0.00012536,0.,0
 .00063438,-0.00048975,0.,-0.00000541,-0.00007577,0.,-0.00001940,0.0000
 0448,0.,-0.00003039,0.00003446,0.,0.00010085,0.00012496,0.,-0.00000497
 ,0.00000619,0.,0.00000361,0.00001429,0.,-0.00004055,-0.00002407,0.,0.0
 0001592,-0.00003262,0.,-0.00003321,-0.00004366,0.,0.00005178,-0.000919
 44,0.00000001,-0.31059035,0.07628625,-0.00000146,0.00163837,0.00063308
 ,-0.00000003,0.00007062,0.00018344,0.,-0.00000821,0.00000610,0.,-0.000
 00501,0.00000570,0.,0.00000952,-0.00000380,0.,-0.00000356,-0.00000454,
 0.,-0.00000767,0.00000094,0.,0.00008279,-0.00002257,0.,-0.00007986,-0.
 00008071,0.00000002,0.00000388,0.00001767,0.,-0.00303673,-0.00043287,-
 0.00000002,-0.00022142,-0.00017121,0.,0.32929614,0.00046380,0.00003052
 ,0.,-0.00018366,0.00030424,0.,-0.00065080,0.00056813,0.,-0.00002504,0.
 00146233,-0.00000001,-0.02108489,0.01000406,-0.00000013,-0.00322451,-0
 .00316874,-0.00000005,-0.00031830,-0.00011581,0.,-0.00017889,0.0001598
 7,0.,-0.00031115,-0.00082304,0.,-0.00006942,-0.00014832,0.,-0.00004688
 ,0.00003464,0.,-0.00001961,0.00002251,0.,0.00003909,0.00010787,0.,-0.0
 0001343,0.00001980,0.,0.00000578,0.00001644,0.,-0.00000164,-0.00001562
 ,0.,0.00001776,-0.00000509,0.,0.00001558,-0.00000752,0.,0.00065106,-0.
 00032044,0.,0.07429425,-0.08018146,0.00000045,0.00006954,-0.00557935,0
 .00000006,0.00013753,-0.00048827,0.,-0.00000347,-0.00000343,0.,-0.0000
 0372,-0.00000184,0.,0.00000526,0.00000327,0.,0.00000076,0.00000209,0.,
 0.00000289,0.00000076,0.,0.00006631,-0.00000969,0.,-0.00001078,-0.0000
 1298,0.,-0.00000430,0.00000047,0.,0.03061927,-0.00588383,0.00000016,0.
 00124327,0.00058747,0.,-0.08140386,0.08260372,-0.00000005,0.,-0.000128
 77,0.,-0.00000002,-0.00003014,0.00000002,-0.00000001,0.00066579,0.0000
 0007,0.00000001,-0.00238945,-0.00000029,-0.00000008,0.00233754,0.00000
 001,-0.00000009,0.00404134,-0.00000002,0.,0.00031500,0.,0.,-0.00054081
 ,0.00000004,0.00000003,-0.00104066,0.,0.,0.00015089,0.,0.,0.00000728,0
 .,0.,-0.00001279,0.,0.,-0.00031630,0.,0.,0.00005766,0.,-0.00000001,-0.
 00000121,0.,0.,0.00000541,0.,0.,0.00000226,0.,0.,0.00010330,0.,0.,0.00
 028149,-0.00000127,0.00000055,-0.03444165,-0.00000002,0.00000009,0.008
 55596,-0.00000001,0.00000003,-0.00048217,0.,0.,-0.00000277,0.,0.,-0.00
 000203,0.,0.,-0.00000073,0.,0.,0.00000237,0.,0.,-0.00000424,0.,0.,0.00
 005598,0.,0.,-0.00001204,0.,0.,0.00000104,-0.00000015,0.00000001,0.003
 58555,0.,-0.00000002,0.00045467,0.00000162,-0.00000048,0.02426123,0.00
 018152,0.00005042,0.00000001,-0.00009801,0.00017516,0.,-0.00016964,-0.
 00021653,0.,0.00029203,-0.00002330,0.,0.00064635,0.00225698,-0.0000000
 6,0.00016381,0.00090285,0.00000001,-0.00054577,0.00017496,0.00000002,0
 .00001499,-0.00154169,-0.00000002,-0.00513894,0.00346784,-0.00000001,0
 .00012469,-0.00003971,0.,0.00000406,0.00006382,-0.00000002,-0.00001627
 ,0.00001078,0.00000002,0.00005876,-0.00017253,0.,0.00001583,-0.0000142
 4,0.,-0.00003266,0.00000577,0.,-0.00008143,0.00002540,0.,0.00000238,-0
 .00002059,0.,0.00003574,0.00002085,0.,-0.00000087,-0.00001472,0.,0.007
 77631,0.00645599,0.,-0.01661138,-0.02107511,-0.00000004,-0.00012548,0.
 00027656,0.00000001,-0.00003639,0.00001328,0.,-0.00000687,0.00000802,0
 .,-0.00000277,0.00000439,0.,-0.00001189,-0.00000547,0.,-0.00000685,-0.
 00000020,0.,0.00001466,-0.00001240,0.,-0.00000173,-0.00001830,0.,-0.00
 000155,0.00000765,0.,-0.21678976,-0.13694693,-0.00000030,0.00157282,-0
 .00101936,0.,0.00096960,-0.00021079,0.00000003,0.22801516,-0.00001516,
 -0.00052350,0.00000002,0.00017335,-0.00011621,0.,0.00003484,0.00018486
 ,-0.00000002,-0.00133653,0.00004213,-0.00000002,0.00292179,-0.00434001
 ,0.00000006,0.00050134,-0.00032808,0.00000002,0.00010236,-0.00014955,0
 .00000001,0.00046379,0.00053205,-0.00000002,0.00262687,0.00000817,0.00
 000003,0.00000426,0.00020867,0.,-0.00004844,-0.00003079,-0.00000002,0.
 00001917,0.00003905,0.00000004,0.00005767,0.00008478,0.,-0.00001798,-0
 .00001272,0.,0.00000403,0.00001627,0.,-0.00001169,-0.00001832,0.,0.000
 01339,-0.00001538,0.,-0.00013053,-0.00007436,0.,0.00004165,-0.00003020
 ,0.,-0.02458921,-0.01667003,-0.00000005,0.00830424,0.01007856,0.,-0.00
 030969,-0.00002352,0.00000001,0.00000279,0.00000196,0.,-0.00000046,0.0
 0000358,0.,0.00000631,-0.00000524,0.,0.00000095,-0.00000320,0.,-0.0000
 0511,0.00000085,0.,0.00001895,0.00002479,0.,-0.00005213,-0.00004142,0.
 ,0.00000833,0.00000873,0.,-0.13469753,-0.17435004,-0.00000004,-0.00015
 514,0.00109653,0.,0.00024659,0.00089827,-0.00000003,0.14640412,0.18363
 073,0.00000002,0.,-0.00070161,-0.00000002,0.00000001,0.00016642,-0.000
 00002,-0.00000002,-0.00069758,0.,-0.00000002,0.00038084,-0.00000008,0.
 00000008,0.00886644,0.,0.00000006,-0.00082216,0.,0.00000001,0.00001342
 ,0.,-0.00000002,0.00043203,-0.00000005,-0.00000007,0.00457243,0.,0.,-0
 .00008116,0.,0.,0.00003931,0.,0.,-0.00002310,0.,0.,-0.00007951,0.,0.,-
 0.00000372,0.,0.,-0.00000475,0.,0.,-0.00001867,0.,0.,0.00001334,0.,0.,
 -0.00005107,0.,0.,0.00017380,0.00000012,0.00000009,0.00336993,0.000000
 03,-0.00000011,0.00262702,0.,0.,-0.00011253,0.,0.,0.00000676,0.,0.,0.0
 0000351,0.,0.,-0.00000194,0.,0.,0.00000486,0.,0.,0.00000213,0.,0.,0.00
 011159,0.,0.,-0.00001195,0.,0.,-0.00000297,-0.00000038,-0.00000003,-0.
 03520128,0.,-0.00000001,-0.00214615,0.00000003,-0.00000002,-0.00551414
 ,0.00000036,0.00000006,0.02441483,0.00003900,0.00002015,0.,0.00005587,
 0.00003263,0.,-0.00017680,0.00014536,0.00000001,-0.00002754,-0.0000638
 5,0.,0.00019088,0.00001315,0.00000002,0.00059486,0.00044876,0.,0.00022
 977,0.00002675,0.,-0.00034089,0.00039341,0.,-0.00047504,0.00285740,-0.
 00000002,-0.00434986,0.00287517,-0.00000002,0.00005434,-0.00139791,0.0
 0000003,-0.00051722,0.00004909,-0.00000002,-0.00014879,0.00005859,0.,0
 .00008751,-0.00014081,0.,-0.00008125,-0.00008194,0.,0.00008132,0.00004
 102,0.,-0.00008015,0.00006097,0.,0.00000013,-0.00000464,0.,0.00000202,
 0.00000565,0.,-0.00004096,-0.00029274,0.,0.01055110,0.00976940,0.,-0.0
 1619073,-0.02580674,0.00000004,-0.00003342,0.00004701,0.,0.00000209,0.
 00001367,0.,-0.00000787,-0.00000303,0.,-0.00000686,-0.00000717,0.,-0.0
 0001794,-0.00001612,0.,0.00000055,0.00001676,-0.00000001,-0.00000026,-
 0.00001699,0.00000001,0.00000217,0.00000792,0.,0.00118310,-0.00023342,
 0.,-0.16174720,-0.13223576,0.,0.00000270,-0.00002317,0.,-0.00016846,-0
 .00055927,0.,0.17046281,0.00001803,-0.00005785,0.,-0.00014953,0.000051
 40,0.,0.00019196,-0.00051487,0.,0.00004258,0.00002421,0.,0.00004290,0.
 00012481,0.,-0.00151956,-0.00002578,0.,-0.00023147,-0.00008718,0.,0.00
 078565,0.00021645,0.,0.00379575,-0.00480387,0.00000002,0.00205886,0.00
 074389,0.,-0.00009464,0.00025940,0.,0.00010705,0.00012173,-0.00000001,
 0.00017597,-0.00002433,0.,-0.00004597,0.00000433,0.,-0.00001907,0.0000
 7077,0.,-0.00007581,-0.00003033,0.,0.00005728,-0.00002891,0.,0.0000043
 4,-0.00000716,0.,0.00001420,-0.00003429,0.,0.00026714,-0.00016961,0.,-
 0.01962317,-0.01710126,0.00000002,0.00541291,0.00689717,-0.00000002,-0
 .00001646,0.00000015,0.,-0.00000734,0.00000375,0.,0.00001023,-0.000001
 17,0.,-0.00000311,-0.00000388,0.,-0.00000109,0.00000365,0.,0.00003554,
 -0.00004007,0.,-0.00005907,-0.00004921,0.00000001,0.00000542,0.0000101
 6,0.,-0.00103035,0.00152340,-0.00000001,-0.13476030,-0.22897577,0.0000
 0019,0.00003448,-0.00004321,0.,0.00097517,-0.00012999,0.,0.14377376,0.
 24105802,0.,0.,-0.00000848,0.,0.,-0.00006531,0.,0.,-0.00001152,0.,0.,0
 .00003728,0.,0.,-0.00005232,0.00000003,0.,0.00039065,0.00000002,0.0000
 0002,-0.00055226,-0.00000006,-0.00000001,-0.00063605,0.00000003,0.0000
 0005,0.00385477,0.,0.00000002,0.00938845,0.00000004,0.,0.00038984,0.,-
 0.00000002,-0.00099503,-0.00000002,0.,0.00016172,0.00000001,0.,-0.0000
 8788,0.,-0.00000002,0.00009019,0.,0.,0.00007956,0.,0.,-0.00000995,0.,0
 .,-0.00000128,0.,0.,0.00000468,0.,0.,-0.00013721,0.00000009,0.00000002
 ,0.00245863,0.00000006,0.00000002,0.00363509,0.,0.,0.00028137,0.,0.,-0
 .00002004,0.,0.,-0.00000120,0.,0.,-0.00001629,0.,0.,0.00001830,0.,0.,-
 0.00001385,0.,0.,0.00000150,0.,0.,0.00000279,0.00000002,0.,-0.00173812
 ,-0.00000013,0.00000008,-0.03502914,0.,0.,0.00008069,0.,0.,0.00015369,
 -0.00000003,-0.00000019,0.02426879,0.00006366,-0.00000619,0.,0.0000747
 1,0.00005478,0.,-0.00017265,-0.00031444,0.,0.00002466,-0.00007080,0.,-
 0.00014754,-0.00004697,0.,0.00022584,-0.00010377,0.,0.00060806,-0.0006
 1609,-0.00000001,-0.00303560,-0.00316898,0.00000006,-0.00060976,-0.000
 35774,0.,0.01040028,-0.01986901,0.00000003,0.00149959,-0.00003890,0.,0
 .00001205,0.00035800,0.,0.00030305,-0.00004486,0.,-0.00008392,-0.00002
 336,0.,0.00002202,0.00007471,0.,-0.00008620,0.00001719,0.,0.00003567,-
 0.00006771,0.,0.00001426,0.00000053,0.,-0.00000522,-0.00000253,0.,-0.0
 0048275,0.00011226,0.,-0.00554871,-0.00047487,0.00000003,-0.08742081,0
 .08480250,0.00000010,-0.00023500,0.00066706,0.,-0.00002244,-0.00000382
 ,0.,0.00000142,0.00001271,0.,-0.00000174,0.00000450,0.,0.00000324,0.00
 000396,0.,-0.00000976,0.00000148,0.,0.00002026,0.00001777,0.,-0.000003
 33,-0.00000426,0.,0.00052060,0.00130605,0.,-0.00758264,0.03058200,-0.0
 0000003,-0.00002697,0.00015617,0.,-0.00004198,-0.00002791,0.,0.0008710
 3,-0.00017227,-0.00000002,0.09081663,0.00007581,-0.00001866,0.,0.00006
 274,0.00009727,-0.00000001,-0.00015707,-0.00044452,0.,-0.00000370,-0.0
 0007757,0.,-0.00011445,0.00004051,-0.00000001,0.00018461,-0.00017336,0
 .,0.00099674,-0.00011533,0.,-0.00426954,-0.00197760,0.00000002,-0.0004
 8783,0.00057858,0.,0.00980352,-0.01785681,0.00000002,0.00106686,0.0011
 8668,0.,-0.00041263,0.00003320,0.00000001,0.00005064,0.00008361,0.,0.0
 0009741,-0.00007100,0.,-0.00002166,-0.00007153,0.,-0.00006066,0.000079
 53,0.,-0.00007302,-0.00003565,0.,0.00001516,-0.00001159,0.,0.00000619,
 -0.00000679,0.,0.00015697,0.00008491,0.,0.00027291,0.00161657,0.,0.087
 09010,-0.30296255,0.00000004,-0.00098715,0.00007237,0.,-0.00002275,0.0
 0001886,0.,0.00000768,0.00000534,0.,-0.00001146,-0.00000219,0.,-0.0000
 1596,-0.00000476,0.,0.00001002,0.00000407,0.,-0.00001944,-0.00003228,0
 .,0.00000291,0.00001081,0.,-0.00010995,-0.00016744,0.,-0.00063705,-0.0
 0169497,0.,0.00000247,-0.00001785,0.,0.00003185,0.00000257,0.,0.000226
 95,0.00101544,0.,-0.09275720,0.32081212,0.,0.,-0.00002899,0.,0.,-0.000
 30382,0.,0.,0.00028771,0.,0.,0.00001794,0.,0.,0.00014849,0.,0.,-0.0005
 6245,0.,0.,0.00058554,0.00000009,0.00000002,0.00354718,0.00000002,-0.0
 0000001,-0.00094505,0.00000003,0.00000027,0.00240019,-0.00000005,-0.00
 000003,-0.00195755,0.00000001,0.00000002,-0.00016156,0.,0.,-0.00001215
 ,0.,0.,0.00000789,0.,0.,0.00001654,0.,0.,0.00002956,0.,0.,-0.00002273,
 0.,0.,0.00008020,0.,0.,0.00000103,0.,0.,-0.00059712,-0.00000003,0.,0.0
 0909776,0.00000009,-0.00000017,-0.03472983,0.,0.,0.00028947,0.,0.,0.00
 002026,0.,0.,0.00001064,0.,0.,0.00000094,0.,0.,-0.00000133,0.,0.,0.000
 01157,0.,0.,-0.00000771,0.,0.,0.00000283,0.,-0.00000001,0.00042805,-0.
 00000002,-0.00000002,0.00397333,0.,0.,-0.00004555,0.,0.,0.00012195,0.0
 0000001,0.,-0.00592206,-0.00000014,-0.00000008,0.02421883\\-0.00000389
 ,0.00000403,-0.00000172,0.00000073,0.00000580,0.00000551,-0.00001300,0
 .00001055,0.00000280,0.00000310,0.00000436,-0.00000060,-0.00000893,0.0
 0001027,-0.00000007,0.00001447,0.00000454,-0.00000096,0.00002644,-0.00
 001092,-0.00000295,-0.00000249,0.00000720,-0.00000010,0.00000256,-0.00
 000428,0.00000004,0.00000484,-0.00000727,0.00000012,0.00000698,0.00001
 849,0.00000040,-0.00001205,-0.00003037,0.00000030,-0.00002940,0.000005
 56,-0.00000124,0.00001424,0.00000170,0.00000015,0.00001398,-0.00002231
 ,-0.00000013,0.00001109,0.00001279,0.00000031,-0.00000706,0.00002580,0
 .00000013,0.00000341,0.00000275,-0.00000018,-0.00000606,-0.00000307,0.
 00000034,-0.00000496,-0.00001182,-0.00000047,-0.00000198,-0.00000443,-
 0.00000010,-0.00000725,-0.00000482,0.00000051,0.00000299,-0.00000623,-
 0.00000015,-0.00000356,-0.00000575,0.00000003,-0.00000603,-0.00000015,
 0.00000013,0.00000354,-0.00000270,-0.00000008,-0.00000007,0.00000352,0
 .00000004,-0.00001961,-0.00003854,-0.00000148,0.00001957,0.00002793,-0
 .00000292,0.00000546,0.00000412,0.00000203,-0.00001187,0.00001068,0.00
 000001,0.00000581,-0.00000862,0.00000053,-0.00000169,0.00000612,0.0000
 0015,0.00000153,-0.00000614,0.00000002,-0.00000689,0.00000187,-0.00000
 015,0.00000603,-0.00000068,-0.00000023\\\@


 THE MOST SERIOUS THREAT TO THE SURVIVAL OF MANKIND IS NOT NOW
 IGNORANCE IN THE TRADITIONAL SENSE,
 BUT A MORALLY NEUTRAL, AN INSENSITIVE OR INHIBITED HUMAN INTELLIGENCE.

                     -- MARGO JEFFERSON IN NEWSWEEK, SEPTEMBER 2, 1974
 Job cpu time:       0 days 19 hours 38 minutes  2.1 seconds.
 File lengths (MBytes):  RWF=   2755 Int=      0 D2E=      0 Chk=     28 Scr=      1
 Normal termination of Gaussian 09 at Sat Feb  1 17:33:33 2020.
