 Entering Gaussian System, Link 0=/share/apps/gaussian16/g16/g16
 Initial command:
 /share/apps/gaussian16/g16/l1.exe "/home/am2145//scratch/3577/Gau-15885.inp" -scrdir="/home/am2145//scratch/3577/"
 Entering Link 1 = /share/apps/gaussian16/g16/l1.exe PID=     15886.
  
 Copyright (c) 1988,1990,1992,1993,1995,1998,2003,2009,2016,
            Gaussian, Inc.  All Rights Reserved.
  
 This is part of the Gaussian(R) 16 program.  It is based on
 the Gaussian(R) 09 system (copyright 2009, Gaussian, Inc.),
 the Gaussian(R) 03 system (copyright 2003, Gaussian, Inc.),
 the Gaussian(R) 98 system (copyright 1998, Gaussian, Inc.),
 the Gaussian(R) 94 system (copyright 1995, Gaussian, Inc.),
 the Gaussian 92(TM) system (copyright 1992, Gaussian, Inc.),
 the Gaussian 90(TM) system (copyright 1990, Gaussian, Inc.),
 the Gaussian 88(TM) system (copyright 1988, Gaussian, Inc.),
 the Gaussian 86(TM) system (copyright 1986, Carnegie Mellon
 University), and the Gaussian 82(TM) system (copyright 1983,
 Carnegie Mellon University). Gaussian is a federally registered
 trademark of Gaussian, Inc.
  
 This software contains proprietary and confidential information,
 including trade secrets, belonging to Gaussian, Inc.
  
 This software is provided under written license and may be
 used, copied, transmitted, or stored only in accord with that
 written license.
  
 The following legend is applicable only to US Government
 contracts under FAR:
  
                    RESTRICTED RIGHTS LEGEND
  
 Use, reproduction and disclosure by the US Government is
 subject to restrictions as set forth in subparagraphs (a)
 and (c) of the Commercial Computer Software - Restricted
 Rights clause in FAR 52.227-19.
  
 Gaussian, Inc.
 340 Quinnipiac St., Bldg. 40, Wallingford CT 06492
  
  
 ---------------------------------------------------------------
 Warning -- This program may not be used in any manner that
 competes with the business of Gaussian, Inc. or will provide
 assistance to any competitor of Gaussian, Inc.  The licensee
 of this program is prohibited from giving any competitor of
 Gaussian, Inc. access to this program.  By using this program,
 the user acknowledges that Gaussian, Inc. is engaged in the
 business of creating and licensing software in the field of
 computational chemistry and represents and warrants to the
 licensee that it is not a competitor of Gaussian, Inc. and that
 it will not use this program in any manner prohibited above.
 ---------------------------------------------------------------
  

 Cite this work as:
 Gaussian 16, Revision A.03,
 M. J. Frisch, G. W. Trucks, H. B. Schlegel, G. E. Scuseria, 
 M. A. Robb, J. R. Cheeseman, G. Scalmani, V. Barone, 
 G. A. Petersson, H. Nakatsuji, X. Li, M. Caricato, A. V. Marenich, 
 J. Bloino, B. G. Janesko, R. Gomperts, B. Mennucci, H. P. Hratchian, 
 J. V. Ortiz, A. F. Izmaylov, J. L. Sonnenberg, D. Williams-Young, 
 F. Ding, F. Lipparini, F. Egidi, J. Goings, B. Peng, A. Petrone, 
 T. Henderson, D. Ranasinghe, V. G. Zakrzewski, J. Gao, N. Rega, 
 G. Zheng, W. Liang, M. Hada, M. Ehara, K. Toyota, R. Fukuda, 
 J. Hasegawa, M. Ishida, T. Nakajima, Y. Honda, O. Kitao, H. Nakai, 
 T. Vreven, K. Throssell, J. A. Montgomery, Jr., J. E. Peralta, 
 F. Ogliaro, M. J. Bearpark, J. J. Heyd, E. N. Brothers, K. N. Kudin, 
 V. N. Staroverov, T. A. Keith, R. Kobayashi, J. Normand, 
 K. Raghavachari, A. P. Rendell, J. C. Burant, S. S. Iyengar, 
 J. Tomasi, M. Cossi, J. M. Millam, M. Klene, C. Adamo, R. Cammi, 
 J. W. Ochterski, R. L. Martin, K. Morokuma, O. Farkas, 
 J. B. Foresman, and D. J. Fox, Gaussian, Inc., Wallingford CT, 2016.
 
 ******************************************
 Gaussian 16:  ES64L-G16RevA.03 25-Dec-2016
                27-Mar-2019 
 ******************************************
 %nprocshared=20
 Will use up to   20 processors via shared memory.
 %mem=100GB
 %chk=7-memb-TS2a.chk
 ---------------------------------------------------------------
 # opt=(calcfc,TS,noeigen) freq b3lyp/6-311+g(d,p) int=grid=fine
 ---------------------------------------------------------------
 1/5=1,10=4,11=1,18=20,26=3,38=1/1,3;
 2/9=110,12=2,17=6,18=5,40=1/2;
 3/5=4,6=6,7=111,11=2,25=1,30=1,71=2,74=-5,75=-4,140=1/1,2,3;
 4//1;
 5/5=2,38=5/2;
 8/6=4,10=90,11=11/1;
 11/6=1,8=1,9=11,15=111,16=1/1,2,10;
 10/6=1,13=1/2;
 6/7=2,8=2,9=2,10=2,28=1/1;
 7/10=1,18=20,25=1/1,2,3,16;
 1/5=1,10=4,11=1,18=20,26=3/3(2);
 2/9=110/2;
 99//99;
 2/9=110/2;
 3/5=4,6=6,7=111,11=2,25=1,30=1,71=1,74=-5,75=-4/1,2,3;
 4/5=5,16=3,69=1/1;
 5/5=2,38=5/2;
 7//1,2,3,16;
 1/5=1,11=1,18=20,26=3/3(-5);
 2/9=110/2;
 6/7=2,8=2,9=2,10=2,19=2,28=1/1;
 99/9=1/99;
 -----------
 7-memb-TS2a
 -----------
 Symbolic Z-matrix:
 Charge =  0 Multiplicity = 2
 C                    -2.1606   -3.2323   -0.0017 
 C                    -0.8072   -2.7788   -0.0001 
 C                    -0.5603   -1.4178    0.0024 
 C                    -3.2622   -2.3864   -0.0017 
 C                    -3.0573   -0.9789    0.0003 
 C                    -1.7225   -0.5935    0.0029 
 C                     0.6056   -0.4666    0.0027 
 C                     0.0468    0.8205    0.0033 
 C                    -1.3549    0.7492    0.0033 
 C                     0.7004    2.0599    0.001 
 C                     2.0967    1.9855   -0.0005 
 C                     2.7475    0.7264   -0.0003 
 C                     2.0139   -0.5368    0.0009 
 C                     4.1738    0.6678   -0.0017 
 C                     4.8458   -0.5254   -0.0019 
 C                     2.7562   -1.7517    0.0007 
 C                     4.1269   -1.7492   -0.0007 
 H                    -0.0145   -3.5181   -0.001 
 H                    -2.3321   -4.3033   -0.0032 
 H                    -4.2626   -2.8061   -0.0035 
 C                    -4.0038    0.1129   -0.0015 
 C                    -2.2199    1.818     0.0005 
 C                    -0.1817    3.2157   -0.0005 
 H                     2.7079    2.8828   -0.0022 
 H                     4.7252    1.6025   -0.0026 
 H                     2.01812  -3.0466    0.02541 
 H                     4.6701   -2.6877   -0.0009 
 H                     5.9297   -0.5403   -0.003 
 C                    -3.6119    1.4427   -0.0019 
 C                    -1.5565    3.1091   -0.0009 
 H                    -5.065    -0.1147   -0.0031 
 H                    -4.3776    2.2117   -0.0037 
 H                    -2.1506    4.0172   -0.003 
 H                     0.263     4.2057   -0.0022 
 H                     1.55104  -3.73312  -0.06978 
 
 Add virtual bond connecting atoms H26        and C16        Dist= 2.82D+00.
 Add virtual bond connecting atoms H35        and H18        Dist= 2.99D+00.

 GradGradGradGradGradGradGradGradGradGradGradGradGradGradGradGradGradGrad
 Berny optimization.
 Initialization pass.
                           ----------------------------
                           !    Initial Parameters    !
                           ! (Angstroms and Degrees)  !
 --------------------------                            --------------------------
 ! Name  Definition              Value          Derivative Info.                !
 --------------------------------------------------------------------------------
 ! R1    R(1,2)                  1.4274         calculate D2E/DX2 analytically  !
 ! R2    R(1,4)                  1.3889         calculate D2E/DX2 analytically  !
 ! R3    R(1,19)                 1.0846         calculate D2E/DX2 analytically  !
 ! R4    R(2,3)                  1.3832         calculate D2E/DX2 analytically  !
 ! R5    R(2,18)                 1.0839         calculate D2E/DX2 analytically  !
 ! R6    R(3,6)                  1.4248         calculate D2E/DX2 analytically  !
 ! R7    R(3,7)                  1.5047         calculate D2E/DX2 analytically  !
 ! R8    R(4,5)                  1.4223         calculate D2E/DX2 analytically  !
 ! R9    R(4,20)                 1.0849         calculate D2E/DX2 analytically  !
 ! R10   R(5,6)                  1.3893         calculate D2E/DX2 analytically  !
 ! R11   R(5,21)                 1.445          calculate D2E/DX2 analytically  !
 ! R12   R(6,9)                  1.3921         calculate D2E/DX2 analytically  !
 ! R13   R(7,8)                  1.4032         calculate D2E/DX2 analytically  !
 ! R14   R(7,13)                 1.41           calculate D2E/DX2 analytically  !
 ! R15   R(8,9)                  1.4035         calculate D2E/DX2 analytically  !
 ! R16   R(8,10)                 1.4012         calculate D2E/DX2 analytically  !
 ! R17   R(9,22)                 1.375          calculate D2E/DX2 analytically  !
 ! R18   R(10,11)                1.3983         calculate D2E/DX2 analytically  !
 ! R19   R(10,23)                1.454          calculate D2E/DX2 analytically  !
 ! R20   R(11,12)                1.4173         calculate D2E/DX2 analytically  !
 ! R21   R(11,24)                1.0857         calculate D2E/DX2 analytically  !
 ! R22   R(12,13)                1.4608         calculate D2E/DX2 analytically  !
 ! R23   R(12,14)                1.4275         calculate D2E/DX2 analytically  !
 ! R24   R(13,16)                1.4237         calculate D2E/DX2 analytically  !
 ! R25   R(14,15)                1.3694         calculate D2E/DX2 analytically  !
 ! R26   R(14,25)                1.0852         calculate D2E/DX2 analytically  !
 ! R27   R(15,17)                1.4193         calculate D2E/DX2 analytically  !
 ! R28   R(15,28)                1.084          calculate D2E/DX2 analytically  !
 ! R29   R(16,17)                1.3707         calculate D2E/DX2 analytically  !
 ! R30   R(16,26)                1.4907         calculate D2E/DX2 analytically  !
 ! R31   R(17,27)                1.0844         calculate D2E/DX2 analytically  !
 ! R32   R(18,35)                1.5817         calculate D2E/DX2 analytically  !
 ! R33   R(21,29)                1.3863         calculate D2E/DX2 analytically  !
 ! R34   R(21,31)                1.0853         calculate D2E/DX2 analytically  !
 ! R35   R(22,29)                1.4417         calculate D2E/DX2 analytically  !
 ! R36   R(22,30)                1.4516         calculate D2E/DX2 analytically  !
 ! R37   R(23,30)                1.3789         calculate D2E/DX2 analytically  !
 ! R38   R(23,34)                1.0853         calculate D2E/DX2 analytically  !
 ! R39   R(26,35)                0.8358         calculate D2E/DX2 analytically  !
 ! R40   R(29,32)                1.0852         calculate D2E/DX2 analytically  !
 ! R41   R(30,33)                1.0852         calculate D2E/DX2 analytically  !
 ! A1    A(2,1,4)              123.9549         calculate D2E/DX2 analytically  !
 ! A2    A(2,1,19)             117.6227         calculate D2E/DX2 analytically  !
 ! A3    A(4,1,19)             118.4224         calculate D2E/DX2 analytically  !
 ! A4    A(1,2,3)              118.8074         calculate D2E/DX2 analytically  !
 ! A5    A(1,2,18)             118.4712         calculate D2E/DX2 analytically  !
 ! A6    A(3,2,18)             122.7215         calculate D2E/DX2 analytically  !
 ! A7    A(2,3,6)              115.0642         calculate D2E/DX2 analytically  !
 ! A8    A(2,3,7)              139.4915         calculate D2E/DX2 analytically  !
 ! A9    A(6,3,7)              105.4442         calculate D2E/DX2 analytically  !
 ! A10   A(1,4,5)              119.2372         calculate D2E/DX2 analytically  !
 ! A11   A(1,4,20)             119.7203         calculate D2E/DX2 analytically  !
 ! A12   A(5,4,20)             121.0425         calculate D2E/DX2 analytically  !
 ! A13   A(4,5,6)              114.388          calculate D2E/DX2 analytically  !
 ! A14   A(4,5,21)             130.7944         calculate D2E/DX2 analytically  !
 ! A15   A(6,5,21)             114.8175         calculate D2E/DX2 analytically  !
 ! A16   A(3,6,5)              128.5482         calculate D2E/DX2 analytically  !
 ! A17   A(3,6,9)              110.0354         calculate D2E/DX2 analytically  !
 ! A18   A(5,6,9)              121.4162         calculate D2E/DX2 analytically  !
 ! A19   A(3,7,8)              105.741          calculate D2E/DX2 analytically  !
 ! A20   A(3,7,13)             137.9369         calculate D2E/DX2 analytically  !
 ! A21   A(8,7,13)             116.322          calculate D2E/DX2 analytically  !
 ! A22   A(7,8,9)              110.5563         calculate D2E/DX2 analytically  !
 ! A23   A(7,8,10)             128.7266         calculate D2E/DX2 analytically  !
 ! A24   A(9,8,10)             120.7169         calculate D2E/DX2 analytically  !
 ! A25   A(6,9,8)              108.223          calculate D2E/DX2 analytically  !
 ! A26   A(6,9,22)             125.7049         calculate D2E/DX2 analytically  !
 ! A27   A(8,9,22)             126.0719         calculate D2E/DX2 analytically  !
 ! A28   A(8,10,11)            114.755          calculate D2E/DX2 analytically  !
 ! A29   A(8,10,23)            114.8444         calculate D2E/DX2 analytically  !
 ! A30   A(11,10,23)           130.4006         calculate D2E/DX2 analytically  !
 ! A31   A(10,11,12)           120.3834         calculate D2E/DX2 analytically  !
 ! A32   A(10,11,24)           121.2109         calculate D2E/DX2 analytically  !
 ! A33   A(12,11,24)           118.4057         calculate D2E/DX2 analytically  !
 ! A34   A(11,12,13)           122.5208         calculate D2E/DX2 analytically  !
 ! A35   A(11,12,14)           119.6861         calculate D2E/DX2 analytically  !
 ! A36   A(13,12,14)           117.7931         calculate D2E/DX2 analytically  !
 ! A37   A(7,13,12)            117.2921         calculate D2E/DX2 analytically  !
 ! A38   A(7,13,16)            124.2785         calculate D2E/DX2 analytically  !
 ! A39   A(12,13,16)           118.4294         calculate D2E/DX2 analytically  !
 ! A40   A(12,14,15)           121.7405         calculate D2E/DX2 analytically  !
 ! A41   A(12,14,25)           118.1846         calculate D2E/DX2 analytically  !
 ! A42   A(15,14,25)           120.0749         calculate D2E/DX2 analytically  !
 ! A43   A(14,15,17)           120.1808         calculate D2E/DX2 analytically  !
 ! A44   A(14,15,28)           120.1754         calculate D2E/DX2 analytically  !
 ! A45   A(17,15,28)           119.6438         calculate D2E/DX2 analytically  !
 ! A46   A(13,16,17)           121.3203         calculate D2E/DX2 analytically  !
 ! A47   A(13,16,26)           118.888          calculate D2E/DX2 analytically  !
 ! A48   A(17,16,26)           119.7838         calculate D2E/DX2 analytically  !
 ! A49   A(15,17,16)           120.5359         calculate D2E/DX2 analytically  !
 ! A50   A(15,17,27)           119.5065         calculate D2E/DX2 analytically  !
 ! A51   A(16,17,27)           119.9576         calculate D2E/DX2 analytically  !
 ! A52   A(2,18,35)            144.7435         calculate D2E/DX2 analytically  !
 ! A53   A(5,21,29)            122.6569         calculate D2E/DX2 analytically  !
 ! A54   A(5,21,31)            118.8176         calculate D2E/DX2 analytically  !
 ! A55   A(29,21,31)           118.5256         calculate D2E/DX2 analytically  !
 ! A56   A(9,22,29)            113.8952         calculate D2E/DX2 analytically  !
 ! A57   A(9,22,30)            113.8209         calculate D2E/DX2 analytically  !
 ! A58   A(29,22,30)           132.2839         calculate D2E/DX2 analytically  !
 ! A59   A(10,23,30)           122.9169         calculate D2E/DX2 analytically  !
 ! A60   A(10,23,34)           118.4602         calculate D2E/DX2 analytically  !
 ! A61   A(30,23,34)           118.6229         calculate D2E/DX2 analytically  !
 ! A62   A(21,29,22)           121.5093         calculate D2E/DX2 analytically  !
 ! A63   A(21,29,32)           118.7026         calculate D2E/DX2 analytically  !
 ! A64   A(22,29,32)           119.788          calculate D2E/DX2 analytically  !
 ! A65   A(22,30,23)           121.629          calculate D2E/DX2 analytically  !
 ! A66   A(22,30,33)           119.6112         calculate D2E/DX2 analytically  !
 ! A67   A(23,30,33)           118.7599         calculate D2E/DX2 analytically  !
 ! A68   A(18,35,26)           115.8819         calculate D2E/DX2 analytically  !
 ! A69   L(16,26,35,3,-1)      175.4097         calculate D2E/DX2 analytically  !
 ! A70   L(16,26,35,3,-2)      172.54           calculate D2E/DX2 analytically  !
 ! D1    D(4,1,2,3)              0.0396         calculate D2E/DX2 analytically  !
 ! D2    D(4,1,2,18)          -179.9543         calculate D2E/DX2 analytically  !
 ! D3    D(19,1,2,3)          -179.973          calculate D2E/DX2 analytically  !
 ! D4    D(19,1,2,18)            0.0331         calculate D2E/DX2 analytically  !
 ! D5    D(2,1,4,5)             -0.0149         calculate D2E/DX2 analytically  !
 ! D6    D(2,1,4,20)           179.968          calculate D2E/DX2 analytically  !
 ! D7    D(19,1,4,5)           179.9978         calculate D2E/DX2 analytically  !
 ! D8    D(19,1,4,20)           -0.0194         calculate D2E/DX2 analytically  !
 ! D9    D(1,2,3,6)             -0.0099         calculate D2E/DX2 analytically  !
 ! D10   D(1,2,3,7)           -179.88           calculate D2E/DX2 analytically  !
 ! D11   D(18,2,3,6)           179.9838         calculate D2E/DX2 analytically  !
 ! D12   D(18,2,3,7)             0.1136         calculate D2E/DX2 analytically  !
 ! D13   D(1,2,18,35)          175.6484         calculate D2E/DX2 analytically  !
 ! D14   D(3,2,18,35)           -4.3453         calculate D2E/DX2 analytically  !
 ! D15   D(2,3,6,5)             -0.0482         calculate D2E/DX2 analytically  !
 ! D16   D(2,3,6,9)           -179.9053         calculate D2E/DX2 analytically  !
 ! D17   D(7,3,6,5)            179.8643         calculate D2E/DX2 analytically  !
 ! D18   D(7,3,6,9)              0.0072         calculate D2E/DX2 analytically  !
 ! D19   D(2,3,7,8)            179.8762         calculate D2E/DX2 analytically  !
 ! D20   D(2,3,7,13)            -0.0242         calculate D2E/DX2 analytically  !
 ! D21   D(6,3,7,8)             -0.0018         calculate D2E/DX2 analytically  !
 ! D22   D(6,3,7,13)          -179.9022         calculate D2E/DX2 analytically  !
 ! D23   D(1,4,5,6)             -0.0361         calculate D2E/DX2 analytically  !
 ! D24   D(1,4,5,21)           179.8813         calculate D2E/DX2 analytically  !
 ! D25   D(20,4,5,6)           179.9813         calculate D2E/DX2 analytically  !
 ! D26   D(20,4,5,21)           -0.1013         calculate D2E/DX2 analytically  !
 ! D27   D(4,5,6,3)              0.0713         calculate D2E/DX2 analytically  !
 ! D28   D(4,5,6,9)            179.914          calculate D2E/DX2 analytically  !
 ! D29   D(21,5,6,3)          -179.8598         calculate D2E/DX2 analytically  !
 ! D30   D(21,5,6,9)            -0.0171         calculate D2E/DX2 analytically  !
 ! D31   D(4,5,21,29)         -179.8581         calculate D2E/DX2 analytically  !
 ! D32   D(4,5,21,31)            0.1109         calculate D2E/DX2 analytically  !
 ! D33   D(6,5,21,29)            0.059          calculate D2E/DX2 analytically  !
 ! D34   D(6,5,21,31)         -179.972          calculate D2E/DX2 analytically  !
 ! D35   D(3,6,9,8)             -0.01           calculate D2E/DX2 analytically  !
 ! D36   D(3,6,9,22)           179.8291         calculate D2E/DX2 analytically  !
 ! D37   D(5,6,9,8)           -179.879          calculate D2E/DX2 analytically  !
 ! D38   D(5,6,9,22)            -0.0399         calculate D2E/DX2 analytically  !
 ! D39   D(3,7,8,9)             -0.0042         calculate D2E/DX2 analytically  !
 ! D40   D(3,7,8,10)          -179.8548         calculate D2E/DX2 analytically  !
 ! D41   D(13,7,8,9)           179.9213         calculate D2E/DX2 analytically  !
 ! D42   D(13,7,8,10)            0.0707         calculate D2E/DX2 analytically  !
 ! D43   D(3,7,13,12)          179.8867         calculate D2E/DX2 analytically  !
 ! D44   D(3,7,13,16)           -0.1382         calculate D2E/DX2 analytically  !
 ! D45   D(8,7,13,12)           -0.0064         calculate D2E/DX2 analytically  !
 ! D46   D(8,7,13,16)          179.9687         calculate D2E/DX2 analytically  !
 ! D47   D(7,8,9,6)              0.0088         calculate D2E/DX2 analytically  !
 ! D48   D(7,8,9,22)          -179.8295         calculate D2E/DX2 analytically  !
 ! D49   D(10,8,9,6)           179.8733         calculate D2E/DX2 analytically  !
 ! D50   D(10,8,9,22)            0.035          calculate D2E/DX2 analytically  !
 ! D51   D(7,8,10,11)           -0.0825         calculate D2E/DX2 analytically  !
 ! D52   D(7,8,10,23)          179.8716         calculate D2E/DX2 analytically  !
 ! D53   D(9,8,10,11)         -179.9198         calculate D2E/DX2 analytically  !
 ! D54   D(9,8,10,23)            0.0343         calculate D2E/DX2 analytically  !
 ! D55   D(6,9,22,29)            0.0515         calculate D2E/DX2 analytically  !
 ! D56   D(6,9,22,30)         -179.887          calculate D2E/DX2 analytically  !
 ! D57   D(8,9,22,29)          179.8624         calculate D2E/DX2 analytically  !
 ! D58   D(8,9,22,30)           -0.0761         calculate D2E/DX2 analytically  !
 ! D59   D(8,10,11,12)           0.0298         calculate D2E/DX2 analytically  !
 ! D60   D(8,10,11,24)        -179.9924         calculate D2E/DX2 analytically  !
 ! D61   D(23,10,11,12)       -179.9155         calculate D2E/DX2 analytically  !
 ! D62   D(23,10,11,24)          0.0623         calculate D2E/DX2 analytically  !
 ! D63   D(8,10,23,30)          -0.0578         calculate D2E/DX2 analytically  !
 ! D64   D(8,10,23,34)         179.9938         calculate D2E/DX2 analytically  !
 ! D65   D(11,10,23,30)        179.8874         calculate D2E/DX2 analytically  !
 ! D66   D(11,10,23,34)         -0.061          calculate D2E/DX2 analytically  !
 ! D67   D(10,11,12,13)          0.0253         calculate D2E/DX2 analytically  !
 ! D68   D(10,11,12,14)       -179.9933         calculate D2E/DX2 analytically  !
 ! D69   D(24,11,12,13)       -179.953          calculate D2E/DX2 analytically  !
 ! D70   D(24,11,12,14)          0.0283         calculate D2E/DX2 analytically  !
 ! D71   D(11,12,13,7)          -0.0376         calculate D2E/DX2 analytically  !
 ! D72   D(11,12,13,16)        179.9858         calculate D2E/DX2 analytically  !
 ! D73   D(14,12,13,7)         179.9807         calculate D2E/DX2 analytically  !
 ! D74   D(14,12,13,16)          0.0041         calculate D2E/DX2 analytically  !
 ! D75   D(11,12,14,15)       -179.9836         calculate D2E/DX2 analytically  !
 ! D76   D(11,12,14,25)          0.0175         calculate D2E/DX2 analytically  !
 ! D77   D(13,12,14,15)         -0.0013         calculate D2E/DX2 analytically  !
 ! D78   D(13,12,14,25)        179.9998         calculate D2E/DX2 analytically  !
 ! D79   D(7,13,16,17)        -179.9806         calculate D2E/DX2 analytically  !
 ! D80   D(7,13,16,26)          -1.0062         calculate D2E/DX2 analytically  !
 ! D81   D(12,13,16,17)         -0.0057         calculate D2E/DX2 analytically  !
 ! D82   D(12,13,16,26)        178.9686         calculate D2E/DX2 analytically  !
 ! D83   D(12,14,15,17)          0.0            calculate D2E/DX2 analytically  !
 ! D84   D(12,14,15,28)        179.9985         calculate D2E/DX2 analytically  !
 ! D85   D(25,14,15,17)        179.9989         calculate D2E/DX2 analytically  !
 ! D86   D(25,14,15,28)         -0.0026         calculate D2E/DX2 analytically  !
 ! D87   D(14,15,17,16)         -0.0015         calculate D2E/DX2 analytically  !
 ! D88   D(14,15,17,27)        179.9983         calculate D2E/DX2 analytically  !
 ! D89   D(28,15,17,16)        180.0            calculate D2E/DX2 analytically  !
 ! D90   D(28,15,17,27)         -0.0002         calculate D2E/DX2 analytically  !
 ! D91   D(13,16,17,15)          0.0045         calculate D2E/DX2 analytically  !
 ! D92   D(13,16,17,27)       -179.9953         calculate D2E/DX2 analytically  !
 ! D93   D(26,16,17,15)       -178.9609         calculate D2E/DX2 analytically  !
 ! D94   D(26,16,17,27)          1.0393         calculate D2E/DX2 analytically  !
 ! D95   D(13,16,35,18)         -4.3579         calculate D2E/DX2 analytically  !
 ! D96   D(17,16,35,18)        177.6614         calculate D2E/DX2 analytically  !
 ! D97   D(2,18,35,26)          11.9485         calculate D2E/DX2 analytically  !
 ! D98   D(5,21,29,22)          -0.0478         calculate D2E/DX2 analytically  !
 ! D99   D(5,21,29,32)         179.9749         calculate D2E/DX2 analytically  !
 ! D100  D(31,21,29,22)        179.9831         calculate D2E/DX2 analytically  !
 ! D101  D(31,21,29,32)          0.0058         calculate D2E/DX2 analytically  !
 ! D102  D(9,22,29,21)          -0.0075         calculate D2E/DX2 analytically  !
 ! D103  D(9,22,29,32)         179.9695         calculate D2E/DX2 analytically  !
 ! D104  D(30,22,29,21)        179.9164         calculate D2E/DX2 analytically  !
 ! D105  D(30,22,29,32)         -0.1065         calculate D2E/DX2 analytically  !
 ! D106  D(9,22,30,23)           0.0496         calculate D2E/DX2 analytically  !
 ! D107  D(9,22,30,33)        -179.993          calculate D2E/DX2 analytically  !
 ! D108  D(29,22,30,23)       -179.8744         calculate D2E/DX2 analytically  !
 ! D109  D(29,22,30,33)          0.0831         calculate D2E/DX2 analytically  !
 ! D110  D(10,23,30,22)          0.0155         calculate D2E/DX2 analytically  !
 ! D111  D(10,23,30,33)       -179.9423         calculate D2E/DX2 analytically  !
 ! D112  D(34,23,30,22)        179.9638         calculate D2E/DX2 analytically  !
 ! D113  D(34,23,30,33)          0.006          calculate D2E/DX2 analytically  !
 --------------------------------------------------------------------------------
 Trust Radius=3.00D-01 FncErr=1.00D-07 GrdErr=1.00D-06 EigMax=2.50D+02 EigMin=1.00D-04
 Number of steps in this run=    210 maximum allowed number of steps=    210.
 Search for a saddle point of order  1.
 GradGradGradGradGradGradGradGradGradGradGradGradGradGradGradGradGradGrad

                          Input orientation:                          
 ---------------------------------------------------------------------
 Center     Atomic      Atomic             Coordinates (Angstroms)
 Number     Number       Type             X           Y           Z
 ---------------------------------------------------------------------
      1          6           0       -2.160600   -3.232300   -0.001700
      2          6           0       -0.807200   -2.778800   -0.000100
      3          6           0       -0.560300   -1.417800    0.002400
      4          6           0       -3.262200   -2.386400   -0.001700
      5          6           0       -3.057300   -0.978900    0.000300
      6          6           0       -1.722500   -0.593500    0.002900
      7          6           0        0.605600   -0.466600    0.002700
      8          6           0        0.046800    0.820500    0.003300
      9          6           0       -1.354900    0.749200    0.003300
     10          6           0        0.700400    2.059900    0.001000
     11          6           0        2.096700    1.985500   -0.000500
     12          6           0        2.747500    0.726400   -0.000300
     13          6           0        2.013900   -0.536800    0.000900
     14          6           0        4.173800    0.667800   -0.001700
     15          6           0        4.845800   -0.525400   -0.001900
     16          6           0        2.756200   -1.751700    0.000700
     17          6           0        4.126900   -1.749200   -0.000700
     18          1           0       -0.014500   -3.518100   -0.001000
     19          1           0       -2.332100   -4.303300   -0.003200
     20          1           0       -4.262600   -2.806100   -0.003500
     21          6           0       -4.003800    0.112900   -0.001500
     22          6           0       -2.219900    1.818000    0.000500
     23          6           0       -0.181700    3.215700   -0.000500
     24          1           0        2.707900    2.882800   -0.002200
     25          1           0        4.725200    1.602500   -0.002600
     26          1           0        2.018120   -3.046600    0.025410
     27          1           0        4.670100   -2.687700   -0.000900
     28          1           0        5.929700   -0.540300   -0.003000
     29          6           0       -3.611900    1.442700   -0.001900
     30          6           0       -1.556500    3.109100   -0.000900
     31          1           0       -5.065000   -0.114700   -0.003100
     32          1           0       -4.377600    2.211700   -0.003700
     33          1           0       -2.150600    4.017200   -0.003000
     34          1           0        0.263000    4.205700   -0.002200
     35          1           0        1.551040   -3.733120   -0.069780
 ---------------------------------------------------------------------
                    Distance matrix (angstroms):
                    1          2          3          4          5
     1  C    0.000000
     2  C    1.427360   0.000000
     3  C    2.419377   1.383216   0.000000
     4  C    1.388909   2.486163   2.870273   0.000000
     5  C    2.425260   2.881422   2.535280   1.422338   0.000000
     6  C    2.674924   2.369244   1.424844   2.363300   1.389328
     7  C    3.911646   2.709664   1.504694   4.318047   3.698553
     8  C    4.614957   3.699228   2.319172   4.608005   3.587936
     9  C    4.062206   3.570262   2.308090   3.670123   2.425800
    10  C    6.016038   5.068124   3.699157   5.955820   4.832661
    11  C    6.734244   5.579533   4.317651   6.916019   5.945703
    12  C    6.305613   4.992226   3.941972   6.768014   6.050103
    13  C    4.969122   3.603494   2.720785   5.590909   5.090434
    14  C    7.438777   6.057179   5.173147   8.038796   7.416228
    15  C    7.511122   6.085575   5.479262   8.318833   7.916101
    16  C    5.134891   3.708471   3.333266   6.051776   5.864640
    17  C    6.460050   5.040379   4.698902   7.416524   7.225378
    18  H    2.165047   1.083946   2.170062   3.439230   3.963101
    19  H    1.084645   2.156254   3.386062   2.130632   3.402582
    20  H    2.144774   3.455510   3.954041   1.084874   2.188932
    21  C    3.819391   4.310474   3.768388   2.607004   1.444954
    22  C    5.050649   4.808980   3.636575   4.331671   2.919570
    23  C    6.744831   6.027046   4.648943   6.393200   5.085641
    24  H    7.816440   6.664056   5.401510   7.962824   6.939039
    25  H    8.413652   7.057141   6.087590   8.928039   8.199448
    26  H    4.182932   2.838098   3.049880   5.321502   5.480502
    27  H    6.852376   5.478058   5.382355   7.938020   7.914083
    28  H    8.526419   7.099064   6.549056   9.375453   8.997697
    29  C    4.895089   5.068275   4.182672   3.845035   2.484297
    30  C    6.370109   5.935387   4.635218   5.754123   4.354784
    31  H    4.260865   5.022579   4.689395   2.900123   2.185798
    32  H    5.878114   6.136193   5.267361   4.731453   3.452989
    33  H    7.249507   6.927507   5.662889   6.499365   5.077709
    34  H    7.822895   7.066015   5.683449   7.475481   6.156661
    35  H    3.745895   2.544971   3.134274   4.998557   5.369119
                    6          7          8          9         10
     6  C    0.000000
     7  C    2.331556   0.000000
     8  C    2.264910   1.403169   0.000000
     9  C    1.392111   2.306888   1.403512   0.000000
    10  C    3.593185   2.528279   1.401182   2.437662   0.000000
    11  C    4.608421   2.869875   2.357823   3.666333   1.398282
    12  C    4.660799   2.451733   2.702341   4.102465   2.443121
    13  C    3.736831   1.410050   2.389927   3.605914   2.910006
    14  C    6.029698   3.744187   4.129827   5.529301   3.741986
    15  C    6.568655   4.240610   4.984162   6.330349   4.885502
    16  C    4.626033   2.505308   3.735916   4.812032   4.330659
    17  C    5.962477   3.747616   4.821887   6.024297   5.123490
    18  H    3.386822   3.113871   4.339035   4.472867   5.623626
    19  H    3.759557   4.832223   5.649118   5.146136   7.048857
    20  H    3.368642   5.401173   5.632335   4.592921   6.950492
    21  C    2.388169   4.645687   4.111944   2.724256   5.091200
    22  C    2.462264   3.633573   2.476478   1.374979   2.930302
    23  C    4.109024   3.765526   2.406078   2.731306   1.453952
    24  H    5.631441   3.954513   3.366685   4.588968   2.169615
    25  H    6.811408   4.610022   4.743310   6.139688   4.050709
    26  H    4.473304   2.941450   4.340628   5.077977   5.273834
    27  H    6.726888   4.631788   5.803653   6.936348   6.188556
    28  H    7.652387   5.324613   6.038239   7.397854   5.840089
    29  C    2.777763   4.629552   3.711232   2.361148   4.356246
    30  C    3.706321   4.178555   2.794330   2.368499   2.488860
    31  H    3.376624   5.681511   5.196647   3.809358   6.161878
    32  H    3.862479   5.657350   4.637974   3.357927   5.080271
    33  H    4.630535   5.263187   3.879110   3.363481   3.458213
    34  H    5.193704   4.684846   3.392101   3.816415   2.189928
    35  H    4.536360   3.401362   4.796200   5.342380   5.855568
                   11         12         13         14         15
    11  C    0.000000
    12  C    1.417347   0.000000
    13  C    2.523659   1.460769   0.000000
    14  C    2.459813   1.427504   2.473102   0.000000
    15  C    3.723194   2.443331   2.831924   1.369420   0.000000
    16  C    3.794945   2.478115   1.423724   2.804207   2.422859
    17  C    4.250847   2.833962   2.436121   2.417455   1.419333
    18  H    5.894640   5.064032   3.605906   5.921454   5.707782
    19  H    7.691767   7.148442   5.751022   8.187709   8.111398
    20  H    7.962420   7.849845   6.674144   9.123641   9.389598
    21  C    6.381437   6.779118   6.052671   8.196405   8.872590
    22  C    4.319849   5.085927   4.844600   6.496335   7.444169
    23  C    2.589305   3.844064   4.347634   5.046006   6.266705
    24  H    1.085687   2.156764   3.489314   2.656142   4.023238
    25  H    2.656258   2.163066   3.453660   1.085222   2.131315
    26  H    5.032780   3.842940   2.509923   4.294701   3.788531
    27  H    5.334903   3.918223   3.417861   3.392005   2.169427
    28  H    4.590377   3.425045   3.915804   2.131359   1.084003
    29  C    5.734348   6.399614   5.963896   7.824167   8.683669
    30  C    3.822087   4.919520   5.102974   6.228666   7.361999
    31  H    7.463296   7.857647   7.091474   9.271879   9.919306
    32  H    6.478251   7.278267   6.957409   8.689653   9.620958
    33  H    4.708223   5.900911   6.171061   7.156572   8.341752
    34  H    2.879539   4.275310   5.055390   5.273622   6.586757
    35  H    5.745012   4.617755   3.230433   5.123632   4.598861
                   16         17         18         19         20
    16  C    0.000000
    17  C    1.370703   0.000000
    18  H    3.285871   4.503354   0.000000
    19  H    5.692229   6.945654   2.447001   0.000000
    20  H    7.097558   8.455812   4.307355   2.443039   0.000000
    21  C    7.012442   8.341205   5.394319   4.722013   2.930451
    22  C    6.124078   7.280576   5.773886   6.122329   5.055189
    23  C    5.771163   6.573756   6.735875   7.820460   7.274327
    24  H    4.634753   4.844480   6.955788   8.777336   8.997303
    25  H    3.889425   3.404682   6.977485   9.202389  10.010809
    26  H    1.490684   2.476062   2.086757   4.528193   6.285389
    27  H    2.130519   1.084365   4.757630   7.186165   8.933485
    28  H    3.396852   2.170606   6.648369   9.078409  10.441112
    29  C    7.124387   8.371216   6.127873   5.886799   4.298339
    30  C    6.498212   7.476905   6.804230   7.452868   6.504812
    31  H    7.990679   9.336092   6.090212   5.001311   2.808466
    32  H    8.160862   9.381645   7.201893   6.828565   5.019118
    33  H    7.573434   8.523989   7.832220   8.322479   7.142686
    34  H    6.458070   7.098631   7.728783   8.895933   8.345442
    35  H    2.320216   3.252040   1.581733   3.925343   5.887459
                   21         22         23         24         25
    21  C    0.000000
    22  C    2.467726   0.000000
    23  C    4.922989   2.471402   0.000000
    24  H    7.260803   5.041529   2.908713   0.000000
    25  H    8.855188   6.948443   5.165277   2.389282   0.000000
    26  H    6.800492   6.451803   6.637491   5.969451   5.379888
    27  H    9.114818   8.232462   7.641341   5.905989   4.290554
    28  H    9.954953   8.483960   7.173336   4.700809   2.458132
    29  C    1.386345   1.441707   3.861321   6.481802   8.338631
    30  C    3.868655   1.451565   1.378927   4.270401   6.459845
    31  H    1.085334   3.439467   5.910854   8.330845   9.939658
    32  H    2.131828   2.193328   4.314349   7.117211   9.123162
    33  H    4.321795   2.200294   2.125788   4.989177   7.287483
    34  H    5.912410   3.444693   1.085293   2.779856   5.166031
    35  H    6.756684   6.711174   7.161933   6.716643   6.208756
                   26         27         28         29         30
    26  H    0.000000
    27  H    2.676285   0.000000
    28  H    4.645730   2.489563   0.000000
    29  C    7.200811   9.254822   9.745482   0.000000
    30  C    7.118374   8.507258   8.328344   2.646046   0.000000
    31  H    7.665992  10.069385  11.002934   2.130022   4.764710
    32  H    8.279843  10.289072  10.668362   1.085201   2.960395
    33  H    8.202213   9.564394   9.276964   2.960312   1.085175
    34  H    7.461706   8.181778   7.391617   4.759099   2.124409
    35  H    0.835784   3.290317   5.419522   7.310928   7.515153
                   31         32         33         34         35
    31  H    0.000000
    32  H    2.425831   0.000000
    33  H    5.056315   2.866943   0.000000
    34  H    6.859551   5.050862   2.420950   0.000000
    35  H    7.541180   8.396072   8.589183   8.042915   0.000000
 Stoichiometry    C22H13(2)
 Framework group  C1[X(C22H13)]
 Deg. of freedom    99
 Full point group                 C1      NOp   1
 Largest Abelian subgroup         C1      NOp   1
 Largest concise Abelian subgroup C1      NOp   1
                         Standard orientation:                         
 ---------------------------------------------------------------------
 Center     Atomic      Atomic             Coordinates (Angstroms)
 Number     Number       Type             X           Y           Z
 ---------------------------------------------------------------------
      1          6           0        2.133452   -3.228503    0.000402
      2          6           0        0.785281   -2.759686   -0.001116
      3          6           0        0.553828   -1.395974   -0.003160
      4          6           0        3.244572   -2.395147    0.000755
      5          6           0        3.055644   -0.985414   -0.000771
      6          6           0        1.725300   -0.584904   -0.003311
      7          6           0       -0.601212   -0.431615   -0.003196
      8          6           0       -0.027854    0.849066   -0.003321
      9          6           0        1.372947    0.761878   -0.003268
     10          6           0       -0.667360    2.095796   -0.000629
     11          6           0       -2.064414    2.037232    0.000769
     12          6           0       -2.729448    0.785592    0.000098
     13          6           0       -2.010217   -0.485844   -0.001498
     14          6           0       -4.156321    0.743167    0.001399
     15          6           0       -4.841806   -0.442337    0.001150
     16          6           0       -2.766244   -1.692249   -0.001758
     17          6           0       -4.136828   -1.674209   -0.000433
     18          1           0       -0.015750   -3.489951   -0.000515
     19          1           0        2.292798   -4.301379    0.001541
     20          1           0        4.240149   -2.826164    0.002465
     21          6           0        4.014462    0.095584    0.001459
     22          6           0        2.250010    1.820801   -0.000051
     23          6           0        0.227788    3.241520    0.001319
     24          1           0       -2.665401    2.941404    0.002745
     25          1           0       -4.697087    1.684059    0.002591
     26          1           0       -2.042892   -2.995426   -0.026875
     27          1           0       -4.690634   -2.606490   -0.000587
     28          1           0       -5.925806   -0.444947    0.002185
     29          6           0        3.637665    1.429741    0.002296
     30          6           0        1.601291    3.119339    0.001758
     31          1           0        5.073013   -0.144034    0.003039
     32          1           0        4.412035    2.190010    0.004404
     33          1           0        2.205649    4.020644    0.004205
     34          1           0       -0.205659    4.236498    0.003337
     35          1           0       -1.583632   -3.687231    0.068104
 ---------------------------------------------------------------------
 Rotational constants (GHZ):           0.5271252           0.2579950           0.1732171
 Standard basis: 6-311+G(d,p) (5D, 7F)
 There are   584 symmetry adapted cartesian basis functions of A   symmetry.
 There are   562 symmetry adapted basis functions of A   symmetry.
   562 basis functions,   896 primitive gaussians,   584 cartesian basis functions
    73 alpha electrons       72 beta electrons
       nuclear repulsion energy      1588.1207143110 Hartrees.
 NAtoms=   35 NActive=   35 NUniq=   35 SFac= 1.00D+00 NAtFMM=   60 NAOKFM=F Big=F
 Integral buffers will be    131072 words long.
 Raffenetti 2 integral format.
 Two-electron integral symmetry is turned on.
 One-electron integrals computed using PRISM.
 NBasis=   562 RedAO= T EigKep=  1.29D-06  NBF=   562
 NBsUse=   547 1.00D-06 EigRej=  7.46D-07 NBFU=   547
 ExpMin= 4.38D-02 ExpMax= 4.56D+03 ExpMxC= 6.82D+02 IAcc=2 IRadAn=         4 AccDes= 0.00D+00
 Harris functional with IExCor=  402 and IRadAn=       4 diagonalized for initial guess.
 HarFok:  IExCor=  402 AccDes= 0.00D+00 IRadAn=         4 IDoV= 1 UseB2=F ITyADJ=14
 ICtDFT=  3500011 ScaDFX=  1.000000  1.000000  1.000000  1.000000
 FoFCou: FMM=F IPFlag=           0 FMFlag=      100000 FMFlg1=           0
         NFxFlg=           0 DoJE=T BraDBF=F KetDBF=T FulRan=T
         wScrn=  0.000000 ICntrl=       500 IOpCl=  0 I1Cent=   200000004 NGrid=           0
         NMat0=    1 NMatS0=      1 NMatT0=    0 NMatD0=    1 NMtDS0=    0 NMtDT0=    0
 Petite list used in FoFCou.
 Initial guess <Sx>= 0.0000 <Sy>= 0.0000 <Sz>= 0.5000 <S**2>= 0.7500 S= 0.5000
 Requested convergence on RMS density matrix=1.00D-08 within 128 cycles.
 Requested convergence on MAX density matrix=1.00D-06.
 Requested convergence on             energy=1.00D-06.
 No special actions if energy rises.
 Restarting incremental Fock formation.
 SCF Done:  E(UB3LYP) =  -846.264329478     A.U. after   22 cycles
            NFock= 22  Conv=0.46D-08     -V/T= 2.0044
 <Sx>= 0.0000 <Sy>= 0.0000 <Sz>= 0.5000 <S**2>= 0.7636 S= 0.5068
 <L.S>=  0.00000000000    
 Annihilation of the first spin contaminant:
 S**2 before annihilation     0.7636,   after     0.7501
 DoSCS=F DFT=T ScalE2(SS,OS)=  1.000000  1.000000
 Range of M.O.s used for correlation:     1   547
 NBasis=   562 NAE=    73 NBE=    72 NFC=     0 NFV=     0
 NROrb=    547 NOA=    73 NOB=    72 NVA=   474 NVB=   475

 **** Warning!!: The largest alpha MO coefficient is  0.13275662D+03


 **** Warning!!: The largest beta MO coefficient is  0.13220495D+03

 Symmetrizing basis deriv contribution to polar:
 IMax=3 JMax=2 DiffMx= 0.00D+00
 G2DrvN: will do    36 centers at a time, making    1 passes.
 Calling FoFCou, ICntrl=  3107 FMM=F I1Cent=   0 AccDes= 0.00D+00.
 End of G2Drv F.D. properties file   721 does not exist.
 End of G2Drv F.D. properties file   722 does not exist.
 End of G2Drv F.D. properties file   788 does not exist.
          IDoAtm=11111111111111111111111111111111111
          Differentiating once with respect to nuclear coordinates.
 CalDSu exits because no D1Ps are significant.
          There are   108 degrees of freedom in the 1st order CPHF.  IDoFFX=6 NUNeed=     0.
    102 vectors produced by pass  0 Test12= 6.88D-14 1.00D-09 XBig12= 4.67D-01 1.33D-01.
 AX will form   102 AO Fock derivatives at one time.
    102 vectors produced by pass  1 Test12= 6.88D-14 1.00D-09 XBig12= 1.24D-01 5.10D-02.
    102 vectors produced by pass  2 Test12= 6.88D-14 1.00D-09 XBig12= 1.87D-03 6.48D-03.
    102 vectors produced by pass  3 Test12= 6.88D-14 1.00D-09 XBig12= 1.21D-05 4.75D-04.
    102 vectors produced by pass  4 Test12= 6.88D-14 1.00D-09 XBig12= 7.78D-08 4.23D-05.
    102 vectors produced by pass  5 Test12= 6.88D-14 1.00D-09 XBig12= 5.34D-10 1.95D-06.
     91 vectors produced by pass  6 Test12= 6.88D-14 1.00D-09 XBig12= 2.50D-12 1.21D-07.
     39 vectors produced by pass  7 Test12= 6.88D-14 1.00D-09 XBig12= 1.55D-14 8.09D-09.
     24 vectors produced by pass  8 Test12= 6.88D-14 1.00D-09 XBig12= 2.12D-15 3.59D-09.
     24 vectors produced by pass  9 Test12= 6.88D-14 1.00D-09 XBig12= 8.28D-14 2.80D-08.
     24 vectors produced by pass 10 Test12= 6.88D-14 1.00D-09 XBig12= 1.56D-11 3.28D-07.
     12 vectors produced by pass 11 Test12= 6.88D-14 1.00D-09 XBig12= 4.79D-13 4.93D-08.
     10 vectors produced by pass 12 Test12= 6.88D-14 1.00D-09 XBig12= 3.88D-13 4.13D-08.
      7 vectors produced by pass 13 Test12= 6.88D-14 1.00D-09 XBig12= 1.27D-13 2.14D-08.
      7 vectors produced by pass 14 Test12= 6.88D-14 1.00D-09 XBig12= 2.76D-13 3.52D-08.
      1 vectors produced by pass 15 Test12= 6.88D-14 1.00D-09 XBig12= 2.97D-14 1.11D-08.
 InvSVY:  IOpt=1 It=  1 EMax= 8.88D-16
 Solved reduced A of dimension   851 with   108 vectors.
 End of Minotr F.D. properties file   721 does not exist.
 End of Minotr F.D. properties file   722 does not exist.
 End of Minotr F.D. properties file   788 does not exist.

 **********************************************************************

            Population analysis using the SCF density.

 **********************************************************************

 Orbital symmetries:
 Alpha Orbitals:
       Occupied  (A) (A) (A) (A) (A) (A) (A) (A) (A) (A) (A) (A)
                 (A) (A) (A) (A) (A) (A) (A) (A) (A) (A) (A) (A)
                 (A) (A) (A) (A) (A) (A) (A) (A) (A) (A) (A) (A)
                 (A) (A) (A) (A) (A) (A) (A) (A) (A) (A) (A) (A)
                 (A) (A) (A) (A) (A) (A) (A) (A) (A) (A) (A) (A)
                 (A) (A) (A) (A) (A) (A) (A) (A) (A) (A) (A) (A)
                 (A)
       Virtual   (A) (A) (A) (A) (A) (A) (A) (A) (A) (A) (A) (A)
                 (A) (A) (A) (A) (A) (A) (A) (A) (A) (A) (A) (A)
                 (A) (A) (A) (A) (A) (A) (A) (A) (A) (A) (A) (A)
                 (A) (A) (A) (A) (A) (A) (A) (A) (A) (A) (A) (A)
                 (A) (A) (A) (A) (A) (A) (A) (A) (A) (A) (A) (A)
                 (A) (A) (A) (A) (A) (A) (A) (A) (A) (A) (A) (A)
                 (A) (A) (A) (A) (A) (A) (A) (A) (A) (A) (A) (A)
                 (A) (A) (A) (A) (A) (A) (A) (A) (A) (A) (A) (A)
                 (A) (A) (A) (A) (A) (A) (A) (A) (A) (A) (A) (A)
                 (A) (A) (A) (A) (A) (A) (A) (A) (A) (A) (A) (A)
                 (A) (A) (A) (A) (A) (A) (A) (A) (A) (A) (A) (A)
                 (A) (A) (A) (A) (A) (A) (A) (A) (A) (A) (A) (A)
                 (A) (A) (A) (A) (A) (A) (A) (A) (A) (A) (A) (A)
                 (A) (A) (A) (A) (A) (A) (A) (A) (A) (A) (A) (A)
                 (A) (A) (A) (A) (A) (A) (A) (A) (A) (A) (A) (A)
                 (A) (A) (A) (A) (A) (A) (A) (A) (A) (A) (A) (A)
                 (A) (A) (A) (A) (A) (A) (A) (A) (A) (A) (A) (A)
                 (A) (A) (A) (A) (A) (A) (A) (A) (A) (A) (A) (A)
                 (A) (A) (A) (A) (A) (A) (A) (A) (A) (A) (A) (A)
                 (A) (A) (A) (A) (A) (A) (A) (A) (A) (A) (A) (A)
                 (A) (A) (A) (A) (A) (A) (A) (A) (A) (A) (A) (A)
                 (A) (A) (A) (A) (A) (A) (A) (A) (A) (A) (A) (A)
                 (A) (A) (A) (A) (A) (A) (A) (A) (A) (A) (A) (A)
                 (A) (A) (A) (A) (A) (A) (A) (A) (A) (A) (A) (A)
                 (A) (A) (A) (A) (A) (A) (A) (A) (A) (A) (A) (A)
                 (A) (A) (A) (A) (A) (A) (A) (A) (A) (A) (A) (A)
                 (A) (A) (A) (A) (A) (A) (A) (A) (A) (A) (A) (A)
                 (A) (A) (A) (A) (A) (A) (A) (A) (A) (A) (A) (A)
                 (A) (A) (A) (A) (A) (A) (A) (A) (A) (A) (A) (A)
                 (A) (A) (A) (A) (A) (A) (A) (A) (A) (A) (A) (A)
                 (A) (A) (A) (A) (A) (A) (A) (A) (A) (A) (A) (A)
                 (A) (A) (A) (A) (A) (A) (A) (A) (A) (A) (A) (A)
                 (A) (A) (A) (A) (A) (A) (A) (A) (A) (A) (A) (A)
                 (A) (A) (A) (A) (A) (A) (A) (A) (A) (A) (A) (A)
                 (A) (A) (A) (A) (A) (A) (A) (A) (A) (A) (A) (A)
                 (A) (A) (A) (A) (A) (A) (A) (A) (A) (A) (A) (A)
                 (A) (A) (A) (A) (A) (A) (A) (A) (A) (A) (A) (A)
                 (A) (A) (A) (A) (A) (A) (A) (A) (A) (A) (A) (A)
                 (A) (A) (A) (A) (A) (A) (A) (A) (A) (A) (A) (A)
                 (A) (A) (A) (A) (A) (A)
 Beta  Orbitals:
       Occupied  (A) (A) (A) (A) (A) (A) (A) (A) (A) (A) (A) (A)
                 (A) (A) (A) (A) (A) (A) (A) (A) (A) (A) (A) (A)
                 (A) (A) (A) (A) (A) (A) (A) (A) (A) (A) (A) (A)
                 (A) (A) (A) (A) (A) (A) (A) (A) (A) (A) (A) (A)
                 (A) (A) (A) (A) (A) (A) (A) (A) (A) (A) (A) (A)
                 (A) (A) (A) (A) (A) (A) (A) (A) (A) (A) (A) (A)
       Virtual   (A) (A) (A) (A) (A) (A) (A) (A) (A) (A) (A) (A)
                 (A) (A) (A) (A) (A) (A) (A) (A) (A) (A) (A) (A)
                 (A) (A) (A) (A) (A) (A) (A) (A) (A) (A) (A) (A)
                 (A) (A) (A) (A) (A) (A) (A) (A) (A) (A) (A) (A)
                 (A) (A) (A) (A) (A) (A) (A) (A) (A) (A) (A) (A)
                 (A) (A) (A) (A) (A) (A) (A) (A) (A) (A) (A) (A)
                 (A) (A) (A) (A) (A) (A) (A) (A) (A) (A) (A) (A)
                 (A) (A) (A) (A) (A) (A) (A) (A) (A) (A) (A) (A)
                 (A) (A) (A) (A) (A) (A) (A) (A) (A) (A) (A) (A)
                 (A) (A) (A) (A) (A) (A) (A) (A) (A) (A) (A) (A)
                 (A) (A) (A) (A) (A) (A) (A) (A) (A) (A) (A) (A)
                 (A) (A) (A) (A) (A) (A) (A) (A) (A) (A) (A) (A)
                 (A) (A) (A) (A) (A) (A) (A) (A) (A) (A) (A) (A)
                 (A) (A) (A) (A) (A) (A) (A) (A) (A) (A) (A) (A)
                 (A) (A) (A) (A) (A) (A) (A) (A) (A) (A) (A) (A)
                 (A) (A) (A) (A) (A) (A) (A) (A) (A) (A) (A) (A)
                 (A) (A) (A) (A) (A) (A) (A) (A) (A) (A) (A) (A)
                 (A) (A) (A) (A) (A) (A) (A) (A) (A) (A) (A) (A)
                 (A) (A) (A) (A) (A) (A) (A) (A) (A) (A) (A) (A)
                 (A) (A) (A) (A) (A) (A) (A) (A) (A) (A) (A) (A)
                 (A) (A) (A) (A) (A) (A) (A) (A) (A) (A) (A) (A)
                 (A) (A) (A) (A) (A) (A) (A) (A) (A) (A) (A) (A)
                 (A) (A) (A) (A) (A) (A) (A) (A) (A) (A) (A) (A)
                 (A) (A) (A) (A) (A) (A) (A) (A) (A) (A) (A) (A)
                 (A) (A) (A) (A) (A) (A) (A) (A) (A) (A) (A) (A)
                 (A) (A) (A) (A) (A) (A) (A) (A) (A) (A) (A) (A)
                 (A) (A) (A) (A) (A) (A) (A) (A) (A) (A) (A) (A)
                 (A) (A) (A) (A) (A) (A) (A) (A) (A) (A) (A) (A)
                 (A) (A) (A) (A) (A) (A) (A) (A) (A) (A) (A) (A)
                 (A) (A) (A) (A) (A) (A) (A) (A) (A) (A) (A) (A)
                 (A) (A) (A) (A) (A) (A) (A) (A) (A) (A) (A) (A)
                 (A) (A) (A) (A) (A) (A) (A) (A) (A) (A) (A) (A)
                 (A) (A) (A) (A) (A) (A) (A) (A) (A) (A) (A) (A)
                 (A) (A) (A) (A) (A) (A) (A) (A) (A) (A) (A) (A)
                 (A) (A) (A) (A) (A) (A) (A) (A) (A) (A) (A) (A)
                 (A) (A) (A) (A) (A) (A) (A) (A) (A) (A) (A) (A)
                 (A) (A) (A) (A) (A) (A) (A) (A) (A) (A) (A) (A)
                 (A) (A) (A) (A) (A) (A) (A) (A) (A) (A) (A) (A)
                 (A) (A) (A) (A) (A) (A) (A) (A) (A) (A) (A) (A)
                 (A) (A) (A) (A) (A) (A) (A)
 The electronic state is 2-A.
 Alpha  occ. eigenvalues --  -10.20769 -10.20723 -10.20346 -10.19655 -10.19533
 Alpha  occ. eigenvalues --  -10.19527 -10.19428 -10.19406 -10.19348 -10.19278
 Alpha  occ. eigenvalues --  -10.19163 -10.19119 -10.19111 -10.19076 -10.18863
 Alpha  occ. eigenvalues --  -10.18822 -10.18816 -10.18727 -10.18464 -10.17264
 Alpha  occ. eigenvalues --  -10.16827 -10.16765  -0.92034  -0.88272  -0.85885
 Alpha  occ. eigenvalues --   -0.84013  -0.81599  -0.79921  -0.77555  -0.76204
 Alpha  occ. eigenvalues --   -0.73554  -0.72742  -0.71711  -0.66563  -0.64492
 Alpha  occ. eigenvalues --   -0.63293  -0.62153  -0.60300  -0.58426  -0.56867
 Alpha  occ. eigenvalues --   -0.53942  -0.53237  -0.51769  -0.50370  -0.49193
 Alpha  occ. eigenvalues --   -0.48336  -0.47634  -0.46272  -0.44684  -0.43909
 Alpha  occ. eigenvalues --   -0.43646  -0.43430  -0.42504  -0.42270  -0.40969
 Alpha  occ. eigenvalues --   -0.40340  -0.39709  -0.39654  -0.38484  -0.37052
 Alpha  occ. eigenvalues --   -0.36142  -0.35318  -0.34654  -0.33861  -0.33262
 Alpha  occ. eigenvalues --   -0.32236  -0.30102  -0.28270  -0.26854  -0.23724
 Alpha  occ. eigenvalues --   -0.23348  -0.23083  -0.21342
 Alpha virt. eigenvalues --   -0.09575  -0.05127  -0.03072  -0.02715   0.00233
 Alpha virt. eigenvalues --    0.00616   0.00672   0.01176   0.01617   0.01850
 Alpha virt. eigenvalues --    0.02415   0.03205   0.03512   0.03790   0.03807
 Alpha virt. eigenvalues --    0.04399   0.05357   0.05472   0.05847   0.06040
 Alpha virt. eigenvalues --    0.06614   0.06884   0.07352   0.07804   0.08477
 Alpha virt. eigenvalues --    0.08550   0.08768   0.09526   0.09934   0.10936
 Alpha virt. eigenvalues --    0.11014   0.11092   0.11342   0.11502   0.12457
 Alpha virt. eigenvalues --    0.12716   0.13540   0.13814   0.14096   0.14291
 Alpha virt. eigenvalues --    0.14801   0.14887   0.15520   0.15605   0.15703
 Alpha virt. eigenvalues --    0.15987   0.16651   0.17044   0.17543   0.17668
 Alpha virt. eigenvalues --    0.17818   0.18514   0.18599   0.18752   0.18943
 Alpha virt. eigenvalues --    0.19138   0.19167   0.19821   0.20224   0.20336
 Alpha virt. eigenvalues --    0.20947   0.21051   0.21310   0.21349   0.21531
 Alpha virt. eigenvalues --    0.21944   0.22168   0.22483   0.22781   0.23129
 Alpha virt. eigenvalues --    0.23180   0.23464   0.23785   0.24196   0.24456
 Alpha virt. eigenvalues --    0.24900   0.25115   0.25358   0.25904   0.26302
 Alpha virt. eigenvalues --    0.26495   0.26974   0.27280   0.27656   0.28081
 Alpha virt. eigenvalues --    0.28126   0.28712   0.28963   0.29178   0.29369
 Alpha virt. eigenvalues --    0.30356   0.30558   0.30973   0.31397   0.32079
 Alpha virt. eigenvalues --    0.32473   0.32819   0.33459   0.34153   0.34918
 Alpha virt. eigenvalues --    0.35066   0.35693   0.36699   0.37250   0.37814
 Alpha virt. eigenvalues --    0.38747   0.39390   0.40316   0.40607   0.41872
 Alpha virt. eigenvalues --    0.43022   0.43419   0.44202   0.45247   0.46542
 Alpha virt. eigenvalues --    0.46902   0.47758   0.48402   0.50107   0.50631
 Alpha virt. eigenvalues --    0.51406   0.52057   0.52227   0.52439   0.53133
 Alpha virt. eigenvalues --    0.53462   0.53897   0.54109   0.54485   0.55476
 Alpha virt. eigenvalues --    0.55558   0.55828   0.56750   0.57161   0.57660
 Alpha virt. eigenvalues --    0.57942   0.58192   0.58215   0.59176   0.59730
 Alpha virt. eigenvalues --    0.59798   0.60278   0.61060   0.61385   0.62586
 Alpha virt. eigenvalues --    0.62741   0.63625   0.63846   0.64010   0.64450
 Alpha virt. eigenvalues --    0.65070   0.65788   0.66071   0.66709   0.66912
 Alpha virt. eigenvalues --    0.67430   0.68386   0.68478   0.69163   0.69998
 Alpha virt. eigenvalues --    0.70368   0.70718   0.70816   0.71466   0.71963
 Alpha virt. eigenvalues --    0.72395   0.72483   0.73267   0.74161   0.75165
 Alpha virt. eigenvalues --    0.75851   0.76523   0.76819   0.77436   0.78506
 Alpha virt. eigenvalues --    0.78715   0.79539   0.80415   0.82406   0.82788
 Alpha virt. eigenvalues --    0.84131   0.84951   0.85804   0.87122   0.87538
 Alpha virt. eigenvalues --    0.88283   0.89360   0.90211   0.90972   0.91609
 Alpha virt. eigenvalues --    0.92125   0.92434   0.92964   0.94357   0.95089
 Alpha virt. eigenvalues --    0.95343   0.95625   0.95748   0.95818   0.96410
 Alpha virt. eigenvalues --    0.97033   0.98029   0.98242   0.98831   0.99425
 Alpha virt. eigenvalues --    0.99954   1.01135   1.01572   1.01946   1.02873
 Alpha virt. eigenvalues --    1.03486   1.04011   1.04299   1.04895   1.05652
 Alpha virt. eigenvalues --    1.06481   1.07236   1.07880   1.08915   1.09553
 Alpha virt. eigenvalues --    1.10079   1.11908   1.13236   1.13801   1.14395
 Alpha virt. eigenvalues --    1.15276   1.15489   1.15827   1.16222   1.18166
 Alpha virt. eigenvalues --    1.20104   1.21026   1.22147   1.24946   1.27269
 Alpha virt. eigenvalues --    1.29526   1.31739   1.33240   1.35984   1.38289
 Alpha virt. eigenvalues --    1.39629   1.40265   1.40985   1.42773   1.43924
 Alpha virt. eigenvalues --    1.45067   1.46237   1.46839   1.47635   1.48474
 Alpha virt. eigenvalues --    1.48713   1.48901   1.50024   1.50186   1.50967
 Alpha virt. eigenvalues --    1.50986   1.52869   1.54506   1.56011   1.56103
 Alpha virt. eigenvalues --    1.57124   1.57735   1.58539   1.58878   1.60789
 Alpha virt. eigenvalues --    1.62391   1.63828   1.64369   1.65703   1.66002
 Alpha virt. eigenvalues --    1.67306   1.69188   1.69643   1.70018   1.71515
 Alpha virt. eigenvalues --    1.72547   1.73368   1.73507   1.74378   1.74857
 Alpha virt. eigenvalues --    1.75211   1.76362   1.76951   1.79837   1.80174
 Alpha virt. eigenvalues --    1.81067   1.82266   1.82577   1.83519   1.84347
 Alpha virt. eigenvalues --    1.85553   1.85827   1.86116   1.86605   1.88242
 Alpha virt. eigenvalues --    1.88344   1.88969   1.90185   1.90207   1.91660
 Alpha virt. eigenvalues --    1.92784   1.93027   1.93739   1.94284   1.95776
 Alpha virt. eigenvalues --    1.96257   1.96400   1.97300   1.99201   1.99616
 Alpha virt. eigenvalues --    2.00319   2.01185   2.02507   2.04271   2.04609
 Alpha virt. eigenvalues --    2.04890   2.05770   2.06373   2.08597   2.11327
 Alpha virt. eigenvalues --    2.11672   2.12009   2.13315   2.14235   2.14587
 Alpha virt. eigenvalues --    2.16152   2.18937   2.19434   2.20434   2.21269
 Alpha virt. eigenvalues --    2.24126   2.24604   2.24919   2.26959   2.28253
 Alpha virt. eigenvalues --    2.30218   2.34663   2.34718   2.37505   2.38813
 Alpha virt. eigenvalues --    2.41362   2.42440   2.43035   2.43569   2.45109
 Alpha virt. eigenvalues --    2.45323   2.46639   2.46808   2.50791   2.54448
 Alpha virt. eigenvalues --    2.56199   2.57373   2.58732   2.61192   2.62021
 Alpha virt. eigenvalues --    2.62950   2.64236   2.64620   2.66362   2.67443
 Alpha virt. eigenvalues --    2.69481   2.69845   2.71149   2.71520   2.72437
 Alpha virt. eigenvalues --    2.72665   2.73191   2.73359   2.74595   2.74787
 Alpha virt. eigenvalues --    2.75105   2.75351   2.75548   2.76062   2.76953
 Alpha virt. eigenvalues --    2.77941   2.78497   2.78962   2.80032   2.80959
 Alpha virt. eigenvalues --    2.81442   2.82630   2.84031   2.84265   2.84671
 Alpha virt. eigenvalues --    2.85268   2.86672   2.88033   2.88869   2.90214
 Alpha virt. eigenvalues --    2.90440   2.91630   2.93080   2.93623   2.96853
 Alpha virt. eigenvalues --    2.99381   3.00996   3.02943   3.04268   3.06430
 Alpha virt. eigenvalues --    3.09361   3.12024   3.13217   3.13868   3.19117
 Alpha virt. eigenvalues --    3.20961   3.21266   3.22927   3.25231   3.28115
 Alpha virt. eigenvalues --    3.33379   3.34471   3.35431   3.38232   3.38691
 Alpha virt. eigenvalues --    3.42627   3.43014   3.44754   3.45517   3.46803
 Alpha virt. eigenvalues --    3.47556   3.49788   3.50893   3.54028   3.55871
 Alpha virt. eigenvalues --    3.58168   3.59433   3.63300   3.64192   3.69096
 Alpha virt. eigenvalues --    3.75660   3.81999   3.83648   3.85440   3.98770
 Alpha virt. eigenvalues --    4.01389   4.04173   4.06137   4.06496   4.07024
 Alpha virt. eigenvalues --    4.13758   4.17387   4.22466   4.28757   4.36066
 Alpha virt. eigenvalues --    4.53704   4.76316   4.78211   4.78853   4.81179
 Alpha virt. eigenvalues --    4.86004   4.88058  23.38650  23.60938  23.75727
 Alpha virt. eigenvalues --   23.81703  23.83904  23.84970  23.90711  23.92471
 Alpha virt. eigenvalues --   23.93407  23.98039  23.98873  24.02114  24.06925
 Alpha virt. eigenvalues --   24.09392  24.10099  24.11010  24.11854  24.13458
 Alpha virt. eigenvalues --   24.13763  24.16326  24.17961  24.21199
  Beta  occ. eigenvalues --  -10.20743 -10.20265 -10.19661 -10.19517 -10.19487
  Beta  occ. eigenvalues --  -10.19437 -10.19431 -10.19419 -10.19344 -10.19280
  Beta  occ. eigenvalues --  -10.19166 -10.19160 -10.19112 -10.19075 -10.18810
  Beta  occ. eigenvalues --  -10.18808 -10.18788 -10.18696 -10.18464 -10.17282
  Beta  occ. eigenvalues --  -10.16824 -10.16759  -0.91996  -0.87999  -0.85756
  Beta  occ. eigenvalues --   -0.83916  -0.81496  -0.79797  -0.77111  -0.76000
  Beta  occ. eigenvalues --   -0.73480  -0.72735  -0.71378  -0.66433  -0.64348
  Beta  occ. eigenvalues --   -0.63213  -0.61829  -0.59966  -0.57923  -0.56671
  Beta  occ. eigenvalues --   -0.53645  -0.52892  -0.51386  -0.50009  -0.49052
  Beta  occ. eigenvalues --   -0.47630  -0.47128  -0.45239  -0.44537  -0.43684
  Beta  occ. eigenvalues --   -0.43426  -0.43401  -0.42311  -0.41988  -0.40899
  Beta  occ. eigenvalues --   -0.40189  -0.39544  -0.39327  -0.37981  -0.36988
  Beta  occ. eigenvalues --   -0.35958  -0.35130  -0.34625  -0.33828  -0.33141
  Beta  occ. eigenvalues --   -0.32136  -0.30064  -0.28005  -0.26796  -0.23351
  Beta  occ. eigenvalues --   -0.23104  -0.21102
  Beta virt. eigenvalues --   -0.10837  -0.09510  -0.05129  -0.02834  -0.02544
  Beta virt. eigenvalues --    0.00241   0.00678   0.00850   0.01233   0.01631
  Beta virt. eigenvalues --    0.01862   0.02489   0.03225   0.03556   0.03852
  Beta virt. eigenvalues --    0.03870   0.04404   0.05391   0.05528   0.05879
  Beta virt. eigenvalues --    0.06104   0.06587   0.06967   0.07423   0.07920
  Beta virt. eigenvalues --    0.08474   0.08616   0.08775   0.09546   0.09926
  Beta virt. eigenvalues --    0.11006   0.11046   0.11230   0.11422   0.11660
  Beta virt. eigenvalues --    0.12509   0.12769   0.13544   0.14022   0.14106
  Beta virt. eigenvalues --    0.14365   0.14807   0.15005   0.15545   0.15593
  Beta virt. eigenvalues --    0.15768   0.16077   0.16675   0.17069   0.17549
  Beta virt. eigenvalues --    0.17784   0.17826   0.18587   0.18694   0.18846
  Beta virt. eigenvalues --    0.18966   0.19162   0.19349   0.19885   0.20259
  Beta virt. eigenvalues --    0.20405   0.21010   0.21075   0.21369   0.21518
  Beta virt. eigenvalues --    0.21673   0.22031   0.22168   0.22507   0.22819
  Beta virt. eigenvalues --    0.23195   0.23336   0.23482   0.23866   0.24243
  Beta virt. eigenvalues --    0.24486   0.24934   0.25108   0.25426   0.25952
  Beta virt. eigenvalues --    0.26389   0.26547   0.26992   0.27416   0.27782
  Beta virt. eigenvalues --    0.28086   0.28286   0.28806   0.29129   0.29219
  Beta virt. eigenvalues --    0.29513   0.30485   0.30807   0.31225   0.31601
  Beta virt. eigenvalues --    0.32153   0.32526   0.32855   0.33620   0.34199
  Beta virt. eigenvalues --    0.35062   0.35245   0.35780   0.36844   0.37609
  Beta virt. eigenvalues --    0.38104   0.39087   0.39491   0.40367   0.40657
  Beta virt. eigenvalues --    0.41977   0.43177   0.43437   0.44397   0.45514
  Beta virt. eigenvalues --    0.46586   0.47302   0.47839   0.48466   0.50158
  Beta virt. eigenvalues --    0.51231   0.51563   0.52189   0.52293   0.52491
  Beta virt. eigenvalues --    0.53277   0.53478   0.54146   0.54193   0.54629
  Beta virt. eigenvalues --    0.55491   0.55775   0.55930   0.56856   0.57207
  Beta virt. eigenvalues --    0.57880   0.57982   0.58291   0.58917   0.59426
  Beta virt. eigenvalues --    0.59739   0.59803   0.60462   0.61130   0.61394
  Beta virt. eigenvalues --    0.62622   0.62810   0.63915   0.63973   0.64271
  Beta virt. eigenvalues --    0.64495   0.65174   0.65884   0.66146   0.66704
  Beta virt. eigenvalues --    0.66980   0.67454   0.68478   0.68748   0.69333
  Beta virt. eigenvalues --    0.70086   0.70482   0.70754   0.70853   0.71546
  Beta virt. eigenvalues --    0.72019   0.72491   0.72540   0.73383   0.74232
  Beta virt. eigenvalues --    0.75209   0.76027   0.76540   0.76835   0.77597
  Beta virt. eigenvalues --    0.78559   0.79051   0.79718   0.80520   0.82501
  Beta virt. eigenvalues --    0.82944   0.84317   0.85012   0.85997   0.87242
  Beta virt. eigenvalues --    0.87634   0.88323   0.89453   0.90422   0.91153
  Beta virt. eigenvalues --    0.91742   0.92272   0.92556   0.93014   0.94637
  Beta virt. eigenvalues --    0.95155   0.95408   0.95764   0.95817   0.95860
  Beta virt. eigenvalues --    0.96670   0.97255   0.98087   0.98730   0.99025
  Beta virt. eigenvalues --    0.99625   1.00009   1.01167   1.01863   1.01985
  Beta virt. eigenvalues --    1.02964   1.03637   1.04066   1.04652   1.04922
  Beta virt. eigenvalues --    1.05910   1.06561   1.07350   1.07948   1.08970
  Beta virt. eigenvalues --    1.09612   1.10240   1.12170   1.13378   1.14146
  Beta virt. eigenvalues --    1.14634   1.15341   1.15631   1.15888   1.16498
  Beta virt. eigenvalues --    1.18192   1.20263   1.21165   1.22544   1.26386
  Beta virt. eigenvalues --    1.28196   1.29700   1.31949   1.33683   1.36269
  Beta virt. eigenvalues --    1.38475   1.39693   1.40346   1.41220   1.42849
  Beta virt. eigenvalues --    1.44944   1.45699   1.46318   1.46844   1.47669
  Beta virt. eigenvalues --    1.48617   1.48728   1.49260   1.50124   1.50951
  Beta virt. eigenvalues --    1.51086   1.51144   1.53072   1.54585   1.56136
  Beta virt. eigenvalues --    1.56220   1.57249   1.57759   1.58787   1.59255
  Beta virt. eigenvalues --    1.61053   1.62536   1.64250   1.64555   1.65781
  Beta virt. eigenvalues --    1.66296   1.67388   1.69300   1.69801   1.70470
  Beta virt. eigenvalues --    1.71720   1.72577   1.73536   1.74138   1.74654
  Beta virt. eigenvalues --    1.74925   1.75513   1.76380   1.77209   1.80108
  Beta virt. eigenvalues --    1.80240   1.81214   1.82588   1.83137   1.83604
  Beta virt. eigenvalues --    1.84649   1.85614   1.85839   1.86480   1.86674
  Beta virt. eigenvalues --    1.88275   1.88389   1.89074   1.90229   1.90255
  Beta virt. eigenvalues --    1.91840   1.93005   1.93342   1.93917   1.94528
  Beta virt. eigenvalues --    1.95918   1.96340   1.96753   1.97429   1.99240
  Beta virt. eigenvalues --    1.99695   2.00514   2.01502   2.02603   2.04530
  Beta virt. eigenvalues --    2.04648   2.05277   2.06103   2.06475   2.08973
  Beta virt. eigenvalues --    2.11395   2.11931   2.13305   2.13544   2.14634
  Beta virt. eigenvalues --    2.14673   2.16248   2.19076   2.19727   2.20760
  Beta virt. eigenvalues --    2.21357   2.24260   2.24668   2.25131   2.27075
  Beta virt. eigenvalues --    2.28662   2.30433   2.34822   2.34906   2.37684
  Beta virt. eigenvalues --    2.39003   2.41506   2.42463   2.43198   2.43751
  Beta virt. eigenvalues --    2.45284   2.45426   2.46754   2.47577   2.52133
  Beta virt. eigenvalues --    2.54874   2.56470   2.57576   2.58888   2.61814
  Beta virt. eigenvalues --    2.62130   2.63148   2.64560   2.64898   2.66401
  Beta virt. eigenvalues --    2.67478   2.69493   2.70022   2.71242   2.71584
  Beta virt. eigenvalues --    2.72552   2.72731   2.73214   2.73989   2.74647
  Beta virt. eigenvalues --    2.74879   2.75235   2.75417   2.75828   2.76087
  Beta virt. eigenvalues --    2.77160   2.78173   2.78752   2.79361   2.80137
  Beta virt. eigenvalues --    2.81215   2.81450   2.82655   2.84054   2.84634
  Beta virt. eigenvalues --    2.84894   2.85542   2.86736   2.88389   2.89005
  Beta virt. eigenvalues --    2.90222   2.90641   2.91727   2.93275   2.93652
  Beta virt. eigenvalues --    2.98772   2.99416   3.01010   3.03773   3.04301
  Beta virt. eigenvalues --    3.06602   3.09403   3.12029   3.13219   3.13899
  Beta virt. eigenvalues --    3.19167   3.21098   3.21329   3.23002   3.25290
  Beta virt. eigenvalues --    3.28183   3.33613   3.34535   3.35550   3.38283
  Beta virt. eigenvalues --    3.38733   3.42751   3.43117   3.44808   3.45624
  Beta virt. eigenvalues --    3.46920   3.47584   3.49830   3.50945   3.54243
  Beta virt. eigenvalues --    3.55983   3.58494   3.60060   3.63380   3.64299
  Beta virt. eigenvalues --    3.69233   3.75737   3.82190   3.83868   3.85766
  Beta virt. eigenvalues --    3.99540   4.01763   4.04564   4.06172   4.06542
  Beta virt. eigenvalues --    4.07071   4.13808   4.18252   4.22509   4.28824
  Beta virt. eigenvalues --    4.36096   4.53861   4.76338   4.78244   4.78911
  Beta virt. eigenvalues --    4.81399   4.86032   4.88078  23.38734  23.61211
  Beta virt. eigenvalues --   23.75826  23.81749  23.84020  23.85080  23.90733
  Beta virt. eigenvalues --   23.92704  23.93456  23.98080  23.98886  24.02141
  Beta virt. eigenvalues --   24.06926  24.09397  24.10120  24.11371  24.11892
  Beta virt. eigenvalues --   24.13470  24.13766  24.16347  24.18083  24.21202
          Condensed to atoms (all electrons):
               1          2          3          4          5          6
     1  C    9.098350  -1.022915  -1.032172   0.070927   0.033715   0.889622
     2  C   -1.022915  10.551304  -1.043075  -1.544268   0.293733  -0.723397
     3  C   -1.032172  -1.043075   8.320636   0.995515  -0.715699  -0.336041
     4  C    0.070927  -1.544268   0.995515  10.111244  -2.238132  -1.511770
     5  C    0.033715   0.293733  -0.715699  -2.238132   9.705840   1.220740
     6  C    0.889622  -0.723397  -0.336041  -1.511770   1.220740   6.698789
     7  C   -0.747505   0.000225   0.173823   0.287855  -0.306206  -0.137966
     8  C    0.083041  -0.799402  -0.072418   0.008817   0.261640   0.149278
     9  C   -0.168761  -0.171346  -0.207453  -0.020726  -0.008149   0.338623
    10  C   -0.070858   0.163060  -0.287257  -0.052168  -0.291487   0.332635
    11  C   -0.039989   0.139008   0.064514  -0.007941  -0.047059  -0.182506
    12  C   -0.089390  -0.386187  -0.070203  -0.030938   0.169822  -0.053740
    13  C   -0.066713  -0.238786   0.260545   0.123634  -0.037554  -0.061577
    14  C    0.066775   0.046970   0.444302  -0.018596   0.047044  -0.024913
    15  C   -0.011438   0.026116   0.071384   0.005020   0.000517  -0.043528
    16  C   -0.300254   0.133956   0.514844   0.072943   0.127554   0.050281
    17  C   -0.059436   0.064840  -0.455934   0.006690  -0.054367  -0.019609
    18  H    0.014771   0.376317  -0.099402  -0.029700  -0.039556   0.061009
    19  H    0.360858  -0.057835   0.047228  -0.007246  -0.006462  -0.002235
    20  H    0.046376  -0.049170  -0.011319   0.344876  -0.048054   0.048582
    21  C   -0.546313   0.132275  -0.493172   0.334503  -1.421264  -0.457686
    22  C    0.136705   0.040648  -0.131404  -0.341282   0.611847   0.552195
    23  C    0.103201  -0.141664  -0.052671  -0.166984  -0.031147  -0.392322
    24  H   -0.000089  -0.000618  -0.002894  -0.000017  -0.000283   0.004027
    25  H   -0.000031  -0.000455   0.000442  -0.000010   0.000035   0.000103
    26  H    0.034288   0.034934  -0.012770   0.002439   0.000443  -0.000937
    27  H   -0.000396  -0.000217   0.000085   0.000018  -0.000030  -0.000247
    28  H    0.000041   0.000341  -0.000438  -0.000003  -0.000013   0.000017
    29  C   -0.261620   0.416682  -0.506434  -0.048571  -1.614172   0.186569
    30  C    0.004573   0.028510   0.196436  -0.116682   0.177635  -0.632143
    31  H    0.003055   0.009108  -0.006387   0.059289  -0.131866   0.003006
    32  H   -0.000641   0.000172  -0.001873   0.006990  -0.012634  -0.003594
    33  H    0.000316   0.000162   0.003884  -0.000768   0.005691  -0.012678
    34  H   -0.000007   0.000499   0.005889  -0.000020   0.000566  -0.004200
    35  H   -0.028307  -0.052209   0.021727  -0.003797  -0.018313   0.009797
               7          8          9         10         11         12
     1  C   -0.747505   0.083041  -0.168761  -0.070858  -0.039989  -0.089390
     2  C    0.000225  -0.799402  -0.171346   0.163060   0.139008  -0.386187
     3  C    0.173823  -0.072418  -0.207453  -0.287257   0.064514  -0.070203
     4  C    0.287855   0.008817  -0.020726  -0.052168  -0.007941  -0.030938
     5  C   -0.306206   0.261640  -0.008149  -0.291487  -0.047059   0.169822
     6  C   -0.137966   0.149278   0.338623   0.332635  -0.182506  -0.053740
     7  C    7.301219   0.260066  -0.041256   0.527832   0.270913  -0.211393
     8  C    0.260066   6.705555   0.461321   0.586039   0.285960   0.115306
     9  C   -0.041256   0.461321   6.889591  -0.498328  -0.713389  -0.156100
    10  C    0.527832   0.586039  -0.498328   8.674496   0.809473  -0.989849
    11  C    0.270913   0.285960  -0.713389   0.809473   7.227995   1.189970
    12  C   -0.211393   0.115306  -0.156100  -0.989849   1.189970  10.157198
    13  C    1.319787  -0.157075  -0.119444  -0.548226   0.005004   0.272539
    14  C   -0.498514  -0.947061   0.270419  -0.171636  -1.560548  -2.833508
    15  C   -0.102974  -0.187251  -0.030393  -0.343509  -0.449918  -0.797929
    16  C   -1.626633  -0.444466  -0.298230  -0.469681  -0.266370  -0.719565
    17  C    0.149144   0.230933  -0.066903   0.029450   0.114195   1.141185
    18  H    0.015384   0.011144  -0.002328   0.004046  -0.000735   0.001208
    19  H   -0.001101   0.001329   0.001566  -0.000086   0.000057  -0.000384
    20  H   -0.003710   0.003534  -0.011072  -0.000618  -0.000054   0.000078
    21  C    0.026076  -0.627911   0.459558  -0.100455  -0.063276  -0.064689
    22  C   -0.087905   0.334909   0.904059   0.543160  -0.419364  -0.361368
    23  C   -0.733924   0.040017   0.901670  -1.299355  -1.153890  -0.486305
    24  H   -0.018251   0.033485  -0.009013  -0.020938   0.364702  -0.088779
    25  H   -0.007816   0.005592   0.001015   0.030302   0.056201  -0.117475
    26  H    0.040348  -0.009713   0.001335  -0.000655   0.002438  -0.035013
    27  H    0.001919   0.003097  -0.000219   0.000660   0.003054   0.007707
    28  H    0.008416   0.001914   0.000156   0.006256   0.009147   0.044629
    29  C    0.122387  -0.763685  -0.782747   0.351967   0.065468   0.002431
    30  C   -0.322087   0.354062  -0.843594  -1.202253   0.263183  -0.065421
    31  H    0.005123  -0.001359  -0.007206   0.002207   0.000217   0.000120
    32  H    0.003501  -0.015995   0.029074   0.005019  -0.000087  -0.000552
    33  H   -0.001176   0.002467   0.030983  -0.013596  -0.002023   0.002693
    34  H   -0.001477   0.011569  -0.016061  -0.067822   0.082728   0.033364
    35  H    0.118865   0.015302   0.000829   0.004962   0.002880  -0.008273
              13         14         15         16         17         18
     1  C   -0.066713   0.066775  -0.011438  -0.300254  -0.059436   0.014771
     2  C   -0.238786   0.046970   0.026116   0.133956   0.064840   0.376317
     3  C    0.260545   0.444302   0.071384   0.514844  -0.455934  -0.099402
     4  C    0.123634  -0.018596   0.005020   0.072943   0.006690  -0.029700
     5  C   -0.037554   0.047044   0.000517   0.127554  -0.054367  -0.039556
     6  C   -0.061577  -0.024913  -0.043528   0.050281  -0.019609   0.061009
     7  C    1.319787  -0.498514  -0.102974  -1.626633   0.149144   0.015384
     8  C   -0.157075  -0.947061  -0.187251  -0.444466   0.230933   0.011144
     9  C   -0.119444   0.270419  -0.030393  -0.298230  -0.066903  -0.002328
    10  C   -0.548226  -0.171636  -0.343509  -0.469681   0.029450   0.004046
    11  C    0.005004  -1.560548  -0.449918  -0.266370   0.114195  -0.000735
    12  C    0.272539  -2.833508  -0.797929  -0.719565   1.141185   0.001208
    13  C    7.696057  -0.781858   0.445541  -1.049303  -0.728621  -0.007419
    14  C   -0.781858  11.159067   0.512821   1.978314  -1.668704  -0.001042
    15  C    0.445541   0.512821   6.486516  -0.126033   0.738011  -0.000702
    16  C   -1.049303   1.978314  -0.126033  10.895853  -1.352913  -0.000799
    17  C   -0.728621  -1.668704   0.738011  -1.352913   8.102740   0.025175
    18  H   -0.007419  -0.001042  -0.000702  -0.000799   0.025175   0.589514
    19  H    0.000706  -0.000086   0.000030   0.001964   0.000704  -0.009039
    20  H   -0.000077   0.000009  -0.000002  -0.000285  -0.000005  -0.000316
    21  C    0.015762  -0.015061  -0.002767   0.052285   0.003507  -0.009649
    22  C   -0.191891  -0.152934  -0.017312  -0.000704   0.023714   0.003931
    23  C   -0.609535   0.185804  -0.124247  -0.322359  -0.015654   0.000991
    24  H   -0.021751   0.016202   0.009097   0.003050   0.002550  -0.000000
    25  H   -0.000182   0.414748  -0.041334  -0.001661  -0.008628  -0.000000
    26  H    0.063052  -0.000529  -0.012161   0.066694  -0.122364  -0.009929
    27  H    0.067595  -0.035428  -0.017232  -0.084163   0.393457   0.000007
    28  H    0.022442  -0.074118   0.359813  -0.011710  -0.022456   0.000000
    29  C   -0.032135   0.003821   0.001995   0.016103  -0.005238  -0.003634
    30  C   -0.086136  -0.145766  -0.001648  -0.158940   0.010660   0.000422
    31  H   -0.000031   0.000003   0.000001   0.000028  -0.000005  -0.000002
    32  H    0.000065  -0.000039  -0.000001   0.000074   0.000006   0.000000
    33  H   -0.000343   0.000380  -0.000007   0.000044  -0.000006   0.000000
    34  H    0.008106   0.007294   0.001003  -0.000230   0.000028  -0.000000
    35  H    0.116107  -0.011651  -0.007856  -0.222571  -0.076017   0.006925
              19         20         21         22         23         24
     1  C    0.360858   0.046376  -0.546313   0.136705   0.103201  -0.000089
     2  C   -0.057835  -0.049170   0.132275   0.040648  -0.141664  -0.000618
     3  C    0.047228  -0.011319  -0.493172  -0.131404  -0.052671  -0.002894
     4  C   -0.007246   0.344876   0.334503  -0.341282  -0.166984  -0.000017
     5  C   -0.006462  -0.048054  -1.421264   0.611847  -0.031147  -0.000283
     6  C   -0.002235   0.048582  -0.457686   0.552195  -0.392322   0.004027
     7  C   -0.001101  -0.003710   0.026076  -0.087905  -0.733924  -0.018251
     8  C    0.001329   0.003534  -0.627911   0.334909   0.040017   0.033485
     9  C    0.001566  -0.011072   0.459558   0.904059   0.901670  -0.009013
    10  C   -0.000086  -0.000618  -0.100455   0.543160  -1.299355  -0.020938
    11  C    0.000057  -0.000054  -0.063276  -0.419364  -1.153890   0.364702
    12  C   -0.000384   0.000078  -0.064689  -0.361368  -0.486305  -0.088779
    13  C    0.000706  -0.000077   0.015762  -0.191891  -0.609535  -0.021751
    14  C   -0.000086   0.000009  -0.015061  -0.152934   0.185804   0.016202
    15  C    0.000030  -0.000002  -0.002767  -0.017312  -0.124247   0.009097
    16  C    0.001964  -0.000285   0.052285  -0.000704  -0.322359   0.003050
    17  C    0.000704  -0.000005   0.003507   0.023714  -0.015654   0.002550
    18  H   -0.009039  -0.000316  -0.009649   0.003931   0.000991  -0.000000
    19  H    0.546859  -0.008348   0.005630   0.000569  -0.000054  -0.000000
    20  H   -0.008348   0.543395   0.003711   0.009085   0.000316  -0.000000
    21  C    0.005630   0.003711   8.955525  -1.364112   0.025711   0.000174
    22  C    0.000569   0.009085  -1.364112   8.954813  -1.149654   0.011975
    23  C   -0.000054   0.000316   0.025711  -1.149654  10.169564   0.033825
    24  H   -0.000000  -0.000000   0.000174   0.011975   0.033825   0.547930
    25  H   -0.000000   0.000000   0.000009   0.000261   0.004451   0.002311
    26  H    0.000019   0.000003  -0.000290  -0.000031  -0.000102   0.000002
    27  H    0.000000  -0.000000  -0.000004   0.000043   0.000071  -0.000001
    28  H   -0.000000   0.000000   0.000000   0.000030   0.000699  -0.000022
[...]
 1115,0.00536101,-0.00405114,-0.00000530,-0.01365632,0.00070779,0.00000
 717,0.01214629,-0.05200447,-0.00006065,0.01534861,0.02146404,0.0000128
 0,0.01016637,-0.01032709,-0.00001749,-0.00203739,0.00761659,0.00000810
 ,-0.00686684,-0.00105579,0.00000102,0.00355324,-0.00200382,-0.00000244
 ,-0.00007700,0.00361811,0.00000347,0.00263544,-0.00191692,-0.00000288,
 -0.00283958,-0.00192367,-0.00000099,-0.00003197,-0.00008526,0.00000002
 ,-0.00000233,0.00002994,0.00000005,-0.00000484,0.00001021,-0.00000007,
 0.00191107,0.01121835,0.00000603,-0.05202623,-0.21580037,-0.00013934,0
 .00754564,-0.12445808,-0.00006778,0.00033010,-0.00011528,-0.00000004,-
 0.00004034,-0.00004469,-0.00000003,0.00001267,-0.00003088,0.,-0.000057
 05,-0.00002154,0.00000002,0.00003331,0.00001645,-0.00000005,-0.0163825
 8,-0.00588929,-0.00000097,-0.06611785,0.63474864,0.00000034,-0.0000003
 7,0.00030243,0.00000036,0.00000030,-0.00031357,-0.00000154,-0.00000157
 ,-0.00051216,-0.00000093,0.00000152,-0.00079643,0.00000313,-0.00000187
 ,-0.00112313,0.00000597,-0.00001081,0.00723893,0.00000364,-0.00000150,
 -0.00037642,-0.00000695,0.00000414,-0.00238584,0.00000152,-0.00005818,
 0.00544598,0.00003085,0.00000606,0.00399563,0.00000539,-0.00001268,0.0
 0421119,-0.00000025,0.00000405,0.00008944,-0.00000413,-0.00000052,0.00
 003569,0.00000170,-0.00000076,-0.00065990,-0.00000008,0.00000184,0.000
 17821,0.00000187,-0.00000131,0.00014910,-0.00000171,-0.00000124,-0.000
 06759,-0.00000004,0.,-0.00009835,-0.00000003,0.00000005,-0.00001502,0.
 00000003,-0.00000010,0.00008236,0.00000472,0.00000303,0.00462078,-0.00
 003171,-0.00014654,-0.06005547,0.00010093,-0.00005432,-0.05833256,0.00
 000027,0.00000017,-0.00017025,-0.00000004,-0.00000001,0.00000078,0.,0.
 ,-0.00002449,-0.00000004,0.00000002,-0.00002850,0.00000007,-0.00000008
 ,0.00005882,-0.00001089,0.00000523,-0.00009346,-0.00022967,0.00051872,
 0.13170153,-0.00004395,0.00025933,0.00000022,0.00006340,0.00006016,0.0
 0000003,-0.00010103,-0.00092381,-0.00000072,0.00105233,-0.00085852,-0.
 00000183,-0.01599539,-0.00638055,-0.00000101,-0.00121715,0.00407917,0.
 00000560,-0.00037976,0.00016103,0.00000037,-0.00020065,-0.00010567,-0.
 00000022,0.00072711,0.00038620,-0.00000012,0.00001492,0.00006635,0.000
 00011,-0.00002182,0.00000427,0.00000001,-0.00003392,-0.00003316,-0.000
 00003,0.00007709,-0.00011708,-0.00000023,-0.00000591,-0.00000081,0.000
 00002,0.00000076,-0.00001536,-0.00000001,-0.00003730,0.00001019,0.0000
 0002,0.00001497,0.00003724,0.00000003,0.00002512,0.00006132,0.00000008
 ,-0.00002869,0.00005317,0.00000009,0.00006027,0.00093932,0.00000101,-0
 .32206489,-0.05391617,0.00002960,0.00153081,-0.00126633,0.00000079,0.0
 0003217,-0.00022954,-0.00000037,-0.00000945,-0.00000523,0.,-0.00000532
 ,-0.00000519,0.,-0.00000228,-0.00000732,0.,-0.00000254,0.00000424,0.,-
 0.00000771,0.00000017,0.,-0.00581073,0.00044729,0.00000319,-0.00030069
 ,0.00026062,0.00000048,0.34172454,-0.00045672,0.00001566,0.00000032,0.
 00018953,0.00031882,0.00000030,0.00074224,0.00059977,-0.00000021,0.000
 00837,0.00153097,0.00000383,0.02328203,0.00890873,-0.00000032,0.003103
 15,-0.00382589,-0.00000876,0.00033264,-0.00018174,-0.00000061,0.000206
 29,0.00016056,0.00000067,0.00017223,-0.00090511,0.00000007,0.00005916,
 -0.00016740,-0.00000034,0.00004506,0.00003343,0.,0.00002099,0.00001015
 ,0.00000002,-0.00000877,0.00012912,0.00000045,0.00001605,0.00001892,-0
 .00000005,-0.00000327,0.00001552,0.00000002,-0.00000153,-0.00001470,-0
 .00000002,-0.00001894,-0.00000041,0.,-0.00003822,-0.00004457,-0.000000
 11,-0.00001486,-0.00000880,-0.00000010,-0.00068906,-0.00032398,-0.0000
 0042,-0.05162409,-0.06817214,-0.00001836,-0.00074315,-0.00543926,-0.00
 001376,-0.00019018,-0.00044900,0.00000008,0.00000370,-0.00000281,0.,0.
 00000435,-0.00000144,0.,-0.00000425,0.00000069,0.,0.00000020,0.0000009
 0,0.,-0.00000174,0.00000144,0.,-0.03061687,-0.00329773,0.00000195,-0.0
 0115645,0.00067213,0.00000056,0.05733946,0.06959147,-0.00000050,0.0000
 0011,-0.00016788,0.00000017,0.00000034,-0.00003892,0.00000095,0.000000
 26,0.00059755,-0.00000096,0.00000407,-0.00231042,0.00002852,0.00000830
 ,0.00246853,0.00000463,-0.00000902,0.00406261,0.00000054,-0.00000057,0
 .00033655,0.00000008,0.00000076,-0.00057832,-0.00000032,0.,-0.00102574
 ,0.00000010,-0.00000034,0.00015554,0.00000005,0.00000002,0.00001067,0.
 00000003,0.00000004,-0.00001943,-0.00000013,0.00000048,-0.00032164,0.0
 0000004,-0.00000004,0.00006089,0.,0.00000002,0.00000115,0.00000001,-0.
 00000002,0.00000550,-0.00000002,0.,-0.00000178,-0.00000002,-0.00000014
 ,0.00007550,0.00000002,-0.00000012,0.00009534,-0.00000062,-0.00000089,
 0.00029936,0.00003188,-0.00001773,-0.03472368,0.00000131,-0.00001361,0
 .00860296,-0.00000034,0.00000009,-0.00047184,0.,0.,-0.00000225,0.,0.,-
 0.00000346,0.,0.,-0.00000036,0.,0.,0.00000054,0.,0.,-0.00000252,-0.000
 02773,-0.00000703,0.00365547,-0.00000094,0.00000015,0.00045081,-0.0000
 3491,0.00002848,0.02430589,0.00017906,-0.00011884,-0.00000038,-0.00012
 593,-0.00016929,-0.00000008,-0.00012054,0.00025180,0.00000008,0.000415
 60,0.00000534,0.00000001,0.00014806,-0.00262489,-0.00000010,0.00001362
 ,-0.00091570,-0.00000115,-0.00057346,-0.00012754,0.00000004,0.00013945
 ,0.00156062,0.00000165,-0.00569471,-0.00298269,0.00000004,0.00012442,0
 .00003082,-0.00000003,0.00000321,-0.00006230,-0.00000005,-0.00003175,-
 0.00001471,0.,0.00010006,0.00018203,0.00000013,0.00002091,0.00001231,0
 .,-0.00003297,-0.00000514,0.,-0.00009235,-0.00003659,-0.00000002,0.000
 00341,0.00003143,0.00000003,-0.00000529,0.00001822,0.00000005,0.000044
 71,-0.00003108,-0.00000006,-0.00000288,0.00001154,0.00000006,0.0090608
 6,-0.00874289,-0.00001041,-0.01528216,0.02329711,0.00002827,-0.0001444
 0,-0.00026038,-0.00000025,-0.00003820,-0.00000872,0.,-0.00000701,-0.00
 000649,0.,-0.00000326,-0.00001001,0.,-0.00000845,0.00000469,0.,-0.0000
 0558,0.00000203,0.,-0.19332869,0.13863095,0.00018391,0.00166191,0.0009
 4184,-0.00000016,0.00098882,0.00017774,-0.00000172,0.20285220,-0.00004
 364,-0.00050275,0.00000021,-0.00015944,-0.00011183,-0.00000026,-0.0000
 0365,0.00018394,0.00000089,0.00131362,-0.00005440,-0.00000088,-0.00334
 991,-0.00380676,-0.00001159,-0.00054310,-0.00020457,0.00000077,-0.0000
 7580,-0.00013787,-0.00000012,-0.00042850,0.00046102,0.00000009,-0.0021
 3072,0.00048595,-0.00000347,-0.00000189,0.00019630,0.00000028,0.000056
 23,-0.00003311,-0.00000008,-0.00001272,0.00005237,0.00000007,-0.000062
 77,0.00006850,0.00000017,0.00001585,-0.00001676,-0.00000002,0.00000061
 ,0.00001831,0.00000002,0.00001556,-0.00001705,0.,-0.00001468,-0.000019
 57,-0.00000002,0.00000867,-0.00000518,-0.00000010,0.00012048,-0.000092
 57,-0.00000006,-0.00004799,-0.00002933,-0.00000019,0.02236613,-0.01822
 596,-0.00002776,-0.00616763,0.00890353,0.00000830,0.00031308,-0.000025
 98,0.,0.00000106,0.00000284,0.,0.00000125,0.00000394,0.,0.00000336,0.0
 0000323,0.,-0.00000071,-0.00000314,0.,0.00000554,0.00000033,0.,0.13631
 270,-0.19732468,-0.00020122,0.00015383,0.00097941,0.00000302,-0.000267
 63,0.00086984,0.00000646,-0.14799168,0.20849125,-0.00000030,0.00000024
 ,-0.00070599,-0.00000006,-0.00000026,0.00019826,-0.00000018,0.00000082
 ,-0.00071072,0.00000131,-0.00000050,0.00044803,-0.00000082,-0.00001180
 ,0.00881540,-0.00000078,0.00000088,-0.00081612,0.00000009,-0.00000010,
 0.00000158,-0.00000032,-0.00000049,0.00050252,0.00000088,-0.00000324,0
 .00459030,-0.00000006,0.00000027,-0.00008898,0.00000006,-0.00000005,0.
 00003357,0.,0.00000007,-0.00001518,-0.00000012,0.00000010,-0.00007989,
 0.,-0.00000001,-0.00000584,0.,0.00000002,-0.00000297,0.00000004,0.0000
 0002,-0.00002363,-0.00000001,-0.00000004,0.00000765,0.00000004,-0.0000
 0011,0.00009649,0.00000008,-0.00000001,-0.00007159,0.,-0.00000021,0.00
 017798,0.00002054,-0.00001878,0.00315862,-0.00000107,-0.00000026,0.002
 35736,0.00000032,0.00000017,-0.00011599,0.00000001,0.,0.00000925,0.,0.
 ,0.00000398,0.,0.,-0.00000131,0.,-0.00000001,0.00000626,0.,0.,0.000002
 94,0.00018161,-0.00020184,-0.03478699,-0.00000094,0.00000279,-0.002101
 99,-0.00000216,0.00000634,-0.00554713,-0.00019899,0.00022610,0.0243674
 2,0.00002610,-0.00002720,-0.00000004,0.00007612,-0.00002956,-0.0000000
 6,-0.00019839,-0.00017053,-0.00000012,-0.00002395,0.00005472,0.0000000
 7,0.00019599,-0.00000304,-0.00000008,0.00068768,-0.00051327,-0.0000006
 2,0.00023237,-0.00007519,-0.00000031,-0.00044643,-0.00032796,-0.000000
 39,-0.00112120,-0.00323845,-0.00000174,-0.00479888,-0.00230356,0.00000
 193,0.00020757,0.00139173,0.00000143,-0.00054140,0.00001212,-0.0000001
 2,-0.00013624,-0.00002447,0.00000006,0.00010612,0.00013140,0.00000007,
 -0.00006936,0.00009054,0.00000014,0.00006689,-0.00007953,-0.00000007,-
 0.00009054,-0.00003872,-0.00000002,-0.00000771,-0.00003073,-0.00000003
 ,0.00000085,0.00000548,0.,0.00000044,-0.00000899,0.,-0.00004846,0.0002
 7607,0.00000024,0.01144697,-0.01234887,-0.00001483,-0.01411468,0.02771
 771,0.00003276,-0.00003619,-0.00004123,0.00000006,0.00000236,-0.000012
 35,-0.00000002,-0.00000459,-0.00000565,0.,-0.00000372,0.00000511,0.,-0
 .00001493,0.00001906,0.00000003,0.00127098,0.00027776,-0.00000058,-0.1
 3700598,0.12332201,0.00015228,0.00000078,0.00001788,0.00000004,-0.0002
 1768,0.00057896,0.00000069,0.14372614,-0.00003575,-0.00003993,0.,0.000
 18798,-0.00000571,-0.00000002,-0.00023003,-0.00047761,-0.00000038,-0.0
 0003691,0.00001083,-0.00000002,-0.00004939,0.00013779,0.00000020,0.001
 48444,-0.00012780,-0.00000085,0.00019757,-0.00014640,0.00000035,-0.000
 77856,0.00035684,0.00000124,-0.00413504,-0.00420535,-0.00000684,-0.001
 55059,0.00114896,-0.00000779,0.00010236,0.00012806,-0.00000026,-0.0000
 4226,0.00013255,0.00000114,-0.00018295,-0.00000192,-0.00000011,0.00003
 394,-0.00001096,0.00000006,0.00003432,0.00005957,-0.00000005,0.0000667
 9,-0.00003693,-0.00000014,-0.00005372,-0.00001992,0.00000001,-0.000012
 02,-0.00006285,-0.00000006,-0.00000511,-0.00001078,0.,-0.00001915,-0.0
 0003272,-0.00000003,-0.00026719,-0.00017968,0.00000005,0.01705111,-0.0
 1757411,-0.00002506,-0.00348020,0.00475706,0.00000204,0.00002039,0.000
 00246,-0.00000029,0.00000750,0.00000415,0.00000002,0.00000178,0.000006
 50,0.,0.00000252,-0.00000493,0.00000001,0.00000280,0.00000227,-0.00000
 002,0.00099107,0.00139577,0.00000276,0.12601717,-0.25334649,-0.0002534
 3,-0.00004032,-0.00004192,-0.00000011,-0.00103346,-0.00011148,0.000000
 02,-0.13442602,0.26725675,-0.00000005,-0.00000001,-0.00002180,0.000000
 15,0.00000005,-0.00004393,-0.00000018,-0.00000039,-0.00003028,-0.00000
 002,-0.00000004,0.00004002,-0.00000012,0.00000018,-0.00005075,0.000001
 35,-0.00000027,0.00029789,-0.00000004,0.00000043,-0.00055884,-0.000000
 84,0.00000109,-0.00065337,-0.00000262,-0.00000709,0.00388854,0.0000026
 8,-0.00000758,0.00947289,0.00000015,-0.00000063,0.00036118,-0.00000019
 ,0.00000113,-0.00100714,-0.00000009,-0.00000016,0.00016206,-0.00000002
 ,0.00000003,-0.00008393,0.00000008,-0.00000006,0.00009656,0.00000007,-
 0.00000010,0.00008729,-0.00000003,0.,-0.00001736,0.,-0.00000006,0.0000
 0633,0.,-0.00000001,-0.00000131,-0.00000002,-0.00000003,0.00000405,-0.
 00000030,-0.00000010,-0.00015227,0.00001435,-0.00001638,0.00263958,0.0
 0000186,-0.00000716,0.00373581,0.00000012,-0.00000028,0.00029105,0.,0.
 00000003,-0.00002243,0.,0.,0.00000280,0.,0.00000001,-0.00001743,0.0000
 0001,-0.00000002,0.00001736,0.00000012,0.00000295,-0.00166707,0.000154
 90,-0.00025264,-0.03532972,-0.00000002,-0.00000013,0.00008157,-0.00000
 091,-0.00000045,0.00017370,-0.00016856,0.00028069,0.02425472,0.0000710
 5,-0.00000134,-0.00000003,0.00006609,-0.00007614,-0.00000019,-0.000117
 45,0.00029185,0.00000041,0.00003055,0.00007179,0.00000007,-0.00012431,
 0.00005436,0.00000014,0.00020963,0.00007652,-0.00000015,0.00057746,0.0
 0054753,0.00000055,-0.00239501,0.00320676,0.00000494,-0.00051136,0.000
 46571,0.00000032,0.01111217,0.01725243,0.00001448,0.00139415,-0.000002
 23,-0.00000098,0.00003089,-0.00035428,-0.00000041,0.00027715,0.0000117
 3,-0.00000008,-0.00008831,0.00002556,0.00000006,0.00001997,-0.00007889
 ,-0.00000008,-0.00007013,-0.00000259,0.00000003,0.00004395,0.00005816,
 0.00000004,-0.00000229,-0.00000728,0.,0.00001281,-0.00000424,0.0000000
 2,-0.00000637,0.00000180,0.,-0.00050264,-0.00005053,-0.00000008,-0.005
 45759,0.00114086,0.00000543,-0.10432018,-0.10272585,-0.00008110,-0.000
 21556,-0.00064022,-0.00000049,-0.00001908,0.00000683,0.00000002,0.0000
 0252,-0.00000048,0.,-0.00000145,-0.00000415,0.,0.00000371,-0.00000472,
 0.,0.00042900,-0.00134885,-0.00000133,-0.01037888,-0.02982707,-0.00002
 536,-0.00004102,-0.00015397,-0.00000016,-0.00004376,0.00003190,0.00000
 008,0.00082931,0.00017265,-0.00000184,0.10918501,-0.00008854,-0.000003
 25,0.00000005,-0.00004795,0.00010054,0.00000042,0.00012592,-0.00049196
 ,-0.00000080,-0.00001242,-0.00008077,-0.00000009,0.00011688,0.00002134
 ,-0.00000017,-0.00020097,-0.00016023,0.00000044,-0.00108980,-0.0000542
 2,-0.00000034,0.00432888,-0.00271577,-0.00000747,0.00057380,0.00048620
 ,0.00000128,-0.01242851,-0.01841869,-0.00001681,-0.00105982,0.00125159
 ,0.00000345,0.00041048,0.00002068,0.00000006,-0.00005756,0.00006617,0.
 00000010,-0.00010032,-0.00006294,-0.00000004,0.00001039,-0.00006856,-0
 .00000008,0.00006607,0.00010404,0.00000005,0.00007656,-0.00006011,-0.0
 0000006,0.00000751,-0.00000027,-0.00000001,-0.00001845,-0.00001264,-0.
 00000009,-0.00000723,-0.00000613,0.,-0.00009919,0.00010634,0.00000072,
 0.00039483,0.00153785,-0.00000760,-0.10509437,-0.28593558,-0.00021841,
 0.00103446,-0.00000065,-0.00000061,0.00002495,0.00001503,-0.00000001,0
 .00000163,0.00001113,0.,0.00000894,-0.00000033,0.,0.00001420,-0.000007
 22,-0.00000001,0.00005093,-0.00005065,-0.00000051,0.00142568,0.0009386
 6,-0.00000335,-0.00000077,-0.00000337,0.00000005,-0.00002835,0.0000026
 9,-0.00000011,-0.00020923,0.00103761,0.00000699,0.11187175,0.30244210,
 -0.00000012,0.00000003,-0.00002979,-0.00000016,0.00000043,-0.00030323,
 0.00000024,-0.00000085,0.00027677,-0.00000002,-0.00000012,0.00001550,0
 .00000020,-0.00000016,0.00016186,-0.00000042,0.00000036,-0.00054693,-0
 .00000106,-0.00000083,0.00062145,0.00000603,-0.00000713,0.00349566,0.0
 0000045,0.00000131,-0.00098132,-0.00001499,-0.00002560,0.00226146,-0.0
 0000203,0.00000311,-0.00189269,0.00000034,0.00000030,-0.00016901,-0.00
 000015,0.00000008,-0.00002026,-0.00000007,-0.00000008,0.00000948,0.,-0
 .00000005,0.00001083,0.00000010,0.00000006,0.00003852,0.00000005,-0.00
 000006,-0.00002287,0.00000001,0.,0.00000896,0.,-0.00000009,0.00007828,
 0.,0.,-0.00000023,-0.00000012,0.00000071,-0.00058784,0.00000469,-0.000
 00783,0.00909193,-0.00008339,-0.00021909,-0.03431981,0.00000118,-0.000
 00010,0.00029242,0.00000004,0.,0.00002104,0.,0.,0.00000413,0.00000001,
 0.,0.00000595,0.00000001,0.,-0.00000158,0.00000005,-0.00000009,0.00044
 665,0.00000560,0.00000589,0.00389739,0.,0.00000009,-0.00005061,0.00000
 002,-0.00000013,0.00012295,-0.00000221,0.00000688,-0.00595399,0.000085
 70,0.00024299,0.02401858,-0.00013558,0.00043553,0.00000048,-0.00156638
 ,-0.00019687,0.00000038,0.00004747,-0.00014000,-0.00000020,-0.00010130
 ,-0.00011890,-0.00000009,-0.00004724,0.00005949,0.00000004,0.00009991,
 -0.00003438,-0.00000005,-0.00001704,-0.00032210,-0.00000027,0.00003602
 ,0.00003874,0.00000002,0.00000554,-0.00000012,0.,0.00007821,-0.0000157
 3,-0.00000006,-0.00013368,-0.00002092,0.,0.00015858,-0.00056223,-0.000
 00061,-0.00059841,-0.00062588,-0.00000078,-0.00006597,-0.00015529,-0.0
 0000018,0.00036322,0.00057395,0.00000065,-0.00160447,-0.01700104,-0.00
 001422,0.00132946,-0.00018036,-0.00000101,-0.00116393,0.00077158,0.000
 00112,-0.00000593,-0.00002880,-0.00000002,-0.00003863,0.00002607,0.000
 00004,0.00006040,-0.00007563,-0.00000007,-0.00008233,-0.00004466,-0.00
 000003,-0.00003511,0.00007305,0.00000009,0.00001228,-0.00005128,-0.000
 00003,0.00001843,-0.00001318,-0.00000006,-0.01420037,-0.01456637,-0.00
 001417,0.00033427,0.00062176,0.00000035,-0.00002333,-0.00007149,-0.000
 00001,0.00003534,0.00008540,0.00000007,0.00007428,-0.00000180,-0.00000
 002,-0.00000288,0.00000103,0.,0.00000277,0.00000364,0.,0.00000368,0.00
 000430,0.,-0.00000003,-0.00000040,0.,0.01716274,-0.00011233,0.00019662
 ,0.00000020,0.00001733,-0.00031710,-0.00000060,-0.00001378,-0.00003468
 ,0.00000008,-0.00000816,-0.00008864,-0.00000009,-0.00006755,0.00009072
 ,0.00000020,0.00022537,0.00003984,-0.00000008,0.00035458,-0.00035537,-
 0.00000056,0.00014497,-0.00003679,-0.00000007,-0.00003487,-0.00006302,
 -0.00000006,0.00018531,0.00002940,0.00000003,-0.00050316,-0.00014063,0
 .00000005,0.00088987,-0.00127441,-0.00000169,-0.00260014,0.00054205,0.
 00000237,-0.00011857,-0.00008355,0.00000010,-0.00034477,-0.00003329,-0
 .00000055,-0.02516094,-0.07282458,-0.00007047,0.00501580,0.00261504,0.
 00000218,0.00011730,0.00014720,0.00000011,0.00003423,0.00001340,0.,-0.
 00001193,0.00001704,0.00000003,0.00010682,-0.00012159,-0.00000021,-0.0
 0011272,-0.00011192,-0.00000004,-0.00007937,0.00015267,0.00000016,0.00
 004831,-0.00018070,-0.00000026,-0.00003077,0.00004112,0.00000019,-0.00
 848106,-0.08828322,-0.00007598,-0.00101317,0.00146676,0.00000231,-0.00
 021796,-0.00010622,-0.00000020,0.00006078,0.00014538,0.00000015,0.0001
 5281,0.00002280,-0.00000005,0.00000395,0.00000216,0.,0.00001228,-0.000
 00047,0.,0.00001400,0.00000031,0.,-0.00000534,-0.00000859,0.,0.0315328
 7,0.15854229,-0.00000007,0.00000003,0.00002970,0.00000059,-0.00000055,
 0.00029852,-0.00000006,0.00000013,-0.00011513,0.00000002,-0.00000005,0
 .00000004,-0.00000007,0.00000015,-0.00008381,0.00000021,0.,0.00005368,
 0.00000042,-0.00000039,0.00011870,0.00000013,-0.00000003,-0.00001166,-
 0.00000003,-0.00000007,0.00000305,0.00000014,0.00000009,-0.00005854,-0
 .00000045,-0.00000010,-0.00003327,0.00000081,-0.00000117,0.00006765,-0
 .00000272,0.00000189,-0.00106630,-0.00000015,0.00000009,-0.00013178,-0
 .00000027,-0.00000079,0.00053201,-0.00002285,-0.00007469,0.00663454,0.
 00000429,0.00000398,-0.00121340,0.00000046,-0.00000008,-0.00001383,0.0
 0000004,0.00000001,0.00000955,0.,0.00000002,-0.00000873,0.00000011,-0.
 00000016,0.00005856,-0.00000010,-0.00000006,-0.00003418,-0.00000006,0.
 00000011,0.00001639,0.00000006,-0.00000023,0.00007267,-0.00000008,0.00
 000018,-0.00013144,-0.00000775,-0.00007274,-0.01172200,-0.00000127,0.0
 0000173,-0.00046054,-0.00000016,-0.00000024,0.00016100,0.00000004,0.00
 000014,-0.00001866,0.00000014,0.,0.00002576,0.,0.,-0.00000045,0.000000
 01,0.,0.00000007,0.00000001,0.,-0.00000175,0.,0.,0.00000038,0.00002861
 ,0.00014279,0.00702320\\0.00000154,-0.00000064,-0.00000022,0.00000137,
 0.00000421,-0.00000062,-0.00000194,-0.00000346,0.00000045,-0.00000265,
 0.00000006,-0.00000004,0.00000113,0.00000131,0.,0.00000120,-0.00000135
 ,0.00000008,0.00000029,0.00000070,-0.00000015,0.00000085,-0.00000083,-
 0.00000010,-0.00000056,0.00000054,0.00000006,-0.00000141,-0.00000121,-
 0.00000006,0.00000027,0.00000121,0.00000008,0.00000061,-0.00000170,-0.
 00000009,-0.00000438,0.00000113,-0.00000001,-0.00000049,0.00000028,0.0
 0000007,0.00000122,-0.00000072,0.00000039,0.00000090,-0.00000636,-0.00
 000019,0.00000138,0.00000314,-0.00000023,-0.00000165,0.00000501,0.0000
 0055,0.00000024,-0.00000022,0.00000005,-0.00000024,0.00000018,0.000000
 03,-0.00000048,-0.00000094,-0.00000003,0.00000115,-0.00000126,-0.00000
 005,0.00000123,0.00000037,0.00000005,-0.00000008,-0.00000006,-0.000000
 02,-0.00000011,-0.00000004,-0.00000006,0.00000211,0.00000475,0.0000005
 9,-0.00000036,-0.00000024,-0.00000026,0.00000007,0.00000002,-0.0000000
 3,-0.00000007,0.00000137,0.00000004,-0.00000114,0.00000027,0.00000006,
 0.00000002,-0.00000014,0.,0.00000016,0.00000019,-0.00000002,-0.0000000
 4,-0.00000005,-0.00000002,0.00000025,-0.00000015,-0.00000003,-0.000000
 38,-0.00000538,-0.00000025\\\@


 ERROR IS A HARDY PLANT... IT FLOURISHETH IN EVERY SOIL.
            MARTIN FARQUHAR TUPPER
 Job cpu time:       0 days 23 hours 21 minutes 51.8 seconds.
 Elapsed time:       0 days  1 hours 10 minutes  6.8 seconds.
 File lengths (MBytes):  RWF=   3001 Int=      0 D2E=      0 Chk=     36 Scr=      1
 Normal termination of Gaussian 16 at Wed Mar 27 18:14:24 2019.
