 Entering Gaussian System, Link 0=g09
 Initial command:
 /usr/local/Cluster-Apps/gaussian/g09/l1.exe "/rds/user/am2145/hpc-work/scratch/19184721/Gau-85048.inp" -scrdir="/rds/user/am2145/hpc-work/scratch/19184721/"
 Entering Link 1 = /usr/local/Cluster-Apps/gaussian/g09/l1.exe PID=     85049.
  
 Copyright (c) 1988,1990,1992,1993,1995,1998,2003,2009,2013,
            Gaussian, Inc.  All Rights Reserved.
  
 This is part of the Gaussian(R) 09 program.  It is based on
 the Gaussian(R) 03 system (copyright 2003, Gaussian, Inc.),
 the Gaussian(R) 98 system (copyright 1998, Gaussian, Inc.),
 the Gaussian(R) 94 system (copyright 1995, Gaussian, Inc.),
 the Gaussian 92(TM) system (copyright 1992, Gaussian, Inc.),
 the Gaussian 90(TM) system (copyright 1990, Gaussian, Inc.),
 the Gaussian 88(TM) system (copyright 1988, Gaussian, Inc.),
 the Gaussian 86(TM) system (copyright 1986, Carnegie Mellon
 University), and the Gaussian 82(TM) system (copyright 1983,
 Carnegie Mellon University). Gaussian is a federally registered
 trademark of Gaussian, Inc.
  
 This software contains proprietary and confidential information,
 including trade secrets, belonging to Gaussian, Inc.
  
 This software is provided under written license and may be
 used, copied, transmitted, or stored only in accord with that
 written license.
  
 The following legend is applicable only to US Government
 contracts under FAR:
  
                    RESTRICTED RIGHTS LEGEND
  
 Use, reproduction and disclosure by the US Government is
 subject to restrictions as set forth in subparagraphs (a)
 and (c) of the Commercial Computer Software - Restricted
 Rights clause in FAR 52.227-19.
  
 Gaussian, Inc.
 340 Quinnipiac St., Bldg. 40, Wallingford CT 06492
  
  
 ---------------------------------------------------------------
 Warning -- This program may not be used in any manner that
 competes with the business of Gaussian, Inc. or will provide
 assistance to any competitor of Gaussian, Inc.  The licensee
 of this program is prohibited from giving any competitor of
 Gaussian, Inc. access to this program.  By using this program,
 the user acknowledges that Gaussian, Inc. is engaged in the
 business of creating and licensing software in the field of
 computational chemistry and represents and warrants to the
 licensee that it is not a competitor of Gaussian, Inc. and that
 it will not use this program in any manner prohibited above.
 ---------------------------------------------------------------
  

 Cite this work as:
 Gaussian 09, Revision D.01,
 M. J. Frisch, G. W. Trucks, H. B. Schlegel, G. E. Scuseria, 
 M. A. Robb, J. R. Cheeseman, G. Scalmani, V. Barone, B. Mennucci, 
 G. A. Petersson, H. Nakatsuji, M. Caricato, X. Li, H. P. Hratchian, 
 A. F. Izmaylov, J. Bloino, G. Zheng, J. L. Sonnenberg, M. Hada, 
 M. Ehara, K. Toyota, R. Fukuda, J. Hasegawa, M. Ishida, T. Nakajima, 
 Y. Honda, O. Kitao, H. Nakai, T. Vreven, J. A. Montgomery, Jr., 
 J. E. Peralta, F. Ogliaro, M. Bearpark, J. J. Heyd, E. Brothers, 
 K. N. Kudin, V. N. Staroverov, T. Keith, R. Kobayashi, J. Normand, 
 K. Raghavachari, A. Rendell, J. C. Burant, S. S. Iyengar, J. Tomasi, 
 M. Cossi, N. Rega, J. M. Millam, M. Klene, J. E. Knox, J. B. Cross, 
 V. Bakken, C. Adamo, J. Jaramillo, R. Gomperts, R. E. Stratmann, 
 O. Yazyev, A. J. Austin, R. Cammi, C. Pomelli, J. W. Ochterski, 
 R. L. Martin, K. Morokuma, V. G. Zakrzewski, G. A. Voth, 
 P. Salvador, J. J. Dannenberg, S. Dapprich, A. D. Daniels, 
 O. Farkas, J. B. Foresman, J. V. Ortiz, J. Cioslowski, 
 and D. J. Fox, Gaussian, Inc., Wallingford CT, 2013.
 
 ******************************************
 Gaussian 09:  ES64L-G09RevD.01 24-Apr-2013
                 1-Feb-2020 
 ******************************************
 %NProcShared=20
 Will use up to   20 processors via shared memory.
 %mem=64GB
 %Chk=ATS1ab_guess.chk
 --------------------------------------------------
 #n opt=(ts,calcfc,noeigen) freq b3lyp/6-311+g(d,p)
 --------------------------------------------------
 1/5=1,10=4,11=1,14=-1,18=20,26=3,38=1/1,3;
 2/9=110,12=2,17=6,18=5,40=1/2;
 3/5=4,6=6,7=111,11=2,16=1,25=1,30=1,71=2,74=-5,140=1/1,2,3;
 4//1;
 5/5=2,38=5/2;
 8/6=4,10=90,11=11/1;
 11/6=1,8=1,9=11,15=111,16=1/1,2,10;
 10/6=1,13=1/2;
 6/7=2,8=2,9=2,10=2,28=1/1;
 7/10=1,18=20,25=1/1,2,3,16;
 1/5=1,10=4,11=1,14=-1,18=20,26=3/3(2);
 2/9=110/2;
 99//99;
 2/9=110/2;
 3/5=4,6=6,7=111,11=2,16=1,25=1,30=1,71=1,74=-5/1,2,3;
 4/5=5,16=3,69=1/1;
 5/5=2,38=5/2;
 7//1,2,3,16;
 1/5=1,11=1,14=-1,18=20,26=3/3(-5);
 2/9=110/2;
 6/7=2,8=2,9=2,10=2,19=2,28=1/1;
 99/9=1/99;
 ------------
 ATS1ab_guess
 ------------
 Symbolic Z-matrix:
 Charge =  0 Multiplicity = 2
 C                     1.16749   3.27645   0.22751 
 C                     0.09353   2.52327  -0.31297 
 C                     0.36052   1.26896  -0.76655 
 C                     2.43453   2.70201   0.38822 
 C                     2.68884   1.33511   0.0451 
 C                     1.64403   0.69005  -0.60538 
 C                    -0.58279   0.17386  -0.85364 
 C                     0.11327  -1.02458  -0.75602 
 C                     1.49616  -0.71833  -0.60237 
 C                    -0.45769  -2.2117   -0.267 
 C                    -1.84689  -2.16998  -0.01166 
 C                    -2.57247  -0.94576  -0.06022 
 C                    -1.89322   0.27356  -0.42952 
 C                    -3.91081  -0.77329   0.41369 
 C                    -4.43313   0.48195   0.61326 
 C                    -2.41675   1.55009  -0.12029 
 C                    -3.66994   1.67879   0.39374 
 H                     1.01199   4.2904    0.5788 
 H                     3.21042   3.2923    0.86589 
 C                     3.73303   0.45091   0.51697 
 C                     2.38424  -1.56431   0.02474 
 C                     0.52134  -3.19731   0.16689 
 H                    -2.35726  -3.05183   0.36425 
 H                    -4.50424  -1.64748   0.66067 
 H                    -1.3036    2.47228  -0.18311 
 H                    -4.09563   2.63874   0.66376 
 H                    -5.44274   0.58246   0.99728 
 C                     1.85749  -2.89054   0.3087 
 C                     3.58793  -0.92539   0.50707 
 H                     4.62138   0.87475   0.97427 
 H                     4.36867  -1.53132   0.95576 
 H                     2.51957  -3.64355   0.72439 
 H                     0.17912  -4.17967   0.47642 
 
 Add virtual bond connecting atoms H25        and C2         Dist= 2.65D+00.
 Add virtual bond connecting atoms H25        and C16        Dist= 2.73D+00.

 GradGradGradGradGradGradGradGradGradGradGradGradGradGradGradGradGradGrad
 Berny optimization.
 Initialization pass.
                           ----------------------------
                           !    Initial Parameters    !
                           ! (Angstroms and Degrees)  !
 --------------------------                            --------------------------
 ! Name  Definition              Value          Derivative Info.                !
 --------------------------------------------------------------------------------
 ! R1    R(1,2)                  1.4187         calculate D2E/DX2 analytically  !
 ! R2    R(1,4)                  1.4004         calculate D2E/DX2 analytically  !
 ! R3    R(1,18)                 1.0843         calculate D2E/DX2 analytically  !
 ! R4    R(2,3)                  1.3603         calculate D2E/DX2 analytically  !
 ! R5    R(2,25)                 1.4041         calculate D2E/DX2 analytically  !
 ! R6    R(3,6)                  1.4172         calculate D2E/DX2 analytically  !
 ! R7    R(3,7)                  1.448          calculate D2E/DX2 analytically  !
 ! R8    R(4,5)                  1.4321         calculate D2E/DX2 analytically  !
 ! R9    R(4,19)                 1.0856         calculate D2E/DX2 analytically  !
 ! R10   R(5,6)                  1.3896         calculate D2E/DX2 analytically  !
 ! R11   R(5,20)                 1.4473         calculate D2E/DX2 analytically  !
 ! R12   R(6,9)                  1.4161         calculate D2E/DX2 analytically  !
 ! R13   R(7,8)                  1.3893         calculate D2E/DX2 analytically  !
 ! R14   R(7,13)                 1.381          calculate D2E/DX2 analytically  !
 ! R15   R(8,9)                  1.4247         calculate D2E/DX2 analytically  !
 ! R16   R(8,10)                 1.4051         calculate D2E/DX2 analytically  !
 ! R17   R(9,21)                 1.3775         calculate D2E/DX2 analytically  !
 ! R18   R(10,11)                1.4131         calculate D2E/DX2 analytically  !
 ! R19   R(10,22)                1.4554         calculate D2E/DX2 analytically  !
 ! R20   R(11,12)                1.4239         calculate D2E/DX2 analytically  !
 ! R21   R(11,23)                1.086          calculate D2E/DX2 analytically  !
 ! R22   R(12,13)                1.4438         calculate D2E/DX2 analytically  !
 ! R23   R(12,14)                1.4302         calculate D2E/DX2 analytically  !
 ! R24   R(13,16)                1.4139         calculate D2E/DX2 analytically  !
 ! R25   R(14,15)                1.3741         calculate D2E/DX2 analytically  !
 ! R26   R(14,24)                1.0851         calculate D2E/DX2 analytically  !
 ! R27   R(15,17)                1.4363         calculate D2E/DX2 analytically  !
 ! R28   R(15,27)                1.0848         calculate D2E/DX2 analytically  !
 ! R29   R(16,17)                1.3606         calculate D2E/DX2 analytically  !
 ! R30   R(16,25)                1.4469         calculate D2E/DX2 analytically  !
 ! R31   R(17,26)                1.0843         calculate D2E/DX2 analytically  !
 ! R32   R(20,29)                1.384          calculate D2E/DX2 analytically  !
 ! R33   R(20,30)                1.0853         calculate D2E/DX2 analytically  !
 ! R34   R(21,28)                1.455          calculate D2E/DX2 analytically  !
 ! R35   R(21,29)                1.4456         calculate D2E/DX2 analytically  !
 ! R36   R(22,28)                1.3782         calculate D2E/DX2 analytically  !
 ! R37   R(22,33)                1.0853         calculate D2E/DX2 analytically  !
 ! R38   R(28,32)                1.0854         calculate D2E/DX2 analytically  !
 ! R39   R(29,31)                1.0854         calculate D2E/DX2 analytically  !
 ! A1    A(2,1,4)              120.7199         calculate D2E/DX2 analytically  !
 ! A2    A(2,1,18)             120.7511         calculate D2E/DX2 analytically  !
 ! A3    A(4,1,18)             118.4344         calculate D2E/DX2 analytically  !
 ! A4    A(1,2,3)              117.9035         calculate D2E/DX2 analytically  !
 ! A5    A(1,2,25)             137.5008         calculate D2E/DX2 analytically  !
 ! A6    A(3,2,25)             101.1081         calculate D2E/DX2 analytically  !
 ! A7    A(2,3,6)              121.0981         calculate D2E/DX2 analytically  !
 ! A8    A(2,3,7)              126.1266         calculate D2E/DX2 analytically  !
 ! A9    A(6,3,7)              106.7328         calculate D2E/DX2 analytically  !
 ! A10   A(1,4,5)              121.6477         calculate D2E/DX2 analytically  !
 ! A11   A(1,4,19)             118.2991         calculate D2E/DX2 analytically  !
 ! A12   A(5,4,19)             119.8339         calculate D2E/DX2 analytically  !
 ! A13   A(4,5,6)              114.944          calculate D2E/DX2 analytically  !
 ! A14   A(4,5,20)             129.2803         calculate D2E/DX2 analytically  !
 ! A15   A(6,5,20)             114.2981         calculate D2E/DX2 analytically  !
 ! A16   A(3,6,5)              122.9956         calculate D2E/DX2 analytically  !
 ! A17   A(3,6,9)              108.1752         calculate D2E/DX2 analytically  !
 ! A18   A(5,6,9)              122.6292         calculate D2E/DX2 analytically  !
 ! A19   A(3,7,8)              108.7696         calculate D2E/DX2 analytically  !
 ! A20   A(3,7,13)             123.0328         calculate D2E/DX2 analytically  !
 ! A21   A(8,7,13)             121.0715         calculate D2E/DX2 analytically  !
 ! A22   A(7,8,9)              107.9659         calculate D2E/DX2 analytically  !
 ! A23   A(7,8,10)             123.3421         calculate D2E/DX2 analytically  !
 ! A24   A(9,8,10)             122.5806         calculate D2E/DX2 analytically  !
 ! A25   A(6,9,8)              108.3552         calculate D2E/DX2 analytically  !
 ! A26   A(6,9,21)             122.9845         calculate D2E/DX2 analytically  !
 ! A27   A(8,9,21)             122.8777         calculate D2E/DX2 analytically  !
 ! A28   A(8,10,11)            115.939          calculate D2E/DX2 analytically  !
 ! A29   A(8,10,22)            113.7379         calculate D2E/DX2 analytically  !
 ! A30   A(11,10,22)           128.8616         calculate D2E/DX2 analytically  !
 ! A31   A(10,11,12)           121.3439         calculate D2E/DX2 analytically  !
 ! A32   A(10,11,23)           120.0378         calculate D2E/DX2 analytically  !
 ! A33   A(12,11,23)           118.064          calculate D2E/DX2 analytically  !
 ! A34   A(11,12,13)           119.6751         calculate D2E/DX2 analytically  !
 ! A35   A(11,12,14)           124.6954         calculate D2E/DX2 analytically  !
 ! A36   A(13,12,14)           115.0343         calculate D2E/DX2 analytically  !
 ! A37   A(7,13,12)            117.6471         calculate D2E/DX2 analytically  !
 ! A38   A(7,13,16)            118.9273         calculate D2E/DX2 analytically  !
 ! A39   A(12,13,16)           122.1624         calculate D2E/DX2 analytically  !
 ! A40   A(12,14,15)           120.9286         calculate D2E/DX2 analytically  !
 ! A41   A(12,14,24)           119.3436         calculate D2E/DX2 analytically  !
 ! A42   A(15,14,24)           119.67           calculate D2E/DX2 analytically  !
 ! A43   A(14,15,17)           122.4791         calculate D2E/DX2 analytically  !
 ! A44   A(14,15,27)           119.3266         calculate D2E/DX2 analytically  !
 ! A45   A(17,15,27)           118.1249         calculate D2E/DX2 analytically  !
 ! A46   A(13,16,17)           120.6005         calculate D2E/DX2 analytically  !
 ! A47   A(13,16,25)           106.3238         calculate D2E/DX2 analytically  !
 ! A48   A(17,16,25)           131.6604         calculate D2E/DX2 analytically  !
 ! A49   A(15,17,16)           117.9249         calculate D2E/DX2 analytically  !
 ! A50   A(15,17,26)           119.4097         calculate D2E/DX2 analytically  !
 ! A51   A(16,17,26)           122.6454         calculate D2E/DX2 analytically  !
 ! A52   A(5,20,29)            121.9756         calculate D2E/DX2 analytically  !
 ! A53   A(5,20,30)            119.2955         calculate D2E/DX2 analytically  !
 ! A54   A(29,20,30)           118.5018         calculate D2E/DX2 analytically  !
 ! A55   A(9,21,28)            114.5335         calculate D2E/DX2 analytically  !
 ! A56   A(9,21,29)            114.6622         calculate D2E/DX2 analytically  !
 ! A57   A(28,21,29)           129.7321         calculate D2E/DX2 analytically  !
 ! A58   A(10,22,28)           122.1468         calculate D2E/DX2 analytically  !
 ! A59   A(10,22,33)           119.0696         calculate D2E/DX2 analytically  !
 ! A60   A(28,22,33)           118.5422         calculate D2E/DX2 analytically  !
 ! A61   A(2,25,16)            142.4381         calculate D2E/DX2 analytically  !
 ! A62   A(21,28,22)           122.2614         calculate D2E/DX2 analytically  !
 ! A63   A(21,28,32)           119.0953         calculate D2E/DX2 analytically  !
 ! A64   A(22,28,32)           118.4463         calculate D2E/DX2 analytically  !
 ! A65   A(20,29,21)           121.9526         calculate D2E/DX2 analytically  !
 ! A66   A(20,29,31)           118.4769         calculate D2E/DX2 analytically  !
 ! A67   A(21,29,31)           119.3504         calculate D2E/DX2 analytically  !
 ! D1    D(4,1,2,3)             -5.1811         calculate D2E/DX2 analytically  !
 ! D2    D(4,1,2,25)           149.0581         calculate D2E/DX2 analytically  !
 ! D3    D(18,1,2,3)           178.4104         calculate D2E/DX2 analytically  !
 ! D4    D(18,1,2,25)          -27.3504         calculate D2E/DX2 analytically  !
 ! D5    D(2,1,4,5)             -1.4113         calculate D2E/DX2 analytically  !
 ! D6    D(2,1,4,19)          -176.0184         calculate D2E/DX2 analytically  !
 ! D7    D(18,1,4,5)           175.0789         calculate D2E/DX2 analytically  !
 ! D8    D(18,1,4,19)            0.4718         calculate D2E/DX2 analytically  !
 ! D9    D(1,2,3,6)              5.0842         calculate D2E/DX2 analytically  !
 ! D10   D(1,2,3,7)            154.0164         calculate D2E/DX2 analytically  !
 ! D11   D(25,2,3,6)          -157.5049         calculate D2E/DX2 analytically  !
 ! D12   D(25,2,3,7)            -8.5727         calculate D2E/DX2 analytically  !
 ! D13   D(1,2,25,16)         -140.9334         calculate D2E/DX2 analytically  !
 ! D14   D(3,2,25,16)           16.0238         calculate D2E/DX2 analytically  !
 ! D15   D(2,3,6,5)              1.7223         calculate D2E/DX2 analytically  !
 ! D16   D(2,3,6,9)            154.5727         calculate D2E/DX2 analytically  !
 ! D17   D(7,3,6,5)           -152.4763         calculate D2E/DX2 analytically  !
 ! D18   D(7,3,6,9)              0.3741         calculate D2E/DX2 analytically  !
 ! D19   D(2,3,7,8)           -152.8681         calculate D2E/DX2 analytically  !
 ! D20   D(2,3,7,13)            -2.2741         calculate D2E/DX2 analytically  !
 ! D21   D(6,3,7,8)             -0.3472         calculate D2E/DX2 analytically  !
 ! D22   D(6,3,7,13)           150.2468         calculate D2E/DX2 analytically  !
 ! D23   D(1,4,5,6)              7.7292         calculate D2E/DX2 analytically  !
 ! D24   D(1,4,5,20)          -157.4451         calculate D2E/DX2 analytically  !
 ! D25   D(19,4,5,6)          -177.7448         calculate D2E/DX2 analytically  !
 ! D26   D(19,4,5,20)           17.0809         calculate D2E/DX2 analytically  !
 ! D27   D(4,5,6,3)             -7.966          calculate D2E/DX2 analytically  !
 ! D28   D(4,5,6,9)           -156.9822         calculate D2E/DX2 analytically  !
 ! D29   D(20,5,6,3)           159.4825         calculate D2E/DX2 analytically  !
 ! D30   D(20,5,6,9)            10.4663         calculate D2E/DX2 analytically  !
 ! D31   D(4,5,20,29)          155.4035         calculate D2E/DX2 analytically  !
 ! D32   D(4,5,20,30)          -19.0373         calculate D2E/DX2 analytically  !
 ! D33   D(6,5,20,29)           -9.849          calculate D2E/DX2 analytically  !
 ! D34   D(6,5,20,30)          175.7102         calculate D2E/DX2 analytically  !
 ! D35   D(3,6,9,8)             -0.269          calculate D2E/DX2 analytically  !
 ! D36   D(3,6,9,21)          -154.0597         calculate D2E/DX2 analytically  !
 ! D37   D(5,6,9,8)            152.7021         calculate D2E/DX2 analytically  !
 ! D38   D(5,6,9,21)            -1.0885         calculate D2E/DX2 analytically  !
 ! D39   D(3,7,8,9)              0.1839         calculate D2E/DX2 analytically  !
 ! D40   D(3,7,8,10)           153.1786         calculate D2E/DX2 analytically  !
 ! D41   D(13,7,8,9)          -151.0926         calculate D2E/DX2 analytically  !
 ! D42   D(13,7,8,10)            1.902          calculate D2E/DX2 analytically  !
 ! D43   D(3,7,13,12)         -155.7056         calculate D2E/DX2 analytically  !
 ! D44   D(3,7,13,16)           11.7412         calculate D2E/DX2 analytically  !
 ! D45   D(8,7,13,12)           -8.5771         calculate D2E/DX2 analytically  !
 ! D46   D(8,7,13,16)          158.8697         calculate D2E/DX2 analytically  !
 ! D47   D(7,8,9,6)              0.0503         calculate D2E/DX2 analytically  !
 ! D48   D(7,8,9,21)           153.875          calculate D2E/DX2 analytically  !
 ! D49   D(10,8,9,6)          -153.1946         calculate D2E/DX2 analytically  !
 ! D50   D(10,8,9,21)            0.6301         calculate D2E/DX2 analytically  !
 ! D51   D(7,8,10,11)            6.9545         calculate D2E/DX2 analytically  !
 ! D52   D(7,8,10,22)         -160.4994         calculate D2E/DX2 analytically  !
 ! D53   D(9,8,10,11)          156.1174         calculate D2E/DX2 analytically  !
 ! D54   D(9,8,10,22)          -11.3365         calculate D2E/DX2 analytically  !
 ! D55   D(6,9,21,28)          160.3582         calculate D2E/DX2 analytically  !
 ! D56   D(6,9,21,29)           -8.9781         calculate D2E/DX2 analytically  !
 ! D57   D(8,9,21,28)           10.3004         calculate D2E/DX2 analytically  !
 ! D58   D(8,9,21,29)         -159.0358         calculate D2E/DX2 analytically  !
 ! D59   D(8,10,11,12)          -8.9339         calculate D2E/DX2 analytically  !
 ! D60   D(8,10,11,23)         179.7697         calculate D2E/DX2 analytically  !
 ! D61   D(22,10,11,12)        156.2706         calculate D2E/DX2 analytically  !
 ! D62   D(22,10,11,23)        -15.0258         calculate D2E/DX2 analytically  !
 ! D63   D(8,10,22,28)          11.1722         calculate D2E/DX2 analytically  !
 ! D64   D(8,10,22,33)        -174.5576         calculate D2E/DX2 analytically  !
 ! D65   D(11,10,22,28)       -154.2989         calculate D2E/DX2 analytically  !
 ! D66   D(11,10,22,33)         19.9713         calculate D2E/DX2 analytically  !
 ! D67   D(10,11,12,13)          2.5264         calculate D2E/DX2 analytically  !
 ! D68   D(10,11,12,14)       -168.1736         calculate D2E/DX2 analytically  !
 ! D69   D(23,11,12,13)        173.989          calculate D2E/DX2 analytically  !
 ! D70   D(23,11,12,14)          3.289          calculate D2E/DX2 analytically  !
 ! D71   D(11,12,13,7)           6.3864         calculate D2E/DX2 analytically  !
 ! D72   D(11,12,13,16)       -160.6277         calculate D2E/DX2 analytically  !
 ! D73   D(14,12,13,7)         177.9537         calculate D2E/DX2 analytically  !
 ! D74   D(14,12,13,16)         10.9397         calculate D2E/DX2 analytically  !
 ! D75   D(11,12,14,15)        165.0909         calculate D2E/DX2 analytically  !
 ! D76   D(11,12,14,24)        -12.135          calculate D2E/DX2 analytically  !
 ! D77   D(13,12,14,15)         -5.9941         calculate D2E/DX2 analytically  !
 ! D78   D(13,12,14,24)        176.7799         calculate D2E/DX2 analytically  !
 ! D79   D(7,13,16,17)        -175.1384         calculate D2E/DX2 analytically  !
 ! D80   D(7,13,16,25)          -7.2045         calculate D2E/DX2 analytically  !
 ! D81   D(12,13,16,17)         -8.2842         calculate D2E/DX2 analytically  !
 ! D82   D(12,13,16,25)        159.6496         calculate D2E/DX2 analytically  !
 ! D83   D(12,14,15,17)         -1.5517         calculate D2E/DX2 analytically  !
 ! D84   D(12,14,15,27)       -178.4643         calculate D2E/DX2 analytically  !
 ! D85   D(24,14,15,17)        175.6653         calculate D2E/DX2 analytically  !
 ! D86   D(24,14,15,27)         -1.2473         calculate D2E/DX2 analytically  !
 ! D87   D(14,15,17,16)          4.7076         calculate D2E/DX2 analytically  !
 ! D88   D(14,15,17,26)       -173.7081         calculate D2E/DX2 analytically  !
 ! D89   D(27,15,17,16)       -178.3445         calculate D2E/DX2 analytically  !
 ! D90   D(27,15,17,26)          3.2398         calculate D2E/DX2 analytically  !
 ! D91   D(13,16,17,15)          0.2097         calculate D2E/DX2 analytically  !
 ! D92   D(13,16,17,26)        178.5707         calculate D2E/DX2 analytically  !
 ! D93   D(25,16,17,15)       -164.2138         calculate D2E/DX2 analytically  !
 ! D94   D(25,16,17,26)         14.1472         calculate D2E/DX2 analytically  !
 ! D95   D(13,16,25,2)          -8.4642         calculate D2E/DX2 analytically  !
 ! D96   D(17,16,25,2)         157.5998         calculate D2E/DX2 analytically  !
 ! D97   D(5,20,29,21)          -0.0018         calculate D2E/DX2 analytically  !
 ! D98   D(5,20,29,31)        -174.574          calculate D2E/DX2 analytically  !
 ! D99   D(30,20,29,21)        174.4814         calculate D2E/DX2 analytically  !
 ! D100  D(30,20,29,31)         -0.0907         calculate D2E/DX2 analytically  !
 ! D101  D(9,21,28,22)         -10.3387         calculate D2E/DX2 analytically  !
 ! D102  D(9,21,28,32)         174.8447         calculate D2E/DX2 analytically  !
 ! D103  D(29,21,28,22)        157.0304         calculate D2E/DX2 analytically  !
 ! D104  D(29,21,28,32)        -17.7862         calculate D2E/DX2 analytically  !
 ! D105  D(9,21,29,20)           9.4172         calculate D2E/DX2 analytically  !
 ! D106  D(9,21,29,31)        -176.0567         calculate D2E/DX2 analytically  !
 ! D107  D(28,21,29,20)       -157.9387         calculate D2E/DX2 analytically  !
 ! D108  D(28,21,29,31)         16.5874         calculate D2E/DX2 analytically  !
 ! D109  D(10,22,28,21)         -0.4999         calculate D2E/DX2 analytically  !
 ! D110  D(10,22,28,32)        174.3489         calculate D2E/DX2 analytically  !
 ! D111  D(33,22,28,21)       -174.7991         calculate D2E/DX2 analytically  !
 ! D112  D(33,22,28,32)          0.0497         calculate D2E/DX2 analytically  !
 --------------------------------------------------------------------------------
 Trust Radius=3.00D-01 FncErr=1.00D-07 GrdErr=1.00D-06
 Number of steps in this run=    198 maximum allowed number of steps=    198.
 Search for a saddle point of order  1.
 GradGradGradGradGradGradGradGradGradGradGradGradGradGradGradGradGradGrad

                          Input orientation:                          
 ---------------------------------------------------------------------
 Center     Atomic      Atomic             Coordinates (Angstroms)
 Number     Number       Type             X           Y           Z
 ---------------------------------------------------------------------
      1          6           0        1.167490    3.276450    0.227510
      2          6           0        0.093530    2.523270   -0.312970
      3          6           0        0.360520    1.268960   -0.766550
      4          6           0        2.434530    2.702010    0.388220
      5          6           0        2.688840    1.335110    0.045100
      6          6           0        1.644030    0.690050   -0.605380
      7          6           0       -0.582790    0.173860   -0.853640
      8          6           0        0.113270   -1.024580   -0.756020
      9          6           0        1.496160   -0.718330   -0.602370
     10          6           0       -0.457690   -2.211700   -0.267000
     11          6           0       -1.846890   -2.169980   -0.011660
     12          6           0       -2.572470   -0.945760   -0.060220
     13          6           0       -1.893220    0.273560   -0.429520
     14          6           0       -3.910810   -0.773290    0.413690
     15          6           0       -4.433130    0.481950    0.613260
     16          6           0       -2.416750    1.550090   -0.120290
     17          6           0       -3.669940    1.678790    0.393740
     18          1           0        1.011990    4.290400    0.578800
     19          1           0        3.210420    3.292300    0.865890
     20          6           0        3.733030    0.450910    0.516970
     21          6           0        2.384240   -1.564310    0.024740
     22          6           0        0.521340   -3.197310    0.166890
     23          1           0       -2.357260   -3.051830    0.364250
     24          1           0       -4.504240   -1.647480    0.660670
     25          1           0       -1.303600    2.472280   -0.183110
     26          1           0       -4.095630    2.638740    0.663760
     27          1           0       -5.442740    0.582460    0.997280
     28          6           0        1.857490   -2.890540    0.308700
     29          6           0        3.587930   -0.925390    0.507070
     30          1           0        4.621380    0.874750    0.974270
     31          1           0        4.368670   -1.531320    0.955760
     32          1           0        2.519570   -3.643550    0.724390
     33          1           0        0.179120   -4.179670    0.476420
 ---------------------------------------------------------------------
                    Distance matrix (angstroms):
                    1          2          3          4          5
     1  C    0.000000
     2  C    1.418728   0.000000
     3  C    2.381044   1.360262   0.000000
     4  C    1.400428   2.450285   2.772840   0.000000
     5  C    2.473172   2.876729   2.466622   1.432069   0.000000
     6  C    2.758670   2.418729   1.417219   2.379099   1.389552
     7  C    3.722691   2.503889   1.447986   4.127709   3.586056
     8  C    4.536251   3.575461   2.306853   4.537070   3.583782
     9  C    4.093286   3.543881   2.294767   3.682463   2.461365
    10  C    5.745045   4.767169   3.610265   5.739233   4.751623
    11  C    6.229550   5.087496   4.155578   6.498211   5.732515
    12  C    5.647756   4.382420   3.742501   6.211069   5.735403
    13  C    4.337855   3.003657   2.486716   5.029462   4.727306
    14  C    6.498014   5.237374   4.879345   7.234756   6.938054
    15  C    6.270963   5.051291   5.049984   7.221085   7.195356
    16  C    3.993502   2.699206   2.865295   5.012028   5.112790
    17  C    5.097144   3.921262   4.214124   6.189634   6.377597
    18  H    1.084288   2.182102   3.370976   2.140776   3.439535
    19  H    2.140407   3.419959   3.857550   1.085641   2.185483
    20  C    3.827461   4.269594   3.700061   2.601947   1.447344
    21  C    4.995453   4.697841   3.570574   4.282071   2.915447
    22  C    6.506209   5.756589   4.565604   6.205744   5.025507
    23  H    7.244977   6.127539   5.228218   7.487890   6.694044
    24  H    7.523379   6.283520   5.848801   8.193828   7.811221
    25  H    2.630890   1.404078   2.134872   3.788510   4.157501
    26  H    5.319532   4.303068   4.876408   6.536277   6.936226
    27  H    7.179503   6.011138   6.104114   8.180148   8.221662
    28  C    6.206002   5.727772   4.549563   5.622803   4.314713
    29  C    4.857174   4.977605   4.105296   3.808213   2.476215
    30  H    4.272607   4.987588   4.619609   2.909407   2.193171
    31  H    5.821731   6.027122   5.183935   4.688719   3.444931
    32  H    7.068339   6.707567   5.569305   6.355027   5.027638
    33  H    7.525461   6.749805   5.591552   7.242387   6.074334
                    6          7          8          9         10
     6  C    0.000000
     7  C    2.299307   0.000000
     8  C    2.303448   1.389348   0.000000
     9  C    1.416125   2.276219   1.424704   0.000000
    10  C    3.598872   2.459816   1.405130   2.481966   0.000000
    11  C    4.551791   2.792931   2.389192   3.692182   1.413087
    12  C    4.555430   2.417000   2.775527   4.110888   2.473390
    13  C    3.566024   1.380958   2.412006   3.535763   2.874661
    14  C    5.834048   3.684961   4.198165   5.501884   3.802157
    15  C    6.201634   4.131807   4.981397   6.170487   4.882083
    16  C    4.179105   2.407326   3.665253   4.548516   4.243878
    17  C    5.496738   3.653938   4.789868   5.781610   5.088324
    18  H    3.842431   4.641240   5.553238   5.168845   6.719572
    19  H    3.374895   5.202874   5.555032   4.602133   6.710625
    20  C    2.383438   4.536698   4.110990   2.761092   5.026553
    21  C    2.455015   3.549092   2.461341   1.377547   2.929299
    22  C    4.119272   3.691256   2.395629   2.772612   1.455399
    23  H    5.563467   3.877767   3.386483   4.607431   2.170866
    24  H    6.698369   4.581286   4.869950   6.201886   4.189688
    25  H    3.470328   2.500382   3.816252   4.265493   4.760491
    26  H    6.192883   4.551723   5.757650   6.643878   6.134141
    27  H    7.266526   5.216510   6.043665   7.238734   5.852902
    28  C    3.701585   4.086141   2.767262   2.383087   2.480386
    29  C    2.761510   4.522697   3.698445   2.376811   4.315185
    30  H    3.375503   5.560206   5.188874   3.845868   6.071563
    31  H    3.846467   5.540625   4.614695   3.367497   5.025118
    32  H    4.616811   5.165988   3.852389   3.371138   3.449221
    33  H    5.199079   4.615495   3.387896   3.857364   2.197978
                   11         12         13         14         15
    11  C    0.000000
    12  C    1.423917   0.000000
    13  C    2.479444   1.443781   0.000000
    14  C    2.528128   1.430206   2.424369   0.000000
    15  C    3.756580   2.440079   2.753536   1.374145   0.000000
    16  C    3.765031   2.501424   1.413943   2.813440   2.396833
    17  C    4.277954   2.880761   2.410220   2.463963   1.436340
    18  H    7.089312   6.377623   5.058849   7.064147   6.644909
    19  H    7.495531   7.229153   6.069433   8.212516   8.147745
    20  C    6.187408   6.484070   5.708063   7.741939   8.166787
    21  C    4.274415   4.995878   4.677690   6.356465   7.142133
    22  C    2.587624   3.833108   4.269982   5.057740   6.187324
    23  H    1.086023   2.159171   3.450163   2.758207   4.105952
    24  H    2.790438   2.178033   3.419990   1.085065   2.131144
    25  H    4.677086   3.648031   2.289703   4.205644   3.793360
    26  H    5.351337   3.961414   3.411737   3.426170   2.183621
    27  H    4.639399   3.419388   3.838003   2.127309   1.084844
    28  C    3.787383   4.852094   4.962290   6.145491   7.144113
    29  C    5.599585   6.186498   5.688382   7.500864   8.144279
    30  H    7.216714   7.492390   6.691193   8.707959   9.070213
    31  H    6.322735   7.039497   6.662421   8.331761   9.035610
    32  H    4.666814   5.815716   6.012319   7.048738   8.085304
    33  H    2.895133   4.279884   4.994655   5.323052   6.559137
                   16         17         18         19         20
    16  C    0.000000
    17  C    1.360616   0.000000
    18  H    4.444579   5.364254   0.000000
    19  H    5.972679   7.082774   2.431403   0.000000
    20  C    6.279657   7.505121   4.706332   2.910045   0.000000
    21  C    5.724511   6.878005   6.038848   4.997676   2.474396
    22  C    5.590407   6.433867   7.515065   7.059376   4.873091
    23  H    4.627741   4.909457   8.081226   8.455690   7.027385
    24  H    3.897687   3.439677   8.105178   9.162943   8.501559
    25  H    1.446888   2.561630   3.041056   4.706295   5.472083
    26  H    2.149077   1.084263   5.368704   7.338008   8.129949
    27  H    3.367772   2.170028   7.455701   9.068499   9.189274
    28  C    6.178378   7.172063   7.235587   6.353612   3.837488
    29  C    6.525164   7.711762   5.817652   4.249726   1.383963
    30  H    7.154678   8.350418   4.985053   2.801268   1.085325
    31  H    7.529601   8.674095   6.730663   4.961545   2.127395
    32  H    7.214890   8.169863   8.077225   6.971608   4.275525
    33  H    6.318604   7.010253   8.511536   8.072844   5.837310
                   21         22         23         24         25
    21  C    0.000000
    22  C    2.481389   0.000000
    23  H    4.980944   2.889023   0.000000
    24  H    6.918272   5.282258   2.582554   0.000000
    25  H    5.471510   5.966335   5.650274   5.284741   0.000000
    26  H    7.750012   7.458068   5.957703   4.305654   2.922384
    27  H    8.174110   7.109603   4.809260   2.442687   4.700768
    28  C    1.454986   1.378229   4.218201   6.491586   6.244534
    29  C    1.445590   3.831621   6.315650   8.125775   5.995630
    30  H    3.443170   5.834712   8.030664   9.472958   6.244759
    31  H    2.192225   4.266121   6.920980   8.878576   7.035658
    32  H    2.197968   2.121994   4.925780   7.302209   7.269358
    33  H    3.450605   1.085336   2.778098   5.327269   6.847034
                   26         27         28         29         30
    26  H    0.000000
    27  H    2.480772   0.000000
    28  C    8.132567   8.113521   0.000000
    29  C    8.471403   9.168801   2.625945   0.000000
    30  H    8.899120  10.068390   4.717995   2.127627   0.000000
    31  H    9.440288  10.036611   2.927830   1.085370   2.419375
    32  H    9.123142   9.018426   1.085436   2.928654   4.989497
    33  H    8.049801   7.386101   2.122949   4.712883   6.747495
                   31         32         33
    31  H    0.000000
    32  H    2.816774   0.000000
    33  H    4.979544   2.413839   0.000000
 Stoichiometry    C22H11(2)
 Framework group  C1[X(C22H11)]
 Deg. of freedom    93
 Full point group                 C1      NOp   1
 Largest Abelian subgroup         C1      NOp   1
 Largest concise Abelian subgroup C1      NOp   1
                         Standard orientation:                         
 ---------------------------------------------------------------------
 Center     Atomic      Atomic             Coordinates (Angstroms)
 Number     Number       Type             X           Y           Z
 ---------------------------------------------------------------------
      1          6           0        1.167494   -3.276449   -0.227510
      2          6           0        0.093533   -2.523270    0.312970
      3          6           0        0.360522   -1.268960    0.766550
      4          6           0        2.434534   -2.702007   -0.388220
      5          6           0        2.688842   -1.335107   -0.045100
      6          6           0        1.644031   -0.690048    0.605380
      7          6           0       -0.582789   -0.173861    0.853640
      8          6           0        0.113269    1.024580    0.756020
      9          6           0        1.496160    0.718332    0.602370
     10          6           0       -0.457692    2.211699    0.267000
     11          6           0       -1.846892    2.169978    0.011660
     12          6           0       -2.572471    0.945757    0.060220
     13          6           0       -1.893219   -0.273562    0.429520
     14          6           0       -3.910811    0.773285   -0.413690
     15          6           0       -4.433129   -0.481955   -0.613260
     16          6           0       -2.416748   -1.550093    0.120290
     17          6           0       -3.669938   -1.678794   -0.393740
     18          1           0        1.011996   -4.290399   -0.578800
     19          1           0        3.210424   -3.292296   -0.865890
     20          6           0        3.733031   -0.450905   -0.516970
     21          6           0        2.384239    1.564313   -0.024740
     22          6           0        0.521337    3.197311   -0.166890
     23          1           0       -2.357263    3.051827   -0.364250
     24          1           0       -4.504242    1.647475   -0.660670
     25          1           0       -1.303597   -2.472282    0.183110
     26          1           0       -4.095626   -2.638745   -0.663760
     27          1           0       -5.442739   -0.582467   -0.997280
     28          6           0        1.857487    2.890542   -0.308700
     29          6           0        3.587929    0.925394   -0.507070
     30          1           0        4.621381   -0.874744   -0.974270
     31          1           0        4.368669    1.531325   -0.955760
     32          1           0        2.519566    3.643553   -0.724390
     33          1           0        0.179115    4.179670   -0.476420
 ---------------------------------------------------------------------
 Rotational constants (GHZ):      0.5198040      0.3000697      0.1992664
 Standard basis: 6-311+G(d,p) (5D, 7F)
 There are   572 symmetry adapted cartesian basis functions of A   symmetry.
 There are   550 symmetry adapted basis functions of A   symmetry.
   550 basis functions,   880 primitive gaussians,   572 cartesian basis functions
    72 alpha electrons       71 beta electrons
       nuclear repulsion energy      1586.4113208727 Hartrees.
 NAtoms=   33 NActive=   33 NUniq=   33 SFac= 1.00D+00 NAtFMM=   60 NAOKFM=F Big=F
 Integral buffers will be    131072 words long.
 Raffenetti 2 integral format.
 Two-electron integral symmetry is turned on.
 One-electron integrals computed using PRISM.
 NBasis=   550 RedAO= T EigKep=  1.02D-06  NBF=   550
 NBsUse=   540 1.00D-06 EigRej=  6.22D-07 NBFU=   540
 ExpMin= 4.38D-02 ExpMax= 4.56D+03 ExpMxC= 6.82D+02 IAcc=2 IRadAn=         4 AccDes= 0.00D+00
 Harris functional with IExCor=  402 and IRadAn=       4 diagonalized for initial guess.
 HarFok:  IExCor=  402 AccDes= 0.00D+00 IRadAn=         4 IDoV= 1 UseB2=F ITyADJ=14
 ICtDFT=  3500011 ScaDFX=  1.000000  1.000000  1.000000  1.000000
 FoFCou: FMM=F IPFlag=           0 FMFlag=      100000 FMFlg1=           0
         NFxFlg=           0 DoJE=T BraDBF=F KetDBF=T FulRan=T
         wScrn=  0.000000 ICntrl=     500 IOpCl=  0 I1Cent=   200000004 NGrid=           0
         NMat0=    1 NMatS0=      1 NMatT0=    0 NMatD0=    1 NMtDS0=    0 NMtDT0=    0
 Petite list used in FoFCou.
 Initial guess <Sx>= 0.0000 <Sy>= 0.0000 <Sz>= 0.5000 <S**2>= 0.7500 S= 0.5000
 Requested convergence on RMS density matrix=1.00D-08 within 128 cycles.
 Requested convergence on MAX density matrix=1.00D-06.
 Requested convergence on             energy=1.00D-06.
 No special actions if energy rises.
 Restarting incremental Fock formation.
 SCF Done:  E(UB3LYP) =  -845.033101834     A.U. after   24 cycles
            NFock= 24  Conv=0.76D-08     -V/T= 2.0044
 <Sx>= 0.0000 <Sy>= 0.0000 <Sz>= 0.5000 <S**2>= 0.7679 S= 0.5089
 <L.S>= 0.000000000000E+00
 Annihilation of the first spin contaminant:
 S**2 before annihilation     0.7679,   after     0.7502
 DoSCS=F DFT=T ScalE2(SS,OS)=  1.000000  1.000000
 Range of M.O.s used for correlation:     1   540
 NBasis=   550 NAE=    72 NBE=    71 NFC=     0 NFV=     0
 NROrb=    540 NOA=    72 NOB=    71 NVA=   468 NVB=   469

 **** Warning!!: The largest alpha MO coefficient is  0.18027904D+03


 **** Warning!!: The largest beta MO coefficient is  0.19087497D+03


 **** Warning!!: The smallest beta delta epsilon is  0.92757440D-01

 Symmetrizing basis deriv contribution to polar:
 IMax=3 JMax=2 DiffMx= 0.00D+00
 G2DrvN: will do    34 centers at a time, making    1 passes.
 Calling FoFCou, ICntrl=  3107 FMM=F I1Cent=   0 AccDes= 0.00D+00.
 End of G2Drv F.D. properties file   721 does not exist.
 End of G2Drv F.D. properties file   722 does not exist.
 End of G2Drv F.D. properties file   788 does not exist.
          IDoAtm=111111111111111111111111111111111
          Differentiating once with respect to nuclear coordinates.
          There are   102 degrees of freedom in the 1st order CPHF.  IDoFFX=6 NUNeed=     0.
     99 vectors produced by pass  0 Test12= 6.70D-14 1.00D-09 XBig12= 5.30D-01 1.68D-01.
 AX will form    99 AO Fock derivatives at one time.
     96 vectors produced by pass  1 Test12= 6.70D-14 1.00D-09 XBig12= 1.16D-01 4.57D-02.
     96 vectors produced by pass  2 Test12= 6.70D-14 1.00D-09 XBig12= 2.26D-03 5.69D-03.
     96 vectors produced by pass  3 Test12= 6.70D-14 1.00D-09 XBig12= 3.14D-05 6.03D-04.
     96 vectors produced by pass  4 Test12= 6.70D-14 1.00D-09 XBig12= 3.64D-07 4.01D-05.
     96 vectors produced by pass  5 Test12= 6.70D-14 1.00D-09 XBig12= 2.77D-09 4.83D-06.
     96 vectors produced by pass  6 Test12= 6.70D-14 1.00D-09 XBig12= 9.54D-11 8.16D-07.
     96 vectors produced by pass  7 Test12= 6.70D-14 1.00D-09 XBig12= 2.19D-11 3.51D-07.
     96 vectors produced by pass  8 Test12= 6.70D-14 1.00D-09 XBig12= 3.58D-12 1.44D-07.
     96 vectors produced by pass  9 Test12= 6.70D-14 1.00D-09 XBig12= 2.97D-13 3.54D-08.
     67 vectors produced by pass 10 Test12= 6.70D-14 1.00D-09 XBig12= 3.38D-15 3.58D-09.
     51 vectors produced by pass 11 Test12= 6.70D-14 1.00D-09 XBig12= 2.01D-15 2.90D-09.
     30 vectors produced by pass 12 Test12= 6.70D-14 1.00D-09 XBig12= 8.39D-16 1.89D-09.
     30 vectors produced by pass 13 Test12= 6.70D-14 1.00D-09 XBig12= 9.68D-14 2.22D-08.
     30 vectors produced by pass 14 Test12= 6.70D-14 1.00D-09 XBig12= 7.77D-13 5.12D-08.
     30 vectors produced by pass 15 Test12= 6.70D-14 1.00D-09 XBig12= 3.10D-13 3.54D-08.
     30 vectors produced by pass 16 Test12= 6.70D-14 1.00D-09 XBig12= 2.21D-13 2.81D-08.
     30 vectors produced by pass 17 Test12= 6.70D-14 1.00D-09 XBig12= 2.56D-13 2.69D-08.
     30 vectors produced by pass 18 Test12= 6.70D-14 1.00D-09 XBig12= 1.53D-13 2.15D-08.
     30 vectors produced by pass 19 Test12= 6.70D-14 1.00D-09 XBig12= 1.22D-13 1.92D-08.
     30 vectors produced by pass 20 Test12= 6.70D-14 1.00D-09 XBig12= 1.35D-13 1.77D-08.
     30 vectors produced by pass 21 Test12= 6.70D-14 1.00D-09 XBig12= 1.28D-13 1.99D-08.
     30 vectors produced by pass 22 Test12= 6.70D-14 1.00D-09 XBig12= 5.00D-14 1.32D-08.
     30 vectors produced by pass 23 Test12= 6.70D-14 1.00D-09 XBig12= 8.25D-14 1.51D-08.
     30 vectors produced by pass 24 Test12= 6.70D-14 1.00D-09 XBig12= 5.56D-14 1.36D-08.
     30 vectors produced by pass 25 Test12= 6.70D-14 1.00D-09 XBig12= 8.71D-14 1.39D-08.
     30 vectors produced by pass 26 Test12= 6.70D-14 1.00D-09 XBig12= 9.33D-14 1.62D-08.
     30 vectors produced by pass 27 Test12= 6.70D-14 1.00D-09 XBig12= 5.19D-14 1.15D-08.
     29 vectors produced by pass 28 Test12= 6.70D-14 1.00D-09 XBig12= 4.38D-14 1.02D-08.
     29 vectors produced by pass 29 Test12= 6.70D-14 1.00D-09 XBig12= 7.74D-14 1.23D-08.
     27 vectors produced by pass 30 Test12= 6.70D-14 1.00D-09 XBig12= 3.48D-14 9.78D-09.
     27 vectors produced by pass 31 Test12= 6.70D-14 1.00D-09 XBig12= 6.20D-14 1.09D-08.
     27 vectors produced by pass 32 Test12= 6.70D-14 1.00D-09 XBig12= 3.80D-14 8.37D-09.
     27 vectors produced by pass 33 Test12= 6.70D-14 1.00D-09 XBig12= 9.26D-14 1.66D-08.
     26 vectors produced by pass 34 Test12= 6.70D-14 1.00D-09 XBig12= 2.96D-14 8.35D-09.
     26 vectors produced by pass 35 Test12= 6.70D-14 1.00D-09 XBig12= 6.38D-14 1.10D-08.
     25 vectors produced by pass 36 Test12= 6.70D-14 1.00D-09 XBig12= 2.81D-14 7.79D-09.
     25 vectors produced by pass 37 Test12= 6.70D-14 1.00D-09 XBig12= 5.43D-14 1.03D-08.
     23 vectors produced by pass 38 Test12= 6.70D-14 1.00D-09 XBig12= 2.85D-14 7.44D-09.
     23 vectors produced by pass 39 Test12= 6.70D-14 1.00D-09 XBig12= 7.03D-14 1.43D-08.
     22 vectors produced by pass 40 Test12= 6.70D-14 1.00D-09 XBig12= 3.35D-14 7.88D-09.
     20 vectors produced by pass 41 Test12= 6.70D-14 1.00D-09 XBig12= 2.16D-14 6.13D-09.
     20 vectors produced by pass 42 Test12= 6.70D-14 1.00D-09 XBig12= 3.95D-14 8.03D-09.
     16 vectors produced by pass 43 Test12= 6.70D-14 1.00D-09 XBig12= 1.46D-14 4.66D-09.
     16 vectors produced by pass 44 Test12= 6.70D-14 1.00D-09 XBig12= 5.32D-14 8.71D-09.
     16 vectors produced by pass 45 Test12= 6.70D-14 1.00D-09 XBig12= 3.04D-14 6.24D-09.
     16 vectors produced by pass 46 Test12= 6.70D-14 1.00D-09 XBig12= 2.50D-14 6.03D-09.
     16 vectors produced by pass 47 Test12= 6.70D-14 1.00D-09 XBig12= 3.49D-14 8.13D-09.
     16 vectors produced by pass 48 Test12= 6.70D-14 1.00D-09 XBig12= 3.58D-14 8.02D-09.
     16 vectors produced by pass 49 Test12= 6.70D-14 1.00D-09 XBig12= 3.53D-14 8.32D-09.
     16 vectors produced by pass 50 Test12= 6.70D-14 1.00D-09 XBig12= 5.15D-14 8.89D-09.
     16 vectors produced by pass 51 Test12= 6.70D-14 1.00D-09 XBig12= 2.20D-14 6.25D-09.
     16 vectors produced by pass 52 Test12= 6.70D-14 1.00D-09 XBig12= 5.49D-14 9.21D-09.
     16 vectors produced by pass 53 Test12= 6.70D-14 1.00D-09 XBig12= 1.76D-14 5.53D-09.
     16 vectors produced by pass 54 Test12= 6.70D-14 1.00D-09 XBig12= 3.08D-14 7.76D-09.
     16 vectors produced by pass 55 Test12= 6.70D-14 1.00D-09 XBig12= 4.99D-14 8.56D-09.
     16 vectors produced by pass 56 Test12= 6.70D-14 1.00D-09 XBig12= 1.66D-14 4.85D-09.
     16 vectors produced by pass 57 Test12= 6.70D-14 1.00D-09 XBig12= 2.06D-14 6.36D-09.
     16 vectors produced by pass 58 Test12= 6.70D-14 1.00D-09 XBig12= 2.71D-14 6.95D-09.
     16 vectors produced by pass 59 Test12= 6.70D-14 1.00D-09 XBig12= 2.35D-14 5.90D-09.
     14 vectors produced by pass 60 Test12= 6.70D-14 1.00D-09 XBig12= 1.47D-14 4.62D-09.
     14 vectors produced by pass 61 Test12= 6.70D-14 1.00D-09 XBig12= 1.38D-14 4.67D-09.
     14 vectors produced by pass 62 Test12= 6.70D-14 1.00D-09 XBig12= 1.86D-14 6.01D-09.
     13 vectors produced by pass 63 Test12= 6.70D-14 1.00D-09 XBig12= 1.21D-14 4.72D-09.
     13 vectors produced by pass 64 Test12= 6.70D-14 1.00D-09 XBig12= 2.80D-14 7.19D-09.
     13 vectors produced by pass 65 Test12= 6.70D-14 1.00D-09 XBig12= 2.21D-14 5.30D-09.
     13 vectors produced by pass 66 Test12= 6.70D-14 1.00D-09 XBig12= 2.29D-14 5.81D-09.
     12 vectors produced by pass 67 Test12= 6.70D-14 1.00D-09 XBig12= 2.32D-14 5.54D-09.
     12 vectors produced by pass 68 Test12= 6.70D-14 1.00D-09 XBig12= 1.92D-14 5.60D-09.
     12 vectors produced by pass 69 Test12= 6.70D-14 1.00D-09 XBig12= 2.06D-14 5.68D-09.
      9 vectors produced by pass 70 Test12= 6.70D-14 1.00D-09 XBig12= 1.05D-14 3.92D-09.
      9 vectors produced by pass 71 Test12= 6.70D-14 1.00D-09 XBig12= 1.88D-14 5.40D-09.
      9 vectors produced by pass 72 Test12= 6.70D-14 1.00D-09 XBig12= 1.71D-14 5.37D-09.
      9 vectors produced by pass 73 Test12= 6.70D-14 1.00D-09 XBig12= 1.16D-14 3.67D-09.
      9 vectors produced by pass 74 Test12= 6.70D-14 1.00D-09 XBig12= 2.47D-14 6.12D-09.
      9 vectors produced by pass 75 Test12= 6.70D-14 1.00D-09 XBig12= 1.21D-14 3.98D-09.
      9 vectors produced by pass 76 Test12= 6.70D-14 1.00D-09 XBig12= 1.23D-14 4.44D-09.
      7 vectors produced by pass 77 Test12= 6.70D-14 1.00D-09 XBig12= 4.74D-15 3.04D-09.
      7 vectors produced by pass 78 Test12= 6.70D-14 1.00D-09 XBig12= 1.49D-14 4.55D-09.
      7 vectors produced by pass 79 Test12= 6.70D-14 1.00D-09 XBig12= 1.91D-14 5.64D-09.
      7 vectors produced by pass 80 Test12= 6.70D-14 1.00D-09 XBig12= 6.05D-15 3.13D-09.
      7 vectors produced by pass 81 Test12= 6.70D-14 1.00D-09 XBig12= 1.95D-14 6.17D-09.
      7 vectors produced by pass 82 Test12= 6.70D-14 1.00D-09 XBig12= 1.28D-14 4.44D-09.
      7 vectors produced by pass 83 Test12= 6.70D-14 1.00D-09 XBig12= 9.47D-15 3.59D-09.
      7 vectors produced by pass 84 Test12= 6.70D-14 1.00D-09 XBig12= 1.43D-14 5.54D-09.
      7 vectors produced by pass 85 Test12= 6.70D-14 1.00D-09 XBig12= 1.47D-14 4.94D-09.
      7 vectors produced by pass 86 Test12= 6.70D-14 1.00D-09 XBig12= 7.46D-15 3.52D-09.
      7 vectors produced by pass 87 Test12= 6.70D-14 1.00D-09 XBig12= 2.00D-14 5.59D-09.
      7 vectors produced by pass 88 Test12= 6.70D-14 1.00D-09 XBig12= 6.15D-15 3.14D-09.
      7 vectors produced by pass 89 Test12= 6.70D-14 1.00D-09 XBig12= 1.23D-14 4.17D-09.
      7 vectors produced by pass 90 Test12= 6.70D-14 1.00D-09 XBig12= 8.22D-15 3.65D-09.
      7 vectors produced by pass 91 Test12= 6.70D-14 1.00D-09 XBig12= 2.25D-14 5.88D-09.
      7 vectors produced by pass 92 Test12= 6.70D-14 1.00D-09 XBig12= 7.23D-15 3.47D-09.
      7 vectors produced by pass 93 Test12= 6.70D-14 1.00D-09 XBig12= 1.57D-14 5.01D-09.
      7 vectors produced by pass 94 Test12= 6.70D-14 1.00D-09 XBig12= 6.35D-15 3.09D-09.
      7 vectors produced by pass 95 Test12= 6.70D-14 1.00D-09 XBig12= 1.28D-14 4.42D-09.
      7 vectors produced by pass 96 Test12= 6.70D-14 1.00D-09 XBig12= 1.70D-14 4.57D-09.
      7 vectors produced by pass 97 Test12= 6.70D-14 1.00D-09 XBig12= 6.99D-15 3.15D-09.
      7 vectors produced by pass 98 Test12= 6.70D-14 1.00D-09 XBig12= 1.20D-14 4.33D-09.
      7 vectors produced by pass 99 Test12= 6.70D-14 1.00D-09 XBig12= 9.03D-15 3.43D-09.
      7 vectors produced by pass100 Test12= 6.70D-14 1.00D-09 XBig12= 1.01D-14 3.66D-09.
      7 vectors produced by pass101 Test12= 6.70D-14 1.00D-09 XBig12= 5.91D-15 2.82D-09.
      7 vectors produced by pass102 Test12= 6.70D-14 1.00D-09 XBig12= 1.33D-14 4.22D-09.
      7 vectors produced by pass103 Test12= 6.70D-14 1.00D-09 XBig12= 5.84D-15 2.70D-09.
      7 vectors produced by pass104 Test12= 6.70D-14 1.00D-09 XBig12= 1.45D-14 4.16D-09.
      7 vectors produced by pass105 Test12= 6.70D-14 1.00D-09 XBig12= 9.46D-15 4.00D-09.
      7 vectors produced by pass106 Test12= 6.70D-14 1.00D-09 XBig12= 9.83D-15 3.93D-09.
      7 vectors produced by pass107 Test12= 6.70D-14 1.00D-09 XBig12= 1.12D-14 5.04D-09.
      7 vectors produced by pass108 Test12= 6.70D-14 1.00D-09 XBig12= 7.59D-15 3.19D-09.
      7 vectors produced by pass109 Test12= 6.70D-14 1.00D-09 XBig12= 1.07D-14 4.03D-09.
      7 vectors produced by pass110 Test12= 6.70D-14 1.00D-09 XBig12= 4.22D-15 2.41D-09.
      7 vectors produced by pass111 Test12= 6.70D-14 1.00D-09 XBig12= 6.39D-15 2.77D-09.
      7 vectors produced by pass112 Test12= 6.70D-14 1.00D-09 XBig12= 1.25D-14 4.51D-09.
      7 vectors produced by pass113 Test12= 6.70D-14 1.00D-09 XBig12= 8.55D-15 3.62D-09.
      7 vectors produced by pass114 Test12= 6.70D-14 1.00D-09 XBig12= 1.47D-14 4.73D-09.
      7 vectors produced by pass115 Test12= 6.70D-14 1.00D-09 XBig12= 5.99D-15 2.92D-09.
      7 vectors produced by pass116 Test12= 6.70D-14 1.00D-09 XBig12= 1.71D-14 4.47D-09.
      7 vectors produced by pass117 Test12= 6.70D-14 1.00D-09 XBig12= 7.80D-15 3.67D-09.
      7 vectors produced by pass118 Test12= 6.70D-14 1.00D-09 XBig12= 5.68D-15 2.69D-09.
      7 vectors produced by pass119 Test12= 6.70D-14 1.00D-09 XBig12= 1.01D-14 4.08D-09.
      7 vectors produced by pass120 Test12= 6.70D-14 1.00D-09 XBig12= 5.57D-15 2.85D-09.
      7 vectors produced by pass121 Test12= 6.70D-14 1.00D-09 XBig12= 7.80D-15 3.16D-09.
      7 vectors produced by pass122 Test12= 6.70D-14 1.00D-09 XBig12= 1.25D-14 4.43D-09.
      7 vectors produced by pass123 Test12= 6.70D-14 1.00D-09 XBig12= 4.44D-15 2.67D-09.
      7 vectors produced by pass124 Test12= 6.70D-14 1.00D-09 XBig12= 7.95D-15 3.25D-09.
      7 vectors produced by pass125 Test12= 6.70D-14 1.00D-09 XBig12= 5.26D-15 3.09D-09.
      7 vectors produced by pass126 Test12= 6.70D-14 1.00D-09 XBig12= 7.02D-15 3.34D-09.
      7 vectors produced by pass127 Test12= 6.70D-14 1.00D-09 XBig12= 6.31D-15 2.74D-09.
      7 vectors produced by pass128 Test12= 6.70D-14 1.00D-09 XBig12= 1.00D-14 3.66D-09.
      7 vectors produced by pass129 Test12= 6.70D-14 1.00D-09 XBig12= 7.60D-15 3.52D-09.
      7 vectors produced by pass130 Test12= 6.70D-14 1.00D-09 XBig12= 7.04D-15 4.10D-09.
      7 vectors produced by pass131 Test12= 6.70D-14 1.00D-09 XBig12= 8.31D-15 3.37D-09.
      7 vectors produced by pass132 Test12= 6.70D-14 1.00D-09 XBig12= 4.82D-15 2.61D-09.
      7 vectors produced by pass133 Test12= 6.70D-14 1.00D-09 XBig12= 1.05D-14 3.34D-09.
      7 vectors produced by pass134 Test12= 6.70D-14 1.00D-09 XBig12= 1.22D-14 4.17D-09.
      7 vectors produced by pass135 Test12= 6.70D-14 1.00D-09 XBig12= 1.15D-14 3.72D-09.
      7 vectors produced by pass136 Test12= 6.70D-14 1.00D-09 XBig12= 7.55D-15 3.32D-09.
      7 vectors produced by pass137 Test12= 6.70D-14 1.00D-09 XBig12= 1.08D-14 3.53D-09.
      7 vectors produced by pass138 Test12= 6.70D-14 1.00D-09 XBig12= 7.91D-15 2.85D-09.
      7 vectors produced by pass139 Test12= 6.70D-14 1.00D-09 XBig12= 1.08D-14 3.63D-09.
      7 vectors produced by pass140 Test12= 6.70D-14 1.00D-09 XBig12= 8.13D-15 3.15D-09.
      7 vectors produced by pass141 Test12= 6.70D-14 1.00D-09 XBig12= 8.29D-15 3.12D-09.
      7 vectors produced by pass142 Test12= 6.70D-14 1.00D-09 XBig12= 1.21D-14 3.83D-09.
      7 vectors produced by pass143 Test12= 6.70D-14 1.00D-09 XBig12= 7.39D-15 2.82D-09.
      7 vectors produced by pass144 Test12= 6.70D-14 1.00D-09 XBig12= 1.05D-14 3.54D-09.
      7 vectors produced by pass145 Test12= 6.70D-14 1.00D-09 XBig12= 5.13D-15 2.64D-09.
      7 vectors produced by pass146 Test12= 6.70D-14 1.00D-09 XBig12= 7.71D-15 2.72D-09.
      7 vectors produced by pass147 Test12= 6.70D-14 1.00D-09 XBig12= 1.02D-14 3.60D-09.
      7 vectors produced by pass148 Test12= 6.70D-14 1.00D-09 XBig12= 4.74D-15 2.38D-09.
      7 vectors produced by pass149 Test12= 6.70D-14 1.00D-09 XBig12= 6.20D-15 2.73D-09.
      5 vectors produced by pass150 Test12= 6.70D-14 1.00D-09 XBig12= 4.16D-15 2.16D-09.
      5 vectors produced by pass151 Test12= 6.70D-14 1.00D-09 XBig12= 9.85D-15 3.49D-09.
      5 vectors produced by pass152 Test12= 6.70D-14 1.00D-09 XBig12= 5.15D-15 2.50D-09.
      5 vectors produced by pass153 Test12= 6.70D-14 1.00D-09 XBig12= 7.42D-15 2.85D-09.
      5 vectors produced by pass154 Test12= 6.70D-14 1.00D-09 XBig12= 1.42D-14 4.04D-09.
      5 vectors produced by pass155 Test12= 6.70D-14 1.00D-09 XBig12= 8.28D-15 3.24D-09.
      5 vectors produced by pass156 Test12= 6.70D-14 1.00D-09 XBig12= 5.96D-15 3.26D-09.
      5 vectors produced by pass157 Test12= 6.70D-14 1.00D-09 XBig12= 4.16D-15 2.38D-09.
      5 vectors produced by pass158 Test12= 6.70D-14 1.00D-09 XBig12= 1.06D-14 3.34D-09.
      5 vectors produced by pass159 Test12= 6.70D-14 1.00D-09 XBig12= 5.30D-15 2.64D-09.
      5 vectors produced by pass160 Test12= 6.70D-14 1.00D-09 XBig12= 7.95D-15 3.21D-09.
      3 vectors produced by pass161 Test12= 6.70D-14 1.00D-09 XBig12= 1.85D-15 1.49D-09.
      3 vectors produced by pass162 Test12= 6.70D-14 1.00D-09 XBig12= 4.31D-15 2.22D-09.
      3 vectors produced by pass163 Test12= 6.70D-14 1.00D-09 XBig12= 5.37D-15 3.07D-09.
      3 vectors produced by pass164 Test12= 6.70D-14 1.00D-09 XBig12= 8.14D-15 2.93D-09.
      3 vectors produced by pass165 Test12= 6.70D-14 1.00D-09 XBig12= 4.85D-15 2.47D-09.
      3 vectors produced by pass166 Test12= 6.70D-14 1.00D-09 XBig12= 9.69D-15 3.33D-09.
      3 vectors produced by pass167 Test12= 6.70D-14 1.00D-09 XBig12= 4.34D-15 2.22D-09.
      3 vectors produced by pass168 Test12= 6.70D-14 1.00D-09 XBig12= 7.28D-15 2.86D-09.
      3 vectors produced by pass169 Test12= 6.70D-14 1.00D-09 XBig12= 7.24D-15 2.83D-09.
      3 vectors produced by pass170 Test12= 6.70D-14 1.00D-09 XBig12= 9.45D-15 3.21D-09.
      3 vectors produced by pass171 Test12= 6.70D-14 1.00D-09 XBig12= 8.89D-15 3.39D-09.
      3 vectors produced by pass172 Test12= 6.70D-14 1.00D-09 XBig12= 5.25D-15 3.06D-09.
      3 vectors produced by pass173 Test12= 6.70D-14 1.00D-09 XBig12= 6.39D-15 2.91D-09.
      3 vectors produced by pass174 Test12= 6.70D-14 1.00D-09 XBig12= 5.49D-15 2.78D-09.
      3 vectors produced by pass175 Test12= 6.70D-14 1.00D-09 XBig12= 6.96D-15 3.00D-09.
      3 vectors produced by pass176 Test12= 6.70D-14 1.00D-09 XBig12= 5.86D-15 2.73D-09.
      3 vectors produced by pass177 Test12= 6.70D-14 1.00D-09 XBig12= 3.34D-15 2.28D-09.
      3 vectors produced by pass178 Test12= 6.70D-14 1.00D-09 XBig12= 8.26D-15 3.17D-09.
      3 vectors produced by pass179 Test12= 6.70D-14 1.00D-09 XBig12= 4.11D-15 2.10D-09.
      3 vectors produced by pass180 Test12= 6.70D-14 1.00D-09 XBig12= 6.09D-15 2.80D-09.
      3 vectors produced by pass181 Test12= 6.70D-14 1.00D-09 XBig12= 7.62D-15 2.99D-09.
      3 vectors produced by pass182 Test12= 6.70D-14 1.00D-09 XBig12= 4.57D-15 2.22D-09.
      3 vectors produced by pass183 Test12= 6.70D-14 1.00D-09 XBig12= 5.44D-15 2.66D-09.
      3 vectors produced by pass184 Test12= 6.70D-14 1.00D-09 XBig12= 4.21D-15 2.34D-09.
      3 vectors produced by pass185 Test12= 6.70D-14 1.00D-09 XBig12= 7.55D-15 3.02D-09.
      3 vectors produced by pass186 Test12= 6.70D-14 1.00D-09 XBig12= 5.83D-15 2.72D-09.
      3 vectors produced by pass187 Test12= 6.70D-14 1.00D-09 XBig12= 6.76D-15 3.05D-09.
      3 vectors produced by pass188 Test12= 6.70D-14 1.00D-09 XBig12= 5.67D-15 2.71D-09.
      3 vectors produced by pass189 Test12= 6.70D-14 1.00D-09 XBig12= 3.43D-15 2.03D-09.
      3 vectors produced by pass190 Test12= 6.70D-14 1.00D-09 XBig12= 4.43D-15 2.20D-09.
      3 vectors produced by pass191 Test12= 6.70D-14 1.00D-09 XBig12= 6.79D-15 2.55D-09.
      3 vectors produced by pass192 Test12= 6.70D-14 1.00D-09 XBig12= 5.65D-15 2.51D-09.
      3 vectors produced by pass193 Test12= 6.70D-14 1.00D-09 XBig12= 3.90D-15 2.36D-09.
      3 vectors produced by pass194 Test12= 6.70D-14 1.00D-09 XBig12= 6.05D-15 2.92D-09.
      3 vectors produced by pass195 Test12= 6.70D-14 1.00D-09 XBig12= 1.14D-14 4.22D-09.
      3 vectors produced by pass196 Test12= 6.70D-14 1.00D-09 XBig12= 6.47D-15 2.59D-09.
      3 vectors produced by pass197 Test12= 6.70D-14 1.00D-09 XBig12= 5.37D-15 2.18D-09.
      3 vectors produced by pass198 Test12= 6.70D-14 1.00D-09 XBig12= 4.47D-15 2.56D-09.
      3 vectors produced by pass199 Test12= 6.70D-14 1.00D-09 XBig12= 5.34D-15 2.54D-09.
      3 vectors produced by pass200 Test12= 6.70D-14 1.00D-09 XBig12= 3.58D-15 1.99D-09.
      3 vectors produced by pass201 Test12= 6.70D-14 1.00D-09 XBig12= 1.10D-14 3.90D-09.
      3 vectors produced by pass202 Test12= 6.70D-14 1.00D-09 XBig12= 5.60D-15 2.44D-09.
      3 vectors produced by pass203 Test12= 6.70D-14 1.00D-09 XBig12= 5.36D-15 2.74D-09.
      3 vectors produced by pass204 Test12= 6.70D-14 1.00D-09 XBig12= 3.36D-15 1.99D-09.
      3 vectors produced by pass205 Test12= 6.70D-14 1.00D-09 XBig12= 3.54D-15 2.00D-09.
      3 vectors produced by pass206 Test12= 6.70D-14 1.00D-09 XBig12= 3.69D-15 2.15D-09.
      3 vectors produced by pass207 Test12= 6.70D-14 1.00D-09 XBig12= 7.78D-15 3.17D-09.
      3 vectors produced by pass208 Test12= 6.70D-14 1.00D-09 XBig12= 4.26D-15 2.66D-09.
      3 vectors produced by pass209 Test12= 6.70D-14 1.00D-09 XBig12= 4.18D-15 2.07D-09.
      3 vectors produced by pass210 Test12= 6.70D-14 1.00D-09 XBig12= 6.37D-15 3.08D-09.
      3 vectors produced by pass211 Test12= 6.70D-14 1.00D-09 XBig12= 6.97D-15 2.74D-09.
      3 vectors produced by pass212 Test12= 6.70D-14 1.00D-09 XBig12= 4.27D-15 2.41D-09.
      3 vectors produced by pass213 Test12= 6.70D-14 1.00D-09 XBig12= 3.31D-15 2.07D-09.
      3 vectors produced by pass214 Test12= 6.70D-14 1.00D-09 XBig12= 6.25D-15 2.65D-09.
      3 vectors produced by pass215 Test12= 6.70D-14 1.00D-09 XBig12= 3.88D-15 2.13D-09.
      3 vectors produced by pass216 Test12= 6.70D-14 1.00D-09 XBig12= 5.03D-15 2.43D-09.
      3 vectors produced by pass217 Test12= 6.70D-14 1.00D-09 XBig12= 5.46D-15 2.35D-09.
      3 vectors produced by pass218 Test12= 6.70D-14 1.00D-09 XBig12= 4.28D-15 2.27D-09.
      3 vectors produced by pass219 Test12= 6.70D-14 1.00D-09 XBig12= 9.09D-15 3.22D-09.
      3 vectors produced by pass220 Test12= 6.70D-14 1.00D-09 XBig12= 7.27D-15 3.65D-09.
      3 vectors produced by pass221 Test12= 6.70D-14 1.00D-09 XBig12= 4.11D-15 2.23D-09.
      3 vectors produced by pass222 Test12= 6.70D-14 1.00D-09 XBig12= 6.43D-15 2.71D-09.
      3 vectors produced by pass223 Test12= 6.70D-14 1.00D-09 XBig12= 4.24D-15 2.02D-09.
      3 vectors produced by pass224 Test12= 6.70D-14 1.00D-09 XBig12= 3.06D-15 1.97D-09.
      3 vectors produced by pass225 Test12= 6.70D-14 1.00D-09 XBig12= 6.57D-15 2.69D-09.
      3 vectors produced by pass226 Test12= 6.70D-14 1.00D-09 XBig12= 3.82D-15 2.13D-09.
      3 vectors produced by pass227 Test12= 6.70D-14 1.00D-09 XBig12= 6.46D-15 2.86D-09.
      3 vectors produced by pass228 Test12= 6.70D-14 1.00D-09 XBig12= 3.34D-15 2.18D-09.
      3 vectors produced by pass229 Test12= 6.70D-14 1.00D-09 XBig12= 3.74D-15 2.41D-09.
      3 vectors produced by pass230 Test12= 6.70D-14 1.00D-09 XBig12= 5.87D-15 2.68D-09.
      3 vectors produced by pass231 Test12= 6.70D-14 1.00D-09 XBig12= 5.72D-15 2.64D-09.
      3 vectors produced by pass232 Test12= 6.70D-14 1.00D-09 XBig12= 4.17D-15 2.28D-09.
      3 vectors produced by pass233 Test12= 6.70D-14 1.00D-09 XBig12= 2.80D-15 1.98D-09.
      3 vectors produced by pass234 Test12= 6.70D-14 1.00D-09 XBig12= 6.80D-15 3.18D-09.
      3 vectors produced by pass235 Test12= 6.70D-14 1.00D-09 XBig12= 7.32D-15 3.00D-09.
      3 vectors produced by pass236 Test12= 6.70D-14 1.00D-09 XBig12= 5.70D-15 2.72D-09.
      3 vectors produced by pass237 Test12= 6.70D-14 1.00D-09 XBig12= 4.53D-15 2.12D-09.
      3 vectors produced by pass238 Test12= 6.70D-14 1.00D-09 XBig12= 3.14D-15 2.34D-09.
      3 vectors produced by pass239 Test12= 6.70D-14 1.00D-09 XBig12= 6.05D-15 2.64D-09.
      3 vectors produced by pass240 Test12= 6.70D-14 1.00D-09 XBig12= 5.18D-15 2.33D-09.
      3 vectors produced by pass241 Test12= 6.70D-14 1.00D-09 XBig12= 5.44D-15 2.34D-09.
      3 vectors produced by pass242 Test12= 6.70D-14 1.00D-09 XBig12= 4.37D-15 2.57D-09.
      3 vectors produced by pass243 Test12= 6.70D-14 1.00D-09 XBig12= 5.46D-15 2.40D-09.
      3 vectors produced by pass244 Test12= 6.70D-14 1.00D-09 XBig12= 4.62D-15 2.26D-09.
      2 vectors produced by pass245 Test12= 6.70D-14 1.00D-09 XBig12= 3.37D-15 1.92D-09.
 InvSVY:  IOpt=1 It=  1 EMax= 1.22D-15
 Solved reduced A of dimension  3222 with   102 vectors.
 End of Minotr F.D. properties file   721 does not exist.
 End of Minotr F.D. properties file   722 does not exist.
 End of Minotr F.D. properties file   788 does not exist.

 **********************************************************************

            Population analysis using the SCF density.

 **********************************************************************

 Orbital symmetries:
 Alpha Orbitals:
       Occupied  (A) (A) (A) (A) (A) (A) (A) (A) (A) (A) (A) (A)
                 (A) (A) (A) (A) (A) (A) (A) (A) (A) (A) (A) (A)
                 (A) (A) (A) (A) (A) (A) (A) (A) (A) (A) (A) (A)
                 (A) (A) (A) (A) (A) (A) (A) (A) (A) (A) (A) (A)
                 (A) (A) (A) (A) (A) (A) (A) (A) (A) (A) (A) (A)
                 (A) (A) (A) (A) (A) (A) (A) (A) (A) (A) (A) (A)
       Virtual   (A) (A) (A) (A) (A) (A) (A) (A) (A) (A) (A) (A)
                 (A) (A) (A) (A) (A) (A) (A) (A) (A) (A) (A) (A)
                 (A) (A) (A) (A) (A) (A) (A) (A) (A) (A) (A) (A)
                 (A) (A) (A) (A) (A) (A) (A) (A) (A) (A) (A) (A)
                 (A) (A) (A) (A) (A) (A) (A) (A) (A) (A) (A) (A)
                 (A) (A) (A) (A) (A) (A) (A) (A) (A) (A) (A) (A)
                 (A) (A) (A) (A) (A) (A) (A) (A) (A) (A) (A) (A)
                 (A) (A) (A) (A) (A) (A) (A) (A) (A) (A) (A) (A)
                 (A) (A) (A) (A) (A) (A) (A) (A) (A) (A) (A) (A)
                 (A) (A) (A) (A) (A) (A) (A) (A) (A) (A) (A) (A)
                 (A) (A) (A) (A) (A) (A) (A) (A) (A) (A) (A) (A)
                 (A) (A) (A) (A) (A) (A) (A) (A) (A) (A) (A) (A)
                 (A) (A) (A) (A) (A) (A) (A) (A) (A) (A) (A) (A)
                 (A) (A) (A) (A) (A) (A) (A) (A) (A) (A) (A) (A)
                 (A) (A) (A) (A) (A) (A) (A) (A) (A) (A) (A) (A)
                 (A) (A) (A) (A) (A) (A) (A) (A) (A) (A) (A) (A)
                 (A) (A) (A) (A) (A) (A) (A) (A) (A) (A) (A) (A)
                 (A) (A) (A) (A) (A) (A) (A) (A) (A) (A) (A) (A)
                 (A) (A) (A) (A) (A) (A) (A) (A) (A) (A) (A) (A)
                 (A) (A) (A) (A) (A) (A) (A) (A) (A) (A) (A) (A)
                 (A) (A) (A) (A) (A) (A) (A) (A) (A) (A) (A) (A)
                 (A) (A) (A) (A) (A) (A) (A) (A) (A) (A) (A) (A)
                 (A) (A) (A) (A) (A) (A) (A) (A) (A) (A) (A) (A)
                 (A) (A) (A) (A) (A) (A) (A) (A) (A) (A) (A) (A)
                 (A) (A) (A) (A) (A) (A) (A) (A) (A) (A) (A) (A)
                 (A) (A) (A) (A) (A) (A) (A) (A) (A) (A) (A) (A)
                 (A) (A) (A) (A) (A) (A) (A) (A) (A) (A) (A) (A)
                 (A) (A) (A) (A) (A) (A) (A) (A) (A) (A) (A) (A)
                 (A) (A) (A) (A) (A) (A) (A) (A) (A) (A) (A) (A)
                 (A) (A) (A) (A) (A) (A) (A) (A) (A) (A) (A) (A)
                 (A) (A) (A) (A) (A) (A) (A) (A) (A) (A) (A) (A)
                 (A) (A) (A) (A) (A) (A) (A) (A) (A) (A) (A) (A)
                 (A) (A) (A) (A) (A) (A) (A) (A) (A) (A) (A) (A)
                 (A) (A) (A) (A) (A) (A) (A) (A) (A) (A) (A) (A)
                 (A) (A) (A) (A) (A) (A) (A) (A) (A) (A) (A) (A)
                 (A) (A) (A) (A) (A) (A) (A) (A) (A) (A) (A) (A)
                 (A) (A) (A) (A) (A) (A) (A) (A) (A) (A) (A) (A)
                 (A) (A) (A) (A) (A) (A) (A) (A) (A) (A) (A) (A)
                 (A) (A) (A) (A) (A) (A) (A) (A) (A) (A) (A) (A)
 Beta  Orbitals:
       Occupied  (A) (A) (A) (A) (A) (A) (A) (A) (A) (A) (A) (A)
                 (A) (A) (A) (A) (A) (A) (A) (A) (A) (A) (A) (A)
                 (A) (A) (A) (A) (A) (A) (A) (A) (A) (A) (A) (A)
                 (A) (A) (A) (A) (A) (A) (A) (A) (A) (A) (A) (A)
                 (A) (A) (A) (A) (A) (A) (A) (A) (A) (A) (A) (A)
                 (A) (A) (A) (A) (A) (A) (A) (A) (A) (A) (A)
       Virtual   (A) (A) (A) (A) (A) (A) (A) (A) (A) (A) (A) (A)
                 (A) (A) (A) (A) (A) (A) (A) (A) (A) (A) (A) (A)
                 (A) (A) (A) (A) (A) (A) (A) (A) (A) (A) (A) (A)
                 (A) (A) (A) (A) (A) (A) (A) (A) (A) (A) (A) (A)
                 (A) (A) (A) (A) (A) (A) (A) (A) (A) (A) (A) (A)
                 (A) (A) (A) (A) (A) (A) (A) (A) (A) (A) (A) (A)
                 (A) (A) (A) (A) (A) (A) (A) (A) (A) (A) (A) (A)
                 (A) (A) (A) (A) (A) (A) (A) (A) (A) (A) (A) (A)
                 (A) (A) (A) (A) (A) (A) (A) (A) (A) (A) (A) (A)
                 (A) (A) (A) (A) (A) (A) (A) (A) (A) (A) (A) (A)
                 (A) (A) (A) (A) (A) (A) (A) (A) (A) (A) (A) (A)
                 (A) (A) (A) (A) (A) (A) (A) (A) (A) (A) (A) (A)
                 (A) (A) (A) (A) (A) (A) (A) (A) (A) (A) (A) (A)
                 (A) (A) (A) (A) (A) (A) (A) (A) (A) (A) (A) (A)
                 (A) (A) (A) (A) (A) (A) (A) (A) (A) (A) (A) (A)
                 (A) (A) (A) (A) (A) (A) (A) (A) (A) (A) (A) (A)
                 (A) (A) (A) (A) (A) (A) (A) (A) (A) (A) (A) (A)
                 (A) (A) (A) (A) (A) (A) (A) (A) (A) (A) (A) (A)
                 (A) (A) (A) (A) (A) (A) (A) (A) (A) (A) (A) (A)
                 (A) (A) (A) (A) (A) (A) (A) (A) (A) (A) (A) (A)
                 (A) (A) (A) (A) (A) (A) (A) (A) (A) (A) (A) (A)
                 (A) (A) (A) (A) (A) (A) (A) (A) (A) (A) (A) (A)
                 (A) (A) (A) (A) (A) (A) (A) (A) (A) (A) (A) (A)
                 (A) (A) (A) (A) (A) (A) (A) (A) (A) (A) (A) (A)
                 (A) (A) (A) (A) (A) (A) (A) (A) (A) (A) (A) (A)
                 (A) (A) (A) (A) (A) (A) (A) (A) (A) (A) (A) (A)
                 (A) (A) (A) (A) (A) (A) (A) (A) (A) (A) (A) (A)
                 (A) (A) (A) (A) (A) (A) (A) (A) (A) (A) (A) (A)
                 (A) (A) (A) (A) (A) (A) (A) (A) (A) (A) (A) (A)
                 (A) (A) (A) (A) (A) (A) (A) (A) (A) (A) (A) (A)
                 (A) (A) (A) (A) (A) (A) (A) (A) (A) (A) (A) (A)
                 (A) (A) (A) (A) (A) (A) (A) (A) (A) (A) (A) (A)
                 (A) (A) (A) (A) (A) (A) (A) (A) (A) (A) (A) (A)
                 (A) (A) (A) (A) (A) (A) (A) (A) (A) (A) (A) (A)
                 (A) (A) (A) (A) (A) (A) (A) (A) (A) (A) (A) (A)
                 (A) (A) (A) (A) (A) (A) (A) (A) (A) (A) (A) (A)
                 (A) (A) (A) (A) (A) (A) (A) (A) (A) (A) (A) (A)
                 (A) (A) (A) (A) (A) (A) (A) (A) (A) (A) (A) (A)
                 (A) (A) (A) (A) (A) (A) (A) (A) (A) (A) (A) (A)
                 (A)
 The electronic state is 2-A.
 Alpha  occ. eigenvalues --  -10.20527 -10.20393 -10.20380 -10.20054 -10.20049
 Alpha  occ. eigenvalues --  -10.19709 -10.19668 -10.19598 -10.19581 -10.19508
 Alpha  occ. eigenvalues --  -10.19504 -10.19501 -10.19429 -10.19367 -10.19252
 Alpha  occ. eigenvalues --  -10.19054 -10.18880 -10.18391 -10.18306 -10.18144
 Alpha  occ. eigenvalues --  -10.17913 -10.17896  -0.92981  -0.88441  -0.86479
 Alpha  occ. eigenvalues --   -0.84376  -0.81761  -0.80157  -0.78022  -0.76241
 Alpha  occ. eigenvalues --   -0.73544  -0.73313  -0.71804  -0.66524  -0.64696
 Alpha  occ. eigenvalues --   -0.63181  -0.62393  -0.60946  -0.58458  -0.56532
 Alpha  occ. eigenvalues --   -0.53667  -0.52546  -0.51646  -0.50252  -0.49410
 Alpha  occ. eigenvalues --   -0.47642  -0.46409  -0.44911  -0.44635  -0.44597
 Alpha  occ. eigenvalues --   -0.43461  -0.43249  -0.42859  -0.41546  -0.41257
 Alpha  occ. eigenvalues --   -0.39888  -0.39621  -0.38508  -0.37652  -0.36346
 Alpha  occ. eigenvalues --   -0.35309  -0.35082  -0.34312  -0.34125  -0.32058
 Alpha  occ. eigenvalues --   -0.30144  -0.28117  -0.26736  -0.23918  -0.23365
 Alpha  occ. eigenvalues --   -0.22974  -0.21458
 Alpha virt. eigenvalues --   -0.09630  -0.05234  -0.03908  -0.02770  -0.00141
 Alpha virt. eigenvalues --    0.00159   0.00555   0.00761   0.00891   0.02025
 Alpha virt. eigenvalues --    0.02208   0.03206   0.03325   0.03823   0.03930
 Alpha virt. eigenvalues --    0.04216   0.05235   0.05638   0.05880   0.06026
 Alpha virt. eigenvalues --    0.06614   0.06992   0.07342   0.07617   0.08221
 Alpha virt. eigenvalues --    0.08846   0.08968   0.09067   0.10270   0.10742
 Alpha virt. eigenvalues --    0.11059   0.11609   0.11683   0.12074   0.12211
 Alpha virt. eigenvalues --    0.12453   0.12897   0.13191   0.14190   0.14776
 Alpha virt. eigenvalues --    0.14974   0.15359   0.15588   0.15881   0.16111
 Alpha virt. eigenvalues --    0.16338   0.16537   0.16775   0.16906   0.17158
 Alpha virt. eigenvalues --    0.17881   0.17986   0.18435   0.18529   0.19079
 Alpha virt. eigenvalues --    0.19174   0.19467   0.19672   0.19804   0.20157
 Alpha virt. eigenvalues --    0.20646   0.20885   0.21316   0.21558   0.21844
 Alpha virt. eigenvalues --    0.21992   0.22138   0.22563   0.22668   0.23249
 Alpha virt. eigenvalues --    0.23517   0.23619   0.23950   0.24373   0.24669
 Alpha virt. eigenvalues --    0.24948   0.25186   0.25534   0.25752   0.26449
 Alpha virt. eigenvalues --    0.26560   0.26716   0.26963   0.27106   0.27569
 Alpha virt. eigenvalues --    0.27917   0.27986   0.28368   0.28709   0.28759
 Alpha virt. eigenvalues --    0.29269   0.30038   0.30314   0.30661   0.30681
 Alpha virt. eigenvalues --    0.31091   0.31635   0.32093   0.32489   0.32841
 Alpha virt. eigenvalues --    0.33521   0.34022   0.34221   0.34476   0.34963
 Alpha virt. eigenvalues --    0.35241   0.35587   0.35683   0.36709   0.37079
 Alpha virt. eigenvalues --    0.37240   0.37715   0.38454   0.39504   0.40142
 Alpha virt. eigenvalues --    0.41434   0.44144   0.44537   0.45705   0.46372
 Alpha virt. eigenvalues --    0.47461   0.48051   0.48521   0.49728   0.50504
 Alpha virt. eigenvalues --    0.50723   0.51337   0.51928   0.53115   0.53420
 Alpha virt. eigenvalues --    0.54073   0.54693   0.55030   0.55209   0.55817
 Alpha virt. eigenvalues --    0.56441   0.57038   0.57479   0.57808   0.58567
 Alpha virt. eigenvalues --    0.58725   0.59140   0.59846   0.60375   0.60640
 Alpha virt. eigenvalues --    0.60960   0.61514   0.61980   0.62671   0.63071
 Alpha virt. eigenvalues --    0.64192   0.64661   0.65874   0.66074   0.67374
 Alpha virt. eigenvalues --    0.67678   0.68261   0.68796   0.69058   0.69601
 Alpha virt. eigenvalues --    0.70382   0.70684   0.71085   0.71597   0.72120
 Alpha virt. eigenvalues --    0.72158   0.72424   0.72914   0.73187   0.73546
 Alpha virt. eigenvalues --    0.74490   0.74590   0.74814   0.76493   0.77225
 Alpha virt. eigenvalues --    0.77710   0.77921   0.78647   0.79001   0.80311
 Alpha virt. eigenvalues --    0.80591   0.80925   0.81915   0.82513   0.82814
 Alpha virt. eigenvalues --    0.83627   0.84542   0.84804   0.85266   0.85468
 Alpha virt. eigenvalues --    0.86288   0.86531   0.87104   0.87466   0.87528
 Alpha virt. eigenvalues --    0.88460   0.89481   0.89542   0.90666   0.91586
 Alpha virt. eigenvalues --    0.92490   0.92841   0.93000   0.94020   0.94292
 Alpha virt. eigenvalues --    0.94920   0.96235   0.96347   0.96662   0.97929
 Alpha virt. eigenvalues --    0.98738   0.99464   1.00437   1.01347   1.02231
 Alpha virt. eigenvalues --    1.02372   1.03724   1.04026   1.05412   1.06000
 Alpha virt. eigenvalues --    1.07218   1.07858   1.09089   1.10138   1.10719
 Alpha virt. eigenvalues --    1.11654   1.13056   1.13216   1.15776   1.18245
 Alpha virt. eigenvalues --    1.18691   1.21273   1.23099   1.24267   1.24942
 Alpha virt. eigenvalues --    1.27252   1.27985   1.31272   1.32193   1.33789
 Alpha virt. eigenvalues --    1.34794   1.36227   1.39014   1.39650   1.41497
 Alpha virt. eigenvalues --    1.43909   1.44280   1.45949   1.46359   1.48091
 Alpha virt. eigenvalues --    1.48574   1.49017   1.49871   1.51200   1.52476
 Alpha virt. eigenvalues --    1.53457   1.54163   1.54303   1.55204   1.56097
 Alpha virt. eigenvalues --    1.56624   1.57042   1.57807   1.58571   1.59687
 Alpha virt. eigenvalues --    1.60790   1.61372   1.63582   1.63873   1.64723
 Alpha virt. eigenvalues --    1.66476   1.67041   1.68020   1.68560   1.69405
 Alpha virt. eigenvalues --    1.70056   1.71431   1.72370   1.72840   1.73568
 Alpha virt. eigenvalues --    1.74405   1.75663   1.76199   1.77324   1.78503
 Alpha virt. eigenvalues --    1.79452   1.80359   1.81431   1.82861   1.83024
 Alpha virt. eigenvalues --    1.84948   1.85296   1.85851   1.87012   1.87895
 Alpha virt. eigenvalues --    1.88325   1.89130   1.89288   1.90270   1.92285
 Alpha virt. eigenvalues --    1.92625   1.93402   1.94155   1.94602   1.95051
 Alpha virt. eigenvalues --    1.95918   1.97031   1.98086   1.99518   2.00026
 Alpha virt. eigenvalues --    2.00547   2.00981   2.02248   2.02933   2.04285
 Alpha virt. eigenvalues --    2.06522   2.09056   2.09961   2.10958   2.11903
 Alpha virt. eigenvalues --    2.13258   2.14180   2.14989   2.16107   2.17330
 Alpha virt. eigenvalues --    2.19433   2.20476   2.21343   2.22988   2.25536
 Alpha virt. eigenvalues --    2.26895   2.28549   2.29683   2.32375   2.33881
 Alpha virt. eigenvalues --    2.34479   2.37358   2.37660   2.38247   2.39573
 Alpha virt. eigenvalues --    2.41434   2.42196   2.43288   2.44544   2.47560
 Alpha virt. eigenvalues --    2.49343   2.49956   2.52250   2.53656   2.53882
 Alpha virt. eigenvalues --    2.56348   2.58053   2.62014   2.64941   2.65560
 Alpha virt. eigenvalues --    2.66853   2.68173   2.69051   2.69505   2.70066
 Alpha virt. eigenvalues --    2.70585   2.72051   2.72648   2.73095   2.73188
 Alpha virt. eigenvalues --    2.73848   2.74511   2.75293   2.75684   2.76227
 Alpha virt. eigenvalues --    2.76738   2.77065   2.78311   2.79049   2.80852
 Alpha virt. eigenvalues --    2.82130   2.82751   2.83882   2.85253   2.85799
 Alpha virt. eigenvalues --    2.87016   2.87262   2.88905   2.90113   2.91974
 Alpha virt. eigenvalues --    2.92695   2.93278   2.94242   2.96514   2.97777
 Alpha virt. eigenvalues --    3.03514   3.04168   3.06275   3.06562   3.09849
 Alpha virt. eigenvalues --    3.11099   3.12106   3.15995   3.17410   3.17883
 Alpha virt. eigenvalues --    3.18790   3.19787   3.21991   3.22765   3.25629
 Alpha virt. eigenvalues --    3.27529   3.29916   3.31034   3.32561   3.33781
 Alpha virt. eigenvalues --    3.37261   3.39416   3.39943   3.42164   3.44416
 Alpha virt. eigenvalues --    3.46597   3.48354   3.49999   3.52525   3.54672
 Alpha virt. eigenvalues --    3.58376   3.60066   3.62693   3.66254   3.72778
 Alpha virt. eigenvalues --    3.77960   3.83009   3.85247   3.88981   3.99011
 Alpha virt. eigenvalues --    4.01144   4.03730   4.04749   4.06280   4.09161
 Alpha virt. eigenvalues --    4.12510   4.19794   4.22565   4.25369   4.42543
 Alpha virt. eigenvalues --    4.57809   4.68095   4.73279   4.79772   4.86557
 Alpha virt. eigenvalues --    4.89868  23.37060  23.60042  23.70107  23.80173
 Alpha virt. eigenvalues --   23.84180  23.86063  23.90752  23.91016  23.94422
 Alpha virt. eigenvalues --   23.97013  23.98527  24.03865  24.04908  24.06288
 Alpha virt. eigenvalues --   24.09349  24.10267  24.12269  24.12643  24.14434
 Alpha virt. eigenvalues --   24.15407  24.16477  24.17052
  Beta  occ. eigenvalues --  -10.20308 -10.20049 -10.20039 -10.19742 -10.19691
  Beta  occ. eigenvalues --  -10.19583 -10.19565 -10.19523 -10.19500 -10.19495
  Beta  occ. eigenvalues --  -10.19466 -10.19438 -10.19378 -10.19358 -10.19265
  Beta  occ. eigenvalues --  -10.18978 -10.18914 -10.18418 -10.18248 -10.18141
  Beta  occ. eigenvalues --  -10.17935 -10.17825  -0.92856  -0.88184  -0.86201
  Beta  occ. eigenvalues --   -0.84247  -0.81549  -0.79854  -0.77701  -0.75864
  Beta  occ. eigenvalues --   -0.73313  -0.73132  -0.71536  -0.66239  -0.64529
  Beta  occ. eigenvalues --   -0.62906  -0.61911  -0.60765  -0.57997  -0.56323
  Beta  occ. eigenvalues --   -0.53274  -0.52266  -0.51320  -0.49812  -0.49087
  Beta  occ. eigenvalues --   -0.47332  -0.45920  -0.44613  -0.44446  -0.44316
[...]
 0.07794562,-0.02571107,0.00016806,-0.00016007,0.00059538,0.00001271,-0
 .00009557,0.00007275,0.00038938,0.00027248,0.00004908,-0.00013846,-0.0
 0002580,-0.00008739,-0.00002131,0.00016346,0.00002760,0.67022797,0.001
 97174,-0.00037729,0.00067564,-0.00058477,-0.00133437,-0.00068070,-0.00
 034590,-0.00124082,0.00013969,-0.00130492,0.00243095,-0.00028434,0.005
 24658,-0.00450196,0.00150851,0.00161745,-0.00249555,0.00330293,0.00554
 964,-0.00508784,-0.00146890,-0.01587183,-0.00229135,0.00109793,0.02248
 175,-0.03887821,0.01858925,0.00628759,0.02409590,-0.00573725,0.0129954
 6,-0.00853364,0.00227895,-0.00314050,0.00868735,-0.00159864,-0.0072868
 3,-0.00097648,0.00270635,0.00338354,-0.00231146,-0.00124259,0.00025465
 ,0.00395906,0.00014232,0.00220417,-0.00243903,-0.00097127,-0.00302718,
 -0.00188298,0.00110617,0.00001211,0.00000635,0.00004777,0.00000361,0.0
 0008087,-0.00006178,-0.00202742,0.01244354,0.00009561,-0.04224320,-0.2
 0603978,0.03354561,-0.03719477,-0.12508544,0.02092870,0.00039468,-0.00
 000173,0.00037927,-0.00001685,-0.00004821,0.00007458,0.00006089,0.0000
 4801,-0.00008129,-0.00011431,-0.00000560,-0.00010126,0.00003969,0.0000
 3139,0.00000906,-0.01783679,0.55986813,0.00043624,-0.00013404,0.000213
 36,-0.00033276,-0.00033142,-0.00053563,-0.00018918,0.00157421,0.000173
 91,0.00041429,0.00050323,-0.00023139,-0.00025487,0.00018384,-0.0007190
 1,-0.00399768,-0.00052820,0.00366024,-0.00058830,-0.00017194,-0.000087
 76,0.00082564,0.00037748,-0.00327296,-0.00032296,0.02444141,-0.0000612
 2,-0.00912562,-0.00460584,0.00513271,-0.00084464,0.00383240,0.00221146
 ,-0.00015722,-0.00107479,0.00065982,0.00085342,0.00009399,-0.00026197,
 -0.00045302,0.00041077,-0.00024120,-0.00004029,-0.00044343,-0.00003647
 ,-0.00029231,0.00023033,0.00026775,0.00032661,0.00031457,-0.00012056,0
 .00002421,0.00000021,-0.00000866,0.00000236,0.00004699,0.00005156,-0.0
 0411891,-0.00054525,0.00196119,-0.00139321,0.04127039,-0.07565445,-0.0
 4724308,0.01176382,-0.07225434,-0.00018890,-0.00008867,-0.00020752,-0.
 00000407,-0.00001174,0.00000894,-0.00013421,0.00000125,-0.00004524,0.0
 0001130,0.00000327,0.00000808,-0.00000588,0.00001496,0.00004101,0.1259
 4768,-0.14705475,0.21163171,0.00815023,0.00097233,0.00299517,-0.002998
 54,-0.00755681,-0.00324274,-0.00437628,0.00431264,0.00138252,-0.007695
 31,0.00939552,-0.00316576,0.02044811,0.01347540,0.00856524,-0.00259692
 ,-0.01704338,-0.00393940,-0.00092823,-0.00118315,-0.00010450,-0.002913
 05,0.00219509,-0.00459589,-0.03830181,0.02010592,-0.02116946,-0.004977
 97,0.00408584,-0.00091404,0.00297764,-0.00117738,0.00006423,-0.0011112
 5,0.00210555,-0.00022063,-0.00170859,0.00010127,0.00065491,0.00073440,
 -0.00038196,-0.00025732,-0.00011964,0.00064079,0.00007322,-0.00002302,
 -0.00086873,-0.00003223,-0.00042527,-0.00016128,-0.00000051,-0.0002750
 5,0.00010044,0.00022018,-0.00002057,0.00037221,-0.00022056,-0.10956142
 ,-0.00272428,-0.02906428,-0.19452689,-0.05256668,-0.05485806,0.0112774
 1,0.00004483,0.00024443,0.00005236,0.00000886,0.00006924,0.00000006,-0
 .00000801,0.00001854,0.00005508,-0.00007912,0.00001904,-0.00003684,-0.
 00000260,-0.00001635,0.00002592,0.00001765,0.00003627,-0.01153487,-0.0
 1735019,-0.00011783,0.53566168,0.01386018,0.00006627,0.00409114,-0.004
 88289,-0.01065646,-0.00391476,-0.00757546,0.00430986,-0.00068714,-0.00
 680978,0.01708440,0.00318955,0.04052435,-0.04673790,0.01809862,-0.0067
 6710,-0.03108900,-0.00617545,0.00092318,0.00068034,-0.00114966,0.00093
 219,-0.00026846,0.00519481,0.00516877,0.04481591,-0.00477723,-0.005888
 89,0.00298817,-0.00137449,0.00393742,-0.00106045,-0.00076999,-0.001776
 55,0.00277614,-0.00020409,-0.00209774,0.00007428,0.00005763,0.00119080
 ,-0.00019344,-0.00037235,-0.00034999,0.00086638,0.00017460,-0.00050692
 ,-0.00220740,-0.00004084,-0.00061158,0.00008000,0.00017884,0.00039346,
 -0.00001832,-0.00011920,-0.00016560,0.00015807,-0.00060698,-0.04660914
 ,-0.35133117,-0.01286510,-0.02742178,-0.12714681,0.00297154,0.01010405
 ,-0.00489695,0.00438409,0.00012744,0.00001669,0.00018980,-0.00001094,-
 0.00002083,0.00001945,0.00055896,0.00009470,0.00019656,-0.00006497,-0.
 00000626,-0.00000459,0.00005119,0.00010895,0.00001897,-0.03460115,-0.0
 1700439,-0.01152063,-0.03910220,0.66783778,0.00330446,0.00082459,0.001
 51969,-0.00117398,-0.00312707,-0.00106153,-0.00111793,0.00177394,0.000
 15299,-0.00595269,0.00254416,0.00229500,0.00914922,0.00626560,0.009625
 11,-0.00134711,-0.00622865,-0.00492824,-0.00166456,-0.00024811,-0.0003
 1620,-0.00091642,0.00386237,0.00439525,-0.02743279,0.00539277,-0.00528
 361,-0.00135150,0.00126699,-0.00114141,0.00040045,-0.00062596,-0.00023
 334,-0.00016515,0.00032590,0.00000810,-0.00016987,0.00017517,-0.000286
 39,0.00002777,-0.00003270,-0.00002495,-0.00009244,-0.00005433,0.000069
 38,-0.00036740,-0.00009320,0.00004092,0.00012869,0.00001366,-0.0000800
 1,-0.00006857,0.00025640,-0.00039377,0.00004133,0.00026456,-0.00025520
 ,-0.02652527,0.01635786,-0.07456854,-0.05913347,-0.01555090,-0.0871771
 2,0.00220216,0.00333578,0.00247888,-0.00004205,-0.00000032,0.00009189,
 -0.00001247,0.00000022,-0.00000968,0.00011524,-0.00003442,0.00006140,-
 0.00001658,0.00000574,-0.00001697,0.00001198,-0.00000206,0.00002016,0.
 00605207,-0.00257776,0.00379004,0.19777825,-0.06554413,0.23554278,0.00
 019820,0.00024353,0.00023006,0.00000410,-0.00017271,-0.00009246,-0.000
 02536,-0.00058875,-0.00069615,0.00045833,-0.00084140,0.00080699,-0.011
 97869,-0.01145859,-0.00853188,-0.00215784,0.00324734,-0.00215852,-0.00
 032976,0.00007845,-0.00012344,-0.00021074,-0.00002662,0.00025848,-0.00
 007334,0.00112851,0.00043519,0.00000619,0.00010365,-0.00008376,-0.0000
 4358,-0.00000247,0.00000488,0.00001512,-0.00002049,0.00002673,0.000039
 47,-0.00011255,0.00013456,-0.00004994,0.00001052,-0.00001496,-0.000018
 29,-0.00003515,0.00000320,0.00001899,0.00009345,-0.00000995,0.00003425
 ,-0.00001559,0.00001060,-0.00001452,0.00005443,-0.00005552,-0.00006799
 ,0.00081151,0.00016587,-0.23835649,-0.08628929,-0.10454586,0.00338232,
 -0.00001375,-0.00301962,0.00004808,0.00005160,0.00019937,-0.00000997,-
 0.00000911,0.00000352,-0.00000759,-0.00000376,0.00000401,-0.00012372,-
 0.00003024,0.00000936,-0.00000223,0.00000563,0.00000435,-0.00001183,-0
 .00000483,-0.00000180,0.00022980,-0.00002837,-0.00012047,0.00052200,-0
 .00023152,-0.00170015,0.24902480,-0.00035349,-0.00000801,-0.00014459,0
 .00001439,0.00028049,0.00012060,0.00062530,0.00051732,0.00045456,-0.00
 030358,0.00126334,0.00031026,0.01523806,0.01120343,0.00866153,0.003035
 65,-0.00230306,0.00105422,0.00021444,-0.00011666,-0.00003991,0.0001467
 9,0.00017677,0.00001897,0.00040467,-0.00067745,0.00010704,0.00007271,-
 0.00013104,0.00003842,0.00001541,0.00003650,-0.00002937,0.00001028,-0.
 00002066,-0.00000364,0.00003315,0.00009708,-0.00001877,0.00002023,0.00
 001460,-0.00001223,-0.00000080,0.00001803,0.00000154,-0.00001536,-0.00
 002065,-0.00001033,-0.00001835,0.00001109,0.00001363,-0.00001634,-0.00
 000685,0.00000496,-0.00050942,-0.00025617,-0.00027245,-0.08550624,-0.0
 9829087,-0.04540141,0.00041239,-0.00531060,0.00097329,-0.00013080,-0.0
 0045940,0.00016771,0.00000259,-0.00000282,0.00000370,0.00000236,-0.000
 00267,0.00000044,0.00004533,0.00001088,-0.00000968,-0.00000045,0.00000
 138,0.00000170,-0.00000316,0.00000290,-0.00000093,-0.00115361,0.000441
 09,-0.00062485,-0.02647829,-0.00960469,-0.01374558,0.09408314,0.102354
 03,-0.00066002,0.00014133,-0.00038001,0.00039150,0.00035260,0.00015256
 ,-0.00042142,-0.00076788,-0.00000579,0.00183886,-0.00034852,-0.0015825
 5,-0.01058182,-0.00337905,-0.00335451,-0.00170129,0.00291177,0.0035893
 1,-0.00013495,0.00016236,0.00033150,0.00002961,-0.00037603,-0.00068425
 ,0.00098136,-0.00064969,-0.00018476,-0.00001381,-0.00000700,0.00015035
 ,0.00001345,-0.00002219,0.00000896,-0.00002935,-0.00001334,0.00000668,
 -0.00012130,-0.00008819,-0.00019489,0.00004579,-0.00004724,0.00002261,
 0.00002599,0.00006250,0.00000083,0.00012436,0.00012165,-0.00002415,-0.
 00005823,-0.00006204,-0.00001338,-0.00004436,-0.00002965,0.00011416,-0
 .00018107,0.00033243,0.00046950,-0.10389613,-0.04970146,-0.08818211,-0
 .00307952,0.00044332,0.00695793,0.00004920,-0.00030222,-0.00031456,0.0
 0000671,0.00000304,0.00000263,0.00000078,-0.00000350,-0.00000343,-0.00
 004073,-0.00003283,0.00005255,-0.00000041,0.00000265,-0.00000613,-0.00
 000368,-0.00000793,0.00001162,-0.00052172,0.00020175,0.00010224,-0.000
 80324,0.00302673,0.00318669,0.11598610,0.04848566,0.08387921,0.0001561
 7,-0.00015048,0.00027123,-0.00003365,-0.00021393,-0.00009806,-0.000222
 86,0.00009348,0.00023108,0.00047030,0.00012089,0.00002979,0.00277820,-
 0.00173665,-0.00329320,-0.00021570,-0.00118109,0.00027082,-0.00043661,
 -0.00011526,-0.00008705,0.00014995,0.00100189,-0.00074994,-0.00361415,
 -0.00289525,-0.00256900,-0.00006587,0.00006470,-0.00004632,0.00008535,
 -0.00007060,0.00005110,-0.00005993,0.00003745,-0.00000785,0.00009032,0
 .00012450,0.00008437,0.00003190,0.00001110,-0.00000997,-0.00004271,0.0
 0000729,0.00001740,-0.00008092,-0.00002763,0.00006429,-0.00000968,0.00
 001977,-0.00002186,0.00003627,-0.00001717,0.00001405,0.00002233,0.0000
 4179,-0.00006864,0.00547710,-0.00299403,0.00138898,-0.01198269,0.01617
 779,-0.00977094,-0.00000773,-0.00027872,0.00018990,-0.00003307,-0.0000
 1182,0.00000515,-0.00000926,-0.00000716,0.00000215,-0.00003466,-0.0000
 0447,-0.00000535,-0.00000935,0.00000598,0.00000093,-0.00000505,0.00000
 201,0.00000312,0.00085117,0.00116062,0.00072205,-0.19717119,0.10843428
 ,-0.09118501,-0.00051584,0.00024570,0.00284043,0.20457790,0.00023155,-
 0.00041743,-0.00022058,-0.00022326,-0.00015680,-0.00004249,-0.00006099
 ,0.00017892,-0.00000360,0.00107976,0.00026572,0.00067421,-0.00222239,-
 0.00481350,-0.00055638,-0.00037933,-0.00036253,-0.00020419,-0.00020888
 ,-0.00015807,-0.00002035,-0.00041815,0.00066145,-0.00036310,-0.0029553
 0,-0.00088832,-0.00068391,0.00002075,0.00013872,-0.00006884,0.00005693
 ,-0.00002957,0.00001089,-0.00002762,0.00003433,-0.00000660,0.00002748,
 0.00013091,0.00003267,0.00001439,-0.00000425,-0.00000250,0.00000167,-0
 .00000517,-0.00000147,-0.00007907,-0.00010225,0.00001346,0.00000520,0.
 00004259,0.00000845,0.00013665,-0.00004124,-0.00001059,-0.00003795,-0.
 00004985,-0.00000108,0.02338598,-0.01497902,0.01367229,-0.01031603,0.0
 1084996,-0.00641514,0.00023415,-0.00001426,0.00005166,-0.00000686,0.00
 000303,0.00000130,0.00000123,0.00000399,0.00000048,0.00007148,0.000029
 73,0.00000801,-0.00000445,-0.00000367,-0.00000078,0.00000727,0.0000058
 4,-0.00000306,0.00042136,0.00111451,-0.00036283,0.10770763,-0.14104454
 ,0.06514861,0.00000407,0.00083441,-0.00040832,-0.11698119,0.14894553,0
 .00006877,0.00031497,-0.00044362,-0.00001756,0.00014091,0.00012519,0.0
 0008289,0.00018423,-0.00058275,-0.00055799,-0.00011277,0.00010966,-0.0
 0295217,-0.00001969,0.00715527,0.00089510,0.00035077,-0.00002132,-0.00
 026805,-0.00018041,0.00006012,-0.00026203,0.00072632,-0.00018905,-0.00
 248205,-0.00238462,0.00370785,0.00033307,-0.00014128,-0.00002921,-0.00
 014949,0.00005787,0.00004592,0.00005961,-0.00011446,-0.00000661,0.0000
 6090,0.00008791,-0.00007019,-0.00002873,0.00001658,0.00000363,0.000010
 56,-0.00001729,-0.00000238,0.00000267,0.00001251,0.00000523,0.00001111
 ,0.00001537,0.00002609,-0.00001903,0.00002315,-0.00003192,-0.00003834,
 -0.00004467,0.00014366,-0.00101087,-0.00284855,0.00301859,-0.00951977,
 0.00610403,-0.00328307,-0.00036474,-0.00006003,-0.00018328,-0.00001108
 ,0.00000125,0.00001321,-0.00000200,-0.00000184,0.00000171,0.00004936,0
 .00000046,0.00003116,-0.00000321,0.00000226,-0.00000004,-0.00000489,-0
 .00000063,-0.00000141,0.00156721,-0.00008377,-0.00148481,-0.08969941,0
 .06896568,-0.08635238,0.00288999,-0.00013332,-0.00416059,0.10158672,-0
 .07049124,0.08194877,0.00003508,-0.00001945,0.00001836,-0.00002177,0.0
 0000507,-0.00003663,-0.00008708,-0.00017063,0.00000527,-0.00002308,0.0
 0004013,-0.00000118,0.00010460,0.00004711,0.00006947,0.00054955,-0.000
 41065,0.00029548,0.00021232,-0.00006696,0.00006197,-0.00015391,-0.0002
 0401,0.00016465,-0.00042071,-0.00269123,-0.00018499,-0.00395113,-0.003
 40153,-0.00134186,0.00008998,0.00108235,-0.00054163,-0.00038817,0.0000
 0764,0.00039268,-0.00006422,-0.00001124,-0.00002961,0.00011240,0.00012
 741,-0.00000632,-0.00006626,0.00006451,0.00000918,-0.00001216,-0.00008
 594,-0.00003007,-0.00005197,-0.00001015,0.00003333,-0.00000074,0.00000
 688,0.00000080,0.00000703,-0.00000290,-0.00000449,-0.00001850,0.000194
 85,-0.00000174,0.00979807,-0.00895224,0.00511826,-0.01659263,0.0219366
 4,-0.01243602,-0.00005174,-0.00006130,-0.00005815,-0.00000277,-0.00001
 235,0.00000499,0.00006395,0.00002085,-0.00000351,-0.00000622,0.0000052
 8,-0.00000174,-0.00001353,0.00002120,-0.00000265,-0.15575402,0.1135581
 6,-0.06866071,0.00086556,0.00049198,0.00067100,0.00000872,0.00002517,-
 0.00001216,-0.00014525,0.00049156,-0.00019691,0.16534865,0.00006259,-0
 .00008945,-0.00002519,-0.00001322,0.00005969,-0.00005457,0.00000065,-0
 .00047070,0.00000770,-0.00006374,0.00009981,-0.00005731,0.00000624,-0.
 00004557,0.00004929,0.00105323,0.00012988,0.00089740,0.00019581,-0.000
 15141,-0.00014996,-0.00098427,-0.00016427,-0.00034881,-0.00297621,-0.0
 0480459,0.00110464,-0.00281938,0.00140776,0.00258546,0.00010314,0.0005
 5653,-0.00007157,-0.00027297,0.00010711,-0.00021141,-0.00017013,0.0000
 1991,0.00006710,0.00005439,0.00001435,-0.00005782,0.00003186,0.0000775
 2,0.00001314,0.00000446,-0.00018087,-0.00001472,-0.00007724,0.00002297
 ,0.00001764,-0.00000580,-0.00000994,0.00000842,-0.00000547,-0.00003463
 ,-0.00001050,-0.00025483,-0.00004332,-0.00017793,0.01852227,-0.0132028
 5,0.01094231,-0.00581014,0.00779546,-0.00281125,0.00003821,0.00001655,
 0.00007997,0.00000759,0.00000119,-0.00000375,0.00010926,0.00002190,-0.
 00001078,-0.00000011,-0.00000573,0.00000115,0.00000677,0.00001294,0.00
 000736,0.11490403,-0.18947472,0.07985596,0.00102726,0.00129230,-0.0001
 3209,-0.00003720,-0.00003937,0.00001312,-0.00081558,-0.00017316,-0.000
 39990,-0.12232443,0.19708809,0.00010134,-0.00003330,-0.00001571,-0.000
 03183,-0.00002161,-0.00002084,0.00010268,0.00015930,0.00002477,-0.0000
 8832,0.00011618,0.00005411,0.00019845,-0.00028802,0.00001304,-0.000473
 86,0.00026361,-0.00012691,-0.00008663,-0.00007579,-0.00055914,-0.00020
 143,-0.00089124,-0.00015017,0.00107536,0.00137946,0.00378279,-0.001684
 43,0.00205381,0.00809487,-0.00000139,0.00070240,0.00013170,-0.00042071
 ,-0.00005964,-0.00071238,-0.00013051,-0.00001992,0.00019068,0.00001335
 ,0.00000273,-0.00009594,-0.00000841,0.00006752,0.00005513,0.00011199,-
 0.00002841,-0.00000275,-0.00008153,-0.00005248,0.00001452,0.00000326,0
 .00000953,-0.00000854,-0.00000159,0.00000538,0.00001489,0.00001082,0.0
 0043796,-0.00021769,-0.00375718,0.00650547,-0.00085325,0.00040821,0.00
 399294,0.00231101,0.00005955,0.00004872,0.00023299,-0.00000211,-0.0000
 0413,-0.00000480,-0.00003663,-0.00003103,0.00001472,0.00000117,0.00000
 109,0.00000979,0.00000009,0.00000342,0.00001809,-0.07215590,0.07781539
 ,-0.07896627,0.00047356,-0.00108965,-0.00133599,-0.00003440,0.00001450
 ,0.00008095,0.00018735,0.00023403,0.00033774,0.07542574,-0.08880454,0.
 07259905,0.00003622,0.00001473,0.00003039,0.00009629,-0.00004301,0.000
 03776,-0.00017656,0.00029283,0.00000095,0.00000965,0.00005610,0.000039
 13,-0.00013134,0.00003390,-0.00005795,0.00014875,0.00013856,0.00010064
 ,0.00067242,0.00059138,-0.00040607,-0.00294574,0.00298319,-0.00145335,
 -0.00071636,0.00035506,-0.00004113,0.01072781,0.01823532,-0.00634779,0
 .00131415,-0.00009005,-0.00009445,0.00001968,-0.00039625,0.00012700,0.
 00026763,0.00006145,-0.00007455,-0.00009030,0.00003420,-0.00000557,0.0
 0002256,-0.00007332,-0.00000115,-0.00006387,-0.00003816,0.00003680,0.0
 0002782,0.00008153,-0.00001328,0.00001524,0.00000684,-0.00000723,-0.00
 000199,0.00000293,-0.00000656,-0.00044375,-0.00016476,-0.00017996,-0.0
 0486536,-0.00044141,-0.00258579,-0.08369077,-0.07672652,0.02244903,-0.
 00024931,-0.00058526,0.00022225,-0.00001221,0.00000754,0.00000247,0.00
 000184,-0.00000366,-0.00000213,-0.00000223,-0.00000388,-0.00000066,0.0
 0000364,-0.00000392,0.00000250,-0.00711592,-0.02884850,0.00902233,0.00
 053226,-0.00122405,0.00055279,0.00000737,-0.00015784,-0.00002891,-0.00
 003080,0.00002236,-0.00002962,0.00062997,0.00050298,0.00102392,0.08600
 321,-0.00005031,-0.00002102,-0.00005355,-0.00007868,0.00009865,-0.0000
 7666,0.00017995,-0.00037060,0.00008315,0.00001081,-0.00005931,-0.00002
 082,0.00004851,0.00004187,0.00006853,-0.00003013,-0.00011882,-0.000189
 17,-0.00082674,-0.00005696,0.00056041,0.00358635,-0.00177229,0.0013864
 5,0.00076331,0.00024264,-0.00031262,-0.00943682,-0.01326946,0.00551832
 ,-0.00065143,0.00068095,-0.00042336,0.00028297,0.00016920,-0.00015038,
 -0.00007908,-0.00001059,0.00003370,-0.00001229,-0.00007346,0.00003928,
 0.00001292,-0.00000783,-0.00000741,0.00005182,0.00002826,-0.00003264,0
 .00002457,-0.00006206,-0.00002198,-0.00001842,-0.00002600,0.00002451,-
 0.00000925,-0.00000964,-0.00000186,0.00000064,0.00003419,-0.00021679,-
 0.00112605,0.00256746,0.00239698,-0.07828171,-0.28120419,0.07849994,0.
 00082422,-0.00003505,-0.00021276,0.00002392,0.00001350,-0.00000180,0.0
 0001553,0.00001884,0.00000612,0.00000714,-0.00000218,-0.00000281,0.000
 01418,-0.00000272,-0.00000353,-0.00089706,-0.00319630,0.00257932,0.000
 01480,0.00003682,0.00018296,0.00000658,-0.00001238,-0.00001381,-0.0000
 4821,0.00000399,0.00003021,0.00029825,0.00016663,-0.00241367,0.0853797
 0,0.29620786,0.00002568,-0.00003092,-0.00004343,-0.00001792,0.00012923
 ,-0.00021088,-0.00016782,0.00006936,0.00027672,0.00000804,0.00002579,0
 .00001708,-0.00008754,-0.00002613,0.00011810,0.00039389,0.00018669,-0.
 00061372,0.00071989,0.00055570,0.00014971,-0.00274062,0.00117416,0.003
 13554,0.00052940,-0.00089397,-0.00034199,0.00167868,0.01080977,-0.0015
 2686,0.00089541,-0.00142420,-0.00157674,-0.00042398,0.00050179,-0.0002
 6932,-0.00020615,-0.00017836,0.00004266,0.00026790,-0.00008988,-0.0000
 4716,0.00003199,0.00023763,0.00002573,0.00001469,-0.00017049,0.0000363
 2,-0.00016026,-0.00003967,0.00003702,-0.00001492,-0.00002543,0.0000784
 1,-0.00000177,-0.00000718,-0.00000291,0.00035512,-0.00004959,-0.000379
 16,-0.00214957,0.00232812,0.00772920,0.02661137,0.07860698,-0.05938322
 ,-0.00028262,0.00006255,0.00047823,-0.00000546,-0.00000527,0.00001026,
 0.00006462,0.00002126,0.00000900,-0.00001494,0.00000117,-0.00001097,-0
 .00000335,0.00001128,0.00000432,-0.00408245,-0.00270116,0.00427543,-0.
 00017260,0.00045826,0.00018706,0.00001567,0.00001438,-0.00002920,-0.00
 004773,0.00001098,0.00010882,0.00127916,-0.00230858,-0.00491045,-0.022
 31182,-0.08725427,0.05262639\\0.00000195,-0.00000083,-0.00000685,0.000
 00026,-0.00000200,-0.00000461,-0.00000011,-0.00000080,-0.00000286,-0.0
 0000112,0.00000074,-0.00000622,-0.00000020,-0.00000004,-0.00000292,-0.
 00000058,-0.00000116,-0.00000217,-0.00000073,-0.00000201,-0.00000088,-
 0.00000026,-0.00000118,0.00000200,-0.00000042,-0.00000170,-0.00000095,
 -0.00000093,-0.00000151,0.00000457,0.00000021,-0.00000026,0.00000490,0
 .00000002,-0.00000004,0.00000284,-0.00000069,-0.00000110,0.00000129,-0
 .00000056,0.00000220,0.00000354,0.00000142,-0.00000042,0.00000038,-0.0
 0000068,-0.00000096,-0.00000153,0.00000080,-0.00000003,-0.00000220,0.0
 0000031,0.00000073,-0.00000872,0.00000042,0.00000115,-0.00000763,-0.00
 000051,-0.00000123,-0.00000268,0.00000026,-0.00000067,0.00000329,0.000
 00203,0.00000140,0.00000639,0.00000007,0.00000048,0.00000677,0.0000002
 8,0.00000110,0.00000489,0.00000014,-0.00000073,-0.00000401,0.00000028,
 0.00000106,-0.00000342,0.00000042,0.00000184,0.00000125,-0.00000259,-0
 .00000017,0.00000439,-0.00000002,0.00000180,0.00000023,0.00000028,0.00
 000137,-0.00000362,0.00000022,0.00000140,0.00000095,0.00000002,0.00000
 105,0.00000578,0.,0.00000052,0.00000781\\\@


 IF THE FACTS DO NOT CONFORM TO THE THEORY, THEY MUST BE DISPOSED OF.
 Job cpu time:       2 days  3 hours 58 minutes 30.9 seconds.
 File lengths (MBytes):  RWF=   5880 Int=      0 D2E=      0 Chk=     32 Scr=      1
 Normal termination of Gaussian 09 at Sun Feb  2 00:29:16 2020.
