 Entering Gaussian System, Link 0=/share/apps/gaussian16/g16/g16
 Initial command:
 /share/apps/gaussian16/g16/l1.exe "/home/am2145//scratch/3578/Gau-21666.inp" -scrdir="/home/am2145//scratch/3578/"
 Entering Link 1 = /share/apps/gaussian16/g16/l1.exe PID=     21667.
  
 Copyright (c) 1988,1990,1992,1993,1995,1998,2003,2009,2016,
            Gaussian, Inc.  All Rights Reserved.
  
 This is part of the Gaussian(R) 16 program.  It is based on
 the Gaussian(R) 09 system (copyright 2009, Gaussian, Inc.),
 the Gaussian(R) 03 system (copyright 2003, Gaussian, Inc.),
 the Gaussian(R) 98 system (copyright 1998, Gaussian, Inc.),
 the Gaussian(R) 94 system (copyright 1995, Gaussian, Inc.),
 the Gaussian 92(TM) system (copyright 1992, Gaussian, Inc.),
 the Gaussian 90(TM) system (copyright 1990, Gaussian, Inc.),
 the Gaussian 88(TM) system (copyright 1988, Gaussian, Inc.),
 the Gaussian 86(TM) system (copyright 1986, Carnegie Mellon
 University), and the Gaussian 82(TM) system (copyright 1983,
 Carnegie Mellon University). Gaussian is a federally registered
 trademark of Gaussian, Inc.
  
 This software contains proprietary and confidential information,
 including trade secrets, belonging to Gaussian, Inc.
  
 This software is provided under written license and may be
 used, copied, transmitted, or stored only in accord with that
 written license.
  
 The following legend is applicable only to US Government
 contracts under FAR:
  
                    RESTRICTED RIGHTS LEGEND
  
 Use, reproduction and disclosure by the US Government is
 subject to restrictions as set forth in subparagraphs (a)
 and (c) of the Commercial Computer Software - Restricted
 Rights clause in FAR 52.227-19.
  
 Gaussian, Inc.
 340 Quinnipiac St., Bldg. 40, Wallingford CT 06492
  
  
 ---------------------------------------------------------------
 Warning -- This program may not be used in any manner that
 competes with the business of Gaussian, Inc. or will provide
 assistance to any competitor of Gaussian, Inc.  The licensee
 of this program is prohibited from giving any competitor of
 Gaussian, Inc. access to this program.  By using this program,
 the user acknowledges that Gaussian, Inc. is engaged in the
 business of creating and licensing software in the field of
 computational chemistry and represents and warrants to the
 licensee that it is not a competitor of Gaussian, Inc. and that
 it will not use this program in any manner prohibited above.
 ---------------------------------------------------------------
  

 Cite this work as:
 Gaussian 16, Revision A.03,
 M. J. Frisch, G. W. Trucks, H. B. Schlegel, G. E. Scuseria, 
 M. A. Robb, J. R. Cheeseman, G. Scalmani, V. Barone, 
 G. A. Petersson, H. Nakatsuji, X. Li, M. Caricato, A. V. Marenich, 
 J. Bloino, B. G. Janesko, R. Gomperts, B. Mennucci, H. P. Hratchian, 
 J. V. Ortiz, A. F. Izmaylov, J. L. Sonnenberg, D. Williams-Young, 
 F. Ding, F. Lipparini, F. Egidi, J. Goings, B. Peng, A. Petrone, 
 T. Henderson, D. Ranasinghe, V. G. Zakrzewski, J. Gao, N. Rega, 
 G. Zheng, W. Liang, M. Hada, M. Ehara, K. Toyota, R. Fukuda, 
 J. Hasegawa, M. Ishida, T. Nakajima, Y. Honda, O. Kitao, H. Nakai, 
 T. Vreven, K. Throssell, J. A. Montgomery, Jr., J. E. Peralta, 
 F. Ogliaro, M. J. Bearpark, J. J. Heyd, E. N. Brothers, K. N. Kudin, 
 V. N. Staroverov, T. A. Keith, R. Kobayashi, J. Normand, 
 K. Raghavachari, A. P. Rendell, J. C. Burant, S. S. Iyengar, 
 J. Tomasi, M. Cossi, J. M. Millam, M. Klene, C. Adamo, R. Cammi, 
 J. W. Ochterski, R. L. Martin, K. Morokuma, O. Farkas, 
 J. B. Foresman, and D. J. Fox, Gaussian, Inc., Wallingford CT, 2016.
 
 ******************************************
 Gaussian 16:  ES64L-G16RevA.03 25-Dec-2016
                27-Mar-2019 
 ******************************************
 %nprocshared=20
 Will use up to   20 processors via shared memory.
 %mem=100GB
 %chk=7-memb-TS2b.chk
 ---------------------------------------------------------------
 # opt=(calcfc,TS,noeigen) freq b3lyp/6-311+g(d,p) int=grid=fine
 ---------------------------------------------------------------
 1/5=1,10=4,11=1,18=20,26=3,38=1/1,3;
 2/9=110,12=2,17=6,18=5,40=1/2;
 3/5=4,6=6,7=111,11=2,25=1,30=1,71=2,74=-5,75=-4,140=1/1,2,3;
 4//1;
 5/5=2,38=5/2;
 8/6=4,10=90,11=11/1;
 11/6=1,8=1,9=11,15=111,16=1/1,2,10;
 10/6=1,13=1/2;
 6/7=2,8=2,9=2,10=2,28=1/1;
 7/10=1,18=20,25=1/1,2,3,16;
 1/5=1,10=4,11=1,18=20,26=3/3(2);
 2/9=110/2;
 99//99;
 2/9=110/2;
 3/5=4,6=6,7=111,11=2,25=1,30=1,71=1,74=-5,75=-4/1,2,3;
 4/5=5,16=3,69=1/1;
 5/5=2,38=5/2;
 7//1,2,3,16;
 1/5=1,11=1,18=20,26=3/3(-5);
 2/9=110/2;
 6/7=2,8=2,9=2,10=2,19=2,28=1/1;
 99/9=1/99;
 -----------
 7-memb-TS2b
 -----------
 Symbolic Z-matrix:
 Charge =  0 Multiplicity = 2
 C                    -2.1606   -3.2323   -0.0017 
 C                    -0.8072   -2.7788   -0.0001 
 C                    -0.5603   -1.4178    0.0024 
 C                    -3.2622   -2.3864   -0.0017 
 C                    -3.0573   -0.9789    0.0003 
 C                    -1.7225   -0.5935    0.0029 
 C                     0.6056   -0.4666    0.0027 
 C                     0.0468    0.8205    0.0033 
 C                    -1.3549    0.7492    0.0033 
 C                     0.7004    2.0599    0.001 
 C                     2.0967    1.9855   -0.0005 
 C                     2.7475    0.7264   -0.0003 
 C                     2.0139   -0.5368    0.0009 
 C                     4.1738    0.6678   -0.0017 
 C                     4.8458   -0.5254   -0.0019 
 C                     2.7562   -1.7517    0.0007 
 C                     4.1269   -1.7492   -0.0007 
 H                     0.25267  -3.79594   0.16524 
 H                    -2.3321   -4.3033   -0.0032 
 H                    -4.2626   -2.8061   -0.0035 
 C                    -4.0038    0.1129   -0.0015 
 C                    -2.2199    1.818     0.0005 
 C                    -0.1817    3.2157   -0.0005 
 H                     2.7079    2.8828   -0.0022 
 H                     4.7252    1.6025   -0.0026 
 H                     2.2169   -2.6911    0.0016 
 H                     4.6701   -2.6877   -0.0009 
 H                     5.9297   -0.5403   -0.003 
 C                    -3.6119    1.4427   -0.0019 
 C                    -1.5565    3.1091   -0.0009 
 H                    -5.065    -0.1147   -0.0031 
 H                    -4.3776    2.2117   -0.0037 
 H                    -2.1506    4.0172   -0.003 
 H                     0.263     4.2057   -0.0022 
 H                     0.99102  -4.2465    0.31931 
 
 Add virtual bond connecting atoms H35        and H18        Dist= 1.66D+00.
 Add virtual bond connecting atoms H18        and C2         Dist= 2.79D+00.

 GradGradGradGradGradGradGradGradGradGradGradGradGradGradGradGradGradGrad
 Berny optimization.
 Initialization pass.
                           ----------------------------
                           !    Initial Parameters    !
                           ! (Angstroms and Degrees)  !
 --------------------------                            --------------------------
 ! Name  Definition              Value          Derivative Info.                !
 --------------------------------------------------------------------------------
 ! R1    R(1,2)                  1.4274         calculate D2E/DX2 analytically  !
 ! R2    R(1,4)                  1.3889         calculate D2E/DX2 analytically  !
 ! R3    R(1,19)                 1.0846         calculate D2E/DX2 analytically  !
 ! R4    R(2,3)                  1.3832         calculate D2E/DX2 analytically  !
 ! R5    R(2,18)                 1.4783         calculate D2E/DX2 analytically  !
 ! R6    R(3,6)                  1.4248         calculate D2E/DX2 analytically  !
 ! R7    R(3,7)                  1.5047         calculate D2E/DX2 analytically  !
 ! R8    R(4,5)                  1.4223         calculate D2E/DX2 analytically  !
 ! R9    R(4,20)                 1.0849         calculate D2E/DX2 analytically  !
 ! R10   R(5,6)                  1.3893         calculate D2E/DX2 analytically  !
 ! R11   R(5,21)                 1.445          calculate D2E/DX2 analytically  !
 ! R12   R(6,9)                  1.3921         calculate D2E/DX2 analytically  !
 ! R13   R(7,8)                  1.4032         calculate D2E/DX2 analytically  !
 ! R14   R(7,13)                 1.41           calculate D2E/DX2 analytically  !
 ! R15   R(8,9)                  1.4035         calculate D2E/DX2 analytically  !
 ! R16   R(8,10)                 1.4012         calculate D2E/DX2 analytically  !
 ! R17   R(9,22)                 1.375          calculate D2E/DX2 analytically  !
 ! R18   R(10,11)                1.3983         calculate D2E/DX2 analytically  !
 ! R19   R(10,23)                1.454          calculate D2E/DX2 analytically  !
 ! R20   R(11,12)                1.4173         calculate D2E/DX2 analytically  !
 ! R21   R(11,24)                1.0857         calculate D2E/DX2 analytically  !
 ! R22   R(12,13)                1.4608         calculate D2E/DX2 analytically  !
 ! R23   R(12,14)                1.4275         calculate D2E/DX2 analytically  !
 ! R24   R(13,16)                1.4237         calculate D2E/DX2 analytically  !
 ! R25   R(14,15)                1.3694         calculate D2E/DX2 analytically  !
 ! R26   R(14,25)                1.0852         calculate D2E/DX2 analytically  !
 ! R27   R(15,17)                1.4193         calculate D2E/DX2 analytically  !
 ! R28   R(15,28)                1.084          calculate D2E/DX2 analytically  !
 ! R29   R(16,17)                1.3707         calculate D2E/DX2 analytically  !
 ! R30   R(16,26)                1.0832         calculate D2E/DX2 analytically  !
 ! R31   R(17,27)                1.0844         calculate D2E/DX2 analytically  !
 ! R32   R(18,35)                0.8786         calculate D2E/DX2 analytically  !
 ! R33   R(21,29)                1.3863         calculate D2E/DX2 analytically  !
 ! R34   R(21,31)                1.0853         calculate D2E/DX2 analytically  !
 ! R35   R(22,29)                1.4417         calculate D2E/DX2 analytically  !
 ! R36   R(22,30)                1.4516         calculate D2E/DX2 analytically  !
 ! R37   R(23,30)                1.3789         calculate D2E/DX2 analytically  !
 ! R38   R(23,34)                1.0853         calculate D2E/DX2 analytically  !
 ! R39   R(29,32)                1.0852         calculate D2E/DX2 analytically  !
 ! R40   R(30,33)                1.0852         calculate D2E/DX2 analytically  !
 ! A1    A(2,1,4)              123.9549         calculate D2E/DX2 analytically  !
 ! A2    A(2,1,19)             117.6227         calculate D2E/DX2 analytically  !
 ! A3    A(4,1,19)             118.4224         calculate D2E/DX2 analytically  !
 ! A4    A(1,2,3)              118.8074         calculate D2E/DX2 analytically  !
 ! A5    A(1,2,18)             117.4734         calculate D2E/DX2 analytically  !
 ! A6    A(3,2,18)             123.2873         calculate D2E/DX2 analytically  !
 ! A7    A(2,3,6)              115.0642         calculate D2E/DX2 analytically  !
 ! A8    A(2,3,7)              139.4915         calculate D2E/DX2 analytically  !
 ! A9    A(6,3,7)              105.4442         calculate D2E/DX2 analytically  !
 ! A10   A(1,4,5)              119.2372         calculate D2E/DX2 analytically  !
 ! A11   A(1,4,20)             119.7203         calculate D2E/DX2 analytically  !
 ! A12   A(5,4,20)             121.0425         calculate D2E/DX2 analytically  !
 ! A13   A(4,5,6)              114.388          calculate D2E/DX2 analytically  !
 ! A14   A(4,5,21)             130.7944         calculate D2E/DX2 analytically  !
 ! A15   A(6,5,21)             114.8175         calculate D2E/DX2 analytically  !
 ! A16   A(3,6,5)              128.5482         calculate D2E/DX2 analytically  !
 ! A17   A(3,6,9)              110.0354         calculate D2E/DX2 analytically  !
 ! A18   A(5,6,9)              121.4162         calculate D2E/DX2 analytically  !
 ! A19   A(3,7,8)              105.741          calculate D2E/DX2 analytically  !
 ! A20   A(3,7,13)             137.9369         calculate D2E/DX2 analytically  !
 ! A21   A(8,7,13)             116.322          calculate D2E/DX2 analytically  !
 ! A22   A(7,8,9)              110.5563         calculate D2E/DX2 analytically  !
 ! A23   A(7,8,10)             128.7266         calculate D2E/DX2 analytically  !
 ! A24   A(9,8,10)             120.7169         calculate D2E/DX2 analytically  !
 ! A25   A(6,9,8)              108.223          calculate D2E/DX2 analytically  !
 ! A26   A(6,9,22)             125.7049         calculate D2E/DX2 analytically  !
 ! A27   A(8,9,22)             126.0719         calculate D2E/DX2 analytically  !
 ! A28   A(8,10,11)            114.755          calculate D2E/DX2 analytically  !
 ! A29   A(8,10,23)            114.8444         calculate D2E/DX2 analytically  !
 ! A30   A(11,10,23)           130.4006         calculate D2E/DX2 analytically  !
 ! A31   A(10,11,12)           120.3834         calculate D2E/DX2 analytically  !
 ! A32   A(10,11,24)           121.2109         calculate D2E/DX2 analytically  !
 ! A33   A(12,11,24)           118.4057         calculate D2E/DX2 analytically  !
 ! A34   A(11,12,13)           122.5208         calculate D2E/DX2 analytically  !
 ! A35   A(11,12,14)           119.6861         calculate D2E/DX2 analytically  !
 ! A36   A(13,12,14)           117.7931         calculate D2E/DX2 analytically  !
 ! A37   A(7,13,12)            117.2921         calculate D2E/DX2 analytically  !
 ! A38   A(7,13,16)            124.2785         calculate D2E/DX2 analytically  !
 ! A39   A(12,13,16)           118.4294         calculate D2E/DX2 analytically  !
 ! A40   A(12,14,15)           121.7405         calculate D2E/DX2 analytically  !
 ! A41   A(12,14,25)           118.1846         calculate D2E/DX2 analytically  !
 ! A42   A(15,14,25)           120.0749         calculate D2E/DX2 analytically  !
 ! A43   A(14,15,17)           120.1808         calculate D2E/DX2 analytically  !
 ! A44   A(14,15,28)           120.1754         calculate D2E/DX2 analytically  !
 ! A45   A(17,15,28)           119.6438         calculate D2E/DX2 analytically  !
 ! A46   A(13,16,17)           121.3203         calculate D2E/DX2 analytically  !
 ! A47   A(13,16,26)           118.7155         calculate D2E/DX2 analytically  !
 ! A48   A(17,16,26)           119.9642         calculate D2E/DX2 analytically  !
 ! A49   A(15,17,16)           120.5359         calculate D2E/DX2 analytically  !
 ! A50   A(15,17,27)           119.5065         calculate D2E/DX2 analytically  !
 ! A51   A(16,17,27)           119.9576         calculate D2E/DX2 analytically  !
 ! A52   A(5,21,29)            122.6569         calculate D2E/DX2 analytically  !
 ! A53   A(5,21,31)            118.8176         calculate D2E/DX2 analytically  !
 ! A54   A(29,21,31)           118.5256         calculate D2E/DX2 analytically  !
 ! A55   A(9,22,29)            113.8952         calculate D2E/DX2 analytically  !
 ! A56   A(9,22,30)            113.8209         calculate D2E/DX2 analytically  !
 ! A57   A(29,22,30)           132.2839         calculate D2E/DX2 analytically  !
 ! A58   A(10,23,30)           122.9169         calculate D2E/DX2 analytically  !
 ! A59   A(10,23,34)           118.4602         calculate D2E/DX2 analytically  !
 ! A60   A(30,23,34)           118.6229         calculate D2E/DX2 analytically  !
 ! A61   A(21,29,22)           121.5093         calculate D2E/DX2 analytically  !
 ! A62   A(21,29,32)           118.7026         calculate D2E/DX2 analytically  !
 ! A63   A(22,29,32)           119.788          calculate D2E/DX2 analytically  !
 ! A64   A(22,30,23)           121.629          calculate D2E/DX2 analytically  !
 ! A65   A(22,30,33)           119.6112         calculate D2E/DX2 analytically  !
 ! A66   A(23,30,33)           118.7599         calculate D2E/DX2 analytically  !
 ! A67   L(2,18,35,12,-1)      167.7444         calculate D2E/DX2 analytically  !
 ! A68   L(2,18,35,12,-2)      176.1313         calculate D2E/DX2 analytically  !
 ! D1    D(4,1,2,3)              0.0396         calculate D2E/DX2 analytically  !
 ! D2    D(4,1,2,18)           172.7481         calculate D2E/DX2 analytically  !
 ! D3    D(19,1,2,3)          -179.973          calculate D2E/DX2 analytically  !
 ! D4    D(19,1,2,18)           -7.2644         calculate D2E/DX2 analytically  !
 ! D5    D(2,1,4,5)             -0.0149         calculate D2E/DX2 analytically  !
 ! D6    D(2,1,4,20)           179.968          calculate D2E/DX2 analytically  !
 ! D7    D(19,1,4,5)           179.9978         calculate D2E/DX2 analytically  !
 ! D8    D(19,1,4,20)           -0.0194         calculate D2E/DX2 analytically  !
 ! D9    D(1,2,3,6)             -0.0099         calculate D2E/DX2 analytically  !
 ! D10   D(1,2,3,7)           -179.88           calculate D2E/DX2 analytically  !
 ! D11   D(18,2,3,6)          -172.2683         calculate D2E/DX2 analytically  !
 ! D12   D(18,2,3,7)             7.8615         calculate D2E/DX2 analytically  !
 ! D13   D(2,3,6,5)             -0.0482         calculate D2E/DX2 analytically  !
 ! D14   D(2,3,6,9)           -179.9053         calculate D2E/DX2 analytically  !
 ! D15   D(7,3,6,5)            179.8643         calculate D2E/DX2 analytically  !
 ! D16   D(7,3,6,9)              0.0072         calculate D2E/DX2 analytically  !
 ! D17   D(2,3,7,8)            179.8762         calculate D2E/DX2 analytically  !
 ! D18   D(2,3,7,13)            -0.0242         calculate D2E/DX2 analytically  !
 ! D19   D(6,3,7,8)             -0.0018         calculate D2E/DX2 analytically  !
 ! D20   D(6,3,7,13)          -179.9022         calculate D2E/DX2 analytically  !
 ! D21   D(1,4,5,6)             -0.0361         calculate D2E/DX2 analytically  !
 ! D22   D(1,4,5,21)           179.8813         calculate D2E/DX2 analytically  !
 ! D23   D(20,4,5,6)           179.9813         calculate D2E/DX2 analytically  !
 ! D24   D(20,4,5,21)           -0.1013         calculate D2E/DX2 analytically  !
 ! D25   D(4,5,6,3)              0.0713         calculate D2E/DX2 analytically  !
 ! D26   D(4,5,6,9)            179.914          calculate D2E/DX2 analytically  !
 ! D27   D(21,5,6,3)          -179.8598         calculate D2E/DX2 analytically  !
 ! D28   D(21,5,6,9)            -0.0171         calculate D2E/DX2 analytically  !
 ! D29   D(4,5,21,29)         -179.8581         calculate D2E/DX2 analytically  !
 ! D30   D(4,5,21,31)            0.1109         calculate D2E/DX2 analytically  !
 ! D31   D(6,5,21,29)            0.059          calculate D2E/DX2 analytically  !
 ! D32   D(6,5,21,31)         -179.972          calculate D2E/DX2 analytically  !
 ! D33   D(3,6,9,8)             -0.01           calculate D2E/DX2 analytically  !
 ! D34   D(3,6,9,22)           179.8291         calculate D2E/DX2 analytically  !
 ! D35   D(5,6,9,8)           -179.879          calculate D2E/DX2 analytically  !
 ! D36   D(5,6,9,22)            -0.0399         calculate D2E/DX2 analytically  !
 ! D37   D(3,7,8,9)             -0.0042         calculate D2E/DX2 analytically  !
 ! D38   D(3,7,8,10)          -179.8548         calculate D2E/DX2 analytically  !
 ! D39   D(13,7,8,9)           179.9213         calculate D2E/DX2 analytically  !
 ! D40   D(13,7,8,10)            0.0707         calculate D2E/DX2 analytically  !
 ! D41   D(3,7,13,12)          179.8867         calculate D2E/DX2 analytically  !
 ! D42   D(3,7,13,16)           -0.1382         calculate D2E/DX2 analytically  !
 ! D43   D(8,7,13,12)           -0.0064         calculate D2E/DX2 analytically  !
 ! D44   D(8,7,13,16)          179.9687         calculate D2E/DX2 analytically  !
 ! D45   D(7,8,9,6)              0.0088         calculate D2E/DX2 analytically  !
 ! D46   D(7,8,9,22)          -179.8295         calculate D2E/DX2 analytically  !
 ! D47   D(10,8,9,6)           179.8733         calculate D2E/DX2 analytically  !
 ! D48   D(10,8,9,22)            0.035          calculate D2E/DX2 analytically  !
 ! D49   D(7,8,10,11)           -0.0825         calculate D2E/DX2 analytically  !
 ! D50   D(7,8,10,23)          179.8716         calculate D2E/DX2 analytically  !
 ! D51   D(9,8,10,11)         -179.9198         calculate D2E/DX2 analytically  !
 ! D52   D(9,8,10,23)            0.0343         calculate D2E/DX2 analytically  !
 ! D53   D(6,9,22,29)            0.0515         calculate D2E/DX2 analytically  !
 ! D54   D(6,9,22,30)         -179.887          calculate D2E/DX2 analytically  !
 ! D55   D(8,9,22,29)          179.8624         calculate D2E/DX2 analytically  !
 ! D56   D(8,9,22,30)           -0.0761         calculate D2E/DX2 analytically  !
 ! D57   D(8,10,11,12)           0.0298         calculate D2E/DX2 analytically  !
 ! D58   D(8,10,11,24)        -179.9924         calculate D2E/DX2 analytically  !
 ! D59   D(23,10,11,12)       -179.9155         calculate D2E/DX2 analytically  !
 ! D60   D(23,10,11,24)          0.0623         calculate D2E/DX2 analytically  !
 ! D61   D(8,10,23,30)          -0.0578         calculate D2E/DX2 analytically  !
 ! D62   D(8,10,23,34)         179.9938         calculate D2E/DX2 analytically  !
 ! D63   D(11,10,23,30)        179.8874         calculate D2E/DX2 analytically  !
 ! D64   D(11,10,23,34)         -0.061          calculate D2E/DX2 analytically  !
 ! D65   D(10,11,12,13)          0.0253         calculate D2E/DX2 analytically  !
 ! D66   D(10,11,12,14)       -179.9933         calculate D2E/DX2 analytically  !
 ! D67   D(24,11,12,13)       -179.953          calculate D2E/DX2 analytically  !
 ! D68   D(24,11,12,14)          0.0283         calculate D2E/DX2 analytically  !
 ! D69   D(11,12,13,7)          -0.0376         calculate D2E/DX2 analytically  !
 ! D70   D(11,12,13,16)        179.9858         calculate D2E/DX2 analytically  !
 ! D71   D(14,12,13,7)         179.9807         calculate D2E/DX2 analytically  !
 ! D72   D(14,12,13,16)          0.0041         calculate D2E/DX2 analytically  !
 ! D73   D(11,12,14,15)       -179.9836         calculate D2E/DX2 analytically  !
 ! D74   D(11,12,14,25)          0.0175         calculate D2E/DX2 analytically  !
 ! D75   D(13,12,14,15)         -0.0013         calculate D2E/DX2 analytically  !
 ! D76   D(13,12,14,25)        179.9998         calculate D2E/DX2 analytically  !
 ! D77   D(7,13,16,17)        -179.9806         calculate D2E/DX2 analytically  !
 ! D78   D(7,13,16,26)           0.0243         calculate D2E/DX2 analytically  !
 ! D79   D(12,13,16,17)         -0.0057         calculate D2E/DX2 analytically  !
 ! D80   D(12,13,16,26)        179.9992         calculate D2E/DX2 analytically  !
 ! D81   D(12,14,15,17)          0.0            calculate D2E/DX2 analytically  !
 ! D82   D(12,14,15,28)        179.9985         calculate D2E/DX2 analytically  !
 ! D83   D(25,14,15,17)        179.9989         calculate D2E/DX2 analytically  !
 ! D84   D(25,14,15,28)         -0.0026         calculate D2E/DX2 analytically  !
 ! D85   D(14,15,17,16)         -0.0015         calculate D2E/DX2 analytically  !
 ! D86   D(14,15,17,27)        179.9983         calculate D2E/DX2 analytically  !
 ! D87   D(28,15,17,16)        180.0            calculate D2E/DX2 analytically  !
 ! D88   D(28,15,17,27)         -0.0002         calculate D2E/DX2 analytically  !
 ! D89   D(13,16,17,15)          0.0045         calculate D2E/DX2 analytically  !
 ! D90   D(13,16,17,27)       -179.9953         calculate D2E/DX2 analytically  !
 ! D91   D(26,16,17,15)        179.9995         calculate D2E/DX2 analytically  !
 ! D92   D(26,16,17,27)         -0.0003         calculate D2E/DX2 analytically  !
 ! D93   D(5,21,29,22)          -0.0478         calculate D2E/DX2 analytically  !
 ! D94   D(5,21,29,32)         179.9749         calculate D2E/DX2 analytically  !
 ! D95   D(31,21,29,22)        179.9831         calculate D2E/DX2 analytically  !
 ! D96   D(31,21,29,32)          0.0058         calculate D2E/DX2 analytically  !
 ! D97   D(9,22,29,21)          -0.0075         calculate D2E/DX2 analytically  !
 ! D98   D(9,22,29,32)         179.9695         calculate D2E/DX2 analytically  !
 ! D99   D(30,22,29,21)        179.9164         calculate D2E/DX2 analytically  !
 ! D100  D(30,22,29,32)         -0.1065         calculate D2E/DX2 analytically  !
 ! D101  D(9,22,30,23)           0.0496         calculate D2E/DX2 analytically  !
 ! D102  D(9,22,30,33)        -179.993          calculate D2E/DX2 analytically  !
 ! D103  D(29,22,30,23)       -179.8744         calculate D2E/DX2 analytically  !
 ! D104  D(29,22,30,33)          0.0831         calculate D2E/DX2 analytically  !
 ! D105  D(10,23,30,22)          0.0155         calculate D2E/DX2 analytically  !
 ! D106  D(10,23,30,33)       -179.9423         calculate D2E/DX2 analytically  !
 ! D107  D(34,23,30,22)        179.9638         calculate D2E/DX2 analytically  !
 ! D108  D(34,23,30,33)          0.006          calculate D2E/DX2 analytically  !
 --------------------------------------------------------------------------------
 Trust Radius=3.00D-01 FncErr=1.00D-07 GrdErr=1.00D-06 EigMax=2.50D+02 EigMin=1.00D-04
 Number of steps in this run=    210 maximum allowed number of steps=    210.
 Search for a saddle point of order  1.
 GradGradGradGradGradGradGradGradGradGradGradGradGradGradGradGradGradGrad

                          Input orientation:                          
 ---------------------------------------------------------------------
 Center     Atomic      Atomic             Coordinates (Angstroms)
 Number     Number       Type             X           Y           Z
 ---------------------------------------------------------------------
      1          6           0       -2.160600   -3.232300   -0.001700
      2          6           0       -0.807200   -2.778800   -0.000100
      3          6           0       -0.560300   -1.417800    0.002400
      4          6           0       -3.262200   -2.386400   -0.001700
      5          6           0       -3.057300   -0.978900    0.000300
      6          6           0       -1.722500   -0.593500    0.002900
      7          6           0        0.605600   -0.466600    0.002700
      8          6           0        0.046800    0.820500    0.003300
      9          6           0       -1.354900    0.749200    0.003300
     10          6           0        0.700400    2.059900    0.001000
     11          6           0        2.096700    1.985500   -0.000500
     12          6           0        2.747500    0.726400   -0.000300
     13          6           0        2.013900   -0.536800    0.000900
     14          6           0        4.173800    0.667800   -0.001700
     15          6           0        4.845800   -0.525400   -0.001900
     16          6           0        2.756200   -1.751700    0.000700
     17          6           0        4.126900   -1.749200   -0.000700
     18          1           0        0.252670   -3.795940    0.165240
     19          1           0       -2.332100   -4.303300   -0.003200
     20          1           0       -4.262600   -2.806100   -0.003500
     21          6           0       -4.003800    0.112900   -0.001500
     22          6           0       -2.219900    1.818000    0.000500
     23          6           0       -0.181700    3.215700   -0.000500
     24          1           0        2.707900    2.882800   -0.002200
     25          1           0        4.725200    1.602500   -0.002600
     26          1           0        2.216900   -2.691100    0.001600
     27          1           0        4.670100   -2.687700   -0.000900
     28          1           0        5.929700   -0.540300   -0.003000
     29          6           0       -3.611900    1.442700   -0.001900
     30          6           0       -1.556500    3.109100   -0.000900
     31          1           0       -5.065000   -0.114700   -0.003100
     32          1           0       -4.377600    2.211700   -0.003700
     33          1           0       -2.150600    4.017200   -0.003000
     34          1           0        0.263000    4.205700   -0.002200
     35          1           0        0.991020   -4.246500    0.319310
 ---------------------------------------------------------------------
                    Distance matrix (angstroms):
                    1          2          3          4          5
     1  C    0.000000
     2  C    1.427360   0.000000
     3  C    2.419377   1.383216   0.000000
     4  C    1.388909   2.486163   2.870273   0.000000
     5  C    2.425260   2.881422   2.535280   1.422338   0.000000
     6  C    2.674924   2.369244   1.424844   2.363300   1.389328
     7  C    3.911646   2.709664   1.504694   4.318047   3.698553
     8  C    4.614957   3.699228   2.319172   4.608005   3.587936
     9  C    4.062206   3.570262   2.308090   3.670123   2.425800
    10  C    6.016038   5.068124   3.699157   5.955820   4.832661
    11  C    6.734244   5.579533   4.317651   6.916019   5.945703
    12  C    6.305613   4.992226   3.941972   6.768014   6.050103
    13  C    4.969122   3.603494   2.720785   5.590909   5.090434
    14  C    7.438777   6.057179   5.173147   8.038796   7.416228
    15  C    7.511122   6.085575   5.479262   8.318833   7.916101
    16  C    5.134891   3.708471   3.333266   6.051776   5.864640
    17  C    6.460050   5.040379   4.698902   7.416524   7.225378
    18  H    2.483834   1.478254   2.518529   3.790644   4.349577
    19  H    1.084645   2.156254   3.386062   2.130632   3.402582
    20  H    2.144774   3.455510   3.954041   1.084874   2.188932
    21  C    3.819391   4.310474   3.768388   2.607004   1.444954
    22  C    5.050649   4.808980   3.636575   4.331671   2.919570
    23  C    6.744831   6.027046   4.648943   6.393200   5.085641
    24  H    7.816440   6.664056   5.401510   7.962824   6.939039
    25  H    8.413652   7.057141   6.087590   8.928039   8.199448
    26  H    4.410829   3.025372   3.055181   5.487567   5.545162
    27  H    6.852376   5.478058   5.382355   7.938020   7.914083
    28  H    8.526419   7.099064   6.549056   9.375453   8.997697
    29  C    4.895089   5.068275   4.182672   3.845035   2.484297
    30  C    6.370109   5.935387   4.635218   5.754123   4.354784
    31  H    4.260865   5.022579   4.689395   2.900123   2.185798
    32  H    5.878114   6.136193   5.267361   4.731453   3.452989
    33  H    7.249507   6.927507   5.662889   6.499365   5.077709
    34  H    7.822895   7.066015   5.683449   7.475481   6.156661
    35  H    3.326313   2.343024   3.241692   4.653268   5.212281
                    6          7          8          9         10
     6  C    0.000000
     7  C    2.331556   0.000000
     8  C    2.264910   1.403169   0.000000
     9  C    1.392111   2.306888   1.403512   0.000000
    10  C    3.593185   2.528279   1.401182   2.437662   0.000000
    11  C    4.608421   2.869875   2.357823   3.666333   1.398282
    12  C    4.660799   2.451733   2.702341   4.102465   2.443121
    13  C    3.736831   1.410050   2.389927   3.605914   2.910006
    14  C    6.029698   3.744187   4.129827   5.529301   3.741986
    15  C    6.568655   4.240610   4.984162   6.330349   4.885502
    16  C    4.626033   2.505308   3.735916   4.812032   4.330659
    17  C    5.962477   3.747616   4.821887   6.024297   5.123490
    18  H    3.766069   3.351937   4.623865   4.823775   5.875228
    19  H    3.759557   4.832223   5.649118   5.146136   7.048857
    20  H    3.368642   5.401173   5.632335   4.592921   6.950492
    21  C    2.388169   4.645687   4.111944   2.724256   5.091200
    22  C    2.462264   3.633573   2.476478   1.374979   2.930302
    23  C    4.109024   3.765526   2.406078   2.731306   1.453952
    24  H    5.631441   3.954513   3.366685   4.588968   2.169615
    25  H    6.811408   4.610022   4.743310   6.139688   4.050709
    26  H    4.463048   2.746760   4.128035   4.959176   4.987161
    27  H    6.726888   4.631788   5.803653   6.936348   6.188556
    28  H    7.652387   5.324613   6.038239   7.397854   5.840089
    29  C    2.777763   4.629552   3.711232   2.361148   4.356246
    30  C    3.706321   4.178555   2.794330   2.368499   2.488860
    31  H    3.376624   5.681511   5.196647   3.809358   6.161878
    32  H    3.862479   5.657350   4.637974   3.357927   5.080271
    33  H    4.630535   5.263187   3.879110   3.363481   3.458213
    34  H    5.193704   4.684846   3.392101   3.816415   2.189928
    35  H    4.561547   3.812668   5.163904   5.528130   6.321112
                   11         12         13         14         15
    11  C    0.000000
    12  C    1.417347   0.000000
    13  C    2.523659   1.460769   0.000000
    14  C    2.459813   1.427504   2.473102   0.000000
    15  C    3.723194   2.443331   2.831924   1.369420   0.000000
    16  C    3.794945   2.478115   1.423724   2.804207   2.422859
    17  C    4.250847   2.833962   2.436121   2.417455   1.419333
    18  H    6.070664   5.167508   3.708225   5.943745   5.641029
    19  H    7.691767   7.148442   5.751022   8.187709   8.111398
    20  H    7.962420   7.849845   6.674144   9.123641   9.389598
    21  C    6.381437   6.779118   6.052671   8.196405   8.872590
    22  C    4.319849   5.085927   4.844600   6.496335   7.444169
    23  C    2.589305   3.844064   4.347634   5.046006   6.266705
    24  H    1.085687   2.156764   3.489314   2.656142   4.023238
    25  H    2.656258   2.163066   3.453660   1.085222   2.131315
    26  H    4.678145   3.458446   2.163843   3.887374   3.406080
    27  H    5.334903   3.918223   3.417861   3.392005   2.169427
    28  H    4.590377   3.425045   3.915804   2.131359   1.084003
    29  C    5.734348   6.399614   5.963896   7.824167   8.683669
    30  C    3.822087   4.919520   5.102974   6.228666   7.361999
    31  H    7.463296   7.857647   7.091474   9.271879   9.919306
    32  H    6.478251   7.278267   6.957409   8.689653   9.620958
    33  H    4.708223   5.900911   6.171061   7.156572   8.341752
    34  H    2.879539   4.275310   5.055390   5.273622   6.586757
    35  H    6.337399   5.283664   3.861288   5.863743   5.367410
                   16         17         18         19         20
    16  C    0.000000
    17  C    1.370703   0.000000
    18  H    3.236302   4.384785   0.000000
    19  H    5.692229   6.945654   2.639474   0.000000
    20  H    7.097558   8.455812   4.625572   2.443039   0.000000
    21  C    7.012442   8.341205   5.781381   4.722013   2.930451
    22  C    6.124078   7.280576   6.136535   6.122329   5.055189
    23  C    5.771163   6.573756   7.027037   7.820460   7.274327
    24  H    4.634753   4.844480   7.117707   8.777336   8.997303
    25  H    3.889425   3.404682   7.012478   9.202389  10.010809
    26  H    1.083198   2.129620   2.259568   4.826242   6.480522
    27  H    2.130519   1.084365   4.557355   7.186165   8.933485
    28  H    3.396852   2.170606   6.546462   9.078409  10.441112
    29  C    7.124387   8.371216   6.512003   5.886799   4.298339
    30  C    6.498212   7.476905   7.140047   7.452868   6.504812
    31  H    7.990679   9.336092   6.469736   5.001311   2.808466
    32  H    8.160862   9.381645   7.586810   6.828565   5.019118
    33  H    7.573434   8.523989   8.176134   8.322479   7.142686
    34  H    6.458070   7.098631   8.003398   8.895933   8.345442
    35  H    3.072686   4.021524   0.878580   3.339216   5.457058
                   21         22         23         24         25
    21  C    0.000000
    22  C    2.467726   0.000000
    23  C    4.922989   2.471402   0.000000
    24  H    7.260803   5.041529   2.908713   0.000000
    25  H    8.855188   6.948443   5.165277   2.389282   0.000000
    26  H    6.823455   6.325913   6.375231   5.595485   4.972584
    27  H    9.114818   8.232462   7.641341   5.905989   4.290554
    28  H    9.954953   8.483960   7.173336   4.700809   2.458132
    29  C    1.386345   1.441707   3.861321   6.481802   8.338631
    30  C    3.868655   1.451565   1.378927   4.270401   6.459845
    31  H    1.085334   3.439467   5.910854   8.330845   9.939658
    32  H    2.131828   2.193328   4.314349   7.117211   9.123162
    33  H    4.321795   2.200294   2.125788   4.989177   7.287483
    34  H    5.912410   3.444693   1.085293   2.779856   5.166031
    35  H    6.637433   6.869484   7.560554   7.340161   6.946836
                   26         27         28         29         30
    26  H    0.000000
    27  H    2.453204   0.000000
    28  H    4.290786   2.489563   0.000000
    29  C    7.145854   9.254822   9.745482   0.000000
    30  C    6.919601   8.507258   8.328344   2.646046   0.000000
    31  H    7.724243  10.069385  11.002934   2.130022   4.764710
    32  H    8.217354  10.289072  10.668362   1.085201   2.960395
    33  H    8.004771   9.564394   9.276964   2.960312   1.085175
    34  H    7.168235   8.181778   7.391617   4.759099   2.124409
    35  H    2.005739   4.008494   6.183071   7.325097   7.790844
                   31         32         33         34         35
    31  H    0.000000
    32  H    2.425831   0.000000
    33  H    5.056315   2.866943   0.000000
    34  H    6.859551   5.050862   2.420950   0.000000
    35  H    7.338331   8.404449   8.846604   8.489586   0.000000
 Stoichiometry    C22H13(2)
 Framework group  C1[X(C22H13)]
 Deg. of freedom    99
 Full point group                 C1      NOp   1
 Largest Abelian subgroup         C1      NOp   1
 Largest concise Abelian subgroup C1      NOp   1
                         Standard orientation:                         
 ---------------------------------------------------------------------
 Center     Atomic      Atomic             Coordinates (Angstroms)
 Number     Number       Type             X           Y           Z
 ---------------------------------------------------------------------
      1          6           0        2.137203    3.222563   -0.015997
      2          6           0        0.788398    2.755580   -0.013177
      3          6           0        0.555099    1.392200   -0.005811
      4          6           0        3.247194    2.387712   -0.012577
      5          6           0        3.056357    0.978252   -0.005530
      6          6           0        1.725471    0.579554   -0.001951
      7          6           0       -0.601246    0.429413   -0.002424
      8          6           0       -0.029622   -0.852032    0.003027
      9          6           0        1.371296   -0.766739    0.003210
     10          6           0       -0.670814   -2.097898    0.005023
     11          6           0       -2.067787   -2.037451    0.002813
     12          6           0       -2.731126   -0.784920   -0.001766
     13          6           0       -2.010176    0.485539   -0.004923
     14          6           0       -4.157939   -0.740571   -0.003828
     15          6           0       -4.841820    0.445850   -0.008574
     16          6           0       -2.764569    1.692957   -0.009769
     17          6           0       -4.135175    1.676765   -0.011592
     18          1           0       -0.281633    3.762679    0.148134
     19          1           0        2.298002    4.295210   -0.021333
     20          1           0        4.243354    2.817371   -0.015587
     21          6           0        4.013712   -0.104041   -0.003066
     22          6           0        2.246925   -1.826851    0.004565
     23          6           0        0.222783   -3.244829    0.007999
     24          1           0       -2.669996   -2.940809    0.004179
     25          1           0       -4.699979   -1.680728   -0.001507
     26          1           0       -2.234676    2.637693   -0.012112
     27          1           0       -4.687718    2.609787   -0.015373
     28          1           0       -5.925814    0.449922   -0.010070
     29          6           0        3.635109   -1.437681    0.001241
     30          6           0        1.596450   -3.124508    0.007645
     31          1           0        5.072587    0.134137   -0.005158
     32          1           0        4.408450   -2.198998    0.002475
     33          1           0        2.199588   -4.026632    0.009031
     34          1           0       -0.212010   -4.239220    0.009755
     35          1           0       -1.024499    4.206399    0.300333
 ---------------------------------------------------------------------
 Rotational constants (GHZ):           0.5248024           0.2580490           0.1730040
 Standard basis: 6-311+G(d,p) (5D, 7F)
 There are   584 symmetry adapted cartesian basis functions of A   symmetry.
 There are   562 symmetry adapted basis functions of A   symmetry.
   562 basis functions,   896 primitive gaussians,   584 cartesian basis functions
    73 alpha electrons       72 beta electrons
       nuclear repulsion energy      1586.7904543624 Hartrees.
 NAtoms=   35 NActive=   35 NUniq=   35 SFac= 1.00D+00 NAtFMM=   60 NAOKFM=F Big=F
 Integral buffers will be    131072 words long.
 Raffenetti 2 integral format.
 Two-electron integral symmetry is turned on.
 One-electron integrals computed using PRISM.
 NBasis=   562 RedAO= T EigKep=  1.36D-06  NBF=   562
 NBsUse=   547 1.00D-06 EigRej=  7.52D-07 NBFU=   547
 ExpMin= 4.38D-02 ExpMax= 4.56D+03 ExpMxC= 6.82D+02 IAcc=2 IRadAn=         4 AccDes= 0.00D+00
 Harris functional with IExCor=  402 and IRadAn=       4 diagonalized for initial guess.
 HarFok:  IExCor=  402 AccDes= 0.00D+00 IRadAn=         4 IDoV= 1 UseB2=F ITyADJ=14
 ICtDFT=  3500011 ScaDFX=  1.000000  1.000000  1.000000  1.000000
 FoFCou: FMM=F IPFlag=           0 FMFlag=      100000 FMFlg1=           0
         NFxFlg=           0 DoJE=T BraDBF=F KetDBF=T FulRan=T
         wScrn=  0.000000 ICntrl=       500 IOpCl=  0 I1Cent=   200000004 NGrid=           0
         NMat0=    1 NMatS0=      1 NMatT0=    0 NMatD0=    1 NMtDS0=    0 NMtDT0=    0
 Petite list used in FoFCou.
 Initial guess <Sx>= 0.0000 <Sy>= 0.0000 <Sz>= 0.5000 <S**2>= 0.7500 S= 0.5000
 Requested convergence on RMS density matrix=1.00D-08 within 128 cycles.
 Requested convergence on MAX density matrix=1.00D-06.
 Requested convergence on             energy=1.00D-06.
 No special actions if energy rises.
 Restarting incremental Fock formation.
 SCF Done:  E(UB3LYP) =  -846.269824887     A.U. after   22 cycles
            NFock= 22  Conv=0.84D-08     -V/T= 2.0045
 <Sx>= 0.0000 <Sy>= 0.0000 <Sz>= 0.5000 <S**2>= 0.7625 S= 0.5062
 <L.S>=  0.00000000000    
 Annihilation of the first spin contaminant:
 S**2 before annihilation     0.7625,   after     0.7501
 DoSCS=F DFT=T ScalE2(SS,OS)=  1.000000  1.000000
 Range of M.O.s used for correlation:     1   547
 NBasis=   562 NAE=    73 NBE=    72 NFC=     0 NFV=     0
 NROrb=    547 NOA=    73 NOB=    72 NVA=   474 NVB=   475

 **** Warning!!: The largest alpha MO coefficient is  0.13220453D+03


 **** Warning!!: The largest beta MO coefficient is  0.13253923D+03


 **** Warning!!: The smallest beta delta epsilon is  0.97787423D-01

 Symmetrizing basis deriv contribution to polar:
 IMax=3 JMax=2 DiffMx= 0.00D+00
 G2DrvN: will do    36 centers at a time, making    1 passes.
 Calling FoFCou, ICntrl=  3107 FMM=F I1Cent=   0 AccDes= 0.00D+00.
 End of G2Drv F.D. properties file   721 does not exist.
 End of G2Drv F.D. properties file   722 does not exist.
 End of G2Drv F.D. properties file   788 does not exist.
          IDoAtm=11111111111111111111111111111111111
          Differentiating once with respect to nuclear coordinates.
 CalDSu exits because no D1Ps are significant.
          There are   108 degrees of freedom in the 1st order CPHF.  IDoFFX=6 NUNeed=     0.
    102 vectors produced by pass  0 Test12= 6.88D-14 1.00D-09 XBig12= 4.75D-01 1.38D-01.
 AX will form   102 AO Fock derivatives at one time.
    102 vectors produced by pass  1 Test12= 6.88D-14 1.00D-09 XBig12= 1.39D-01 5.36D-02.
    102 vectors produced by pass  2 Test12= 6.88D-14 1.00D-09 XBig12= 2.66D-03 6.57D-03.
    102 vectors produced by pass  3 Test12= 6.88D-14 1.00D-09 XBig12= 3.69D-05 8.47D-04.
    102 vectors produced by pass  4 Test12= 6.88D-14 1.00D-09 XBig12= 4.85D-07 5.49D-05.
    102 vectors produced by pass  5 Test12= 6.88D-14 1.00D-09 XBig12= 2.29D-09 3.56D-06.
     89 vectors produced by pass  6 Test12= 6.88D-14 1.00D-09 XBig12= 7.74D-12 1.56D-07.
     36 vectors produced by pass  7 Test12= 6.88D-14 1.00D-09 XBig12= 3.65D-14 9.16D-09.
     33 vectors produced by pass  8 Test12= 6.88D-14 1.00D-09 XBig12= 9.74D-14 2.25D-08.
     33 vectors produced by pass  9 Test12= 6.88D-14 1.00D-09 XBig12= 6.98D-12 2.69D-07.
      8 vectors produced by pass 10 Test12= 6.88D-14 1.00D-09 XBig12= 3.72D-13 4.84D-08.
      5 vectors produced by pass 11 Test12= 6.88D-14 1.00D-09 XBig12= 3.46D-13 3.11D-08.
      3 vectors produced by pass 12 Test12= 6.88D-14 1.00D-09 XBig12= 6.99D-14 2.18D-08.
      3 vectors produced by pass 13 Test12= 6.88D-14 1.00D-09 XBig12= 1.74D-13 2.65D-08.
      3 vectors produced by pass 14 Test12= 6.88D-14 1.00D-09 XBig12= 9.26D-14 2.36D-08.
      3 vectors produced by pass 15 Test12= 6.88D-14 1.00D-09 XBig12= 1.73D-13 2.20D-08.
      3 vectors produced by pass 16 Test12= 6.88D-14 1.00D-09 XBig12= 1.54D-13 2.37D-08.
      2 vectors produced by pass 17 Test12= 6.88D-14 1.00D-09 XBig12= 8.14D-14 1.74D-08.
      1 vectors produced by pass 18 Test12= 6.88D-14 1.00D-09 XBig12= 5.74D-16 1.58D-09.
 InvSVY:  IOpt=1 It=  1 EMax= 9.99D-16
 Solved reduced A of dimension   834 with   108 vectors.
 End of Minotr F.D. properties file   721 does not exist.
 End of Minotr F.D. properties file   722 does not exist.
 End of Minotr F.D. properties file   788 does not exist.

 **********************************************************************

            Population analysis using the SCF density.

 **********************************************************************

 Orbital symmetries:
 Alpha Orbitals:
       Occupied  (A) (A) (A) (A) (A) (A) (A) (A) (A) (A) (A) (A)
                 (A) (A) (A) (A) (A) (A) (A) (A) (A) (A) (A) (A)
                 (A) (A) (A) (A) (A) (A) (A) (A) (A) (A) (A) (A)
                 (A) (A) (A) (A) (A) (A) (A) (A) (A) (A) (A) (A)
                 (A) (A) (A) (A) (A) (A) (A) (A) (A) (A) (A) (A)
                 (A) (A) (A) (A) (A) (A) (A) (A) (A) (A) (A) (A)
                 (A)
       Virtual   (A) (A) (A) (A) (A) (A) (A) (A) (A) (A) (A) (A)
                 (A) (A) (A) (A) (A) (A) (A) (A) (A) (A) (A) (A)
                 (A) (A) (A) (A) (A) (A) (A) (A) (A) (A) (A) (A)
                 (A) (A) (A) (A) (A) (A) (A) (A) (A) (A) (A) (A)
                 (A) (A) (A) (A) (A) (A) (A) (A) (A) (A) (A) (A)
                 (A) (A) (A) (A) (A) (A) (A) (A) (A) (A) (A) (A)
                 (A) (A) (A) (A) (A) (A) (A) (A) (A) (A) (A) (A)
                 (A) (A) (A) (A) (A) (A) (A) (A) (A) (A) (A) (A)
                 (A) (A) (A) (A) (A) (A) (A) (A) (A) (A) (A) (A)
                 (A) (A) (A) (A) (A) (A) (A) (A) (A) (A) (A) (A)
                 (A) (A) (A) (A) (A) (A) (A) (A) (A) (A) (A) (A)
                 (A) (A) (A) (A) (A) (A) (A) (A) (A) (A) (A) (A)
                 (A) (A) (A) (A) (A) (A) (A) (A) (A) (A) (A) (A)
                 (A) (A) (A) (A) (A) (A) (A) (A) (A) (A) (A) (A)
                 (A) (A) (A) (A) (A) (A) (A) (A) (A) (A) (A) (A)
                 (A) (A) (A) (A) (A) (A) (A) (A) (A) (A) (A) (A)
                 (A) (A) (A) (A) (A) (A) (A) (A) (A) (A) (A) (A)
                 (A) (A) (A) (A) (A) (A) (A) (A) (A) (A) (A) (A)
                 (A) (A) (A) (A) (A) (A) (A) (A) (A) (A) (A) (A)
                 (A) (A) (A) (A) (A) (A) (A) (A) (A) (A) (A) (A)
                 (A) (A) (A) (A) (A) (A) (A) (A) (A) (A) (A) (A)
                 (A) (A) (A) (A) (A) (A) (A) (A) (A) (A) (A) (A)
                 (A) (A) (A) (A) (A) (A) (A) (A) (A) (A) (A) (A)
                 (A) (A) (A) (A) (A) (A) (A) (A) (A) (A) (A) (A)
                 (A) (A) (A) (A) (A) (A) (A) (A) (A) (A) (A) (A)
                 (A) (A) (A) (A) (A) (A) (A) (A) (A) (A) (A) (A)
                 (A) (A) (A) (A) (A) (A) (A) (A) (A) (A) (A) (A)
                 (A) (A) (A) (A) (A) (A) (A) (A) (A) (A) (A) (A)
                 (A) (A) (A) (A) (A) (A) (A) (A) (A) (A) (A) (A)
                 (A) (A) (A) (A) (A) (A) (A) (A) (A) (A) (A) (A)
                 (A) (A) (A) (A) (A) (A) (A) (A) (A) (A) (A) (A)
                 (A) (A) (A) (A) (A) (A) (A) (A) (A) (A) (A) (A)
                 (A) (A) (A) (A) (A) (A) (A) (A) (A) (A) (A) (A)
                 (A) (A) (A) (A) (A) (A) (A) (A) (A) (A) (A) (A)
                 (A) (A) (A) (A) (A) (A) (A) (A) (A) (A) (A) (A)
                 (A) (A) (A) (A) (A) (A) (A) (A) (A) (A) (A) (A)
                 (A) (A) (A) (A) (A) (A) (A) (A) (A) (A) (A) (A)
                 (A) (A) (A) (A) (A) (A) (A) (A) (A) (A) (A) (A)
                 (A) (A) (A) (A) (A) (A) (A) (A) (A) (A) (A) (A)
                 (A) (A) (A) (A) (A) (A)
 Beta  Orbitals:
       Occupied  (A) (A) (A) (A) (A) (A) (A) (A) (A) (A) (A) (A)
                 (A) (A) (A) (A) (A) (A) (A) (A) (A) (A) (A) (A)
                 (A) (A) (A) (A) (A) (A) (A) (A) (A) (A) (A) (A)
                 (A) (A) (A) (A) (A) (A) (A) (A) (A) (A) (A) (A)
                 (A) (A) (A) (A) (A) (A) (A) (A) (A) (A) (A) (A)
                 (A) (A) (A) (A) (A) (A) (A) (A) (A) (A) (A) (A)
       Virtual   (A) (A) (A) (A) (A) (A) (A) (A) (A) (A) (A) (A)
                 (A) (A) (A) (A) (A) (A) (A) (A) (A) (A) (A) (A)
                 (A) (A) (A) (A) (A) (A) (A) (A) (A) (A) (A) (A)
                 (A) (A) (A) (A) (A) (A) (A) (A) (A) (A) (A) (A)
                 (A) (A) (A) (A) (A) (A) (A) (A) (A) (A) (A) (A)
                 (A) (A) (A) (A) (A) (A) (A) (A) (A) (A) (A) (A)
                 (A) (A) (A) (A) (A) (A) (A) (A) (A) (A) (A) (A)
                 (A) (A) (A) (A) (A) (A) (A) (A) (A) (A) (A) (A)
                 (A) (A) (A) (A) (A) (A) (A) (A) (A) (A) (A) (A)
                 (A) (A) (A) (A) (A) (A) (A) (A) (A) (A) (A) (A)
                 (A) (A) (A) (A) (A) (A) (A) (A) (A) (A) (A) (A)
                 (A) (A) (A) (A) (A) (A) (A) (A) (A) (A) (A) (A)
                 (A) (A) (A) (A) (A) (A) (A) (A) (A) (A) (A) (A)
                 (A) (A) (A) (A) (A) (A) (A) (A) (A) (A) (A) (A)
                 (A) (A) (A) (A) (A) (A) (A) (A) (A) (A) (A) (A)
                 (A) (A) (A) (A) (A) (A) (A) (A) (A) (A) (A) (A)
                 (A) (A) (A) (A) (A) (A) (A) (A) (A) (A) (A) (A)
                 (A) (A) (A) (A) (A) (A) (A) (A) (A) (A) (A) (A)
                 (A) (A) (A) (A) (A) (A) (A) (A) (A) (A) (A) (A)
                 (A) (A) (A) (A) (A) (A) (A) (A) (A) (A) (A) (A)
                 (A) (A) (A) (A) (A) (A) (A) (A) (A) (A) (A) (A)
                 (A) (A) (A) (A) (A) (A) (A) (A) (A) (A) (A) (A)
                 (A) (A) (A) (A) (A) (A) (A) (A) (A) (A) (A) (A)
                 (A) (A) (A) (A) (A) (A) (A) (A) (A) (A) (A) (A)
                 (A) (A) (A) (A) (A) (A) (A) (A) (A) (A) (A) (A)
                 (A) (A) (A) (A) (A) (A) (A) (A) (A) (A) (A) (A)
                 (A) (A) (A) (A) (A) (A) (A) (A) (A) (A) (A) (A)
                 (A) (A) (A) (A) (A) (A) (A) (A) (A) (A) (A) (A)
                 (A) (A) (A) (A) (A) (A) (A) (A) (A) (A) (A) (A)
                 (A) (A) (A) (A) (A) (A) (A) (A) (A) (A) (A) (A)
                 (A) (A) (A) (A) (A) (A) (A) (A) (A) (A) (A) (A)
                 (A) (A) (A) (A) (A) (A) (A) (A) (A) (A) (A) (A)
                 (A) (A) (A) (A) (A) (A) (A) (A) (A) (A) (A) (A)
                 (A) (A) (A) (A) (A) (A) (A) (A) (A) (A) (A) (A)
                 (A) (A) (A) (A) (A) (A) (A) (A) (A) (A) (A) (A)
                 (A) (A) (A) (A) (A) (A) (A) (A) (A) (A) (A) (A)
                 (A) (A) (A) (A) (A) (A) (A) (A) (A) (A) (A) (A)
                 (A) (A) (A) (A) (A) (A) (A) (A) (A) (A) (A) (A)
                 (A) (A) (A) (A) (A) (A) (A) (A) (A) (A) (A) (A)
                 (A) (A) (A) (A) (A) (A) (A)
 The electronic state is 2-A.
 Alpha  occ. eigenvalues --  -10.21845 -10.20335 -10.20090 -10.19891 -10.19831
 Alpha  occ. eigenvalues --  -10.19566 -10.19515 -10.19491 -10.19470 -10.19439
 Alpha  occ. eigenvalues --  -10.19415 -10.19415 -10.19354 -10.19346 -10.19274
 Alpha  occ. eigenvalues --  -10.18417 -10.18349 -10.18125 -10.17969 -10.17569
 Alpha  occ. eigenvalues --  -10.17311 -10.17070  -0.92315  -0.88059  -0.86109
 Alpha  occ. eigenvalues --   -0.84060  -0.81861  -0.79945  -0.77344  -0.76267
 Alpha  occ. eigenvalues --   -0.73692  -0.73074  -0.71677  -0.66469  -0.64586
 Alpha  occ. eigenvalues --   -0.63256  -0.62413  -0.60292  -0.58714  -0.56622
 Alpha  occ. eigenvalues --   -0.53623  -0.53204  -0.51802  -0.50360  -0.49194
 Alpha  occ. eigenvalues --   -0.48220  -0.47485  -0.45381  -0.44729  -0.44131
 Alpha  occ. eigenvalues --   -0.43662  -0.43604  -0.43233  -0.42277  -0.41161
 Alpha  occ. eigenvalues --   -0.40972  -0.39962  -0.39504  -0.37418  -0.37268
 Alpha  occ. eigenvalues --   -0.36653  -0.35002  -0.34703  -0.34111  -0.33668
 Alpha  occ. eigenvalues --   -0.32326  -0.30259  -0.28002  -0.26987  -0.24300
 Alpha  occ. eigenvalues --   -0.23659  -0.23311  -0.21175
 Alpha virt. eigenvalues --   -0.09697  -0.05376  -0.03066  -0.02584   0.00260
 Alpha virt. eigenvalues --    0.00637   0.00744   0.01182   0.01384   0.01812
 Alpha virt. eigenvalues --    0.02440   0.03125   0.03523   0.03740   0.04079
 Alpha virt. eigenvalues --    0.04353   0.05282   0.05366   0.05841   0.05982
 Alpha virt. eigenvalues --    0.06642   0.06948   0.07396   0.07768   0.08305
 Alpha virt. eigenvalues --    0.08526   0.08719   0.09480   0.09861   0.10791
 Alpha virt. eigenvalues --    0.10841   0.11011   0.11475   0.11578   0.12479
 Alpha virt. eigenvalues --    0.12586   0.13243   0.13478   0.14049   0.14283
 Alpha virt. eigenvalues --    0.14637   0.14987   0.15313   0.15400   0.15710
 Alpha virt. eigenvalues --    0.15909   0.16601   0.17209   0.17478   0.17583
 Alpha virt. eigenvalues --    0.17794   0.17933   0.18612   0.18757   0.18898
 Alpha virt. eigenvalues --    0.19064   0.19157   0.19769   0.20216   0.20297
 Alpha virt. eigenvalues --    0.20847   0.21007   0.21139   0.21325   0.21396
 Alpha virt. eigenvalues --    0.21871   0.22111   0.22460   0.22769   0.23047
 Alpha virt. eigenvalues --    0.23178   0.23320   0.24014   0.24097   0.24396
 Alpha virt. eigenvalues --    0.24792   0.25058   0.25390   0.25727   0.26371
 Alpha virt. eigenvalues --    0.26602   0.26874   0.26976   0.27321   0.27897
 Alpha virt. eigenvalues --    0.28056   0.28207   0.28695   0.29083   0.29344
 Alpha virt. eigenvalues --    0.29673   0.30510   0.31035   0.31179   0.31917
 Alpha virt. eigenvalues --    0.32515   0.32699   0.33419   0.33611   0.34014
 Alpha virt. eigenvalues --    0.35064   0.35667   0.36433   0.36957   0.37766
 Alpha virt. eigenvalues --    0.38819   0.39348   0.40216   0.40485   0.41792
 Alpha virt. eigenvalues --    0.43002   0.43293   0.44319   0.45781   0.46733
 Alpha virt. eigenvalues --    0.47773   0.48205   0.48361   0.49172   0.49783
 Alpha virt. eigenvalues --    0.51157   0.52141   0.52215   0.52310   0.53309
 Alpha virt. eigenvalues --    0.53501   0.53935   0.54219   0.54739   0.55379
 Alpha virt. eigenvalues --    0.55557   0.56115   0.56476   0.56678   0.57030
 Alpha virt. eigenvalues --    0.57691   0.58045   0.58282   0.59175   0.59570
 Alpha virt. eigenvalues --    0.59824   0.60432   0.61184   0.61335   0.62356
 Alpha virt. eigenvalues --    0.62571   0.63730   0.63789   0.64274   0.64366
 Alpha virt. eigenvalues --    0.64619   0.65872   0.65994   0.66513   0.66763
 Alpha virt. eigenvalues --    0.67162   0.67561   0.68438   0.69546   0.70112
 Alpha virt. eigenvalues --    0.70464   0.70590   0.70736   0.71182   0.71788
 Alpha virt. eigenvalues --    0.72165   0.72403   0.72726   0.74178   0.74976
 Alpha virt. eigenvalues --    0.75671   0.76371   0.76747   0.77085   0.78029
 Alpha virt. eigenvalues --    0.78429   0.79279   0.80939   0.81740   0.82302
 Alpha virt. eigenvalues --    0.82666   0.85164   0.85838   0.87013   0.87354
 Alpha virt. eigenvalues --    0.88348   0.89463   0.89938   0.91231   0.91492
 Alpha virt. eigenvalues --    0.92286   0.92553   0.93058   0.93761   0.94831
 Alpha virt. eigenvalues --    0.95062   0.95271   0.95575   0.95702   0.96034
 Alpha virt. eigenvalues --    0.96655   0.97909   0.98243   0.98954   0.99545
 Alpha virt. eigenvalues --    1.00039   1.00546   1.01340   1.01716   1.03039
 Alpha virt. eigenvalues --    1.03549   1.03811   1.04877   1.05241   1.05754
 Alpha virt. eigenvalues --    1.06547   1.07034   1.07710   1.07984   1.09445
 Alpha virt. eigenvalues --    1.09800   1.10958   1.12727   1.13714   1.14521
 Alpha virt. eigenvalues --    1.15097   1.15211   1.15623   1.15827   1.18194
 Alpha virt. eigenvalues --    1.19923   1.20247   1.22750   1.25221   1.28047
 Alpha virt. eigenvalues --    1.29468   1.32202   1.34692   1.35605   1.36557
 Alpha virt. eigenvalues --    1.38416   1.40009   1.41061   1.41995   1.45053
 Alpha virt. eigenvalues --    1.45191   1.46767   1.47016   1.47744   1.48244
 Alpha virt. eigenvalues --    1.48476   1.49221   1.50074   1.51017   1.51346
 Alpha virt. eigenvalues --    1.51470   1.53354   1.54754   1.55330   1.56330
 Alpha virt. eigenvalues --    1.56945   1.57148   1.57301   1.58127   1.58648
 Alpha virt. eigenvalues --    1.62301   1.63622   1.64239   1.65984   1.66332
 Alpha virt. eigenvalues --    1.67579   1.68269   1.69106   1.69808   1.71306
 Alpha virt. eigenvalues --    1.72701   1.72955   1.73782   1.75372   1.75674
 Alpha virt. eigenvalues --    1.75816   1.76715   1.77697   1.78996   1.79975
 Alpha virt. eigenvalues --    1.80216   1.81355   1.81427   1.83288   1.83657
 Alpha virt. eigenvalues --    1.83985   1.85389   1.85815   1.86389   1.88028
 Alpha virt. eigenvalues --    1.88523   1.88780   1.90019   1.90137   1.91271
 Alpha virt. eigenvalues --    1.92127   1.93157   1.93419   1.94210   1.95888
 Alpha virt. eigenvalues --    1.96251   1.96729   1.97609   1.98592   1.99230
 Alpha virt. eigenvalues --    2.00856   2.01217   2.02300   2.03278   2.03413
 Alpha virt. eigenvalues --    2.04538   2.05952   2.06727   2.07237   2.09424
 Alpha virt. eigenvalues --    2.10904   2.11743   2.12265   2.13730   2.13976
 Alpha virt. eigenvalues --    2.15571   2.18453   2.18895   2.20455   2.22343
 Alpha virt. eigenvalues --    2.23130   2.23592   2.25953   2.26578   2.27533
 Alpha virt. eigenvalues --    2.29477   2.33427   2.34763   2.36596   2.39679
 Alpha virt. eigenvalues --    2.41911   2.42097   2.43305   2.43657   2.44270
 Alpha virt. eigenvalues --    2.44941   2.45190   2.46785   2.49940   2.54780
 Alpha virt. eigenvalues --    2.56611   2.56896   2.58336   2.59786   2.61820
 Alpha virt. eigenvalues --    2.63353   2.64731   2.65381   2.65944   2.66447
 Alpha virt. eigenvalues --    2.67929   2.69381   2.70049   2.70981   2.71481
 Alpha virt. eigenvalues --    2.72055   2.72716   2.73705   2.74155   2.74387
 Alpha virt. eigenvalues --    2.74822   2.75195   2.75615   2.75998   2.76496
 Alpha virt. eigenvalues --    2.76941   2.78460   2.78797   2.79093   2.79775
 Alpha virt. eigenvalues --    2.81262   2.82083   2.83066   2.83892   2.84516
 Alpha virt. eigenvalues --    2.85462   2.85980   2.87668   2.88947   2.89755
 Alpha virt. eigenvalues --    2.89855   2.91784   2.92790   2.93419   2.93844
 Alpha virt. eigenvalues --    2.99243   2.99486   3.00773   3.04202   3.06586
 Alpha virt. eigenvalues --    3.09329   3.11920   3.13011   3.13259   3.18985
 Alpha virt. eigenvalues --    3.20409   3.21202   3.22993   3.24914   3.27962
 Alpha virt. eigenvalues --    3.32982   3.33889   3.35643   3.38283   3.38904
 Alpha virt. eigenvalues --    3.42260   3.42830   3.44389   3.45479   3.46331
 Alpha virt. eigenvalues --    3.46860   3.49397   3.50746   3.53897   3.55096
 Alpha virt. eigenvalues --    3.58101   3.59223   3.62702   3.63982   3.69052
 Alpha virt. eigenvalues --    3.74590   3.81438   3.82695   3.84989   3.95857
 Alpha virt. eigenvalues --    4.02936   4.03871   4.06026   4.06319   4.06694
 Alpha virt. eigenvalues --    4.10089   4.19916   4.22423   4.28009   4.35042
 Alpha virt. eigenvalues --    4.53490   4.76026   4.77363   4.78627   4.82011
 Alpha virt. eigenvalues --    4.85231   4.87938  23.37547  23.62600  23.73407
 Alpha virt. eigenvalues --   23.80900  23.84556  23.86556  23.87992  23.92497
 Alpha virt. eigenvalues --   23.94930  23.97954  23.98735  24.01788  24.06603
 Alpha virt. eigenvalues --   24.08089  24.08885  24.11493  24.12516  24.13542
 Alpha virt. eigenvalues --   24.13671  24.14834  24.19956  24.20833
  Beta  occ. eigenvalues --  -10.20591 -10.20345 -10.20096 -10.19882 -10.19827
  Beta  occ. eigenvalues --  -10.19561 -10.19473 -10.19467 -10.19458 -10.19431
  Beta  occ. eigenvalues --  -10.19413 -10.19403 -10.19359 -10.19352 -10.19289
  Beta  occ. eigenvalues --  -10.18421 -10.18355 -10.18121 -10.17949 -10.17475
  Beta  occ. eigenvalues --  -10.17321 -10.17065  -0.92204  -0.87989  -0.85877
  Beta  occ. eigenvalues --   -0.83994  -0.81692  -0.79753  -0.77296  -0.75914
  Beta  occ. eigenvalues --   -0.73352  -0.72965  -0.71632  -0.66237  -0.64404
  Beta  occ. eigenvalues --   -0.62970  -0.62280  -0.60137  -0.58624  -0.56491
  Beta  occ. eigenvalues --   -0.53360  -0.52463  -0.51551  -0.49534  -0.49097
  Beta  occ. eigenvalues --   -0.47976  -0.46601  -0.45087  -0.44535  -0.43820
  Beta  occ. eigenvalues --   -0.43595  -0.43517  -0.42606  -0.41984  -0.40967
  Beta  occ. eigenvalues --   -0.40672  -0.39766  -0.39485  -0.37228  -0.37129
  Beta  occ. eigenvalues --   -0.36249  -0.34945  -0.34668  -0.34055  -0.33523
  Beta  occ. eigenvalues --   -0.32299  -0.30057  -0.27993  -0.26771  -0.23637
  Beta  occ. eigenvalues --   -0.23242  -0.21103
  Beta virt. eigenvalues --   -0.11324  -0.09528  -0.05162  -0.02943  -0.02508
  Beta virt. eigenvalues --    0.00266   0.00641   0.00809   0.01225   0.01391
  Beta virt. eigenvalues --    0.01825   0.02483   0.03138   0.03547   0.03769
  Beta virt. eigenvalues --    0.04153   0.04418   0.05386   0.05434   0.05894
  Beta virt. eigenvalues --    0.06014   0.06649   0.06993   0.07475   0.07871
  Beta virt. eigenvalues --    0.08413   0.08666   0.08758   0.09528   0.09853
  Beta virt. eigenvalues --    0.10815   0.10988   0.11045   0.11505   0.11617
  Beta virt. eigenvalues --    0.12590   0.12743   0.13323   0.13482   0.14060
  Beta virt. eigenvalues --    0.14408   0.14695   0.15066   0.15385   0.15507
  Beta virt. eigenvalues --    0.15748   0.15921   0.16639   0.17386   0.17555
  Beta virt. eigenvalues --    0.17606   0.17794   0.17979   0.18641   0.18783
  Beta virt. eigenvalues --    0.18938   0.19088   0.19186   0.19878   0.20257
  Beta virt. eigenvalues --    0.20400   0.20975   0.21048   0.21294   0.21378
  Beta virt. eigenvalues --    0.21544   0.21930   0.22125   0.22505   0.22822
  Beta virt. eigenvalues --    0.23078   0.23220   0.23364   0.24066   0.24194
  Beta virt. eigenvalues --    0.24424   0.24833   0.25056   0.25433   0.25812
  Beta virt. eigenvalues --    0.26419   0.26897   0.26966   0.27339   0.27482
  Beta virt. eigenvalues --    0.27980   0.28202   0.28333   0.28795   0.29088
  Beta virt. eigenvalues --    0.29387   0.29862   0.30690   0.31091   0.31443
  Beta virt. eigenvalues --    0.31940   0.32572   0.32742   0.33564   0.33776
  Beta virt. eigenvalues --    0.34223   0.35140   0.35712   0.36512   0.37162
  Beta virt. eigenvalues --    0.37966   0.38893   0.39460   0.40241   0.40547
  Beta virt. eigenvalues --    0.41843   0.43091   0.43368   0.44476   0.45861
  Beta virt. eigenvalues --    0.46827   0.48057   0.48344   0.48933   0.49334
  Beta virt. eigenvalues --    0.49998   0.51262   0.52176   0.52262   0.52388
  Beta virt. eigenvalues --    0.53463   0.53699   0.54086   0.54422   0.55194
  Beta virt. eigenvalues --    0.55559   0.55952   0.56233   0.56549   0.56998
  Beta virt. eigenvalues --    0.57362   0.57755   0.58122   0.58419   0.59226
  Beta virt. eigenvalues --    0.59617   0.59907   0.60492   0.61293   0.61314
  Beta virt. eigenvalues --    0.62502   0.62731   0.63826   0.63845   0.64287
  Beta virt. eigenvalues --    0.64367   0.64950   0.65923   0.66007   0.66626
  Beta virt. eigenvalues --    0.66874   0.67263   0.67992   0.68473   0.69657
  Beta virt. eigenvalues --    0.70256   0.70483   0.70620   0.70779   0.71229
  Beta virt. eigenvalues --    0.71890   0.72194   0.72386   0.72876   0.74251
  Beta virt. eigenvalues --    0.75074   0.75810   0.76407   0.76748   0.77277
  Beta virt. eigenvalues --    0.78246   0.78497   0.79431   0.81088   0.81991
  Beta virt. eigenvalues --    0.82397   0.82772   0.85175   0.85904   0.87102
  Beta virt. eigenvalues --    0.87425   0.88360   0.89504   0.90562   0.91392
  Beta virt. eigenvalues --    0.91561   0.92320   0.92732   0.93182   0.93976
  Beta virt. eigenvalues --    0.94890   0.95182   0.95646   0.95662   0.95763
  Beta virt. eigenvalues --    0.96309   0.96725   0.97928   0.98685   0.99011
  Beta virt. eigenvalues --    0.99607   1.00042   1.00766   1.01405   1.01917
  Beta virt. eigenvalues --    1.03219   1.03744   1.04040   1.04909   1.05337
  Beta virt. eigenvalues --    1.05832   1.06637   1.07144   1.07891   1.08287
  Beta virt. eigenvalues --    1.09509   1.09861   1.11409   1.12882   1.13753
  Beta virt. eigenvalues --    1.14538   1.15145   1.15324   1.15652   1.16002
  Beta virt. eigenvalues --    1.18234   1.20102   1.20297   1.22941   1.27860
  Beta virt. eigenvalues --    1.28098   1.29671   1.32361   1.35016   1.36081
  Beta virt. eigenvalues --    1.36795   1.38628   1.40038   1.41430   1.42085
  Beta virt. eigenvalues --    1.45212   1.45788   1.46798   1.47417   1.47808
  Beta virt. eigenvalues --    1.48399   1.48507   1.49853   1.50437   1.51171
  Beta virt. eigenvalues --    1.51551   1.51757   1.53934   1.55132   1.55691
  Beta virt. eigenvalues --    1.56335   1.57087   1.57322   1.57668   1.58355
  Beta virt. eigenvalues --    1.58650   1.62503   1.63840   1.64526   1.66015
  Beta virt. eigenvalues --    1.66454   1.67668   1.68357   1.69260   1.70150
  Beta virt. eigenvalues --    1.71391   1.73023   1.73300   1.73791   1.75554
  Beta virt. eigenvalues --    1.75792   1.76022   1.76921   1.77953   1.79587
  Beta virt. eigenvalues --    1.80285   1.80680   1.81451   1.81670   1.83443
  Beta virt. eigenvalues --    1.83857   1.84526   1.85568   1.86007   1.86593
  Beta virt. eigenvalues --    1.88180   1.88604   1.89050   1.90172   1.90268
  Beta virt. eigenvalues --    1.91326   1.92337   1.93202   1.93464   1.94453
  Beta virt. eigenvalues --    1.95979   1.96440   1.96740   1.97690   1.98809
  Beta virt. eigenvalues --    1.99377   2.01112   2.01751   2.02371   2.03458
  Beta virt. eigenvalues --    2.03526   2.04963   2.06073   2.06807   2.07981
  Beta virt. eigenvalues --    2.09716   2.11060   2.12160   2.12496   2.13860
  Beta virt. eigenvalues --    2.14073   2.15761   2.18659   2.19227   2.20552
  Beta virt. eigenvalues --    2.22737   2.23248   2.23772   2.26115   2.26742
  Beta virt. eigenvalues --    2.27666   2.29663   2.33845   2.34811   2.36775
  Beta virt. eigenvalues --    2.39857   2.41962   2.42189   2.43523   2.43885
  Beta virt. eigenvalues --    2.44880   2.45113   2.45401   2.46791   2.50552
  Beta virt. eigenvalues --    2.54885   2.56947   2.57757   2.59240   2.61081
  Beta virt. eigenvalues --    2.61914   2.63534   2.64739   2.65869   2.66082
  Beta virt. eigenvalues --    2.66699   2.69214   2.69430   2.70108   2.71182
  Beta virt. eigenvalues --    2.71678   2.72160   2.72912   2.73746   2.74319
  Beta virt. eigenvalues --    2.74428   2.74924   2.75203   2.75632   2.76044
  Beta virt. eigenvalues --    2.76548   2.76937   2.78503   2.78957   2.79352
  Beta virt. eigenvalues --    2.80059   2.81388   2.82303   2.83236   2.83870
  Beta virt. eigenvalues --    2.84622   2.85583   2.86098   2.88542   2.88980
  Beta virt. eigenvalues --    2.89978   2.90079   2.91855   2.93017   2.93557
  Beta virt. eigenvalues --    2.93912   2.99271   2.99850   3.00782   3.04199
  Beta virt. eigenvalues --    3.06662   3.09376   3.11929   3.13015   3.13313
  Beta virt. eigenvalues --    3.19020   3.20596   3.21233   3.23060   3.25056
  Beta virt. eigenvalues --    3.28093   3.33032   3.34022   3.35723   3.38332
  Beta virt. eigenvalues --    3.39213   3.42470   3.42892   3.44548   3.45562
  Beta virt. eigenvalues --    3.46407   3.47034   3.49509   3.50782   3.54076
  Beta virt. eigenvalues --    3.55157   3.58491   3.59319   3.62905   3.64047
  Beta virt. eigenvalues --    3.69149   3.75373   3.81462   3.82893   3.85034
  Beta virt. eigenvalues --    3.97228   4.03003   4.03916   4.06063   4.06403
  Beta virt. eigenvalues --    4.06743   4.10587   4.19940   4.22462   4.28058
  Beta virt. eigenvalues --    4.35189   4.53545   4.76086   4.77556   4.78653
  Beta virt. eigenvalues --    4.82022   4.85296   4.87950  23.37673  23.62792
  Beta virt. eigenvalues --   23.73647  23.80965  23.84562  23.86571  23.88227
  Beta virt. eigenvalues --   23.92531  23.94937  23.97962  23.98748  24.01901
  Beta virt. eigenvalues --   24.06679  24.08333  24.08935  24.11494  24.12600
  Beta virt. eigenvalues --   24.13550  24.13676  24.14906  24.19960  24.20853
          Condensed to atoms (all electrons):
               1          2          3          4          5          6
     1  C    9.242789  -1.242586  -1.076499   0.141196  -0.110566   0.879655
     2  C   -1.242586  12.101138  -1.894535  -1.885777   0.579278  -0.724296
     3  C   -1.076499  -1.894535   8.720731   1.318455  -0.909688  -0.385280
     4  C    0.141196  -1.885777   1.318455  10.766736  -2.748329  -1.650061
     5  C   -0.110566   0.579278  -0.909688  -2.748329   9.945199   1.327538
     6  C    0.879655  -0.724296  -0.385280  -1.650061   1.327538   6.750987
     7  C   -0.691603  -0.121987   0.219706   0.261421  -0.253889  -0.105029
     8  C    0.099508  -0.955948  -0.033074   0.124269   0.339132   0.132433
     9  C   -0.182791  -0.222126  -0.214370  -0.026600   0.145194   0.334776
    10  C   -0.056200   0.242789  -0.266554  -0.111808  -0.320603   0.325573
    11  C   -0.046564   0.140467   0.064867  -0.018758  -0.069702  -0.180580
    12  C   -0.080303  -0.338059  -0.017379  -0.037239   0.156176  -0.069102
    13  C   -0.079691  -0.476103   0.402390   0.145976  -0.028758  -0.062116
    14  C    0.067214   0.055890   0.420483  -0.018468   0.045341  -0.031927
    15  C   -0.008847   0.047615   0.061061   0.004653   0.001023  -0.045448
    16  C   -0.316413   0.376544   0.320090   0.002359   0.092963   0.073008
    17  C   -0.031897   0.272987  -0.573719  -0.011666  -0.056334  -0.028020
    18  H   -0.008754   0.098981  -0.040436  -0.028888  -0.033182   0.041380
    19  H    0.361692  -0.054437   0.075757  -0.018473  -0.033691  -0.001245
    20  H    0.056780  -0.056672  -0.001354   0.365188  -0.073126   0.045327
    21  C   -0.433707   0.114511  -0.423784   0.249858  -1.442457  -0.363098
    22  C    0.140891   0.074806  -0.154434  -0.299913   0.600435   0.507384
    23  C    0.113008  -0.139347  -0.028867  -0.165419  -0.031458  -0.399090
    24  H   -0.000042  -0.000371  -0.001981  -0.000017  -0.000317   0.003518
    25  H   -0.000024  -0.000412   0.000594  -0.000010   0.000034   0.000095
    26  H    0.048228   0.081417  -0.036763   0.002432  -0.000873  -0.001598
    27  H   -0.000343  -0.000842   0.001363   0.000021   0.000038  -0.000299
    28  H    0.000041   0.000309  -0.000257  -0.000003  -0.000009   0.000014
    29  C   -0.225571   0.445576  -0.454547  -0.065035  -1.508913   0.213648
    30  C    0.000891   0.022622   0.199474  -0.101656   0.164626  -0.620989
    31  H    0.002426   0.008665  -0.006333   0.055997  -0.127029   0.003806
    32  H   -0.000653   0.000177  -0.002079   0.006922  -0.012243  -0.003235
    33  H    0.000304   0.000181   0.003617  -0.000782   0.005290  -0.011991
    34  H   -0.000001   0.000529   0.006034  -0.000030   0.000498  -0.004541
    35  H   -0.038542  -0.242026   0.137310  -0.002122  -0.028931   0.021397
               7          8          9         10         11         12
     1  C   -0.691603   0.099508  -0.182791  -0.056200  -0.046564  -0.080303
     2  C   -0.121987  -0.955948  -0.222126   0.242789   0.140467  -0.338059
     3  C    0.219706  -0.033074  -0.214370  -0.266554   0.064867  -0.017379
     4  C    0.261421   0.124269  -0.026600  -0.111808  -0.018758  -0.037239
     5  C   -0.253889   0.339132   0.145194  -0.320603  -0.069702   0.156176
     6  C   -0.105029   0.132433   0.334776   0.325573  -0.180580  -0.069102
     7  C    7.259585   0.218721  -0.062997   0.552516   0.261137  -0.187560
     8  C    0.218721   6.916515   0.653447   0.414787   0.219410   0.060238
     9  C   -0.062997   0.653447   7.057206  -0.621586  -0.796812  -0.215952
    10  C    0.552516   0.414787  -0.621586   8.778263   0.850371  -1.042702
    11  C    0.261137   0.219410  -0.796812   0.850371   7.314600   1.267894
    12  C   -0.187560   0.060238  -0.215952  -1.042702   1.267894  10.128392
    13  C    1.381372  -0.163024  -0.123796  -0.530551   0.022131   0.305716
    14  C   -0.427899  -0.960898   0.273436  -0.136199  -1.570241  -2.794732
    15  C   -0.136806  -0.190107  -0.034989  -0.358084  -0.458791  -0.808104
    16  C   -1.455823  -0.460538  -0.375199  -0.446860  -0.197689  -0.757431
    17  C   -0.128236   0.189996  -0.103060  -0.021597   0.076163   1.176875
    18  H    0.039712   0.009828  -0.002217   0.003305  -0.000371   0.002305
    19  H    0.002089   0.002302   0.000338  -0.000140   0.000046  -0.000300
    20  H   -0.003587   0.004404  -0.012170  -0.000743  -0.000067   0.000079
    21  C    0.013716  -0.641241   0.410924  -0.072018  -0.056592  -0.066404
    22  C   -0.077972   0.273783   0.838002   0.561473  -0.386566  -0.337362
    23  C   -0.716039   0.056640   0.957048  -1.258993  -1.194423  -0.537879
    24  H   -0.012976   0.032829  -0.008010  -0.024806   0.367888  -0.093275
    25  H   -0.005851   0.005455   0.001235   0.032500   0.059181  -0.123940
    26  H    0.010780  -0.010909  -0.000799   0.000427   0.000618  -0.054027
    27  H   -0.008541   0.002969  -0.000296  -0.000017   0.002774   0.011949
    28  H    0.006269   0.001809   0.000116   0.005577   0.008475   0.042594
    29  C    0.148131  -0.836576  -0.880833   0.446791   0.091572   0.006040
    30  C   -0.282597   0.442754  -0.714428  -1.212743   0.190641  -0.089592
    31  H    0.004699  -0.001329  -0.007708   0.002230   0.000229   0.000103
    32  H    0.003374  -0.016060   0.027119   0.005016  -0.000086  -0.000550
    33  H   -0.000870   0.001814   0.031626  -0.011882  -0.002158   0.002865
    34  H   -0.001691   0.010335  -0.015323  -0.070726   0.083364   0.033362
    35  H    0.083373   0.013737  -0.002183   0.002602   0.001089   0.002232
              13         14         15         16         17         18
     1  C   -0.079691   0.067214  -0.008847  -0.316413  -0.031897  -0.008754
     2  C   -0.476103   0.055890   0.047615   0.376544   0.272987   0.098981
     3  C    0.402390   0.420483   0.061061   0.320090  -0.573719  -0.040436
     4  C    0.145976  -0.018468   0.004653   0.002359  -0.011666  -0.028888
     5  C   -0.028758   0.045341   0.001023   0.092963  -0.056334  -0.033182
     6  C   -0.062116  -0.031927  -0.045448   0.073008  -0.028020   0.041380
     7  C    1.381372  -0.427899  -0.136806  -1.455823  -0.128236   0.039712
     8  C   -0.163024  -0.960898  -0.190107  -0.460538   0.189996   0.009828
     9  C   -0.123796   0.273436  -0.034989  -0.375199  -0.103060  -0.002217
    10  C   -0.530551  -0.136199  -0.358084  -0.446860  -0.021597   0.003305
    11  C    0.022131  -1.570241  -0.458791  -0.197689   0.076163  -0.000371
    12  C    0.305716  -2.794732  -0.808104  -0.757431   1.176875   0.002305
    13  C    7.850459  -0.712042   0.419723  -0.744456  -1.187799  -0.000754
    14  C   -0.712042  11.027625   0.535189   1.741739  -1.541626  -0.001274
    15  C    0.419723   0.535189   6.529767  -0.214022   0.856792   0.000218
    16  C   -0.744456   1.741739  -0.214022  10.356291  -1.389628  -0.022101
    17  C   -1.187799  -1.541626   0.856792  -1.389628   8.741348   0.024892
    18  H   -0.000754  -0.001274   0.000218  -0.022101   0.024892   0.553200
    19  H    0.001735  -0.000087   0.000018   0.000831   0.000319  -0.003561
    20  H    0.000016   0.000009  -0.000002  -0.000424  -0.000017  -0.000099
    21  C    0.018144  -0.015213  -0.002655   0.048078   0.003974  -0.005282
    22  C   -0.192391  -0.160888  -0.018424   0.064695   0.041569   0.001627
    23  C   -0.584602   0.195283  -0.132774  -0.350142  -0.029424   0.000693
    24  H   -0.017683   0.009373   0.009132  -0.001046   0.002708  -0.000000
    25  H    0.002688   0.412273  -0.042090  -0.003669  -0.008587  -0.000000
    26  H    0.053692  -0.001376  -0.000390   0.326293  -0.110134   0.000816
    27  H    0.036089  -0.019197   0.000057  -0.092563   0.414133  -0.000000
    28  H    0.013925  -0.063153   0.357629  -0.006439  -0.021179   0.000001
    29  C   -0.024841   0.001899   0.001907   0.027747  -0.002539  -0.001963
    30  C   -0.084010  -0.136406  -0.001743  -0.180683   0.001892   0.000228
    31  H   -0.000074   0.000003   0.000001   0.000022  -0.000005  -0.000001
    32  H    0.000060  -0.000039  -0.000001   0.000073   0.000006   0.000000
    33  H   -0.000219   0.000380  -0.000009   0.000083  -0.000005   0.000000
    34  H    0.007960   0.007395   0.001014  -0.000280   0.000040  -0.000000
    35  H    0.077487  -0.002439  -0.003590  -0.073372  -0.063645   0.290226
              19         20         21         22         23         24
     1  C    0.361692   0.056780  -0.433707   0.140891   0.113008  -0.000042
     2  C   -0.054437  -0.056672   0.114511   0.074806  -0.139347  -0.000371
     3  C    0.075757  -0.001354  -0.423784  -0.154434  -0.028867  -0.001981
     4  C   -0.018473   0.365188   0.249858  -0.299913  -0.165419  -0.000017
     5  C   -0.033691  -0.073126  -1.442457   0.600435  -0.031458  -0.000317
     6  C   -0.001245   0.045327  -0.363098   0.507384  -0.399090   0.003518
     7  C    0.002089  -0.003587   0.013716  -0.077972  -0.716039  -0.012976
     8  C    0.002302   0.004404  -0.641241   0.273783   0.056640   0.032829
     9  C    0.000338  -0.012170   0.410924   0.838002   0.957048  -0.008010
    10  C   -0.000140  -0.000743  -0.072018   0.561473  -1.258993  -0.024806
    11  C    0.000046  -0.000067  -0.056592  -0.386566  -1.194423   0.367888
    12  C   -0.000300   0.000079  -0.066404  -0.337362  -0.537879  -0.093275
    13  C    0.001735   0.000016   0.018144  -0.192391  -0.584602  -0.017683
    14  C   -0.000087   0.000009  -0.015213  -0.160888   0.195283   0.009373
    15  C    0.000018  -0.000002  -0.002655  -0.018424  -0.132774   0.009132
    16  C    0.000831  -0.000424   0.048078   0.064695  -0.350142  -0.001046
    17  C    0.000319  -0.000017   0.003974   0.041569  -0.029424   0.002708
    18  H   -0.003561  -0.000099  -0.005282   0.001627   0.000693  -0.000000
    19  H    0.538103  -0.008137   0.002977   0.000540  -0.000030  -0.000000
    20  H   -0.008137   0.539026   0.001336   0.010152   0.000345  -0.000000
    21  C    0.002977   0.001336   8.794758  -1.355192   0.044421   0.000150
    22  C    0.000540   0.010152  -1.355192   9.038953  -1.192720   0.010707
    23  C   -0.000030   0.000345   0.044421  -1.192720  10.195877   0.038607
    24  H   -0.000000  -0.000000   0.000150   0.010707   0.038607   0.548448
    25  H   -0.000000   0.000000   0.000008   0.000233   0.004950   0.002507
    26  H   -0.000027   0.000001  -0.000404   0.000277   0.000308   0.000011
    27  H    0.000000  -0.000000   0.000002   0.000047   0.000010  -0.000001
    28  H   -0.000000   0.000000   0.000001   0.000030   0.000581  -0.000020
    29  C   -0.001082   0.003831   1.551971  -0.864057  -0.200505   0.000593
    30  C    0.000084  -0.000060  -0.423234  -1.350681   1.428941   0.014334
    31  H   -0.000001   0.002762   0.390757  -0.006011  -0.000974  -0.000000
    32  H   -0.000000  -0.000011   0.021123  -0.103842   0.002765   0.000000
[...]
 ,-0.06593345,0.63297882,-0.00001312,0.00000774,0.00026777,0.00000352,0
 .00000381,-0.00032864,0.00000717,0.00000956,-0.00056273,0.00001021,-0.
 00002625,-0.00064107,-0.00004177,0.00003830,-0.00115908,-0.00003974,0.
 00010351,0.00708250,-0.00005196,0.00003873,-0.00046087,0.00013492,-0.0
 0003267,-0.00232598,-0.00011627,0.00060901,0.00578779,-0.00018623,-0.0
 0016268,0.00402367,-0.00009920,0.00014674,0.00420973,0.00001728,-0.000
 07280,0.00007025,0.00006717,0.00001088,0.00009807,-0.00003346,0.000012
 89,-0.00064010,0.00000055,-0.00003332,0.00016665,-0.00002554,0.0000196
 7,0.00011285,0.00002798,0.00001896,-0.00004865,-0.00000016,0.00000031,
 -0.00003172,0.,-0.00000086,-0.00006215,0.00000008,0.00000050,0.0000620
 0,-0.00002644,-0.00006303,0.00457068,0.00048490,0.00161132,-0.06016670
 ,-0.00026116,0.00066884,-0.05841051,-0.00000333,-0.00000078,-0.0001700
 9,0.00000040,0.00000047,0.00000282,-0.00000037,-0.00000002,0.00000151,
 0.00000061,-0.00000011,-0.00002992,-0.00000038,0.00000049,0.00005709,0
 .00015935,0.00003888,-0.00000615,0.00106685,-0.00528887,0.13121255,-0.
 00008236,0.00027807,-0.00000282,0.00015705,-0.00003879,0.00000050,-0.0
 0021466,-0.00076902,0.00000712,0.00103980,-0.00094814,0.00001226,-0.01
 609553,-0.00651411,0.00005311,-0.00117852,0.00405251,-0.00004556,-0.00
 036480,0.00013107,-0.00000180,-0.00018797,-0.00010722,0.00000134,0.000
 66114,0.00037635,-0.00000253,0.00000735,0.00006475,-0.00000077,-0.0000
 1614,-0.00000175,0.,-0.00002835,-0.00002909,0.00000030,0.00007276,-0.0
 0011915,0.00000153,-0.00000422,-0.00000306,-0.00000002,0.00000130,-0.0
 0001302,0.00000014,-0.00003512,0.00002440,-0.00000028,0.00001710,0.000
 02898,-0.00000029,0.00000376,0.00002569,-0.00000028,-0.00002985,0.0000
 4523,-0.00000056,0.00006217,0.00093947,-0.00000979,-0.32121675,-0.0569
 7215,0.00037133,0.00154227,-0.00117559,0.00000678,0.00004087,-0.000224
 00,0.00000273,-0.00000853,-0.00000549,0.00000006,-0.00000525,-0.000005
 39,0.00000006,0.00001070,0.00000058,0.,-0.00000343,0.00000475,-0.00000
 005,-0.00000795,-0.00000028,0.,-0.00542361,0.00041718,-0.00001130,-0.0
 0029184,0.00024924,-0.00000318,0.34064828,-0.00043245,0.00003853,-0.00
 000216,0.00017877,0.00036998,-0.00000347,0.00083475,0.00041126,0.00000
 309,0.00004805,0.00154066,-0.00003990,0.02306792,0.00891239,-0.0000497
 4,0.00293408,-0.00370942,0.00008141,0.00029317,-0.00014983,0.00000502,
 0.00020187,0.00016198,-0.00000707,0.00022285,-0.00088077,-0.00000180,0
 .00005560,-0.00015678,0.00000321,0.00004667,0.00003169,-0.00000020,0.0
 0001909,0.00001526,-0.00000034,-0.00001869,0.00011472,-0.00000445,0.00
 001808,0.00001779,0.00000043,-0.00000432,0.00001914,-0.00000022,0.0000
 0140,-0.00001376,0.00000024,-0.00002053,-0.00000386,-0.00000001,-0.000
 00161,-0.00001913,0.00000048,-0.00001261,-0.00001015,0.00000115,-0.000
 65882,-0.00031110,0.00000582,-0.05474658,-0.06937526,0.00031931,-0.000
 66654,-0.00546581,0.00014573,-0.00017772,-0.00045735,-0.00000019,0.000
 00346,-0.00000322,0.,0.00000376,-0.00000175,0.,-0.00000578,0.00000528,
 -0.00000004,-0.00000048,0.00000160,0.,-0.00000209,0.00000133,-0.000000
 04,-0.03061655,-0.00363909,0.00005199,-0.00116125,0.00067289,-0.000003
 33,0.06056254,0.07107595,0.00000432,-0.00000161,-0.00014036,-0.0000016
 2,-0.00000357,0.00001995,-0.00000935,0.00000157,0.00063846,0.00000223,
 -0.00004077,-0.00232677,-0.00025368,-0.00007209,0.00238100,-0.00003402
 ,0.00008275,0.00395968,-0.00000347,0.00000501,0.00032034,-0.00000188,-
 0.00000736,-0.00053359,-0.00000090,-0.00000192,-0.00106894,-0.00000071
 ,0.00000321,0.00014678,-0.00000046,-0.00000023,0.00001223,-0.00000020,
 -0.00000036,-0.00002019,0.00000039,-0.00000451,-0.00031267,-0.00000021
 ,0.00000042,0.00005828,0.00000005,-0.00000021,-0.00000161,-0.00000004,
 0.00000025,0.00000881,0.00000022,0.00000002,-0.00000371,0.,0.00000049,
 0.00002757,0.00000003,0.00000118,0.00010186,0.00000663,0.00000705,0.00
 030097,0.00034823,0.00031686,-0.03451443,0.00000149,0.00014526,0.00861
 629,0.00000222,-0.00000039,-0.00046868,-0.00000004,0.,-0.00000342,-0.0
 0000004,-0.00000001,-0.00000268,0.00000007,-0.00000003,0.00000192,0.,0
 .00000001,0.00000246,0.00000002,-0.00000004,-0.00000245,0.00031064,0.0
 0007641,0.00364531,0.00001130,-0.00000215,0.00044330,-0.00038586,-0.00
 043919,0.02424720,0.00020783,-0.00010956,0.00000177,-0.00011498,-0.000
 19905,0.00000184,-0.00017277,0.00024408,-0.00000216,0.00040070,0.00002
 074,-0.00000027,0.00023202,-0.00257952,0.00002011,0.00004012,-0.000941
 47,0.00001039,-0.00056072,-0.00014065,0.00000109,0.00012239,0.00156695
 ,-0.00001677,-0.00563723,-0.00302157,0.00002401,0.00012619,0.00003320,
 -0.00000021,0.00000067,-0.00006479,0.00000067,-0.00002047,-0.00000953,
 0.00000010,0.00007165,0.00017532,-0.00000169,0.00002010,0.00001076,-0.
 00000010,-0.00003302,0.00000061,-0.00000002,-0.00008338,-0.00002134,0.
 00000020,0.00000148,0.00001784,-0.00000020,-0.00000266,0.00000693,-0.0
 0000008,0.00004019,-0.00002872,0.00000037,-0.00000184,0.00000865,-0.00
 000022,0.00889392,-0.00843089,0.00009197,-0.01545132,0.02299123,-0.000
 25287,-0.00014125,-0.00025878,0.00000270,-0.00003765,-0.00000977,0.000
 00007,-0.00000746,-0.00000714,0.00000007,0.00000213,0.00000165,-0.0000
 0002,-0.00001096,0.00000602,-0.00000007,-0.00000652,0.00000077,-0.0000
 0001,-0.19679550,0.13877238,-0.00156476,0.00164120,0.00092696,-0.00000
 699,0.00098880,0.00016866,0.00000333,0.20654760,0.00003478,-0.00051972
 ,-0.00000138,-0.00021415,-0.00008210,0.00000223,0.00001915,0.00015273,
 -0.00000786,0.00128942,-0.00001726,0.00000579,-0.00324960,-0.00384961,
 0.00012906,-0.00059023,-0.00023026,-0.00000646,-0.00007491,-0.00012626
 ,0.00000137,-0.00042005,0.00046935,-0.00000029,-0.00220389,0.00041113,
 0.00004148,0.00000564,0.00019662,-0.00000302,0.00005046,-0.00003026,0.
 00000071,-0.00001457,0.00004708,-0.00000071,-0.00005808,0.00007610,-0.
 00000156,0.00001436,-0.00001543,0.00000013,-0.00000016,0.00001673,-0.0
 0000022,0.00001467,-0.00002216,-0.00000003,-0.00001524,-0.00001585,0.0
 0000027,0.00000633,-0.00000744,0.00000022,0.00011379,-0.00008124,0.000
 00027,-0.00004361,-0.00003551,0.00000215,0.02263420,-0.01807178,0.0002
 3766,-0.00646930,0.00913514,-0.00007527,0.00030624,-0.00002849,-0.0000
 0072,0.00000012,0.00000286,0.00000007,0.00000135,0.00000401,0.,-0.0000
 0592,-0.00000104,0.,-0.00000024,-0.00000333,0.00000009,0.00000563,0.00
 000030,0.00000002,0.13641614,-0.19406507,0.00175780,0.00017087,0.00098
 446,-0.00003169,-0.00025721,0.00086051,-0.00006689,-0.14807886,0.20497
 507,0.00000017,-0.00000124,-0.00064718,0.00000214,0.00000232,0.0001477
 3,0.00000013,-0.00000772,-0.00060487,-0.00001357,0.00000470,0.00044600
 ,0.00002726,0.00012971,0.00882085,0.00000703,-0.00000643,-0.00081130,0
 .00000033,0.00000128,0.00000923,0.00000407,0.00000131,0.00046939,0.000
 01540,0.00004015,0.00456987,0.00000022,-0.00000306,-0.00009201,-0.0000
 0061,0.00000067,0.00003545,0.00000019,-0.00000075,-0.00002033,0.000000
 71,-0.00000139,-0.00007201,-0.00000016,0.00000014,-0.00000380,-0.00000
 001,-0.00000024,-0.00000427,-0.00000022,-0.00000004,-0.00002527,0.0000
 0017,0.00000031,0.00001095,-0.00000008,0.00000022,0.00001285,-0.000001
 12,0.00000019,-0.00006243,0.00000032,0.00000216,0.00017421,-0.00023088
 ,0.00021310,0.00314050,0.00005193,-0.00005282,0.00237734,-0.00000336,-
 0.00000106,-0.00011863,-0.00000003,0.00000006,0.00000929,-0.00000002,-
 0.00000001,0.00000337,0.00000006,0.00000002,0.00000029,0.,0.00000010,0
 .00000564,-0.00000006,0.00000002,0.00000232,-0.00153926,0.00176050,-0.
 03489675,0.00000121,-0.00003119,-0.00207651,0.00000771,-0.00006657,-0.
 00556351,0.00167717,-0.00198830,0.02444403,0.00001921,-0.00001351,0.00
 000019,0.00004893,0.00000062,0.00000002,-0.00015599,-0.00017949,0.0000
 0177,-0.00002767,0.00005189,-0.00000060,0.00018260,-0.00000653,0.00000
 025,0.00063620,-0.00051714,0.00000564,0.00023292,-0.00006089,0.0000011
 3,-0.00042768,-0.00035194,0.00000383,-0.00100278,-0.00318244,0.0000298
 7,-0.00473152,-0.00239476,0.00001558,0.00019241,0.00139045,-0.00001470
 ,-0.00052469,0.00000724,0.00000036,-0.00015956,-0.00004248,0.00000024,
 0.00010725,0.00013114,-0.00000125,-0.00007162,0.00009656,-0.00000111,0
 .00007822,-0.00005588,0.00000057,-0.00009207,-0.00005395,0.00000052,0.
 00001538,-0.00002528,0.00000026,0.00000131,0.00000493,-0.00000004,-0.0
 0000181,-0.00000644,0.00000006,-0.00004337,0.00026982,-0.00000273,0.01
 133256,-0.01211353,0.00013285,-0.01445637,0.02748320,-0.00029964,-0.00
 003522,-0.00004372,0.00000024,0.00000120,-0.00001350,0.00000016,-0.000
 00374,0.00000954,-0.00000010,-0.00000603,0.00000690,-0.00000006,-0.000
 01590,0.00001817,-0.00000021,0.00125528,0.00028432,-0.00000088,-0.1397
 8878,0.12472855,-0.00137516,0.00000095,0.00001844,-0.00000024,-0.00021
 514,0.00056970,-0.00000625,0.14682426,-0.00003863,-0.00004196,-0.00000
 004,0.00011093,0.00005921,-0.00000041,-0.00010747,-0.00050427,0.000004
 50,-0.00004887,0.00001598,0.00000051,-0.00005256,0.00012230,-0.0000018
 4,0.00138858,-0.00013385,0.00000588,0.00018016,-0.00011485,-0.00000419
 ,-0.00076848,0.00031470,-0.00001057,-0.00402702,-0.00426865,0.00008170
 ,-0.00161826,0.00110634,0.00008550,0.00010364,0.00014694,0.00000263,-0
 .00005305,0.00012897,-0.00001166,-0.00016423,-0.00000397,0.00000158,0.
 00003662,-0.00000844,-0.00000088,0.00003130,0.00006084,0.00000032,0.00
 006511,-0.00003901,0.00000130,-0.00005340,-0.00001717,0.,0.00000280,-0
 .00002330,0.00000030,-0.00000284,-0.00000786,-0.00000015,-0.00001960,-
 0.00003087,0.00000042,-0.00026738,-0.00018085,0.00000002,0.01727745,-0
 .01760073,0.00022284,-0.00370994,0.00502662,-0.00001705,0.00001972,0.0
 0000199,0.00000298,0.00000781,0.00000410,-0.00000023,-0.00001002,0.000
 00363,-0.00000004,0.00000314,-0.00000459,-0.00000011,0.00000278,0.0000
 0257,0.00000018,0.00098999,0.00139860,-0.00003132,0.12739948,-0.250542
 84,0.00233927,-0.00003864,-0.00004322,0.00000127,-0.00102948,-0.000122
 49,0.00000231,-0.13580030,0.26428154,0.00000045,-0.00000004,-0.0000424
 5,-0.00000114,-0.00000048,0.00001152,0.00000112,0.00000457,-0.00005660
 ,0.00000042,0.00000063,0.00006941,0.00000074,-0.00000192,-0.00005081,-
 0.00001441,0.00000445,0.00031333,-0.00000137,-0.00000435,-0.00052703,0
 .00000805,-0.00001042,-0.00064727,0.00003917,0.00008240,0.00385829,0.0
 0000732,0.00008480,0.00938017,-0.00000120,0.00000369,0.00039136,0.0000
 0066,-0.00001160,-0.00098436,0.00000145,0.00000162,0.00015707,-0.00000
 023,-0.00000078,-0.00009409,-0.00000044,0.00000038,0.00008910,-0.00000
 064,0.00000121,0.00008216,0.00000048,-0.00000003,-0.00001379,-0.000000
 03,0.00000030,0.00000615,0.00000005,-0.00000014,-0.00002185,0.00000020
 ,0.00000043,0.00001121,0.00000285,0.00000056,-0.00016011,-0.00017418,0
 .00020358,0.00254689,0.00002729,0.00000418,0.00363720,-0.00000038,0.00
 000293,0.00028566,-0.00000007,-0.00000025,-0.00001857,0.00000010,-0.00
 000002,0.00000120,-0.00000003,-0.00000011,-0.00001547,-0.00000005,0.00
 000019,0.00001909,-0.00000832,-0.00003207,-0.00167887,-0.00140399,0.00
 233675,-0.03503934,0.00000034,0.00000130,0.00008093,0.00001051,0.00000
 351,0.00017647,0.00150273,-0.00260229,0.02418226,0.00007160,-0.0000046
 8,0.00000012,0.00005023,-0.00005509,0.00000081,-0.00009114,0.00029399,
 -0.00000328,0.00002808,0.00007172,-0.00000072,-0.00012437,0.00005487,-
 0.00000077,0.00018718,0.00007497,-0.00000029,0.00057992,0.00055554,-0.
 00000585,-0.00246690,0.00323138,-0.00003758,-0.00052095,0.00045885,-0.
 00000450,0.01113182,0.01756587,-0.00017806,0.00140228,-0.00003282,0.00
 000241,0.00000721,-0.00035543,0.00000379,0.00030165,0.00002053,-0.0000
 0002,-0.00008816,0.00002662,-0.00000033,0.00001656,-0.00008191,0.00000
 085,-0.00008193,-0.00000277,-0.00000004,0.00004815,0.00006126,-0.00000
 060,-0.00000250,-0.00000088,0.,0.00001177,-0.00000265,-0.00000002,-0.0
 0000542,0.00000146,-0.00000002,-0.00050119,-0.00006021,0.00000061,-0.0
 0549062,0.00100566,-0.00002037,-0.10162851,-0.10020950,0.00100331,-0.0
 0023747,-0.00064224,0.00000632,-0.00001863,0.00000719,-0.00000010,-0.0
 0000076,-0.00001175,0.00000011,-0.00000107,-0.00000426,0.00000004,0.00
 000381,-0.00000472,0.00000005,0.00044151,-0.00133655,0.00001403,-0.010
 01985,-0.02991472,0.00030350,-0.00003865,-0.00015406,0.00000159,-0.000
 04305,0.00003047,-0.00000043,0.00082596,0.00016595,0.00000281,0.106248
 65,-0.00008901,-0.00001310,-0.00000026,-0.00005263,0.00011052,-0.00000
 449,0.00013654,-0.00049984,0.00000828,-0.00000929,-0.00008043,0.000000
 89,0.00012087,0.00002443,0.00000155,-0.00020918,-0.00017589,-0.0000039
 4,-0.00106578,-0.00007144,0.00000639,0.00431873,-0.00263996,0.00006710
 ,0.00058677,0.00051468,-0.00001502,-0.01207740,-0.01832775,0.00020901,
 -0.00103835,0.00125465,-0.00003356,0.00040804,0.00001685,-0.00000168,-
 0.00005626,0.00007791,-0.00000105,-0.00010275,-0.00006179,0.00000069,0
 .00001496,-0.00007037,0.00000092,0.00007184,0.00007669,-0.00000038,0.0
 0006836,-0.00004451,0.00000024,-0.00000623,0.00000858,-0.00000008,-0.0
 0001500,-0.00001088,0.00000096,-0.00000651,-0.00000664,0.00000009,-0.0
 0010740,0.00010414,-0.00000727,0.00031495,0.00154922,0.00007906,-0.102
 65488,-0.28857835,0.00258600,0.00102444,0.00000144,0.00000361,0.000024
 97,0.00001631,0.00000004,-0.00001073,0.00000332,0.00000009,0.00001156,
 -0.00000270,0.00000004,0.00001526,-0.00000613,0.00000007,0.00005894,-0
 .00006347,0.00000508,0.00130299,0.00058341,0.00003632,-0.00000070,-0.0
 0000497,-0.00000044,-0.00002872,0.00000242,0.00000124,-0.00020693,0.00
 104075,-0.00007314,0.10925262,0.30528341,0.00000096,-0.00000022,-0.000
 03108,0.00000081,-0.00000439,-0.00031659,-0.00000171,0.00000841,0.0002
 9039,0.00000014,0.00000094,0.00000708,-0.00000149,0.00000151,0.0001644
 2,0.00000274,-0.00000368,-0.00054062,0.00001131,0.00000726,0.00058794,
 -0.00004941,0.00006659,0.00354652,-0.00000566,-0.00001533,-0.00095863,
 0.00013110,0.00022929,0.00238739,0.00001318,-0.00003332,-0.00191069,-0
 .00000422,-0.00000196,-0.00017226,0.00000068,-0.00000106,-0.00001738,0
 .00000110,0.00000074,0.00001046,-0.00000016,0.00000094,0.00001719,-0.0
 0000079,-0.00000045,0.00003650,-0.00000072,0.00000021,-0.00002511,0.00
 000006,-0.00000008,0.00000162,0.00000010,0.00000095,0.00008211,0.00000
 006,0.00000009,0.00000258,0.00000133,-0.00000725,-0.00058476,-0.000013
 00,0.00007939,0.00908736,0.00102975,0.00258694,-0.03466955,-0.00001102
 ,0.00000270,0.00030249,-0.00000029,0.00000003,0.00001859,0.00000010,0.
 00000009,0.00001245,-0.00000012,0.00000003,0.00000039,-0.00000016,0.00
 000006,-0.00000059,-0.00000061,0.00000435,0.00041677,-0.00002348,0.000
 01571,0.00397617,0.00000002,-0.00000052,-0.00004681,0.00000018,0.00000
 127,0.00012335,0.00000671,-0.00007290,-0.00593747,-0.00108745,-0.00286
 648,0.02413878,0.00310740,0.00039932,-0.00000105,-0.03070010,0.0395186
 0,-0.00043009,-0.00136410,-0.00045763,0.00000459,0.00008894,-0.0005914
 1,0.00000596,-0.00003810,0.00024459,-0.00000242,0.00017249,0.00086231,
 -0.00000896,0.00016680,0.00011228,-0.00000113,0.00001459,0.00015313,-0
 .00000155,-0.00017569,0.00007764,-0.00000093,0.00011440,-0.00003487,0.
 00000044,-0.00009212,0.00008708,-0.00000096,0.00013144,-0.00008408,0.0
 0000096,-0.00027579,0.00008249,-0.00000092,-0.00009966,-0.00004536,0.0
 0000040,-0.00002675,-0.00001677,0.00000022,-0.00014578,0.00026930,-0.0
 0000328,0.00005173,-0.00035229,0.00000368,-0.03895367,0.03512406,-0.00
 037155,0.00010209,-0.00107030,0.00001117,-0.00014655,0.00007038,-0.000
 00094,0.00015597,-0.00021562,0.00000239,-0.00010886,0.00001920,-0.0000
 0025,-0.00004614,0.00009398,-0.00000103,0.00000992,-0.00001084,0.00000
 012,0.00000723,-0.00000592,0.00000006,-0.00024344,-0.00057006,0.000005
 92,0.00002463,0.00002356,-0.00000025,-0.00002035,-0.00003947,0.0000004
 0,0.00007156,0.00019260,-0.00000195,0.00006642,0.00000499,-0.00000002,
 -0.00002076,0.00000092,-0.00000003,-0.00000111,0.00001272,-0.00000015,
 0.00000531,0.00002472,-0.00000025,0.00000478,0.00000590,-0.00000006,0.
 06816327,-0.00287170,-0.00015962,-0.00001226,0.04323348,-0.04371007,0.
 00055145,0.00077234,0.00167120,-0.00003076,0.00065247,0.00025076,-0.00
 000061,0.00000181,-0.00010855,0.00000008,-0.00042890,-0.00059759,0.000
 00673,-0.00026665,-0.00012795,0.00000303,0.00000842,-0.00013507,0.0000
 0117,0.00020064,-0.00013000,0.00000214,-0.00007769,0.00001237,-0.00000
 060,0.00003976,-0.00008353,0.00000095,-0.00004056,0.00006838,-0.000000
 59,0.00002255,-0.00017886,0.00000124,0.00003994,0.00001085,0.00000016,
 -0.00005003,0.00002905,-0.00000087,-0.00021773,-0.00027460,0.00000409,
 -0.00000622,-0.00000095,0.00000030,0.03230904,-0.05806664,0.00048210,0
 .00064041,0.00107222,-0.00001265,0.00020481,-0.00003797,0.00000193,-0.
 00008842,0.00020130,-0.00000259,0.00004763,-0.00004906,0.00000032,0.00
 001425,-0.00004179,0.00000072,-0.00000848,-0.00000353,-0.00000008,-0.0
 0001029,-0.00000273,0.00000007,-0.00014481,-0.00020516,0.00000091,-0.0
 0004223,0.00001361,-0.00000004,-0.00000939,0.00000052,-0.00000002,-0.0
 0005330,-0.00014562,0.00000149,-0.00000764,-0.00000670,0.00000022,0.00
 002201,-0.00000552,0.00000004,0.00000709,-0.00000924,0.00000030,-0.000
 00277,-0.00002617,0.00000016,-0.00000470,-0.00001050,0.00000011,-0.073
 88512,0.10078713,0.00003186,-0.00000984,-0.00116787,-0.00046478,0.0005
 4531,0.00732709,-0.00000806,-0.00003137,-0.00138759,-0.00000666,-0.000
 00171,0.00013114,0.00000003,0.00000027,-0.00009947,0.00000456,0.000007
 41,0.00007099,0.00000270,0.00000325,0.00018941,-0.00000006,0.00000128,
 -0.00002320,-0.00000224,0.00000209,0.00006768,0.00000088,-0.00000062,-
 0.00004371,-0.00000046,0.00000097,0.00000576,0.00000051,-0.00000059,0.
 00001588,-0.00000040,0.00000127,-0.00005947,-0.00000049,0.00000012,0.0
 0002445,0.00000052,-0.00000087,-0.00005328,0.00000206,0.00000439,0.000
 13565,0.00000009,0.00000005,0.00002852,-0.00034583,0.00048753,-0.01236
 423,-0.00000630,-0.00001369,-0.00020108,-0.00000230,0.00000183,0.00013
 434,0.00000105,-0.00000264,-0.00004142,-0.00000054,0.00000029,-0.00002
 083,-0.00000020,0.00000078,0.00002710,0.00000010,-0.00000009,-0.000011
 44,0.00000011,0.00000006,0.00000390,0.00000143,0.00000068,-0.00010379,
 0.00000044,0.00000002,0.00001368,0.00000008,-0.00000004,-0.00000091,0.
 00000059,0.00000164,0.00000135,0.00000012,0.00000023,0.00001481,-0.000
 00024,0.00000002,-0.00000353,-0.00000009,0.00000031,0.00001974,0.00000
 004,0.00000017,-0.00001140,0.00000005,0.00000012,0.00000099,0.00079145
 ,-0.00099862,0.00738072\\0.00000151,-0.00000231,0.00000004,0.00000499,
 -0.00000468,0.00000126,0.00000057,-0.00000063,-0.00000594,-0.00000113,
 0.00000050,0.00000065,0.00000010,0.00000049,0.00000012,-0.00000057,0.0
 0000050,0.00000054,0.00000015,0.00000044,0.00000465,0.00000024,-0.0000
 0003,0.00000221,0.00000006,0.00000026,0.00000148,0.00000015,-0.0000000
 5,0.00000040,0.00000034,-0.00000016,-0.00000174,0.00000003,-0.00000040
 ,-0.00000028,0.00000011,-0.00000021,-0.00000242,0.00000014,-0.00000042
 ,-0.00000014,-0.00000006,-0.00000049,-0.00000029,-0.00000273,-0.000002
 94,0.00000086,-0.00000005,-0.00000054,0.00000010,-0.00001067,0.0000201
 9,0.00000106,-0.00000074,0.00000007,-0.00000092,-0.00000023,0.00000049
 ,-0.00000023,-0.00000008,0.00000036,-0.00000015,0.00000036,0.00000020,
 0.00000041,0.00000048,-0.00000001,-0.00000113,0.00000032,-0.00000026,0
 .00000034,0.00000017,-0.00000049,0.00000019,-0.00000227,-0.00000281,0.
 00000071,-0.00000039,-0.00000046,-0.00000020,-0.00000005,-0.00000063,0
 .00000019,0.00000009,0.00000036,-0.00000085,0.00000023,0.00000021,-0.0
 0000103,0.00000007,0.00000053,0.00000007,0.00000027,0.00000051,0.00000
 016,0.00000041,0.00000024,0.00000028,0.00000051,0.,0.00000040,0.000007
 65,-0.00000782,-0.00000080\\\@


 THE GREAT THING ABOUT BEING IMPERFECT IS THE JOY IT BRINGS OTHERS.
   -- SIGN OUTSIDE LAKE AGASSIZ JR. HIGH SCHOOL, FARGO, N.D.
 Job cpu time:       0 days 11 hours 28 minutes 42.0 seconds.
 Elapsed time:       0 days  0 hours 34 minutes 26.2 seconds.
 File lengths (MBytes):  RWF=   1968 Int=      0 D2E=      0 Chk=     36 Scr=      1
 Normal termination of Gaussian 16 at Wed Mar 27 17:25:10 2019.
