 Entering Gaussian System, Link 0=/share/apps/gaussian16/g16/g16
 Initial command:
 /share/apps/gaussian16/g16/l1.exe "/home/am2145//scratch/3669/Gau-34491.inp" -scrdir="/home/am2145//scratch/3669/"
 Entering Link 1 = /share/apps/gaussian16/g16/l1.exe PID=     34492.
  
 Copyright (c) 1988,1990,1992,1993,1995,1998,2003,2009,2016,
            Gaussian, Inc.  All Rights Reserved.
  
 This is part of the Gaussian(R) 16 program.  It is based on
 the Gaussian(R) 09 system (copyright 2009, Gaussian, Inc.),
 the Gaussian(R) 03 system (copyright 2003, Gaussian, Inc.),
 the Gaussian(R) 98 system (copyright 1998, Gaussian, Inc.),
 the Gaussian(R) 94 system (copyright 1995, Gaussian, Inc.),
 the Gaussian 92(TM) system (copyright 1992, Gaussian, Inc.),
 the Gaussian 90(TM) system (copyright 1990, Gaussian, Inc.),
 the Gaussian 88(TM) system (copyright 1988, Gaussian, Inc.),
 the Gaussian 86(TM) system (copyright 1986, Carnegie Mellon
 University), and the Gaussian 82(TM) system (copyright 1983,
 Carnegie Mellon University). Gaussian is a federally registered
 trademark of Gaussian, Inc.
  
 This software contains proprietary and confidential information,
 including trade secrets, belonging to Gaussian, Inc.
  
 This software is provided under written license and may be
 used, copied, transmitted, or stored only in accord with that
 written license.
  
 The following legend is applicable only to US Government
 contracts under FAR:
  
                    RESTRICTED RIGHTS LEGEND
  
 Use, reproduction and disclosure by the US Government is
 subject to restrictions as set forth in subparagraphs (a)
 and (c) of the Commercial Computer Software - Restricted
 Rights clause in FAR 52.227-19.
  
 Gaussian, Inc.
 340 Quinnipiac St., Bldg. 40, Wallingford CT 06492
  
  
 ---------------------------------------------------------------
 Warning -- This program may not be used in any manner that
 competes with the business of Gaussian, Inc. or will provide
 assistance to any competitor of Gaussian, Inc.  The licensee
 of this program is prohibited from giving any competitor of
 Gaussian, Inc. access to this program.  By using this program,
 the user acknowledges that Gaussian, Inc. is engaged in the
 business of creating and licensing software in the field of
 computational chemistry and represents and warrants to the
 licensee that it is not a competitor of Gaussian, Inc. and that
 it will not use this program in any manner prohibited above.
 ---------------------------------------------------------------
  

 Cite this work as:
 Gaussian 16, Revision A.03,
 M. J. Frisch, G. W. Trucks, H. B. Schlegel, G. E. Scuseria, 
 M. A. Robb, J. R. Cheeseman, G. Scalmani, V. Barone, 
 G. A. Petersson, H. Nakatsuji, X. Li, M. Caricato, A. V. Marenich, 
 J. Bloino, B. G. Janesko, R. Gomperts, B. Mennucci, H. P. Hratchian, 
 J. V. Ortiz, A. F. Izmaylov, J. L. Sonnenberg, D. Williams-Young, 
 F. Ding, F. Lipparini, F. Egidi, J. Goings, B. Peng, A. Petrone, 
 T. Henderson, D. Ranasinghe, V. G. Zakrzewski, J. Gao, N. Rega, 
 G. Zheng, W. Liang, M. Hada, M. Ehara, K. Toyota, R. Fukuda, 
 J. Hasegawa, M. Ishida, T. Nakajima, Y. Honda, O. Kitao, H. Nakai, 
 T. Vreven, K. Throssell, J. A. Montgomery, Jr., J. E. Peralta, 
 F. Ogliaro, M. J. Bearpark, J. J. Heyd, E. N. Brothers, K. N. Kudin, 
 V. N. Staroverov, T. A. Keith, R. Kobayashi, J. Normand, 
 K. Raghavachari, A. P. Rendell, J. C. Burant, S. S. Iyengar, 
 J. Tomasi, M. Cossi, J. M. Millam, M. Klene, C. Adamo, R. Cammi, 
 J. W. Ochterski, R. L. Martin, K. Morokuma, O. Farkas, 
 J. B. Foresman, and D. J. Fox, Gaussian, Inc., Wallingford CT, 2016.
 
 ******************************************
 Gaussian 16:  ES64L-G16RevA.03 25-Dec-2016
                 4-Apr-2019 
 ******************************************
 %nprocshared=20
 Will use up to   20 processors via shared memory.
 %mem=100GB
 %chk=7-memb-TSguess-3a.chk
 ----------------------------------------------------------------------
 # opt=(ts,calcfc,modredundant,noeigen) freq b3lyp/6-311+g(d,p) int=gri
 d=fine
 ----------------------------------------------------------------------
 1/5=1,10=4,11=1,18=120,26=3,38=1/1,3;
 2/9=110,12=2,17=6,18=5,40=1/2;
 3/5=4,6=6,7=111,11=2,25=1,30=1,71=2,74=-5,75=-4,140=1/1,2,3;
 4//1;
 5/5=2,38=5/2;
 8/6=4,10=90,11=11/1;
 11/6=1,8=1,9=11,15=111,16=1/1,2,10;
 10/6=1,13=1/2;
 6/7=2,8=2,9=2,10=2,28=1/1;
 7/10=1,18=20,25=1/1,2,3,16;
 1/5=1,10=4,11=1,18=20,26=3/3(2);
 2/9=110/2;
 99//99;
 2/9=110/2;
 3/5=4,6=6,7=111,11=2,25=1,30=1,71=1,74=-5,75=-4/1,2,3;
 4/5=5,16=3,69=1/1;
 5/5=2,38=5/2;
 7//1,2,3,16;
 1/5=1,11=1,18=20,26=3/3(-5);
 2/9=110/2;
 6/7=2,8=2,9=2,10=2,19=2,28=1/1;
 99/9=1/99;
 ----------------
 7-memb-TSguess3a
 ----------------
 Symbolic Z-matrix:
 Charge =  0 Multiplicity = 2
 C                     1.51317   3.40739   0.29078 
 C                     0.32917   2.61238   0.23979 
 C                     0.44911   1.24494   0.06483 
 C                     2.79888   2.8923    0.20001 
 C                     2.97302   1.48919   0.05166 
 C                     1.78807   0.76467  -0.01811 
 C                    -0.42539   0.01688   0.00894 
 C                     0.46248  -1.07167  -0.06618 
 C                     1.79334  -0.62493  -0.09299 
 C                     0.17741  -2.44404  -0.05773 
 C                    -1.17945  -2.7606    0.03154 
 C                    -2.15465  -1.73614   0.08489 
 C                    -1.80258  -0.306     0.04453 
 C                    -3.53324  -2.09425   0.19235 
 C                    -4.52683  -1.15467   0.23784 
 C                    -2.89662   0.58907   0.04294 
 C                    -4.20192   0.22876   0.1395 
 H                    -0.62963   3.10062   0.35139 
 H                     1.39286   4.47771   0.41915 
 H                     3.65277   3.55905   0.2587 
 C                     4.17706   0.69413   0.00204 
 C                     2.91564  -1.42131  -0.10979 
 C                     1.33739  -3.31805  -0.10136 
 H                    -1.51506  -3.79248   0.07189 
 H                    -3.78149  -3.14944   0.23532 
 H                    -4.99116   0.97152   0.11553 
 H                    -5.56556  -1.45514   0.32241 
 C                    -2.82117   2.67562  -0.82717 
 C                    -3.48138   3.49454  -0.2074 
 H                    -4.08625   4.05359   0.46654 
 H                    -2.20493   2.33594  -1.63016 
 C                     4.15586  -0.68954  -0.07455 
 C                     2.63038  -2.84316  -0.12675 
 H                     5.13799   1.19741   0.03881 
 H                     5.09898  -1.22602  -0.09514 
 H                     3.44958  -3.55461  -0.14853 
 H                     1.17546  -4.39116  -0.10365 
 
 Add virtual bond connecting atoms C28        and C16        Dist= 4.27D+00.
 The following ModRedundant input section has been read:
 B      16      28 F                                                           
 

 GradGradGradGradGradGradGradGradGradGradGradGradGradGradGradGradGradGrad
 Berny optimization.
 Initialization pass.
                           ----------------------------
                           !    Initial Parameters    !
                           ! (Angstroms and Degrees)  !
 --------------------------                            --------------------------
 ! Name  Definition              Value          Derivative Info.                !
 --------------------------------------------------------------------------------
 ! R1    R(1,2)                  1.4271         calculate D2E/DX2 analytically  !
 ! R2    R(1,4)                  1.388          calculate D2E/DX2 analytically  !
 ! R3    R(1,19)                 1.0847         calculate D2E/DX2 analytically  !
 ! R4    R(2,3)                  1.3838         calculate D2E/DX2 analytically  !
 ! R5    R(2,18)                 1.0817         calculate D2E/DX2 analytically  !
 ! R6    R(3,6)                  1.4249         calculate D2E/DX2 analytically  !
 ! R7    R(3,7)                  1.5086         calculate D2E/DX2 analytically  !
 ! R8    R(4,5)                  1.4216         calculate D2E/DX2 analytically  !
 ! R9    R(4,20)                 1.085          calculate D2E/DX2 analytically  !
 ! R10   R(5,6)                  1.3907         calculate D2E/DX2 analytically  !
 ! R11   R(5,21)                 1.4437         calculate D2E/DX2 analytically  !
 ! R12   R(6,9)                  1.3916         calculate D2E/DX2 analytically  !
 ! R13   R(7,8)                  1.4067         calculate D2E/DX2 analytically  !
 ! R14   R(7,13)                 1.415          calculate D2E/DX2 analytically  !
 ! R15   R(8,9)                  1.4041         calculate D2E/DX2 analytically  !
 ! R16   R(8,10)                 1.4017         calculate D2E/DX2 analytically  !
 ! R17   R(9,22)                 1.3762         calculate D2E/DX2 analytically  !
 ! R18   R(10,11)                1.3962         calculate D2E/DX2 analytically  !
 ! R19   R(10,23)                1.4531         calculate D2E/DX2 analytically  !
 ! R20   R(11,12)                1.4154         calculate D2E/DX2 analytically  !
 ! R21   R(11,24)                1.0858         calculate D2E/DX2 analytically  !
 ! R22   R(12,13)                1.4734         calculate D2E/DX2 analytically  !
 ! R23   R(12,14)                1.4284         calculate D2E/DX2 analytically  !
 ! R24   R(13,16)                1.4135         calculate D2E/DX2 analytically  !
 ! R25   R(14,15)                1.3683         calculate D2E/DX2 analytically  !
 ! R26   R(14,25)                1.0848         calculate D2E/DX2 analytically  !
 ! R27   R(15,17)                1.4245         calculate D2E/DX2 analytically  !
 ! R28   R(15,27)                1.0846         calculate D2E/DX2 analytically  !
 ! R29   R(16,17)                1.3576         calculate D2E/DX2 analytically  !
 ! R30   R(16,28)                2.262          frozen, calculate D2E/DX2 analyt!
 ! R31   R(17,26)                1.0841         calculate D2E/DX2 analytically  !
 ! R32   R(21,32)                1.386          calculate D2E/DX2 analytically  !
 ! R33   R(21,34)                1.0854         calculate D2E/DX2 analytically  !
 ! R34   R(22,32)                1.4404         calculate D2E/DX2 analytically  !
 ! R35   R(22,33)                1.4503         calculate D2E/DX2 analytically  !
 ! R36   R(23,33)                1.3777         calculate D2E/DX2 analytically  !
 ! R37   R(23,37)                1.0853         calculate D2E/DX2 analytically  !
 ! R38   R(28,29)                1.2209         calculate D2E/DX2 analytically  !
 ! R39   R(28,31)                1.0677         calculate D2E/DX2 analytically  !
 ! R40   R(29,30)                1.0642         calculate D2E/DX2 analytically  !
 ! R41   R(32,35)                1.0852         calculate D2E/DX2 analytically  !
 ! R42   R(33,36)                1.0852         calculate D2E/DX2 analytically  !
 ! A1    A(2,1,4)              124.0172         calculate D2E/DX2 analytically  !
 ! A2    A(2,1,19)             117.5115         calculate D2E/DX2 analytically  !
 ! A3    A(4,1,19)             118.4679         calculate D2E/DX2 analytically  !
 ! A4    A(1,2,3)              118.8893         calculate D2E/DX2 analytically  !
 ! A5    A(1,2,18)             118.7019         calculate D2E/DX2 analytically  !
 ! A6    A(3,2,18)             122.4046         calculate D2E/DX2 analytically  !
 ! A7    A(2,3,6)              114.9532         calculate D2E/DX2 analytically  !
 ! A8    A(2,3,7)              139.3615         calculate D2E/DX2 analytically  !
 ! A9    A(6,3,7)              105.5559         calculate D2E/DX2 analytically  !
 ! A10   A(1,4,5)              119.1143         calculate D2E/DX2 analytically  !
 ! A11   A(1,4,20)             119.8296         calculate D2E/DX2 analytically  !
 ! A12   A(5,4,20)             121.0489         calculate D2E/DX2 analytically  !
 ! A13   A(4,5,6)              114.523          calculate D2E/DX2 analytically  !
 ! A14   A(4,5,21)             130.487          calculate D2E/DX2 analytically  !
 ! A15   A(6,5,21)             114.9608         calculate D2E/DX2 analytically  !
 ! A16   A(3,6,5)              128.475          calculate D2E/DX2 analytically  !
 ! A17   A(3,6,9)              110.0753         calculate D2E/DX2 analytically  !
 ! A18   A(5,6,9)              121.3121         calculate D2E/DX2 analytically  !
 ! A19   A(3,7,8)              105.4275         calculate D2E/DX2 analytically  !
 ! A20   A(3,7,13)             138.5037         calculate D2E/DX2 analytically  !
 ! A21   A(8,7,13)             116.0442         calculate D2E/DX2 analytically  !
 ! A22   A(7,8,9)              110.6741         calculate D2E/DX2 analytically  !
 ! A23   A(7,8,10)             128.9721         calculate D2E/DX2 analytically  !
 ! A24   A(9,8,10)             120.2916         calculate D2E/DX2 analytically  !
 ! A25   A(6,9,8)              108.2453         calculate D2E/DX2 analytically  !
 ! A26   A(6,9,22)             125.5604         calculate D2E/DX2 analytically  !
 ! A27   A(8,9,22)             126.0909         calculate D2E/DX2 analytically  !
 ! A28   A(8,10,11)            114.8369         calculate D2E/DX2 analytically  !
 ! A29   A(8,10,23)            115.238          calculate D2E/DX2 analytically  !
 ! A30   A(11,10,23)           129.8943         calculate D2E/DX2 analytically  !
 ! A31   A(10,11,12)           120.5236         calculate D2E/DX2 analytically  !
 ! A32   A(10,11,24)           121.2134         calculate D2E/DX2 analytically  !
 ! A33   A(12,11,24)           118.2602         calculate D2E/DX2 analytically  !
 ! A34   A(11,12,13)           122.4711         calculate D2E/DX2 analytically  !
 ! A35   A(11,12,14)           119.1            calculate D2E/DX2 analytically  !
 ! A36   A(13,12,14)           118.427          calculate D2E/DX2 analytically  !
 ! A37   A(7,13,12)            117.0493         calculate D2E/DX2 analytically  !
 ! A38   A(7,13,16)            127.5014         calculate D2E/DX2 analytically  !
 ! A39   A(12,13,16)           115.4491         calculate D2E/DX2 analytically  !
 ! A40   A(12,14,15)           122.0863         calculate D2E/DX2 analytically  !
 ! A41   A(12,14,25)           117.885          calculate D2E/DX2 analytically  !
 ! A42   A(15,14,25)           120.0285         calculate D2E/DX2 analytically  !
 ! A43   A(14,15,17)           119.9329         calculate D2E/DX2 analytically  !
 ! A44   A(14,15,27)           120.5182         calculate D2E/DX2 analytically  !
 ! A45   A(17,15,27)           119.5296         calculate D2E/DX2 analytically  !
 ! A46   A(13,16,17)           125.1726         calculate D2E/DX2 analytically  !
 ! A47   A(13,16,28)           123.9679         calculate D2E/DX2 analytically  !
 ! A48   A(17,16,28)           107.7135         calculate D2E/DX2 analytically  !
 ! A49   A(15,17,16)           118.8153         calculate D2E/DX2 analytically  !
 ! A50   A(15,17,26)           120.0592         calculate D2E/DX2 analytically  !
 ! A51   A(16,17,26)           121.1043         calculate D2E/DX2 analytically  !
 ! A52   A(5,21,32)            122.6117         calculate D2E/DX2 analytically  !
 ! A53   A(5,21,34)            118.8063         calculate D2E/DX2 analytically  !
 ! A54   A(32,21,34)           118.5773         calculate D2E/DX2 analytically  !
 ! A55   A(9,22,32)            114.0709         calculate D2E/DX2 analytically  !
 ! A56   A(9,22,33)            114.0196         calculate D2E/DX2 analytically  !
 ! A57   A(32,22,33)           131.8896         calculate D2E/DX2 analytically  !
 ! A58   A(10,23,33)           122.8502         calculate D2E/DX2 analytically  !
 ! A59   A(10,23,37)           118.4058         calculate D2E/DX2 analytically  !
 ! A60   A(33,23,37)           118.7409         calculate D2E/DX2 analytically  !
 ! A61   A(16,28,29)           113.9175         calculate D2E/DX2 analytically  !
 ! A62   A(16,28,31)            90.8641         calculate D2E/DX2 analytically  !
 ! A63   A(29,28,31)           155.1343         calculate D2E/DX2 analytically  !
 ! A64   A(21,32,22)           121.4463         calculate D2E/DX2 analytically  !
 ! A65   A(21,32,35)           118.7696         calculate D2E/DX2 analytically  !
 ! A66   A(22,32,35)           119.7794         calculate D2E/DX2 analytically  !
 ! A67   A(22,33,23)           121.4894         calculate D2E/DX2 analytically  !
 ! A68   A(22,33,36)           119.6352         calculate D2E/DX2 analytically  !
 ! A69   A(23,33,36)           118.8717         calculate D2E/DX2 analytically  !
 ! A70   L(28,29,30,19,-1)     182.428          calculate D2E/DX2 analytically  !
 ! A71   L(28,29,30,19,-2)     191.6156         calculate D2E/DX2 analytically  !
 ! D1    D(4,1,2,3)             -1.2512         calculate D2E/DX2 analytically  !
 ! D2    D(4,1,2,18)           178.0269         calculate D2E/DX2 analytically  !
 ! D3    D(19,1,2,3)           179.4297         calculate D2E/DX2 analytically  !
 ! D4    D(19,1,2,18)           -1.2922         calculate D2E/DX2 analytically  !
 ! D5    D(2,1,4,5)             -0.2435         calculate D2E/DX2 analytically  !
 ! D6    D(2,1,4,20)          -179.2733         calculate D2E/DX2 analytically  !
 ! D7    D(19,1,4,5)           179.0696         calculate D2E/DX2 analytically  !
 ! D8    D(19,1,4,20)            0.0397         calculate D2E/DX2 analytically  !
 ! D9    D(1,2,3,6)              1.363          calculate D2E/DX2 analytically  !
 ! D10   D(1,2,3,7)            176.4416         calculate D2E/DX2 analytically  !
 ! D11   D(18,2,3,6)          -177.8871         calculate D2E/DX2 analytically  !
 ! D12   D(18,2,3,7)            -2.8084         calculate D2E/DX2 analytically  !
 ! D13   D(2,3,6,5)             -0.117          calculate D2E/DX2 analytically  !
 ! D14   D(2,3,6,9)            175.6043         calculate D2E/DX2 analytically  !
 ! D15   D(7,3,6,5)           -176.7922         calculate D2E/DX2 analytically  !
 ! D16   D(7,3,6,9)             -1.0709         calculate D2E/DX2 analytically  !
 ! D17   D(2,3,7,8)           -173.901          calculate D2E/DX2 analytically  !
 ! D18   D(2,3,7,13)             4.1073         calculate D2E/DX2 analytically  !
 ! D19   D(6,3,7,8)              1.468          calculate D2E/DX2 analytically  !
 ! D20   D(6,3,7,13)           179.4763         calculate D2E/DX2 analytically  !
 ! D21   D(1,4,5,6)              1.3989         calculate D2E/DX2 analytically  !
 ! D22   D(1,4,5,21)          -176.5064         calculate D2E/DX2 analytically  !
 ! D23   D(20,4,5,6)          -179.5835         calculate D2E/DX2 analytically  !
 ! D24   D(20,4,5,21)            2.5112         calculate D2E/DX2 analytically  !
 ! D25   D(4,5,6,3)             -1.2929         calculate D2E/DX2 analytically  !
 ! D26   D(4,5,6,9)           -176.5881         calculate D2E/DX2 analytically  !
 ! D27   D(21,5,6,3)           176.95           calculate D2E/DX2 analytically  !
 ! D28   D(21,5,6,9)             1.6547         calculate D2E/DX2 analytically  !
 ! D29   D(4,5,21,32)          176.305          calculate D2E/DX2 analytically  !
 ! D30   D(4,5,21,34)           -2.8935         calculate D2E/DX2 analytically  !
 ! D31   D(6,5,21,32)           -1.5929         calculate D2E/DX2 analytically  !
 ! D32   D(6,5,21,34)          179.2085         calculate D2E/DX2 analytically  !
 ! D33   D(3,6,9,8)              0.2561         calculate D2E/DX2 analytically  !
 ! D34   D(3,6,9,22)          -176.2253         calculate D2E/DX2 analytically  !
 ! D35   D(5,6,9,8)            176.3359         calculate D2E/DX2 analytically  !
 ! D36   D(5,6,9,22)            -0.1455         calculate D2E/DX2 analytically  !
 ! D37   D(3,7,8,9)             -1.3746         calculate D2E/DX2 analytically  !
 ! D38   D(3,7,8,10)           175.7157         calculate D2E/DX2 analytically  !
 ! D39   D(13,7,8,9)          -179.906          calculate D2E/DX2 analytically  !
 ! D40   D(13,7,8,10)           -2.8157         calculate D2E/DX2 analytically  !
 ! D41   D(3,7,13,12)         -174.1335         calculate D2E/DX2 analytically  !
 ! D42   D(3,7,13,16)            6.0275         calculate D2E/DX2 analytically  !
 ! D43   D(8,7,13,12)            3.7295         calculate D2E/DX2 analytically  !
 ! D44   D(8,7,13,16)         -176.1094         calculate D2E/DX2 analytically  !
 ! D45   D(7,8,9,6)              0.751          calculate D2E/DX2 analytically  !
 ! D46   D(7,8,9,22)           177.2088         calculate D2E/DX2 analytically  !
 ! D47   D(10,8,9,6)          -176.6293         calculate D2E/DX2 analytically  !
 ! D48   D(10,8,9,22)           -0.1715         calculate D2E/DX2 analytically  !
 ! D49   D(7,8,10,11)            0.3386         calculate D2E/DX2 analytically  !
 ! D50   D(7,8,10,23)         -177.8465         calculate D2E/DX2 analytically  !
 ! D51   D(9,8,10,11)          177.1856         calculate D2E/DX2 analytically  !
 ! D52   D(9,8,10,23)           -0.9995         calculate D2E/DX2 analytically  !
 ! D53   D(6,9,22,32)           -1.4436         calculate D2E/DX2 analytically  !
 ! D54   D(6,9,22,33)          177.1298         calculate D2E/DX2 analytically  !
 ! D55   D(8,9,22,32)         -177.3072         calculate D2E/DX2 analytically  !
 ! D56   D(8,9,22,33)            1.2661         calculate D2E/DX2 analytically  !
 ! D57   D(8,10,11,12)           0.9701         calculate D2E/DX2 analytically  !
 ! D58   D(8,10,11,24)        -178.4119         calculate D2E/DX2 analytically  !
 ! D59   D(23,10,11,12)        178.8302         calculate D2E/DX2 analytically  !
 ! D60   D(23,10,11,24)         -0.5518         calculate D2E/DX2 analytically  !
 ! D61   D(8,10,23,33)           1.0472         calculate D2E/DX2 analytically  !
 ! D62   D(8,10,23,37)        -179.5999         calculate D2E/DX2 analytically  !
 ! D63   D(11,10,23,33)       -176.806          calculate D2E/DX2 analytically  !
 ! D64   D(11,10,23,37)          2.5469         calculate D2E/DX2 analytically  !
 ! D65   D(10,11,12,13)          0.2556         calculate D2E/DX2 analytically  !
 ! D66   D(10,11,12,14)       -179.2468         calculate D2E/DX2 analytically  !
 ! D67   D(24,11,12,13)        179.6556         calculate D2E/DX2 analytically  !
 ! D68   D(24,11,12,14)          0.1531         calculate D2E/DX2 analytically  !
 ! D69   D(11,12,13,7)          -2.7449         calculate D2E/DX2 analytically  !
 ! D70   D(11,12,13,16)        177.1136         calculate D2E/DX2 analytically  !
 ! D71   D(14,12,13,7)         176.7607         calculate D2E/DX2 analytically  !
 ! D72   D(14,12,13,16)         -3.3808         calculate D2E/DX2 analytically  !
 ! D73   D(11,12,14,15)       -179.4718         calculate D2E/DX2 analytically  !
 ! D74   D(11,12,14,25)          0.3605         calculate D2E/DX2 analytically  !
 ! D75   D(13,12,14,15)          1.0055         calculate D2E/DX2 analytically  !
 ! D76   D(13,12,14,25)       -179.1622         calculate D2E/DX2 analytically  !
 ! D77   D(7,13,16,17)        -176.8292         calculate D2E/DX2 analytically  !
 ! D78   D(7,13,16,28)          25.7185         calculate D2E/DX2 analytically  !
 ! D79   D(12,13,16,17)          3.3296         calculate D2E/DX2 analytically  !
 ! D80   D(12,13,16,28)       -154.1226         calculate D2E/DX2 analytically  !
 ! D81   D(12,14,15,17)          1.7751         calculate D2E/DX2 analytically  !
 ! D82   D(12,14,15,27)       -179.8292         calculate D2E/DX2 analytically  !
 ! D83   D(25,14,15,17)       -178.0537         calculate D2E/DX2 analytically  !
 ! D84   D(25,14,15,27)          0.342          calculate D2E/DX2 analytically  !
 ! D85   D(14,15,17,16)         -2.0089         calculate D2E/DX2 analytically  !
 ! D86   D(14,15,17,26)        176.3365         calculate D2E/DX2 analytically  !
 ! D87   D(27,15,17,16)        179.5795         calculate D2E/DX2 analytically  !
 ! D88   D(27,15,17,26)         -2.0751         calculate D2E/DX2 analytically  !
 ! D89   D(13,16,17,15)         -0.6805         calculate D2E/DX2 analytically  !
 ! D90   D(13,16,17,26)       -179.008          calculate D2E/DX2 analytically  !
 ! D91   D(28,16,17,15)        159.8172         calculate D2E/DX2 analytically  !
 ! D92   D(28,16,17,26)        -18.5103         calculate D2E/DX2 analytically  !
 ! D93   D(13,16,28,29)       -144.3638         calculate D2E/DX2 analytically  !
 ! D94   D(13,16,28,31)         37.7412         calculate D2E/DX2 analytically  !
 ! D95   D(17,16,28,29)         54.8469         calculate D2E/DX2 analytically  !
 ! D96   D(17,16,28,31)       -123.0481         calculate D2E/DX2 analytically  !
 ! D97   D(5,21,32,22)           0.0197         calculate D2E/DX2 analytically  !
 ! D98   D(5,21,32,35)        -179.188          calculate D2E/DX2 analytically  !
 ! D99   D(34,21,32,22)        179.22           calculate D2E/DX2 analytically  !
 ! D100  D(34,21,32,35)          0.0123         calculate D2E/DX2 analytically  !
 ! D101  D(9,22,32,21)           1.463          calculate D2E/DX2 analytically  !
 ! D102  D(9,22,32,35)        -179.3371         calculate D2E/DX2 analytically  !
 ! D103  D(33,22,32,21)       -176.7864         calculate D2E/DX2 analytically  !
 ! D104  D(33,22,32,35)          2.4134         calculate D2E/DX2 analytically  !
 ! D105  D(9,22,33,23)          -1.1817         calculate D2E/DX2 analytically  !
 ! D106  D(9,22,33,36)         179.5249         calculate D2E/DX2 analytically  !
 ! D107  D(32,22,33,23)        177.0685         calculate D2E/DX2 analytically  !
 ! D108  D(32,22,33,36)         -2.225          calculate D2E/DX2 analytically  !
 ! D109  D(10,23,33,22)          0.0663         calculate D2E/DX2 analytically  !
 ! D110  D(10,23,33,36)        179.365          calculate D2E/DX2 analytically  !
 ! D111  D(37,23,33,22)       -179.2845         calculate D2E/DX2 analytically  !
 ! D112  D(37,23,33,36)          0.0142         calculate D2E/DX2 analytically  !
 --------------------------------------------------------------------------------
 Trust Radius=3.00D-01 FncErr=1.00D-07 GrdErr=1.00D-06 EigMax=2.50D+02 EigMin=1.00D-04
 Number of steps in this run=    222 maximum allowed number of steps=    222.
 Search for a saddle point of order  1.
 GradGradGradGradGradGradGradGradGradGradGradGradGradGradGradGradGradGrad

                          Input orientation:                          
 ---------------------------------------------------------------------
 Center     Atomic      Atomic             Coordinates (Angstroms)
 Number     Number       Type             X           Y           Z
 ---------------------------------------------------------------------
      1          6           0        1.513167    3.407394    0.290784
      2          6           0        0.329166    2.612375    0.239793
      3          6           0        0.449110    1.244938    0.064825
      4          6           0        2.798878    2.892299    0.200012
      5          6           0        2.973022    1.489188    0.051661
      6          6           0        1.788065    0.764674   -0.018114
      7          6           0       -0.425390    0.016882    0.008941
      8          6           0        0.462482   -1.071673   -0.066177
      9          6           0        1.793341   -0.624932   -0.092994
     10          6           0        0.177407   -2.444038   -0.057727
     11          6           0       -1.179452   -2.760601    0.031543
     12          6           0       -2.154651   -1.736137    0.084893
     13          6           0       -1.802575   -0.306004    0.044534
     14          6           0       -3.533236   -2.094252    0.192347
     15          6           0       -4.526831   -1.154673    0.237835
     16          6           0       -2.896615    0.589066    0.042943
     17          6           0       -4.201920    0.228755    0.139498
     18          1           0       -0.629628    3.100618    0.351387
     19          1           0        1.392857    4.477706    0.419146
     20          1           0        3.652766    3.559046    0.258696
     21          6           0        4.177058    0.694134    0.002035
     22          6           0        2.915644   -1.421305   -0.109792
     23          6           0        1.337388   -3.318052   -0.101355
     24          1           0       -1.515058   -3.792476    0.071893
     25          1           0       -3.781492   -3.149438    0.235318
     26          1           0       -4.991163    0.971519    0.115527
     27          1           0       -5.565559   -1.455143    0.322410
     28          6           0       -2.821171    2.675620   -0.827172
     29          6           0       -3.481381    3.494542   -0.207395
     30          1           0       -4.086252    4.053593    0.466540
     31          1           0       -2.204930    2.335940   -1.630156
     32          6           0        4.155860   -0.689544   -0.074548
     33          6           0        2.630375   -2.843157   -0.126745
     34          1           0        5.137991    1.197414    0.038808
     35          1           0        5.098976   -1.226015   -0.095136
     36          1           0        3.449583   -3.554613   -0.148530
     37          1           0        1.175455   -4.391157   -0.103645
 ---------------------------------------------------------------------
                    Distance matrix (angstroms):
                    1          2          3          4          5
     1  C    0.000000
     2  C    1.427065   0.000000
     3  C    2.420638   1.383793   0.000000
     4  C    1.388026   2.485843   2.872888   0.000000
     5  C    2.422369   2.878701   2.535737   1.421638   0.000000
     6  C    2.674875   2.368312   1.424897   2.365610   1.390652
     7  C    3.915739   2.712790   1.508640   4.324400   3.703878
     8  C    4.614477   3.699135   2.320351   4.608978   3.588134
     9  C    4.060226   3.568573   2.308306   3.669860   2.425299
    10  C    6.012069   5.067431   3.700998   5.951053   4.826769
    11  C    6.735100   5.584637   4.324080   6.914533   5.941730
    12  C    6.320695   5.010279   3.958129   6.780348   6.057793
    13  C    4.984386   3.619307   2.734213   5.605951   5.101871
    14  C    7.466189   6.088739   5.198609   8.059865   7.429147
    15  C    7.569467   6.145841   5.527029   8.369315   7.954399
    16  C    5.239330   3.812898   3.409475   6.145583   5.938260
    17  C    6.541319   5.120785   4.761332   7.490614   7.285341
    18  H    2.165492   1.081721   2.165489   3.438163   3.957983
    19  H    1.084675   2.154777   3.386295   2.130359   3.400472
    20  H    2.145207   3.455844   3.956778   1.084952   2.188430
    21  C    3.813328   4.306095   3.768942   2.602019   1.443702
    22  C    5.044179   4.804441   3.636363   4.326291   2.915532
    23  C    6.739161   6.025185   4.651616   6.387115   5.080184
    24  H    7.813846   6.667193   5.406805   7.956926   6.931035
    25  H    8.427843   7.077854   6.102262   8.933370   8.195977
    26  H    6.947698   5.568999   5.447375   8.023794   7.981247
    27  H    8.587993   7.162354   6.597957   9.427568   9.036025
    28  C    4.535615   3.326716   3.679300   5.717255   5.979351
    29  C    5.020088   3.936809   4.536913   6.322209   6.763717
    30  H    5.639322   4.650209   5.349713   6.987464   7.522077
    31  H    4.319985   3.161450   3.332743   5.356972   5.509690
    32  C    4.888987   5.064096   4.183496   3.840102   2.482319
    33  C    6.363322   5.932347   4.637579   5.747227   4.349534
    34  H    4.252864   5.016703   4.689194   2.893108   2.184580
    35  H    5.871579   6.131599   5.268059   4.726317   3.451602
    36  H    7.239630   6.922394   5.664278   6.489035   5.070218
    37  H    7.815819   7.062833   5.685202   7.468363   6.150921
                    6          7          8          9         10
     6  C    0.000000
     7  C    2.336516   0.000000
     8  C    2.265315   1.406738   0.000000
     9  C    1.391632   2.311944   1.404095   0.000000
    10  C    3.590490   2.534548   1.401686   2.433441   0.000000
    11  C    4.608274   2.878113   2.357536   3.662525   1.396155
    12  C    4.670083   2.463572   2.704389   4.105248   2.441303
    13  C    3.747395   1.414977   2.393531   3.612650   2.915815
    14  C    6.044336   3.761546   4.132586   5.532878   3.735473
    15  C    6.605098   4.271622   4.999256   6.350956   4.886683
    16  C    4.688368   2.536829   3.748799   4.846438   4.319660
    17  C    6.015976   3.784721   4.846655   6.060197   5.134318
    18  H    3.382071   3.109407   4.333022   4.466316   5.617997
    19  H    3.759520   4.834588   5.647720   5.143889   7.043811
    20  H    3.370793   5.407463   5.632674   4.592039   6.943721
    21  C    2.390119   4.652015   4.113490   2.725999   5.084182
    22  C    2.461370   3.639366   2.478336   1.376247   2.923463
    23  C    4.108368   3.773770   2.410999   2.731457   1.453052
    24  H    5.629062   3.962644   3.366377   4.583233   2.167839
    25  H    6.812082   4.619551   4.734905   6.128595   4.031916
    26  H    6.783699   4.665723   5.826654   6.972921   6.197593
    27  H    7.688910   5.355974   6.052712   7.417225   5.839870
    28  C    5.054834   3.675288   5.040208   5.720698   5.982843
    29  C    5.937598   4.634652   6.035256   6.693717   6.976809
    30  H    6.749776   5.468669   6.873363   7.534672   7.789278
    31  H    4.583837   3.351333   4.601407   5.207283   5.567428
    32  C    2.779278   4.636147   3.713103   2.363474   4.348174
    33  C    3.706445   4.187593   2.800283   2.371136   2.486184
    34  H    3.378240   5.687333   5.198092   3.811168   6.154420
    35  H    3.864053   5.663413   4.639153   3.359840   5.070189
    36  H    4.629675   5.272171   3.885170   3.365896   3.456698
    37  H    5.192803   4.691075   3.395395   3.816588   2.188488
                   11         12         13         14         15
    11  C    0.000000
    12  C    1.415410   0.000000
    13  C    2.532488   1.473386   0.000000
    14  C    2.451566   1.428387   2.492964   0.000000
    15  C    3.718401   2.447188   2.859926   1.368250   0.000000
    16  C    3.764180   2.441073   1.413533   2.761848   2.395039
    17  C    4.252437   2.838150   2.460049   2.417911   1.424468
    18  H    5.895634   5.078475   3.615942   5.953395   5.771359
    19  H    7.691560   7.162987   5.764981   8.216353   8.173082
    20  H    7.958635   7.860996   6.689187   9.143457   9.440624
    21  C    6.374030   6.782597   6.062845   8.201216   8.901201
    22  C    4.310858   5.083789   4.850701   6.490932   7.455359
    23  C    2.581259   3.838161   4.353514   5.030599   6.259738
    24  H    1.085829   2.153550   3.498414   2.640363   4.007034
    25  H    2.638812   2.160245   3.469528   1.084848   2.129466
    26  H    5.335252   3.921497   3.435724   3.395645   2.179738
    27  H    4.585494   3.430695   3.944336   2.134412   1.084616
    28  C    5.743268   4.554087   3.269173   4.929314   4.326044
    29  C    6.669541   5.404225   4.162452   5.603312   4.786063
    30  H    7.421048   6.115367   4.939570   6.178754   5.231869
    31  H    5.457800   4.418793   3.153783   4.971168   4.589662
    32  C    5.724167   6.398697   5.971954   7.820910   8.700750
    33  C    3.814007   4.915970   5.110531   6.217136   7.362710
    34  H    7.454933   7.860692   7.101532   9.276250   9.948905
    35  H    6.464492   7.273771   6.964003   8.680528   9.631828
    36  H    4.700090   5.896506   6.178665   7.142031   8.338595
    37  H    2.867503   4.263131   5.057578   5.247395   6.565630
                   16         17         18         19         20
    16  C    0.000000
    17  C    1.357560   0.000000
    18  H    3.397390   4.588438   0.000000
    19  H    5.801950   7.030883   2.447735   0.000000
    20  H    7.194562   8.532358   4.307859   2.444764   0.000000
    21  C    7.074572   8.393018   5.386784   4.716055   2.923778
    22  C    6.152014   7.310579   5.764497   6.115308   5.048072
    23  C    5.763087   6.581929   6.728555   7.813312   7.265335
    24  H    4.594284   4.836744   6.955347   8.773395   8.988113
    25  H    3.846612   3.405603   7.000780   9.218514  10.013616
    26  H    2.130415   1.084056   4.859185   7.289804   9.024040
    27  H    3.373448   2.174507   6.717084   9.144813  10.493982
    28  C    2.261968   2.971206   2.524378   4.749616   6.623550
    29  C    2.974292   3.362272   2.932560   5.011722   7.149647
    30  H    3.687495   3.840537   3.587432   5.495703   7.757588
    31  H    2.515801   3.399981   2.644394   4.661638   6.275058
    32  C    7.168406   8.410801   6.119448   5.880339   4.291232
    33  C    6.508192   7.495851   6.795932   7.444762   6.494771
    34  H    8.057605   9.390547   6.081556   4.993095   2.798491
    35  H    8.200187   9.416904   7.192777   6.821454   5.011340
    36  H    7.581620   8.540628   7.821891   8.310868   7.128202
    37  H    6.434739   7.093579   7.719590   8.886918   8.335112
                   21         22         23         24         25
    21  C    0.000000
    22  C    2.465513   0.000000
    23  C    4.916508   2.467511   0.000000
    24  H    7.248085   5.028576   2.896816   0.000000
    25  H    8.841153   6.925112   5.132710   2.361552   0.000000
    26  H    9.173118   8.264017   7.648400   5.897530   4.296503
    27  H    9.982015   8.492276   7.162450   4.683209   2.461933
    28  C    7.320456   7.085935   7.331066   6.659618   5.998533
    29  C    8.157073   8.068272   8.345251   7.552818   6.665473
    30  H    8.932190   8.906919   9.169489   8.266050   7.213182
    31  H    6.788913   6.530595   6.844916   6.397685   6.004574
    32  C    1.385958   1.440435   3.854031   6.465984   8.315567
    33  C    3.862802   1.450286   1.377674   4.257379   6.429381
    34  H    1.085373   3.437819   5.903699   8.316439   9.924259
    35  H    2.132216   2.192098   4.304207   7.096483   9.092385
    36  H    4.313205   2.199453   2.125924   4.975221   7.252582
    37  H    5.906012   3.442138   1.085257   2.761900   5.121336
                   26         27         28         29         30
    26  H    0.000000
    27  H    2.502283   0.000000
    28  C    2.915734   5.090816   0.000000
    29  C    2.957933   5.396654   1.220915   0.000000
    30  H    3.231293   5.705725   2.274408   1.064235   0.000000
    31  H    3.559796   5.429425   1.067670   2.235159   3.299369
    32  C    9.298564   9.759596   7.782656   8.709287   9.524838
    33  C    8.526329   8.324762   7.788893   8.804913   9.645218
    34  H   10.131963  11.030978   8.141454   8.923620   9.665784
    35  H   10.328816  10.675165   8.859309   9.793814  10.609343
    36  H    9.581325   9.268352   8.865592   9.885965  10.726226
    37  H    8.175176   7.364983   8.150819   9.158664   9.966166
                   31         32         33         34         35
    31  H    0.000000
    32  C    7.213399   0.000000
    33  C    7.243167   2.639674   0.000000
    34  H    7.615784   2.130268   4.758336   0.000000
    35  H    8.269876   1.085216   2.951294   2.427441   0.000000
    36  H    8.298635   2.951766   1.085240   5.046541   2.854070
    37  H    7.681866   4.752431   2.124530   6.852307   5.041053
                   36         37
    36  H    0.000000
    37  H    2.423526   0.000000
 Stoichiometry    C24H13(2)
 Framework group  C1[X(C24H13)]
 Deg. of freedom   105
 Full point group                 C1      NOp   1
 Largest Abelian subgroup         C1      NOp   1
 Largest concise Abelian subgroup C1      NOp   1
                         Standard orientation:                         
 ---------------------------------------------------------------------
 Center     Atomic      Atomic             Coordinates (Angstroms)
 Number     Number       Type             X           Y           Z
 ---------------------------------------------------------------------
      1          6           0       -1.513167    3.407394   -0.290784
      2          6           0       -0.329166    2.612375   -0.239793
      3          6           0       -0.449110    1.244938   -0.064825
      4          6           0       -2.798878    2.892299   -0.200012
      5          6           0       -2.973022    1.489188   -0.051661
      6          6           0       -1.788065    0.764674    0.018114
      7          6           0        0.425390    0.016882   -0.008941
      8          6           0       -0.462482   -1.071673    0.066177
      9          6           0       -1.793341   -0.624932    0.092994
     10          6           0       -0.177407   -2.444038    0.057727
     11          6           0        1.179452   -2.760601   -0.031543
     12          6           0        2.154651   -1.736137   -0.084893
     13          6           0        1.802575   -0.306004   -0.044534
     14          6           0        3.533236   -2.094252   -0.192347
     15          6           0        4.526831   -1.154673   -0.237835
     16          6           0        2.896615    0.589066   -0.042943
     17          6           0        4.201920    0.228755   -0.139498
     18          1           0        0.629628    3.100618   -0.351387
     19          1           0       -1.392857    4.477706   -0.419146
     20          1           0       -3.652766    3.559046   -0.258696
     21          6           0       -4.177058    0.694134   -0.002035
     22          6           0       -2.915644   -1.421305    0.109792
     23          6           0       -1.337388   -3.318052    0.101355
     24          1           0        1.515058   -3.792476   -0.071893
     25          1           0        3.781492   -3.149438   -0.235318
     26          1           0        4.991163    0.971519   -0.115527
     27          1           0        5.565559   -1.455143   -0.322410
     28          6           0        2.821171    2.675620    0.827172
     29          6           0        3.481381    3.494542    0.207395
     30          1           0        4.086252    4.053593   -0.466540
     31          1           0        2.204930    2.335940    1.630156
     32          6           0       -4.155860   -0.689544    0.074548
     33          6           0       -2.630375   -2.843157    0.126745
     34          1           0       -5.137991    1.197414   -0.038808
     35          1           0       -5.098976   -1.226015    0.095136
     36          1           0       -3.449583   -3.554613    0.148530
     37          1           0       -1.175455   -4.391157    0.103645
 ---------------------------------------------------------------------
 Rotational constants (GHZ):           0.3865044           0.2307096           0.1458657
 Standard basis: 6-311+G(d,p) (5D, 7F)
 There are   630 symmetry adapted cartesian basis functions of A   symmetry.
 There are   606 symmetry adapted basis functions of A   symmetry.
   606 basis functions,   968 primitive gaussians,   630 cartesian basis functions
    79 alpha electrons       78 beta electrons
       nuclear repulsion energy      1782.2961872831 Hartrees.
 NAtoms=   37 NActive=   37 NUniq=   37 SFac= 1.00D+00 NAtFMM=   60 NAOKFM=F Big=F
 Integral buffers will be    131072 words long.
 Raffenetti 2 integral format.
 Two-electron integral symmetry is turned on.
 One-electron integrals computed using PRISM.
 NBasis=   606 RedAO= T EigKep=  1.12D-06  NBF=   606
 NBsUse=   591 1.00D-06 EigRej=  7.80D-07 NBFU=   591
 ExpMin= 4.38D-02 ExpMax= 4.56D+03 ExpMxC= 6.82D+02 IAcc=2 IRadAn=         4 AccDes= 0.00D+00
 Harris functional with IExCor=  402 and IRadAn=       4 diagonalized for initial guess.
 HarFok:  IExCor=  402 AccDes= 0.00D+00 IRadAn=         4 IDoV= 1 UseB2=F ITyADJ=14
 ICtDFT=  3500011 ScaDFX=  1.000000  1.000000  1.000000  1.000000
 FoFCou: FMM=F IPFlag=           0 FMFlag=      100000 FMFlg1=           0
         NFxFlg=           0 DoJE=T BraDBF=F KetDBF=T FulRan=T
         wScrn=  0.000000 ICntrl=       500 IOpCl=  0 I1Cent=   200000004 NGrid=           0
         NMat0=    1 NMatS0=      1 NMatT0=    0 NMatD0=    1 NMtDS0=    0 NMtDT0=    0
 Petite list used in FoFCou.
 Initial guess <Sx>= 0.0000 <Sy>= 0.0000 <Sz>= 0.5000 <S**2>= 0.7500 S= 0.5000
 Requested convergence on RMS density matrix=1.00D-08 within 128 cycles.
 Requested convergence on MAX density matrix=1.00D-06.
 Requested convergence on             energy=1.00D-06.
 No special actions if energy rises.
 Restarting incremental Fock formation.
 SCF Done:  E(UB3LYP) =  -922.448274869     A.U. after   23 cycles
            NFock= 23  Conv=0.59D-08     -V/T= 2.0045
 <Sx>= 0.0000 <Sy>= 0.0000 <Sz>= 0.5000 <S**2>= 0.7776 S= 0.5137
 <L.S>=  0.00000000000    
 Annihilation of the first spin contaminant:
 S**2 before annihilation     0.7776,   after     0.7504
 DoSCS=F DFT=T ScalE2(SS,OS)=  1.000000  1.000000
 Range of M.O.s used for correlation:     1   591
 NBasis=   606 NAE=    79 NBE=    78 NFC=     0 NFV=     0
 NROrb=    591 NOA=    79 NOB=    78 NVA=   512 NVB=   513

 **** Warning!!: The largest alpha MO coefficient is  0.15498439D+03


 **** Warning!!: The largest beta MO coefficient is  0.15641001D+03

 Symmetrizing basis deriv contribution to polar:
 IMax=3 JMax=2 DiffMx= 0.00D+00
 G2DrvN: will do    38 centers at a time, making    1 passes.
 Calling FoFCou, ICntrl=  3107 FMM=F I1Cent=   0 AccDes= 0.00D+00.
 End of G2Drv F.D. properties file   721 does not exist.
 End of G2Drv F.D. properties file   722 does not exist.
 End of G2Drv F.D. properties file   788 does not exist.
          IDoAtm=1111111111111111111111111111111111111
          Differentiating once with respect to nuclear coordinates.
 CalDSu exits because no D1Ps are significant.
          There are   114 degrees of freedom in the 1st order CPHF.  IDoFFX=6 NUNeed=     0.
    108 vectors produced by pass  0 Test12= 8.05D-14 1.00D-09 XBig12= 5.38D-01 1.91D-01.
 AX will form   108 AO Fock derivatives at one time.
    108 vectors produced by pass  1 Test12= 8.05D-14 1.00D-09 XBig12= 1.24D-01 5.31D-02.
    108 vectors produced by pass  2 Test12= 8.05D-14 1.00D-09 XBig12= 1.92D-03 5.74D-03.
    108 vectors produced by pass  3 Test12= 8.05D-14 1.00D-09 XBig12= 1.14D-05 4.33D-04.
    108 vectors produced by pass  4 Test12= 8.05D-14 1.00D-09 XBig12= 9.11D-08 3.70D-05.
    108 vectors produced by pass  5 Test12= 8.05D-14 1.00D-09 XBig12= 6.04D-10 2.12D-06.
     97 vectors produced by pass  6 Test12= 8.05D-14 1.00D-09 XBig12= 2.19D-12 1.12D-07.
     39 vectors produced by pass  7 Test12= 8.05D-14 1.00D-09 XBig12= 1.72D-14 7.31D-09.
     38 vectors produced by pass  8 Test12= 8.05D-14 1.00D-09 XBig12= 2.10D-14 1.11D-08.
     38 vectors produced by pass  9 Test12= 8.05D-14 1.00D-09 XBig12= 4.05D-13 3.99D-08.
     20 vectors produced by pass 10 Test12= 8.05D-14 1.00D-09 XBig12= 6.20D-14 1.65D-08.
     20 vectors produced by pass 11 Test12= 8.05D-14 1.00D-09 XBig12= 1.28D-13 2.25D-08.
     16 vectors produced by pass 12 Test12= 8.05D-14 1.00D-09 XBig12= 4.16D-14 1.25D-08.
     16 vectors produced by pass 13 Test12= 8.05D-14 1.00D-09 XBig12= 1.74D-13 2.07D-08.
     14 vectors produced by pass 14 Test12= 8.05D-14 1.00D-09 XBig12= 3.79D-14 1.21D-08.
     14 vectors produced by pass 15 Test12= 8.05D-14 1.00D-09 XBig12= 1.12D-13 1.73D-08.
     14 vectors produced by pass 16 Test12= 8.05D-14 1.00D-09 XBig12= 7.78D-14 1.29D-08.
     14 vectors produced by pass 17 Test12= 8.05D-14 1.00D-09 XBig12= 6.23D-14 1.02D-08.
     10 vectors produced by pass 18 Test12= 8.05D-14 1.00D-09 XBig12= 2.41D-14 9.42D-09.
     10 vectors produced by pass 19 Test12= 8.05D-14 1.00D-09 XBig12= 2.33D-14 9.16D-09.
     10 vectors produced by pass 20 Test12= 8.05D-14 1.00D-09 XBig12= 6.31D-14 1.13D-08.
     10 vectors produced by pass 21 Test12= 8.05D-14 1.00D-09 XBig12= 1.05D-13 1.84D-08.
     10 vectors produced by pass 22 Test12= 8.05D-14 1.00D-09 XBig12= 5.44D-14 1.18D-08.
      9 vectors produced by pass 23 Test12= 8.05D-14 1.00D-09 XBig12= 5.17D-14 1.14D-08.
      9 vectors produced by pass 24 Test12= 8.05D-14 1.00D-09 XBig12= 1.05D-13 1.95D-08.
      9 vectors produced by pass 25 Test12= 8.05D-14 1.00D-09 XBig12= 8.83D-14 1.33D-08.
      7 vectors produced by pass 26 Test12= 8.05D-14 1.00D-09 XBig12= 3.77D-14 9.02D-09.
      7 vectors produced by pass 27 Test12= 8.05D-14 1.00D-09 XBig12= 1.43D-13 1.96D-08.
      7 vectors produced by pass 28 Test12= 8.05D-14 1.00D-09 XBig12= 6.28D-14 1.15D-08.
      7 vectors produced by pass 29 Test12= 8.05D-14 1.00D-09 XBig12= 6.51D-14 1.23D-08.
      7 vectors produced by pass 30 Test12= 8.05D-14 1.00D-09 XBig12= 1.10D-13 2.19D-08.
      6 vectors produced by pass 31 Test12= 8.05D-14 1.00D-09 XBig12= 3.52D-14 9.82D-09.
      6 vectors produced by pass 32 Test12= 8.05D-14 1.00D-09 XBig12= 4.24D-14 1.13D-08.
      6 vectors produced by pass 33 Test12= 8.05D-14 1.00D-09 XBig12= 7.78D-14 1.39D-08.
      6 vectors produced by pass 34 Test12= 8.05D-14 1.00D-09 XBig12= 4.52D-14 1.05D-08.
      6 vectors produced by pass 35 Test12= 8.05D-14 1.00D-09 XBig12= 7.96D-14 1.56D-08.
      6 vectors produced by pass 36 Test12= 8.05D-14 1.00D-09 XBig12= 8.79D-14 1.29D-08.
      6 vectors produced by pass 37 Test12= 8.05D-14 1.00D-09 XBig12= 4.60D-14 9.72D-09.
      6 vectors produced by pass 38 Test12= 8.05D-14 1.00D-09 XBig12= 1.06D-13 1.51D-08.
      6 vectors produced by pass 39 Test12= 8.05D-14 1.00D-09 XBig12= 5.25D-14 1.09D-08.
      6 vectors produced by pass 40 Test12= 8.05D-14 1.00D-09 XBig12= 8.23D-14 1.29D-08.
      6 vectors produced by pass 41 Test12= 8.05D-14 1.00D-09 XBig12= 1.10D-13 1.75D-08.
      6 vectors produced by pass 42 Test12= 8.05D-14 1.00D-09 XBig12= 8.57D-14 1.28D-08.
      6 vectors produced by pass 43 Test12= 8.05D-14 1.00D-09 XBig12= 7.12D-14 1.25D-08.
      6 vectors produced by pass 44 Test12= 8.05D-14 1.00D-09 XBig12= 8.78D-14 1.17D-08.
      6 vectors produced by pass 45 Test12= 8.05D-14 1.00D-09 XBig12= 2.74D-14 8.20D-09.
      6 vectors produced by pass 46 Test12= 8.05D-14 1.00D-09 XBig12= 3.33D-14 9.13D-09.
      6 vectors produced by pass 47 Test12= 8.05D-14 1.00D-09 XBig12= 5.29D-14 1.16D-08.
      6 vectors produced by pass 48 Test12= 8.05D-14 1.00D-09 XBig12= 3.86D-14 8.60D-09.
      6 vectors produced by pass 49 Test12= 8.05D-14 1.00D-09 XBig12= 6.87D-14 1.49D-08.
      6 vectors produced by pass 50 Test12= 8.05D-14 1.00D-09 XBig12= 1.47D-13 1.76D-08.
      6 vectors produced by pass 51 Test12= 8.05D-14 1.00D-09 XBig12= 3.25D-14 8.61D-09.
      6 vectors produced by pass 52 Test12= 8.05D-14 1.00D-09 XBig12= 5.36D-14 1.10D-08.
      6 vectors produced by pass 53 Test12= 8.05D-14 1.00D-09 XBig12= 5.68D-14 9.55D-09.
      6 vectors produced by pass 54 Test12= 8.05D-14 1.00D-09 XBig12= 8.76D-14 1.66D-08.
      6 vectors produced by pass 55 Test12= 8.05D-14 1.00D-09 XBig12= 3.68D-14 1.27D-08.
      6 vectors produced by pass 56 Test12= 8.05D-14 1.00D-09 XBig12= 1.19D-13 1.66D-08.
      5 vectors produced by pass 57 Test12= 8.05D-14 1.00D-09 XBig12= 3.86D-14 8.76D-09.
      5 vectors produced by pass 58 Test12= 8.05D-14 1.00D-09 XBig12= 5.26D-14 9.19D-09.
      5 vectors produced by pass 59 Test12= 8.05D-14 1.00D-09 XBig12= 1.07D-13 1.59D-08.
      5 vectors produced by pass 60 Test12= 8.05D-14 1.00D-09 XBig12= 5.52D-14 9.79D-09.
      5 vectors produced by pass 61 Test12= 8.05D-14 1.00D-09 XBig12= 7.93D-14 1.25D-08.
      5 vectors produced by pass 62 Test12= 8.05D-14 1.00D-09 XBig12= 5.07D-14 9.53D-09.
      5 vectors produced by pass 63 Test12= 8.05D-14 1.00D-09 XBig12= 1.68D-14 5.88D-09.
      5 vectors produced by pass 64 Test12= 8.05D-14 1.00D-09 XBig12= 1.10D-13 1.49D-08.
      5 vectors produced by pass 65 Test12= 8.05D-14 1.00D-09 XBig12= 3.58D-14 8.42D-09.
      5 vectors produced by pass 66 Test12= 8.05D-14 1.00D-09 XBig12= 6.94D-14 1.09D-08.
      5 vectors produced by pass 67 Test12= 8.05D-14 1.00D-09 XBig12= 6.95D-14 1.22D-08.
      5 vectors produced by pass 68 Test12= 8.05D-14 1.00D-09 XBig12= 5.67D-14 1.39D-08.
      5 vectors produced by pass 69 Test12= 8.05D-14 1.00D-09 XBig12= 4.60D-14 9.37D-09.
      5 vectors produced by pass 70 Test12= 8.05D-14 1.00D-09 XBig12= 4.97D-14 1.03D-08.
      5 vectors produced by pass 71 Test12= 8.05D-14 1.00D-09 XBig12= 3.07D-14 7.49D-09.
      5 vectors produced by pass 72 Test12= 8.05D-14 1.00D-09 XBig12= 7.55D-14 1.45D-08.
      5 vectors produced by pass 73 Test12= 8.05D-14 1.00D-09 XBig12= 4.20D-14 1.04D-08.
      5 vectors produced by pass 74 Test12= 8.05D-14 1.00D-09 XBig12= 1.14D-13 1.69D-08.
      5 vectors produced by pass 75 Test12= 8.05D-14 1.00D-09 XBig12= 6.37D-14 1.18D-08.
      5 vectors produced by pass 76 Test12= 8.05D-14 1.00D-09 XBig12= 7.26D-14 1.25D-08.
      5 vectors produced by pass 77 Test12= 8.05D-14 1.00D-09 XBig12= 6.26D-14 1.01D-08.
      5 vectors produced by pass 78 Test12= 8.05D-14 1.00D-09 XBig12= 5.67D-14 1.27D-08.
      5 vectors produced by pass 79 Test12= 8.05D-14 1.00D-09 XBig12= 6.38D-14 1.18D-08.
      5 vectors produced by pass 80 Test12= 8.05D-14 1.00D-09 XBig12= 3.55D-14 9.23D-09.
      5 vectors produced by pass 81 Test12= 8.05D-14 1.00D-09 XBig12= 1.06D-14 5.15D-09.
      5 vectors produced by pass 82 Test12= 8.05D-14 1.00D-09 XBig12= 6.13D-14 1.22D-08.
      5 vectors produced by pass 83 Test12= 8.05D-14 1.00D-09 XBig12= 3.08D-14 7.56D-09.
      5 vectors produced by pass 84 Test12= 8.05D-14 1.00D-09 XBig12= 7.95D-14 1.35D-08.
      5 vectors produced by pass 85 Test12= 8.05D-14 1.00D-09 XBig12= 3.01D-14 6.38D-09.
      5 vectors produced by pass 86 Test12= 8.05D-14 1.00D-09 XBig12= 2.55D-14 6.60D-09.
      5 vectors produced by pass 87 Test12= 8.05D-14 1.00D-09 XBig12= 6.82D-14 1.16D-08.
      5 vectors produced by pass 88 Test12= 8.05D-14 1.00D-09 XBig12= 5.73D-14 1.05D-08.
      5 vectors produced by pass 89 Test12= 8.05D-14 1.00D-09 XBig12= 6.20D-14 1.19D-08.
      5 vectors produced by pass 90 Test12= 8.05D-14 1.00D-09 XBig12= 2.74D-14 7.08D-09.
      5 vectors produced by pass 91 Test12= 8.05D-14 1.00D-09 XBig12= 4.85D-14 8.29D-09.
      5 vectors produced by pass 92 Test12= 8.05D-14 1.00D-09 XBig12= 2.51D-14 6.36D-09.
      5 vectors produced by pass 93 Test12= 8.05D-14 1.00D-09 XBig12= 2.04D-14 6.79D-09.
      5 vectors produced by pass 94 Test12= 8.05D-14 1.00D-09 XBig12= 4.72D-14 1.08D-08.
      5 vectors produced by pass 95 Test12= 8.05D-14 1.00D-09 XBig12= 4.03D-14 8.63D-09.
      5 vectors produced by pass 96 Test12= 8.05D-14 1.00D-09 XBig12= 5.58D-14 9.94D-09.
      5 vectors produced by pass 97 Test12= 8.05D-14 1.00D-09 XBig12= 3.35D-14 7.73D-09.
      5 vectors produced by pass 98 Test12= 8.05D-14 1.00D-09 XBig12= 4.19D-14 1.10D-08.
      5 vectors produced by pass 99 Test12= 8.05D-14 1.00D-09 XBig12= 6.25D-14 1.02D-08.
      5 vectors produced by pass100 Test12= 8.05D-14 1.00D-09 XBig12= 3.17D-14 8.06D-09.
      5 vectors produced by pass101 Test12= 8.05D-14 1.00D-09 XBig12= 2.58D-14 6.00D-09.
      5 vectors produced by pass102 Test12= 8.05D-14 1.00D-09 XBig12= 3.83D-14 9.41D-09.
      5 vectors produced by pass103 Test12= 8.05D-14 1.00D-09 XBig12= 6.17D-14 1.02D-08.
      5 vectors produced by pass104 Test12= 8.05D-14 1.00D-09 XBig12= 1.28D-14 5.77D-09.
      5 vectors produced by pass105 Test12= 8.05D-14 1.00D-09 XBig12= 7.82D-14 1.29D-08.
      5 vectors produced by pass106 Test12= 8.05D-14 1.00D-09 XBig12= 2.26D-14 6.71D-09.
      5 vectors produced by pass107 Test12= 8.05D-14 1.00D-09 XBig12= 3.72D-14 7.48D-09.
      5 vectors produced by pass108 Test12= 8.05D-14 1.00D-09 XBig12= 9.37D-14 1.53D-08.
      5 vectors produced by pass109 Test12= 8.05D-14 1.00D-09 XBig12= 2.38D-14 6.06D-09.
      5 vectors produced by pass110 Test12= 8.05D-14 1.00D-09 XBig12= 5.00D-14 1.10D-08.
      5 vectors produced by pass111 Test12= 8.05D-14 1.00D-09 XBig12= 3.69D-14 8.31D-09.
      5 vectors produced by pass112 Test12= 8.05D-14 1.00D-09 XBig12= 2.61D-14 7.38D-09.
      5 vectors produced by pass113 Test12= 8.05D-14 1.00D-09 XBig12= 3.49D-14 8.07D-09.
      5 vectors produced by pass114 Test12= 8.05D-14 1.00D-09 XBig12= 3.58D-14 8.00D-09.
      5 vectors produced by pass115 Test12= 8.05D-14 1.00D-09 XBig12= 3.59D-14 9.57D-09.
      5 vectors produced by pass116 Test12= 8.05D-14 1.00D-09 XBig12= 2.19D-14 6.01D-09.
      5 vectors produced by pass117 Test12= 8.05D-14 1.00D-09 XBig12= 3.53D-14 7.14D-09.
      5 vectors produced by pass118 Test12= 8.05D-14 1.00D-09 XBig12= 2.71D-14 6.71D-09.
      5 vectors produced by pass119 Test12= 8.05D-14 1.00D-09 XBig12= 1.76D-14 5.17D-09.
      5 vectors produced by pass120 Test12= 8.05D-14 1.00D-09 XBig12= 1.61D-14 5.72D-09.
      5 vectors produced by pass121 Test12= 8.05D-14 1.00D-09 XBig12= 4.62D-14 8.22D-09.
      5 vectors produced by pass122 Test12= 8.05D-14 1.00D-09 XBig12= 1.79D-14 6.09D-09.
      5 vectors produced by pass123 Test12= 8.05D-14 1.00D-09 XBig12= 2.19D-14 6.35D-09.
      5 vectors produced by pass124 Test12= 8.05D-14 1.00D-09 XBig12= 4.27D-14 8.92D-09.
      5 vectors produced by pass125 Test12= 8.05D-14 1.00D-09 XBig12= 2.69D-14 7.09D-09.
      5 vectors produced by pass126 Test12= 8.05D-14 1.00D-09 XBig12= 2.05D-14 6.31D-09.
      5 vectors produced by pass127 Test12= 8.05D-14 1.00D-09 XBig12= 4.57D-14 8.83D-09.
      4 vectors produced by pass128 Test12= 8.05D-14 1.00D-09 XBig12= 1.55D-14 5.67D-09.
      4 vectors produced by pass129 Test12= 8.05D-14 1.00D-09 XBig12= 3.66D-14 6.86D-09.
      4 vectors produced by pass130 Test12= 8.05D-14 1.00D-09 XBig12= 5.39D-14 9.06D-09.
      4 vectors produced by pass131 Test12= 8.05D-14 1.00D-09 XBig12= 1.92D-14 5.59D-09.
      4 vectors produced by pass132 Test12= 8.05D-14 1.00D-09 XBig12= 2.26D-14 6.07D-09.
      4 vectors produced by pass133 Test12= 8.05D-14 1.00D-09 XBig12= 1.11D-14 3.89D-09.
      4 vectors produced by pass134 Test12= 8.05D-14 1.00D-09 XBig12= 9.39D-14 1.30D-08.
      4 vectors produced by pass135 Test12= 8.05D-14 1.00D-09 XBig12= 1.69D-14 5.96D-09.
      4 vectors produced by pass136 Test12= 8.05D-14 1.00D-09 XBig12= 3.80D-14 8.44D-09.
      4 vectors produced by pass137 Test12= 8.05D-14 1.00D-09 XBig12= 2.95D-14 8.93D-09.
      4 vectors produced by pass138 Test12= 8.05D-14 1.00D-09 XBig12= 3.35D-14 7.67D-09.
      4 vectors produced by pass139 Test12= 8.05D-14 1.00D-09 XBig12= 3.00D-14 6.43D-09.
      4 vectors produced by pass140 Test12= 8.05D-14 1.00D-09 XBig12= 1.22D-14 4.17D-09.
      4 vectors produced by pass141 Test12= 8.05D-14 1.00D-09 XBig12= 2.11D-14 5.38D-09.
      4 vectors produced by pass142 Test12= 8.05D-14 1.00D-09 XBig12= 3.64D-14 7.82D-09.
      4 vectors produced by pass143 Test12= 8.05D-14 1.00D-09 XBig12= 2.87D-14 6.17D-09.
      4 vectors produced by pass144 Test12= 8.05D-14 1.00D-09 XBig12= 4.09D-14 9.04D-09.
      4 vectors produced by pass145 Test12= 8.05D-14 1.00D-09 XBig12= 2.87D-14 7.22D-09.
      4 vectors produced by pass146 Test12= 8.05D-14 1.00D-09 XBig12= 2.69D-14 6.24D-09.
      4 vectors produced by pass147 Test12= 8.05D-14 1.00D-09 XBig12= 1.62D-14 5.88D-09.
      4 vectors produced by pass148 Test12= 8.05D-14 1.00D-09 XBig12= 1.35D-14 4.74D-09.
      4 vectors produced by pass149 Test12= 8.05D-14 1.00D-09 XBig12= 1.20D-14 4.32D-09.
      3 vectors produced by pass150 Test12= 8.05D-14 1.00D-09 XBig12= 6.79D-15 3.30D-09.
      3 vectors produced by pass151 Test12= 8.05D-14 1.00D-09 XBig12= 1.15D-14 4.40D-09.
      3 vectors produced by pass152 Test12= 8.05D-14 1.00D-09 XBig12= 1.55D-14 5.49D-09.
      3 vectors produced by pass153 Test12= 8.05D-14 1.00D-09 XBig12= 7.86D-15 3.74D-09.
      3 vectors produced by pass154 Test12= 8.05D-14 1.00D-09 XBig12= 2.01D-14 7.14D-09.
      3 vectors produced by pass155 Test12= 8.05D-14 1.00D-09 XBig12= 3.35D-14 8.03D-09.
      3 vectors produced by pass156 Test12= 8.05D-14 1.00D-09 XBig12= 4.53D-14 7.91D-09.
      3 vectors produced by pass157 Test12= 8.05D-14 1.00D-09 XBig12= 3.52D-14 7.74D-09.
      3 vectors produced by pass158 Test12= 8.05D-14 1.00D-09 XBig12= 4.15D-14 8.34D-09.
      3 vectors produced by pass159 Test12= 8.05D-14 1.00D-09 XBig12= 5.35D-14 8.71D-09.
      3 vectors produced by pass160 Test12= 8.05D-14 1.00D-09 XBig12= 3.30D-14 8.19D-09.
      3 vectors produced by pass161 Test12= 8.05D-14 1.00D-09 XBig12= 1.50D-14 5.13D-09.
      2 vectors produced by pass162 Test12= 8.05D-14 1.00D-09 XBig12= 8.25D-15 3.97D-09.
 InvSVY:  IOpt=1 It=  1 EMax= 8.33D-16
 Solved reduced A of dimension  1737 with   114 vectors.
 End of Minotr F.D. properties file   721 does not exist.
 End of Minotr F.D. properties file   722 does not exist.
 End of Minotr F.D. properties file   788 does not exist.

 **********************************************************************

            Population analysis using the SCF density.

 **********************************************************************

 Orbital symmetries:
 Alpha Orbitals:
       Occupied  (A) (A) (A) (A) (A) (A) (A) (A) (A) (A) (A) (A)
                 (A) (A) (A) (A) (A) (A) (A) (A) (A) (A) (A) (A)
                 (A) (A) (A) (A) (A) (A) (A) (A) (A) (A) (A) (A)
                 (A) (A) (A) (A) (A) (A) (A) (A) (A) (A) (A) (A)
                 (A) (A) (A) (A) (A) (A) (A) (A) (A) (A) (A) (A)
                 (A) (A) (A) (A) (A) (A) (A) (A) (A) (A) (A) (A)
                 (A) (A) (A) (A) (A) (A) (A)
       Virtual   (A) (A) (A) (A) (A) (A) (A) (A) (A) (A) (A) (A)
                 (A) (A) (A) (A) (A) (A) (A) (A) (A) (A) (A) (A)
                 (A) (A) (A) (A) (A) (A) (A) (A) (A) (A) (A) (A)
                 (A) (A) (A) (A) (A) (A) (A) (A) (A) (A) (A) (A)
                 (A) (A) (A) (A) (A) (A) (A) (A) (A) (A) (A) (A)
                 (A) (A) (A) (A) (A) (A) (A) (A) (A) (A) (A) (A)
                 (A) (A) (A) (A) (A) (A) (A) (A) (A) (A) (A) (A)
                 (A) (A) (A) (A) (A) (A) (A) (A) (A) (A) (A) (A)
                 (A) (A) (A) (A) (A) (A) (A) (A) (A) (A) (A) (A)
                 (A) (A) (A) (A) (A) (A) (A) (A) (A) (A) (A) (A)
                 (A) (A) (A) (A) (A) (A) (A) (A) (A) (A) (A) (A)
                 (A) (A) (A) (A) (A) (A) (A) (A) (A) (A) (A) (A)
                 (A) (A) (A) (A) (A) (A) (A) (A) (A) (A) (A) (A)
                 (A) (A) (A) (A) (A) (A) (A) (A) (A) (A) (A) (A)
                 (A) (A) (A) (A) (A) (A) (A) (A) (A) (A) (A) (A)
                 (A) (A) (A) (A) (A) (A) (A) (A) (A) (A) (A) (A)
                 (A) (A) (A) (A) (A) (A) (A) (A) (A) (A) (A) (A)
                 (A) (A) (A) (A) (A) (A) (A) (A) (A) (A) (A) (A)
                 (A) (A) (A) (A) (A) (A) (A) (A) (A) (A) (A) (A)
                 (A) (A) (A) (A) (A) (A) (A) (A) (A) (A) (A) (A)
                 (A) (A) (A) (A) (A) (A) (A) (A) (A) (A) (A) (A)
                 (A) (A) (A) (A) (A) (A) (A) (A) (A) (A) (A) (A)
                 (A) (A) (A) (A) (A) (A) (A) (A) (A) (A) (A) (A)
                 (A) (A) (A) (A) (A) (A) (A) (A) (A) (A) (A) (A)
                 (A) (A) (A) (A) (A) (A) (A) (A) (A) (A) (A) (A)
                 (A) (A) (A) (A) (A) (A) (A) (A) (A) (A) (A) (A)
                 (A) (A) (A) (A) (A) (A) (A) (A) (A) (A) (A) (A)
                 (A) (A) (A) (A) (A) (A) (A) (A) (A) (A) (A) (A)
                 (A) (A) (A) (A) (A) (A) (A) (A) (A) (A) (A) (A)
                 (A) (A) (A) (A) (A) (A) (A) (A) (A) (A) (A) (A)
                 (A) (A) (A) (A) (A) (A) (A) (A) (A) (A) (A) (A)
                 (A) (A) (A) (A) (A) (A) (A) (A) (A) (A) (A) (A)
                 (A) (A) (A) (A) (A) (A) (A) (A) (A) (A) (A) (A)
                 (A) (A) (A) (A) (A) (A) (A) (A) (A) (A) (A) (A)
                 (A) (A) (A) (A) (A) (A) (A) (A) (A) (A) (A) (A)
                 (A) (A) (A) (A) (A) (A) (A) (A) (A) (A) (A) (A)
                 (A) (A) (A) (A) (A) (A) (A) (A) (A) (A) (A) (A)
                 (A) (A) (A) (A) (A) (A) (A) (A) (A) (A) (A) (A)
                 (A) (A) (A) (A) (A) (A) (A) (A) (A) (A) (A) (A)
                 (A) (A) (A) (A) (A) (A) (A) (A) (A) (A) (A) (A)
                 (A) (A) (A) (A) (A) (A) (A) (A) (A) (A) (A) (A)
                 (A) (A) (A) (A) (A) (A) (A) (A) (A) (A) (A) (A)
                 (A) (A) (A) (A) (A) (A) (A) (A)
 Beta  Orbitals:
       Occupied  (A) (A) (A) (A) (A) (A) (A) (A) (A) (A) (A) (A)
                 (A) (A) (A) (A) (A) (A) (A) (A) (A) (A) (A) (A)
                 (A) (A) (A) (A) (A) (A) (A) (A) (A) (A) (A) (A)
                 (A) (A) (A) (A) (A) (A) (A) (A) (A) (A) (A) (A)
                 (A) (A) (A) (A) (A) (A) (A) (A) (A) (A) (A) (A)
                 (A) (A) (A) (A) (A) (A) (A) (A) (A) (A) (A) (A)
                 (A) (A) (A) (A) (A) (A)
       Virtual   (A) (A) (A) (A) (A) (A) (A) (A) (A) (A) (A) (A)
                 (A) (A) (A) (A) (A) (A) (A) (A) (A) (A) (A) (A)
                 (A) (A) (A) (A) (A) (A) (A) (A) (A) (A) (A) (A)
                 (A) (A) (A) (A) (A) (A) (A) (A) (A) (A) (A) (A)
                 (A) (A) (A) (A) (A) (A) (A) (A) (A) (A) (A) (A)
                 (A) (A) (A) (A) (A) (A) (A) (A) (A) (A) (A) (A)
                 (A) (A) (A) (A) (A) (A) (A) (A) (A) (A) (A) (A)
                 (A) (A) (A) (A) (A) (A) (A) (A) (A) (A) (A) (A)
                 (A) (A) (A) (A) (A) (A) (A) (A) (A) (A) (A) (A)
                 (A) (A) (A) (A) (A) (A) (A) (A) (A) (A) (A) (A)
                 (A) (A) (A) (A) (A) (A) (A) (A) (A) (A) (A) (A)
                 (A) (A) (A) (A) (A) (A) (A) (A) (A) (A) (A) (A)
                 (A) (A) (A) (A) (A) (A) (A) (A) (A) (A) (A) (A)
                 (A) (A) (A) (A) (A) (A) (A) (A) (A) (A) (A) (A)
                 (A) (A) (A) (A) (A) (A) (A) (A) (A) (A) (A) (A)
                 (A) (A) (A) (A) (A) (A) (A) (A) (A) (A) (A) (A)
                 (A) (A) (A) (A) (A) (A) (A) (A) (A) (A) (A) (A)
                 (A) (A) (A) (A) (A) (A) (A) (A) (A) (A) (A) (A)
                 (A) (A) (A) (A) (A) (A) (A) (A) (A) (A) (A) (A)
                 (A) (A) (A) (A) (A) (A) (A) (A) (A) (A) (A) (A)
                 (A) (A) (A) (A) (A) (A) (A) (A) (A) (A) (A) (A)
                 (A) (A) (A) (A) (A) (A) (A) (A) (A) (A) (A) (A)
                 (A) (A) (A) (A) (A) (A) (A) (A) (A) (A) (A) (A)
                 (A) (A) (A) (A) (A) (A) (A) (A) (A) (A) (A) (A)
                 (A) (A) (A) (A) (A) (A) (A) (A) (A) (A) (A) (A)
                 (A) (A) (A) (A) (A) (A) (A) (A) (A) (A) (A) (A)
                 (A) (A) (A) (A) (A) (A) (A) (A) (A) (A) (A) (A)
                 (A) (A) (A) (A) (A) (A) (A) (A) (A) (A) (A) (A)
                 (A) (A) (A) (A) (A) (A) (A) (A) (A) (A) (A) (A)
                 (A) (A) (A) (A) (A) (A) (A) (A) (A) (A) (A) (A)
                 (A) (A) (A) (A) (A) (A) (A) (A) (A) (A) (A) (A)
                 (A) (A) (A) (A) (A) (A) (A) (A) (A) (A) (A) (A)
                 (A) (A) (A) (A) (A) (A) (A) (A) (A) (A) (A) (A)
                 (A) (A) (A) (A) (A) (A) (A) (A) (A) (A) (A) (A)
                 (A) (A) (A) (A) (A) (A) (A) (A) (A) (A) (A) (A)
                 (A) (A) (A) (A) (A) (A) (A) (A) (A) (A) (A) (A)
                 (A) (A) (A) (A) (A) (A) (A) (A) (A) (A) (A) (A)
                 (A) (A) (A) (A) (A) (A) (A) (A) (A) (A) (A) (A)
                 (A) (A) (A) (A) (A) (A) (A) (A) (A) (A) (A) (A)
                 (A) (A) (A) (A) (A) (A) (A) (A) (A) (A) (A) (A)
                 (A) (A) (A) (A) (A) (A) (A) (A) (A) (A) (A) (A)
                 (A) (A) (A) (A) (A) (A) (A) (A) (A) (A) (A) (A)
                 (A) (A) (A) (A) (A) (A) (A) (A) (A)
 The electronic state is 2-A.
 Alpha  occ. eigenvalues --  -10.20635 -10.20088 -10.20029 -10.19593 -10.19532
 Alpha  occ. eigenvalues --  -10.19503 -10.19317 -10.19298 -10.19160 -10.19126
 Alpha  occ. eigenvalues --  -10.19096 -10.19020 -10.18973 -10.18948 -10.18929
 Alpha  occ. eigenvalues --  -10.18709 -10.18677 -10.18378 -10.18325 -10.18287
 Alpha  occ. eigenvalues --  -10.18209 -10.17172 -10.16693 -10.16637  -0.91813
 Alpha  occ. eigenvalues --   -0.87949  -0.85684  -0.83809  -0.81416  -0.79712
 Alpha  occ. eigenvalues --   -0.77633  -0.76673  -0.75837  -0.73278  -0.72587
 Alpha  occ. eigenvalues --   -0.71356  -0.66328  -0.64235  -0.63081  -0.61745
 Alpha  occ. eigenvalues --   -0.59789  -0.58344  -0.57335  -0.56601  -0.53306
 Alpha  occ. eigenvalues --   -0.52730  -0.51077  -0.50317  -0.49499  -0.48888
 Alpha  occ. eigenvalues --   -0.47596  -0.46676  -0.44390  -0.43966  -0.43565
 Alpha  occ. eigenvalues --   -0.43206  -0.42354  -0.42245  -0.40905  -0.40277
 Alpha  occ. eigenvalues --   -0.39902  -0.39351  -0.39027  -0.36857  -0.36242
 Alpha  occ. eigenvalues --   -0.35406  -0.34481  -0.33746  -0.33723  -0.32611
 Alpha  occ. eigenvalues --   -0.32027  -0.30340  -0.29804  -0.27856  -0.26534
 Alpha  occ. eigenvalues --   -0.23167  -0.22924  -0.21578  -0.21035
 Alpha virt. eigenvalues --   -0.09347  -0.04964  -0.02837  -0.02579   0.00183
 Alpha virt. eigenvalues --    0.00278   0.00705   0.00822   0.00921   0.01600
 Alpha virt. eigenvalues --    0.01849   0.02094   0.02115   0.02927   0.03400
 Alpha virt. eigenvalues --    0.03838   0.03868   0.04325   0.04823   0.05308
 Alpha virt. eigenvalues --    0.05644   0.06066   0.06485   0.06867   0.07180
 Alpha virt. eigenvalues --    0.07546   0.08076   0.08249   0.08455   0.08943
 Alpha virt. eigenvalues --    0.09368   0.09763   0.10241   0.10737   0.10973
 Alpha virt. eigenvalues --    0.11556   0.11816   0.12127   0.12455   0.12785
 Alpha virt. eigenvalues --    0.13436   0.13492   0.13772   0.13852   0.14492
 Alpha virt. eigenvalues --    0.14650   0.15210   0.15589   0.15734   0.16103
 Alpha virt. eigenvalues --    0.16312   0.16886   0.17003   0.17208   0.17661
 Alpha virt. eigenvalues --    0.17910   0.18071   0.18273   0.18485   0.18619
 Alpha virt. eigenvalues --    0.18965   0.19270   0.19422   0.19780   0.20104
 Alpha virt. eigenvalues --    0.20241   0.20426   0.20894   0.21057   0.21366
 Alpha virt. eigenvalues --    0.21601   0.21703   0.22002   0.22357   0.22745
 Alpha virt. eigenvalues --    0.23046   0.23177   0.23312   0.23453   0.23993
 Alpha virt. eigenvalues --    0.24310   0.24562   0.24639   0.24959   0.25220
 Alpha virt. eigenvalues --    0.25273   0.26019   0.26235   0.26530   0.26805
 Alpha virt. eigenvalues --    0.27245   0.27677   0.28061   0.28375   0.28976
 Alpha virt. eigenvalues --    0.29052   0.29439   0.29776   0.30138   0.30327
 Alpha virt. eigenvalues --    0.30644   0.31001   0.31721   0.32294   0.32536
 Alpha virt. eigenvalues --    0.33025   0.33391   0.33758   0.34054   0.34579
 Alpha virt. eigenvalues --    0.35429   0.36031   0.36549   0.37120   0.37683
 Alpha virt. eigenvalues --    0.38992   0.39740   0.40006   0.40382   0.41229
 Alpha virt. eigenvalues --    0.41634   0.42229   0.43423   0.43967   0.45045
 Alpha virt. eigenvalues --    0.46013   0.47302   0.48143   0.48281   0.48579
 Alpha virt. eigenvalues --    0.50705   0.50904   0.52205   0.52324   0.52791
 Alpha virt. eigenvalues --    0.52993   0.53752   0.54165   0.54392   0.54909
 Alpha virt. eigenvalues --    0.55459   0.55714   0.55864   0.56154   0.56822
 Alpha virt. eigenvalues --    0.57185   0.57428   0.57570   0.58194   0.58511
 Alpha virt. eigenvalues --    0.58810   0.59520   0.59760   0.61129   0.61420
 Alpha virt. eigenvalues --    0.61602   0.62307   0.62509   0.63492   0.63664
 Alpha virt. eigenvalues --    0.63970   0.64175   0.64765   0.65469   0.65687
 Alpha virt. eigenvalues --    0.66325   0.66679   0.67252   0.67602   0.67851
 Alpha virt. eigenvalues --    0.68351   0.68851   0.69139   0.69747   0.70134
 Alpha virt. eigenvalues --    0.70901   0.71396   0.71551   0.72152   0.72555
 Alpha virt. eigenvalues --    0.72715   0.73169   0.73847   0.74432   0.75295
 Alpha virt. eigenvalues --    0.75733   0.76288   0.76552   0.76987   0.78146
 Alpha virt. eigenvalues --    0.78430   0.78964   0.79782   0.80806   0.81928
 Alpha virt. eigenvalues --    0.83485   0.83866   0.84554   0.85228   0.85556
 Alpha virt. eigenvalues --    0.85894   0.86769   0.87489   0.88122   0.88642
 Alpha virt. eigenvalues --    0.89457   0.90802   0.91174   0.92193   0.92607
 Alpha virt. eigenvalues --    0.93975   0.94178   0.94498   0.95029   0.95375
 Alpha virt. eigenvalues --    0.95497   0.95819   0.96162   0.97020   0.97296
 Alpha virt. eigenvalues --    0.97790   0.98301   0.99106   0.99279   1.00807
 Alpha virt. eigenvalues --    1.00966   1.01252   1.01564   1.02729   1.03557
 Alpha virt. eigenvalues --    1.04204   1.04745   1.04895   1.06154   1.06903
 Alpha virt. eigenvalues --    1.07072   1.07528   1.08323   1.09359   1.10181
 Alpha virt. eigenvalues --    1.10676   1.11564   1.12356   1.13400   1.14242
 Alpha virt. eigenvalues --    1.15323   1.15987   1.16501   1.17768   1.18106
 Alpha virt. eigenvalues --    1.19791   1.21500   1.21690   1.23445   1.27208
 Alpha virt. eigenvalues --    1.28190   1.29855   1.32481   1.32793   1.34618
 Alpha virt. eigenvalues --    1.36067   1.38285   1.38969   1.39684   1.40744
 Alpha virt. eigenvalues --    1.42380   1.43429   1.46301   1.46535   1.46887
 Alpha virt. eigenvalues --    1.48174   1.48345   1.49167   1.49253   1.49521
 Alpha virt. eigenvalues --    1.50867   1.51196   1.51761   1.52807   1.53503
 Alpha virt. eigenvalues --    1.54405   1.55263   1.56322   1.57047   1.57167
 Alpha virt. eigenvalues --    1.57645   1.59112   1.59357   1.59652   1.61760
 Alpha virt. eigenvalues --    1.62983   1.63792   1.65984   1.66667   1.67475
 Alpha virt. eigenvalues --    1.68114   1.69319   1.69964   1.71014   1.72447
 Alpha virt. eigenvalues --    1.73013   1.73936   1.74283   1.75108   1.75369
 Alpha virt. eigenvalues --    1.75651   1.76885   1.77411   1.79146   1.80375
 Alpha virt. eigenvalues --    1.81495   1.81967   1.82501   1.83354   1.84640
 Alpha virt. eigenvalues --    1.85230   1.85851   1.86052   1.86541   1.87939
 Alpha virt. eigenvalues --    1.88373   1.89305   1.89963   1.90094   1.90574
 Alpha virt. eigenvalues --    1.90883   1.91387   1.92946   1.93531   1.94115
 Alpha virt. eigenvalues --    1.94510   1.95869   1.97311   1.97581   1.98835
 Alpha virt. eigenvalues --    1.98985   1.99749   2.00404   2.02092   2.03063
 Alpha virt. eigenvalues --    2.03214   2.04315   2.04806   2.05347   2.06770
 Alpha virt. eigenvalues --    2.07350   2.11311   2.11999   2.13348   2.14142
 Alpha virt. eigenvalues --    2.15081   2.16292   2.18957   2.19603   2.19790
 Alpha virt. eigenvalues --    2.21918   2.23933   2.24221   2.24454   2.25486
 Alpha virt. eigenvalues --    2.27001   2.27515   2.29570   2.34655   2.35185
 Alpha virt. eigenvalues --    2.35714   2.37998   2.39588   2.41326   2.42498
 Alpha virt. eigenvalues --    2.42844   2.43211   2.43968   2.45293   2.45974
 Alpha virt. eigenvalues --    2.46263   2.46956   2.53074   2.56004   2.57181
 Alpha virt. eigenvalues --    2.58021   2.58505   2.60469   2.61753   2.62834
 Alpha virt. eigenvalues --    2.63457   2.65387   2.67105   2.68436   2.69521
 Alpha virt. eigenvalues --    2.70071   2.71383   2.71735   2.72116   2.72615
 Alpha virt. eigenvalues --    2.73197   2.73405   2.74167   2.74887   2.75128
 Alpha virt. eigenvalues --    2.75280   2.75781   2.75947   2.76642   2.77070
 Alpha virt. eigenvalues --    2.78074   2.78381   2.79818   2.80288   2.81159
 Alpha virt. eigenvalues --    2.81636   2.82785   2.82992   2.84072   2.84944
 Alpha virt. eigenvalues --    2.86061   2.86477   2.88060   2.89084   2.89628
 Alpha virt. eigenvalues --    2.90250   2.91655   2.92475   2.93546   2.95360
 Alpha virt. eigenvalues --    2.96498   2.99646   3.01024   3.02124   3.03003
 Alpha virt. eigenvalues --    3.05143   3.07931   3.09379   3.11959   3.13101
 Alpha virt. eigenvalues --    3.13518   3.14643   3.16665   3.19353   3.19475
 Alpha virt. eigenvalues --    3.21309   3.22541   3.23386   3.25257   3.28220
 Alpha virt. eigenvalues --    3.34126   3.34337   3.35905   3.38048   3.38816
 Alpha virt. eigenvalues --    3.40329   3.43004   3.43869   3.45352   3.45774
 Alpha virt. eigenvalues --    3.47692   3.48126   3.50202   3.51262   3.54761
 Alpha virt. eigenvalues --    3.56394   3.59444   3.63011   3.63788   3.66109
 Alpha virt. eigenvalues --    3.71285   3.72676   3.75999   3.82607   3.84360
 Alpha virt. eigenvalues --    3.89481   4.00769   4.03716   4.06313   4.06634
 Alpha virt. eigenvalues --    4.07127   4.13142   4.13689   4.22605   4.28734
 Alpha virt. eigenvalues --    4.35674   4.54006   4.76555   4.76798   4.78116
 Alpha virt. eigenvalues --    4.80672   4.85376   4.87928  23.39479  23.60425
 Alpha virt. eigenvalues --   23.61509  23.76015  23.82102  23.83562  23.84799
 Alpha virt. eigenvalues --   23.91117  23.92854  23.93931  23.98063  23.99212
 Alpha virt. eigenvalues --   24.02423  24.06803  24.09408  24.10236  24.11911
 Alpha virt. eigenvalues --   24.13537  24.14131  24.14763  24.16272  24.19258
 Alpha virt. eigenvalues --   24.21060  24.95154
  Beta  occ. eigenvalues --  -10.20624 -10.19986 -10.19780 -10.19542 -10.19510
  Beta  occ. eigenvalues --  -10.19319 -10.19286 -10.19158 -10.19138 -10.19097
  Beta  occ. eigenvalues --  -10.19023 -10.18972 -10.18928 -10.18705 -10.18674
  Beta  occ. eigenvalues --  -10.18659 -10.18361 -10.18346 -10.18325 -10.18301
  Beta  occ. eigenvalues --  -10.18233 -10.17190 -10.16691 -10.16633  -0.91781
  Beta  occ. eigenvalues --   -0.87660  -0.85550  -0.83699  -0.81324  -0.79582
  Beta  occ. eigenvalues --   -0.77024  -0.76284  -0.75538  -0.73221  -0.72583
  Beta  occ. eigenvalues --   -0.70999  -0.66219  -0.64107  -0.63026  -0.61506
  Beta  occ. eigenvalues --   -0.59569  -0.57785  -0.56856  -0.56416  -0.53262
  Beta  occ. eigenvalues --   -0.52504  -0.50938  -0.50018  -0.49383  -0.48746
  Beta  occ. eigenvalues --   -0.47349  -0.46491  -0.44281  -0.43840  -0.43521
  Beta  occ. eigenvalues --   -0.43177  -0.42258  -0.42141  -0.40819  -0.40093
  Beta  occ. eigenvalues --   -0.39313  -0.39057  -0.38857  -0.36796  -0.35974
  Beta  occ. eigenvalues --   -0.35270  -0.34427  -0.33710  -0.33434  -0.32022
  Beta  occ. eigenvalues --   -0.30795  -0.30127  -0.29762  -0.27593  -0.26432
  Beta  occ. eigenvalues --   -0.23174  -0.22941  -0.20789
  Beta virt. eigenvalues --   -0.09427  -0.09254  -0.04979  -0.02732  -0.02195
  Beta virt. eigenvalues --    0.00224   0.00356   0.00842   0.00905   0.01206
  Beta virt. eigenvalues --    0.01637   0.01881   0.02167   0.02272   0.03181
  Beta virt. eigenvalues --    0.03689   0.03898   0.04056   0.04389   0.04835
  Beta virt. eigenvalues --    0.05333   0.05683   0.06153   0.06485   0.06983
  Beta virt. eigenvalues --    0.07231   0.07756   0.08086   0.08293   0.08508
  Beta virt. eigenvalues --    0.08991   0.09578   0.09786   0.10296   0.10787
  Beta virt. eigenvalues --    0.11034   0.11751   0.11839   0.12355   0.12576
  Beta virt. eigenvalues --    0.12811   0.13479   0.13525   0.13797   0.13903
  Beta virt. eigenvalues --    0.14508   0.14644   0.15265   0.15618   0.15790
  Beta virt. eigenvalues --    0.16149   0.16379   0.16917   0.17063   0.17233
  Beta virt. eigenvalues --    0.17689   0.17991   0.18136   0.18347   0.18536
  Beta virt. eigenvalues --    0.18671   0.19003   0.19278   0.19464   0.19845
  Beta virt. eigenvalues --    0.20164   0.20312   0.20469   0.20956   0.21116
  Beta virt. eigenvalues --    0.21504   0.21667   0.21755   0.22037   0.22387
  Beta virt. eigenvalues --    0.22784   0.23077   0.23189   0.23341   0.23547
  Beta virt. eigenvalues --    0.24050   0.24320   0.24612   0.24696   0.24999
  Beta virt. eigenvalues --    0.25271   0.25328   0.26066   0.26263   0.26618
  Beta virt. eigenvalues --    0.26845   0.27278   0.27737   0.28129   0.28422
  Beta virt. eigenvalues --    0.29004   0.29170   0.29489   0.29804   0.30155
  Beta virt. eigenvalues --    0.30537   0.30823   0.31088   0.31803   0.32324
  Beta virt. eigenvalues --    0.32677   0.33064   0.33475   0.33829   0.34288
  Beta virt. eigenvalues --    0.34675   0.35527   0.36102   0.36904   0.37323
  Beta virt. eigenvalues --    0.37742   0.39142   0.39792   0.40045   0.40489
  Beta virt. eigenvalues --    0.41446   0.41729   0.42340   0.43476   0.44001
  Beta virt. eigenvalues --    0.45140   0.46099   0.47414   0.48210   0.48307
[...]
 71,-0.00002905,-0.00235522,-0.00214258,0.00025478,-0.00007323,0.000081
 54,0.00001075,0.00008887,0.00000803,0.00000564,-0.00007350,0.00006775,
 -0.00001329,-0.00752588,0.00658094,0.00028855,-0.11353496,0.00240074,0
 .00006041,-0.34728035,-0.10262738,0.00599971,0.00002406,-0.00034702,-0
 .00005449,0.00002640,-0.00009310,0.00000265,-0.00005255,-0.00004650,0.
 00004112,-0.00010157,0.00009868,-0.00000050,0.00006605,-0.00007609,0.0
 0007981,0.00003536,0.00026886,-0.00004638,-0.00002749,-0.00008704,0.00
 000307,-0.00010445,-0.00000902,-0.00002017,-0.00320809,-0.03707835,-0.
 00074553,0.71966661,0.00218645,-0.00039933,-0.00009959,-0.00042688,-0.
 00120072,-0.00014983,-0.00041260,-0.00132961,0.00020231,-0.00174804,0.
 00257269,0.00025108,0.00673993,-0.00506673,-0.00038249,0.00271929,-0.0
 0169734,-0.00019389,0.00803524,-0.00401267,-0.00062261,-0.01935961,-0.
 00607857,0.00053481,0.03593040,-0.03995288,-0.00136639,-0.00762277,0.0
 3028697,0.00061008,0.01805423,-0.00675747,-0.00081754,-0.00643840,0.00
 914952,0.00044136,-0.00832872,-0.00406699,0.00031914,0.00545128,-0.000
 95048,-0.00042147,-0.00143570,0.00475209,-0.00015571,0.00385444,-0.001
 57910,-0.00021421,-0.00293843,-0.00336316,0.00033169,-0.00002901,-0.00
 007311,-0.00001426,0.00001816,0.00003004,0.00001968,-0.00003214,0.0000
 2918,-0.00001374,-0.00351861,0.01374664,0.00069877,-0.02237538,-0.2312
 8956,-0.00244211,-0.05703663,-0.15170361,0.00112499,0.00036987,-0.0001
 1800,-0.00008197,-0.00002035,-0.00008536,-0.00000239,-0.00006319,-0.00
 004748,0.00007724,-0.00000279,0.00005846,-0.00000972,0.00005099,0.0000
 0852,0.00003182,-0.00001128,0.00008539,-0.00002929,-0.00000451,-0.0000
 3170,0.00000195,-0.00003957,0.00001462,0.00000297,-0.01570114,-0.02147
 915,-0.00056143,-0.04134463,0.60389641,0.00006106,-0.00001486,0.000204
 26,-0.00005883,-0.00001521,-0.00021560,-0.00008480,0.00014790,-0.00058
 704,-0.00000490,0.00011116,-0.00067793,0.00012063,0.00004196,-0.001153
 14,0.00007376,-0.00078407,0.00728343,-0.00002910,0.00003586,-0.0004887
 1,0.00010302,0.00029963,-0.00232891,-0.00018397,-0.00027523,0.00532867
 ,0.00171219,-0.00032827,0.00411029,-0.00000487,-0.00007391,0.00393401,
 0.00009233,-0.00011860,0.00033610,0.00005203,0.00004178,-0.00004103,-0
 .00008583,-0.00001718,-0.00063670,-0.00000170,-0.00003068,0.00015879,0
 .00002345,0.00001090,0.00020079,0.00000432,-0.00001554,-0.00008078,-0.
 00000502,0.00001932,-0.00008593,-0.00000018,0.00000088,-0.00001640,0.0
 0000224,-0.00000068,0.00008069,-0.00017148,0.00000880,0.00453138,0.000
 48963,-0.00249386,-0.05992955,0.00563334,0.00190047,-0.05814558,-0.000
 03084,-0.00001285,-0.00016892,-0.00000382,0.00000031,-0.00000803,-0.00
 000119,-0.00000154,-0.00003455,0.00000687,0.00000209,0.00005469,-0.000
 00678,-0.00001271,-0.00001112,0.00000497,-0.00000341,0.00000735,-0.000
 00109,-0.00000110,-0.00000086,0.00000837,-0.00000259,-0.00000082,-0.00
 039726,-0.00077955,0.00005667,-0.01169588,0.00636808,0.13149412,0.0000
 1180,0.00026197,0.00002250,0.00001290,-0.00002867,-0.00000295,0.000000
 66,-0.00108730,-0.00019386,0.00132542,-0.00090484,-0.00011904,-0.01866
 977,-0.01429641,-0.00119804,-0.00331915,0.00420796,0.00043136,-0.00049
 971,0.00006796,0.00003036,-0.00019396,-0.00020967,-0.00000828,0.000444
 41,0.00077209,0.00005507,-0.00003692,0.00010458,0.00000280,-0.00002613
 ,-0.00001525,0.00000148,-0.00003148,-0.00004149,-0.00000284,0.00012674
 ,-0.00011365,-0.00000497,-0.00000591,-0.00000763,0.00000225,0.00000851
 ,-0.00001695,-0.00000078,-0.00004399,-0.00001180,0.00000047,0.00000530
 ,0.00004617,-0.00000070,0.00001968,0.00007620,0.00001681,-0.00003730,0
 .00004490,0.00000561,-0.00000316,0.00096644,0.00012670,-0.27430055,-0.
 11316950,-0.00841786,0.00153610,0.00073808,-0.00002983,0.00011032,-0.0
 0007090,0.00000011,-0.00000859,-0.00000680,0.00000179,-0.00000464,-0.0
 0000613,0.00000125,-0.00000340,0.00000269,-0.00000107,-0.00000671,-0.0
 0000128,0.00000026,-0.00001346,0.00000008,-0.00000146,-0.00001294,0.00
 001688,-0.00000604,0.00000610,-0.00001078,0.00000044,0.00001352,-0.000
 00711,0.00001572,0.00239408,0.00208455,0.00010537,0.00000723,0.0000677
 0,-0.00001232,0.29018414,-0.00045084,-0.00004014,0.00001866,0.00010039
 ,0.00035844,0.00003667,0.00056851,0.00049890,0.00002634,-0.00007815,0.
 00125283,0.00025403,0.01534813,0.01137121,0.00075356,0.00322638,-0.001
 69218,-0.00041395,0.00023518,-0.00006429,-0.00004190,0.00010050,0.0001
 5637,0.00004155,0.00055463,-0.00061808,0.00001750,0.00009841,-0.000114
 76,-0.00001024,0.00002516,0.00004370,-0.00000743,0.00000998,0.00000572
 ,0.00000410,-0.00000636,0.00008857,0.00002197,0.00000503,0.00002174,-0
 .00000525,-0.00000471,0.00000667,-0.00000018,-0.00001322,-0.00002060,0
 .00000475,-0.00001508,0.00001066,0.00000046,-0.00001951,-0.00003177,-0
 .00000977,-0.00002382,0.00000051,-0.00000303,-0.00060861,-0.00024733,-
 0.00003097,-0.11095022,-0.11551499,-0.00585431,0.00128434,-0.00539384,
 -0.00075499,-0.00002618,-0.00052329,0.00002827,0.00000198,-0.00000358,
 0.00000096,0.00000326,-0.00000199,0.00000022,-0.00000113,0.00000165,-0
 .00000075,-0.00000419,0.00000068,0.00000004,-0.00000438,-0.00000363,0.
 00000121,-0.00000491,0.00001000,-0.00000406,0.00000295,-0.00000511,0.0
 0000004,0.00000189,-0.00000104,0.00000271,-0.02892230,-0.01147178,-0.0
 0112576,-0.00134348,0.00035795,-0.00001932,0.12081203,0.12079404,-0.00
 014026,-0.00000457,-0.00016029,0.00005770,0.00008977,-0.00003083,-0.00
 000232,-0.00008476,0.00059911,0.00009535,0.00025562,-0.00232346,0.0002
 9820,0.00075177,0.00255348,0.00036226,-0.00013250,0.00403313,0.0000532
 3,0.00001707,0.00033780,0.00003489,0.00001446,-0.00057467,0.00010241,-
 0.00017671,-0.00102388,0.00000207,-0.00003423,0.00014669,0.00001996,-0
 .00000321,0.00001148,0.00001091,0.00001344,-0.00002094,-0.00003420,0.0
 0001729,-0.00031350,0.00000242,0.00000472,0.00006134,0.00000370,-0.000
 00046,-0.00000156,-0.00000414,-0.00000768,-0.00000039,0.00000053,0.000
 00474,0.00000390,0.00000304,-0.00001270,0.00007147,0.00000099,-0.00001
 149,0.00009572,-0.00003644,-0.00003321,0.00031289,-0.00812678,-0.00635
 924,-0.03499848,-0.00000177,-0.00081308,0.00854929,-0.00002098,-0.0000
 5255,-0.00047168,0.00000088,0.00000026,-0.00000173,0.00000054,0.000000
 44,-0.00000327,0.00000008,-0.00000052,-0.00000080,-0.00000028,0.000000
 21,-0.00000277,0.00000180,-0.00000453,-0.00000209,-0.00000132,0.000001
 44,-0.00000605,0.00000107,-0.00000059,0.00000300,-0.00000643,0.0000060
 4,0.00000349,-0.00171834,-0.00050865,0.00359619,-0.00014986,0.00002848
 ,0.00045484,0.00911868,0.00670122,0.02459385,0.00017156,0.00007720,0.0
 0000728,-0.00003860,-0.00014920,-0.00001035,-0.00016463,0.00015417,0.0
 0000376,0.00002496,0.00002943,-0.00000355,0.00144615,-0.00110167,-0.00
 015639,0.00038741,-0.00075135,-0.00001742,-0.00048361,-0.00023019,0.00
 001304,-0.00014198,0.00139141,-0.00003221,-0.00385596,-0.00423131,-0.0
 0006430,0.00012516,0.00001423,-0.00000840,0.00000149,-0.00005224,0.000
 00485,-0.00001511,-0.00002893,-0.00000307,0.00006912,0.00018117,0.0000
 1141,0.00000464,0.00002167,-0.00000217,-0.00002488,-0.00002228,0.00000
 317,-0.00008471,-0.00006934,0.00000069,-0.00000346,0.00004393,-0.00000
 227,-0.00000939,0.00001624,0.00000516,0.00000999,-0.00000131,-0.000001
 11,0.00000481,0.00002211,0.00000005,0.00333436,-0.00251012,-0.00012449
 ,-0.01805352,0.01550871,0.00047172,-0.00014715,-0.00029829,-0.00000266
 ,-0.00003307,-0.00001926,0.00000364,-0.00000481,-0.00000906,0.00000119
 ,-0.00000889,0.00000297,0.00000031,-0.00000732,0.00000059,-0.00000038,
 -0.00000740,-0.00001167,0.00000388,-0.00000936,0.00003129,-0.00000538,
 0.00000440,-0.00001243,0.00000041,0.00000769,-0.00000905,0.00000866,-0
 .26659634,0.11844800,0.00446279,0.00131822,0.00105056,-0.00001193,0.00
 100417,0.00021810,0.00008439,0.28191123,0.00014991,-0.00049437,-0.0000
 3679,-0.00013558,-0.00019976,-0.00001855,-0.00010567,0.00021920,0.0000
 5644,0.00134506,0.00033084,0.00001968,-0.00184444,-0.00505496,-0.00078
 198,-0.00038139,-0.00058100,0.00000164,-0.00017237,-0.00021833,0.00000
 105,-0.00059512,0.00073040,-0.00000643,-0.00338034,-0.00132265,-0.0002
 4148,-0.00002276,0.00019973,0.00000302,0.00006428,-0.00003242,-0.00000
 375,-0.00003139,0.00003675,0.00000492,-0.00006912,0.00009725,0.0000127
 7,0.00002408,-0.00000638,-0.00000127,-0.00001457,0.00001365,0.00000013
 ,0.00000438,-0.00001799,-0.00000361,-0.00000851,-0.00001808,0.00000005
 ,0.00000336,0.00000366,-0.00000463,0.00015030,-0.00005789,-0.00001371,
 -0.00003894,-0.00003727,-0.00001095,0.02855792,-0.01247879,-0.00056951
 ,-0.01381218,0.01148689,0.00027879,0.00027875,-0.00002021,0.00000204,-
 0.00000908,-0.00000258,-0.00000033,-0.00000129,0.00000172,-0.00000039,
 -0.00000221,-0.00000213,0.00000149,0.00000354,0.00000140,-0.00000061,0
 .00000973,-0.00000319,0.00000362,0.00000878,0.00000147,0.00000478,-0.0
 0000559,0.00000315,-0.00000029,-0.00000803,-0.00000079,-0.00000885,0.1
 1615807,-0.12382431,-0.00353791,0.00023978,0.00133654,0.00012419,-0.00
 023789,0.00086123,0.00034158,-0.12669146,0.12930937,-0.00002496,0.0000
 7801,-0.00070378,0.00001487,-0.00001298,0.00019745,-0.00003181,0.00006
 366,-0.00070924,-0.00001177,-0.00003121,0.00045485,-0.00015200,-0.0007
 6877,0.00875856,0.00008412,0.00014420,-0.00079388,-0.00000600,-0.00002
 740,-0.00000027,-0.00007116,0.00006778,0.00048630,-0.00002468,-0.00044
 864,0.00456992,0.00005535,-0.00001105,-0.00008430,-0.00002158,0.000006
 33,0.00002906,0.00001629,-0.00000495,-0.00000962,-0.00001281,0.0000184
 3,-0.00008329,-0.00001003,0.00000030,-0.00000434,0.00000635,-0.0000040
 3,-0.00000419,-0.00000534,-0.00000762,-0.00002265,-0.00000202,0.000007
 77,0.00000783,0.00000451,-0.00001346,0.00009823,0.00000045,0.00000747,
 -0.00007261,0.00000275,-0.00002224,0.00017656,0.00146078,-0.00117339,0
 .00315989,-0.00124887,0.00029548,0.00240916,-0.00005977,0.00001272,-0.
 00011514,0.00000039,0.00000049,0.00001004,0.00000027,0.00000051,0.0000
 0393,-0.00000038,-0.00000062,0.00000607,0.00000023,0.00000020,0.000002
 77,-0.00000102,-0.00000462,-0.00000126,0.00000205,0.00000197,-0.000004
 09,0.00000039,-0.00000036,0.00000226,-0.00000136,0.00000070,0.00000424
 ,0.00450907,-0.00306886,-0.03484815,0.00007478,0.00014034,-0.00211030,
 0.00006179,0.00036403,-0.00552328,-0.00464261,0.00441477,0.02440373,0.
 00003806,-0.00000345,-0.00000160,0.00002715,-0.00002245,-0.00000623,-0
 .00011125,-0.00006247,0.00000224,-0.00002636,0.00004544,0.00000877,0.0
 0020435,0.00001457,-0.00000022,0.00035962,-0.00036770,-0.00001845,0.00
 017311,0.00001670,-0.00002345,-0.00009166,-0.00045398,-0.00002678,0.00
 062100,-0.00183428,0.00005741,-0.00328861,-0.00362209,0.00025165,-0.00
 020003,0.00130654,0.00000680,-0.00047735,-0.00016391,0.00003659,-0.000
 07077,-0.00004584,0.00000900,0.00004759,0.00015336,-0.00001179,-0.0000
 9056,0.00004192,0.00000435,0.00005692,-0.00006388,-0.00000389,-0.00005
 910,-0.00004232,0.00000537,0.00000093,-0.00001130,-0.00000193,-0.00000
 021,0.00000857,0.00000006,0.00000534,0.00000227,0.00000011,-0.00005793
 ,0.00031440,0.00001105,0.00781041,-0.00490127,-0.00013683,-0.01915418,
 0.02080110,0.00060659,-0.00002817,-0.00005074,0.00000219,0.00000378,-0
 .00001262,0.00000027,-0.00000583,0.00000488,0.00000083,-0.00001994,0.0
 0001341,0.00000052,-0.00000595,-0.00001029,0.00000390,-0.00000893,0.00
 003290,-0.00000696,0.00000440,-0.00001270,0.00000060,0.00000498,-0.000
 00581,0.00000794,0.00094729,0.00014569,-0.00003386,-0.21294572,0.13498
 936,0.00444149,0.00000391,0.00003163,0.00000459,-0.00009410,0.00055076
 ,0.00002957,0.22555733,-0.00001449,-0.00005276,-0.00000433,0.00020351,
 0.00004361,-0.00000603,-0.00012902,-0.00056460,-0.00002776,-0.00004701
 ,0.00001410,-0.00000573,-0.00003104,0.00012693,0.00001673,0.00163204,0
 .00019479,0.00006114,0.00028205,-0.00007752,-0.00001657,-0.00089014,-0
 .00000628,0.00002333,-0.00275942,-0.00592817,-0.00022135,-0.00284018,-
 0.00034169,0.00000792,0.00001099,0.00052870,0.00000549,-0.00022030,0.0
 0007224,0.00003287,-0.00019775,-0.00007169,0.00000870,0.00005520,0.000
 04136,-0.00000484,-0.00001274,0.00008382,-0.00000736,0.00009420,-0.000
 01878,-0.00000231,-0.00006073,-0.00005346,0.00000771,-0.00000009,-0.00
 006745,-0.00001660,-0.00000194,-0.00001002,0.00000039,-0.00000836,-0.0
 0003782,-0.00000386,-0.00023649,-0.00017057,-0.00001001,0.02440622,-0.
 01409269,-0.00044886,-0.01041234,0.00978039,0.00025765,0.00001116,-0.0
 0000620,-0.00000601,0.00000728,0.00000278,-0.00000036,0.00000188,-0.00
 000281,0.00000094,-0.00000327,0.00000611,0.00000051,0.00001269,-0.0000
 0154,0.00000423,0.00001112,0.00000294,0.00000289,-0.00000625,0.0000023
 9,-0.00000020,-0.00001426,0.00000230,-0.00001126,0.00087183,0.00173645
 ,0.00010358,0.13767936,-0.17749358,-0.00402126,-0.00002718,-0.00004443
 ,-0.00000311,-0.00097130,-0.00026070,-0.00002472,-0.14652905,0.1856503
 8,0.00000922,-0.00000417,-0.00001880,-0.00000248,-0.00000104,-0.000049
 75,0.00001886,0.00000669,-0.00002922,-0.00001294,0.00001112,0.00004144
 ,0.00001557,-0.00003448,-0.00005788,-0.00002992,0.00003603,0.00031512,
 0.00001527,-0.00000855,-0.00055777,-0.00008264,0.,-0.00064097,0.000227
 59,-0.00022120,0.00387855,0.00019407,-0.00005727,0.00942685,0.00002216
 ,0.00006855,0.00037892,-0.00011440,-0.00003036,-0.00098560,-0.00002301
 ,-0.00001265,0.00016099,0.00001923,0.00000202,-0.00009529,-0.00000327,
 0.00002436,0.00009473,0.00002523,-0.00000305,0.00008262,-0.00001500,-0
 .00001640,-0.00001792,-0.00000528,-0.00000016,0.00000382,-0.00000009,0
 .00000024,-0.00000078,-0.00000017,-0.00000093,0.00000430,-0.00002562,0
 .00003809,-0.00014349,0.00021090,0.00035628,0.00258509,0.00064110,-0.0
 0025478,0.00366725,0.00002613,0.00000463,0.00028466,-0.00000198,-0.000
 00047,-0.00002085,-0.00000090,-0.00000115,-0.00001306,0.00000099,0.000
 00170,0.00001713,-0.00000201,-0.00000600,-0.00000039,0.00000139,0.0000
 0280,-0.00000290,-0.00000018,-0.00000045,0.00000190,0.00000002,0.00000
 232,0.00000296,-0.00000139,0.00001144,-0.00168208,0.00412662,-0.004194
 19,-0.03542869,-0.00000101,-0.00000680,0.00008198,0.00000136,-0.000022
 30,0.00018703,-0.00508671,0.00427464,0.02445605,0.00008434,0.00002455,
 0.00000413,0.00010306,-0.00006944,-0.00001969,-0.00025707,0.00035300,0
 .00004518,0.00000824,0.00009247,0.00001166,-0.00016076,0.00000363,0.00
 001212,0.00021289,0.00018658,-0.00001662,0.00067029,0.00075993,-0.0000
 3717,-0.00441269,0.00269379,0.00033096,-0.00071467,0.00011244,-0.00000
 263,0.00749368,0.02475728,-0.00011361,0.00166086,0.00011866,-0.0001843
 9,0.00001609,-0.00035864,-0.00002999,0.00027428,0.00007185,0.00000404,
 -0.00006830,0.00002371,0.00000415,0.00003026,-0.00005108,0.00000079,-0
 .00007398,-0.00005081,0.00000537,0.00000114,0.00007410,-0.00000438,-0.
 00000335,-0.00000708,-0.00000095,0.00001693,0.00000415,0.00000109,-0.0
 0000491,0.00000229,-0.00000092,-0.00041351,-0.00020079,-0.00003676,-0.
 00532429,-0.00085264,0.00029611,-0.06288445,-0.03816740,0.00071307,-0.
 00029750,-0.00073895,0.00003596,-0.00002460,-0.00000531,0.00000375,-0.
 00000267,-0.00000487,-0.00000043,0.00000052,-0.00000257,0.00000030,0.,
 0.00000027,0.00000144,0.00000346,-0.00000181,0.00000150,-0.00000141,0.
 00000084,-0.00000016,-0.00000041,-0.00000396,0.00000019,0.00073500,-0.
 00112017,-0.00000438,-0.00188264,-0.03062754,-0.00003790,0.00000276,-0
 .00015140,-0.00001655,-0.00004108,0.00001922,0.00000416,0.00087046,0.0
 0013382,-0.00014673,0.06438402,-0.00005923,-0.00002363,-0.00000418,-0.
 00004768,0.00006505,0.00001040,0.00019147,-0.00034978,-0.00004398,0.00
 001343,-0.00005452,-0.00000772,0.00006637,0.00005598,-0.00000297,-0.00
 009201,-0.00016735,0.00001766,-0.00087380,-0.00015890,0.00008251,0.003
 81904,-0.00064520,-0.00021629,0.00023491,0.00068761,-0.00000560,-0.004
 91755,-0.01493948,0.00012653,-0.00093370,0.00098578,0.00009047,0.00041
 334,0.00003289,0.00000474,-0.00001160,0.00006997,-0.00001394,-0.000097
 12,-0.00008682,0.00000453,0.00003772,-0.00007612,0.00000525,0.00002414
 ,0.00012021,-0.00000271,0.00009299,-0.00002572,-0.00000780,0.00000394,
 -0.00000156,-0.00000107,-0.00000991,-0.00001678,-0.00000062,-0.0000067
 7,-0.00000785,-0.00000019,-0.00025284,0.00001816,0.00000557,-0.0016134
 4,0.00140524,0.00001237,-0.04050240,-0.32724804,-0.00070841,0.00089991
 ,0.00010906,-0.00009038,0.00001340,0.00002164,-0.00000343,0.00000821,0
 .00000119,-0.00000004,0.00001670,-0.00000454,-0.00000031,0.00000936,0.
 00000963,-0.00000360,0.00001032,-0.00003047,0.00000708,-0.00000575,0.0
 0001337,-0.00000052,-0.00000861,0.00000760,-0.00001210,0.00028200,-0.0
 0036471,-0.00000658,0.00061101,-0.00754845,-0.00009093,0.00000096,-0.0
 0004803,-0.00000478,-0.00004134,0.00000051,-0.00000023,-0.00025735,0.0
 0101348,0.00003549,0.04298187,0.34718057,0.00000985,0.00000011,-0.0000
 2951,-0.00002795,0.00002902,-0.00030540,0.00001961,-0.00001632,0.00028
 098,-0.00000526,0.00000736,0.00002434,-0.00000710,-0.00002388,0.000145
 54,0.00000440,0.00006930,-0.00054407,0.00007421,-0.00005048,0.00059645
 ,0.00017350,-0.00016223,0.00349159,0.00011659,-0.00009222,-0.00097501,
 -0.00056212,-0.00059826,0.00230003,-0.00007006,-0.00003890,-0.00193137
 ,-0.00006385,0.00009929,-0.00015877,-0.00005229,-0.00003321,-0.0000143
 1,0.00003548,-0.00000422,0.00001136,-0.00000884,0.00002827,0.00000745,
 0.00001708,-0.00001282,0.00004683,-0.00001741,-0.00001889,-0.00002582,
 0.00000108,-0.00000210,0.00000902,0.00000235,-0.00001014,0.00007812,-0
 .00000116,-0.00000083,0.00000024,0.00003469,0.00003792,-0.00058537,0.0
 0030545,-0.00003276,0.00906174,0.00112006,-0.00075667,-0.03452896,0.00
 003688,0.00004182,0.00029293,0.00000277,0.00000061,0.00002125,-0.00000
 023,0.00000070,0.00000639,-0.00000060,0.00000090,-0.00000144,0.0000023
 4,-0.00000051,0.00000134,0.00000123,0.00000164,-0.00000646,0.,-0.00000
 141,0.00000232,-0.00000565,0.00000669,0.00000310,-0.00003849,0.0000817
 3,0.00046065,-0.00014187,0.00058806,0.00391448,0.00000028,0.00001046,-
 0.00005001,0.00000094,-0.00000760,0.00012252,-0.00013320,0.00003376,-0
 .00592595,-0.00082271,0.00082581,0.02420377\\-0.00000063,0.00000093,-0
 .00000736,-0.00000039,0.00000038,-0.00000387,-0.00000036,0.00000006,-0
 .00000302,-0.00000070,0.00000115,-0.00000670,-0.00000034,0.00000094,-0
 .00000561,-0.00000031,0.00000067,-0.00000491,0.00000032,0.00000004,0.0
 0000184,0.00000002,0.00000007,-0.00000054,0.00000009,0.00000040,-0.000
 00274,0.00000081,0.00000019,0.00000425,0.00000081,-0.00000029,0.000007
 05,0.00000056,-0.00000035,0.00000442,-0.00000206,-0.00000352,-0.000005
 66,0.00000080,-0.00000056,0.00000696,0.00000061,-0.00000081,0.00000542
 ,-0.00008649,-0.00244445,0.00102723,-0.00000011,0.00000043,0.00000746,
 -0.00000079,0.00000059,-0.00000552,-0.00000088,0.00000121,-0.00000973,
 -0.00000075,0.00000152,-0.00000994,-0.00000032,0.00000103,-0.00000343,
 0.00000022,0.00000062,0.00000007,0.00000097,0.00000020,0.00000641,0.00
 000111,-0.00000030,0.00000851,0.00000100,-0.00000059,0.00000885,-0.000
 00015,-0.00000105,0.00000268,0.00000067,-0.00000090,0.00000772,0.00008
 658,0.00244282,-0.00102522,-0.00000606,-0.00000265,-0.00000740,-0.0000
 0074,-0.00000020,-0.00000446,0.00000376,-0.00000246,0.00000121,0.00000
 020,0.00000101,-0.00000065,0.00000067,0.00000027,0.00000479,-0.0000003
 0,0.00000154,-0.00000678,0.00000026,0.00000126,-0.00000208,0.00000083,
 0.00000070,0.00000368,0.00000112,0.00000012,0.00000707\\\@


 WE HAVE SEEN THAT MAN ON THE AVERAGE DOES NOT LIVE ABOVE
 TWO-AND-TWENTY YEARS.  DURING THESE TWO AND TWENTY
 YEARS HE IS LIABLE TO TWO AND TWENTY THOUSAND EVILS,
 MANY OF WHICH ARE INCURABLE.  YET EVEN IN THIS DREADFUL STATE
 MEN STILL STRUT AND POSE ON THE STAGE OF LIFE.
 THEY MAKE LOVE AT THE RISK OF DESTRUCTION,
 INTRIGUE, CARRY ON WAR, AND FORM PROJECTS, JUST AS IF THEY
 WERE TO LIVE IN LUXURY AND HAPPINESS FOR A THOUSAND
 AGES.

                                              -- VOLTAIRE
 Job cpu time:       0 days 16 hours 58 minutes 59.3 seconds.
 Elapsed time:       0 days  0 hours 50 minutes 56.6 seconds.
 File lengths (MBytes):  RWF=   4444 Int=      0 D2E=      0 Chk=     42 Scr=      1
 Normal termination of Gaussian 16 at Thu Apr  4 16:38:07 2019.
