 Entering Gaussian System, Link 0=/share/apps/gaussian16/g16/g16
 Initial command:
 /share/apps/gaussian16/g16/l1.exe "/home/am2145//scratch/3670/Gau-11866.inp" -scrdir="/home/am2145//scratch/3670/"
 Entering Link 1 = /share/apps/gaussian16/g16/l1.exe PID=     11867.
  
 Copyright (c) 1988,1990,1992,1993,1995,1998,2003,2009,2016,
            Gaussian, Inc.  All Rights Reserved.
  
 This is part of the Gaussian(R) 16 program.  It is based on
 the Gaussian(R) 09 system (copyright 2009, Gaussian, Inc.),
 the Gaussian(R) 03 system (copyright 2003, Gaussian, Inc.),
 the Gaussian(R) 98 system (copyright 1998, Gaussian, Inc.),
 the Gaussian(R) 94 system (copyright 1995, Gaussian, Inc.),
 the Gaussian 92(TM) system (copyright 1992, Gaussian, Inc.),
 the Gaussian 90(TM) system (copyright 1990, Gaussian, Inc.),
 the Gaussian 88(TM) system (copyright 1988, Gaussian, Inc.),
 the Gaussian 86(TM) system (copyright 1986, Carnegie Mellon
 University), and the Gaussian 82(TM) system (copyright 1983,
 Carnegie Mellon University). Gaussian is a federally registered
 trademark of Gaussian, Inc.
  
 This software contains proprietary and confidential information,
 including trade secrets, belonging to Gaussian, Inc.
  
 This software is provided under written license and may be
 used, copied, transmitted, or stored only in accord with that
 written license.
  
 The following legend is applicable only to US Government
 contracts under FAR:
  
                    RESTRICTED RIGHTS LEGEND
  
 Use, reproduction and disclosure by the US Government is
 subject to restrictions as set forth in subparagraphs (a)
 and (c) of the Commercial Computer Software - Restricted
 Rights clause in FAR 52.227-19.
  
 Gaussian, Inc.
 340 Quinnipiac St., Bldg. 40, Wallingford CT 06492
  
  
 ---------------------------------------------------------------
 Warning -- This program may not be used in any manner that
 competes with the business of Gaussian, Inc. or will provide
 assistance to any competitor of Gaussian, Inc.  The licensee
 of this program is prohibited from giving any competitor of
 Gaussian, Inc. access to this program.  By using this program,
 the user acknowledges that Gaussian, Inc. is engaged in the
 business of creating and licensing software in the field of
 computational chemistry and represents and warrants to the
 licensee that it is not a competitor of Gaussian, Inc. and that
 it will not use this program in any manner prohibited above.
 ---------------------------------------------------------------
  

 Cite this work as:
 Gaussian 16, Revision A.03,
 M. J. Frisch, G. W. Trucks, H. B. Schlegel, G. E. Scuseria, 
 M. A. Robb, J. R. Cheeseman, G. Scalmani, V. Barone, 
 G. A. Petersson, H. Nakatsuji, X. Li, M. Caricato, A. V. Marenich, 
 J. Bloino, B. G. Janesko, R. Gomperts, B. Mennucci, H. P. Hratchian, 
 J. V. Ortiz, A. F. Izmaylov, J. L. Sonnenberg, D. Williams-Young, 
 F. Ding, F. Lipparini, F. Egidi, J. Goings, B. Peng, A. Petrone, 
 T. Henderson, D. Ranasinghe, V. G. Zakrzewski, J. Gao, N. Rega, 
 G. Zheng, W. Liang, M. Hada, M. Ehara, K. Toyota, R. Fukuda, 
 J. Hasegawa, M. Ishida, T. Nakajima, Y. Honda, O. Kitao, H. Nakai, 
 T. Vreven, K. Throssell, J. A. Montgomery, Jr., J. E. Peralta, 
 F. Ogliaro, M. J. Bearpark, J. J. Heyd, E. N. Brothers, K. N. Kudin, 
 V. N. Staroverov, T. A. Keith, R. Kobayashi, J. Normand, 
 K. Raghavachari, A. P. Rendell, J. C. Burant, S. S. Iyengar, 
 J. Tomasi, M. Cossi, J. M. Millam, M. Klene, C. Adamo, R. Cammi, 
 J. W. Ochterski, R. L. Martin, K. Morokuma, O. Farkas, 
 J. B. Foresman, and D. J. Fox, Gaussian, Inc., Wallingford CT, 2016.
 
 ******************************************
 Gaussian 16:  ES64L-G16RevA.03 25-Dec-2016
                 4-Apr-2019 
 ******************************************
 %nprocshared=20
 Will use up to   20 processors via shared memory.
 %mem=100GB
 %chk=7-memb-TSguess3b.chk
 ----------------------------------------------------------------------
 # opt=(ts,calcfc,modredundant,noeigen) freq b3lyp/6-311+g(d,p) int=gri
 d=fine
 ----------------------------------------------------------------------
 1/5=1,10=4,11=1,18=120,26=3,38=1/1,3;
 2/9=110,12=2,17=6,18=5,40=1/2;
 3/5=4,6=6,7=111,11=2,25=1,30=1,71=2,74=-5,75=-4,140=1/1,2,3;
 4//1;
 5/5=2,38=5/2;
 8/6=4,10=90,11=11/1;
 11/6=1,8=1,9=11,15=111,16=1/1,2,10;
 10/6=1,13=1/2;
 6/7=2,8=2,9=2,10=2,28=1/1;
 7/10=1,18=20,25=1/1,2,3,16;
 1/5=1,10=4,11=1,18=20,26=3/3(2);
 2/9=110/2;
 99//99;
 2/9=110/2;
 3/5=4,6=6,7=111,11=2,25=1,30=1,71=1,74=-5,75=-4/1,2,3;
 4/5=5,16=3,69=1/1;
 5/5=2,38=5/2;
 7//1,2,3,16;
 1/5=1,11=1,18=20,26=3/3(-5);
 2/9=110/2;
 6/7=2,8=2,9=2,10=2,19=2,28=1/1;
 99/9=1/99;
 ----------------
 7-memb-TSguess3b
 ----------------
 Symbolic Z-matrix:
 Charge =  0 Multiplicity = 2
 C                    -1.82554   3.11641  -0.08539 
 C                    -0.57792   2.4553   -0.09287 
 C                    -0.45692   1.09001  -0.03598 
 C                    -3.03075   2.42077  -0.04586 
 C                    -3.00649   0.99964  -0.00818 
 C                    -1.73515   0.4353   -0.00281 
 C                     0.56063  -0.02062  -0.02163 
 C                    -0.17868  -1.21342   0.00277 
 C                    -1.55559  -0.945     0.01679 
 C                     0.29083  -2.53467   0.01439 
 C                     1.68169  -2.66434   0.00052 
 C                     2.50788  -1.51342  -0.01203 
 C                     1.96622  -0.15667  -0.01462 
 C                     3.92726  -1.66527  -0.01684 
 C                     4.767    -0.58355  -0.01407 
 C                     2.87797   0.93552   0.00034 
 C                     4.23378   0.73132  -0.00045 
 H                    -1.84257   4.20031  -0.11608 
 H                    -3.96833   2.96747  -0.04753 
 C                    -4.09309   0.049     0.01898 
 C                    -2.56308  -1.88291   0.0372 
 C                    -0.74485  -3.55393   0.03706 
 H                     2.15538  -3.6412    0.00244 
 H                     4.3345   -2.67109  -0.01958 
 H                     2.48054   1.94166   0.02713 
 H                     4.90731   1.58113   0.01387 
 H                     5.84146  -0.72765  -0.01666 
 C                     1.07301   4.0167   -0.4379 
 C                     1.30709   4.68032   0.5569 
 H                     1.14718   3.71102  -1.45718 
 H                     1.38205   5.1368    1.51525 
 C                    -3.88893  -1.32172   0.04068 
 C                    -2.08999  -3.25428   0.04787 
 H                    -5.11229   0.42198   0.02057 
 H                    -4.75267  -1.97841   0.05869 
 H                    -2.80747  -4.06833   0.06435 
 H                    -0.44341  -4.59652   0.04555 
 
 Add virtual bond connecting atoms C28        and C2         Dist= 4.34D+00.
 The following ModRedundant input section has been read:
 B       2      28 F                                                           
 

 GradGradGradGradGradGradGradGradGradGradGradGradGradGradGradGradGradGrad
 Berny optimization.
 Initialization pass.
                           ----------------------------
                           !    Initial Parameters    !
                           ! (Angstroms and Degrees)  !
 --------------------------                            --------------------------
 ! Name  Definition              Value          Derivative Info.                !
 --------------------------------------------------------------------------------
 ! R1    R(1,2)                  1.412          calculate D2E/DX2 analytically  !
 ! R2    R(1,4)                  1.3921         calculate D2E/DX2 analytically  !
 ! R3    R(1,18)                 1.0845         calculate D2E/DX2 analytically  !
 ! R4    R(2,3)                  1.3718         calculate D2E/DX2 analytically  !
 ! R5    R(2,28)                 2.2984         frozen, calculate D2E/DX2 analyt!
 ! R6    R(3,6)                  1.4365         calculate D2E/DX2 analytically  !
 ! R7    R(3,7)                  1.5064         calculate D2E/DX2 analytically  !
 ! R8    R(4,5)                  1.4218         calculate D2E/DX2 analytically  !
 ! R9    R(4,19)                 1.0853         calculate D2E/DX2 analytically  !
 ! R10   R(5,6)                  1.391          calculate D2E/DX2 analytically  !
 ! R11   R(5,20)                 1.444          calculate D2E/DX2 analytically  !
 ! R12   R(6,9)                  1.3921         calculate D2E/DX2 analytically  !
 ! R13   R(7,8)                  1.4035         calculate D2E/DX2 analytically  !
 ! R14   R(7,13)                 1.4122         calculate D2E/DX2 analytically  !
 ! R15   R(8,9)                  1.4029         calculate D2E/DX2 analytically  !
 ! R16   R(8,10)                 1.4022         calculate D2E/DX2 analytically  !
 ! R17   R(9,21)                 1.3766         calculate D2E/DX2 analytically  !
 ! R18   R(10,11)                1.397          calculate D2E/DX2 analytically  !
 ! R19   R(10,22)                1.4533         calculate D2E/DX2 analytically  !
 ! R20   R(11,12)                1.4168         calculate D2E/DX2 analytically  !
 ! R21   R(11,23)                1.0857         calculate D2E/DX2 analytically  !
 ! R22   R(12,13)                1.4609         calculate D2E/DX2 analytically  !
 ! R23   R(12,14)                1.4275         calculate D2E/DX2 analytically  !
 ! R24   R(13,16)                1.4228         calculate D2E/DX2 analytically  !
 ! R25   R(14,15)                1.3694         calculate D2E/DX2 analytically  !
 ! R26   R(14,24)                1.0851         calculate D2E/DX2 analytically  !
 ! R27   R(15,17)                1.4189         calculate D2E/DX2 analytically  !
 ! R28   R(15,27)                1.0841         calculate D2E/DX2 analytically  !
 ! R29   R(16,17)                1.3711         calculate D2E/DX2 analytically  !
 ! R30   R(16,25)                1.0821         calculate D2E/DX2 analytically  !
 ! R31   R(17,26)                1.0844         calculate D2E/DX2 analytically  !
 ! R32   R(20,32)                1.386          calculate D2E/DX2 analytically  !
 ! R33   R(20,34)                1.0853         calculate D2E/DX2 analytically  !
 ! R34   R(21,32)                1.4397         calculate D2E/DX2 analytically  !
 ! R35   R(21,33)                1.4507         calculate D2E/DX2 analytically  !
 ! R36   R(22,33)                1.3781         calculate D2E/DX2 analytically  !
 ! R37   R(22,37)                1.0853         calculate D2E/DX2 analytically  !
 ! R38   R(28,29)                1.2185         calculate D2E/DX2 analytically  !
 ! R39   R(28,30)                1.0667         calculate D2E/DX2 analytically  !
 ! R40   R(29,31)                1.0641         calculate D2E/DX2 analytically  !
 ! R41   R(32,35)                1.0852         calculate D2E/DX2 analytically  !
 ! R42   R(33,36)                1.0852         calculate D2E/DX2 analytically  !
 ! A1    A(2,1,4)              122.0829         calculate D2E/DX2 analytically  !
 ! A2    A(2,1,18)             118.7963         calculate D2E/DX2 analytically  !
 ! A3    A(4,1,18)             119.1202         calculate D2E/DX2 analytically  !
 ! A4    A(1,2,3)              122.9364         calculate D2E/DX2 analytically  !
 ! A5    A(1,2,28)             108.5057         calculate D2E/DX2 analytically  !
 ! A6    A(3,2,28)             128.2415         calculate D2E/DX2 analytically  !
 ! A7    A(2,3,6)              112.0898         calculate D2E/DX2 analytically  !
 ! A8    A(2,3,7)              142.5386         calculate D2E/DX2 analytically  !
 ! A9    A(6,3,7)              105.3562         calculate D2E/DX2 analytically  !
 ! A10   A(1,4,5)              119.0406         calculate D2E/DX2 analytically  !
 ! A11   A(1,4,19)             119.7444         calculate D2E/DX2 analytically  !
 ! A12   A(5,4,19)             121.2148         calculate D2E/DX2 analytically  !
 ! A13   A(4,5,6)              114.9111         calculate D2E/DX2 analytically  !
 ! A14   A(4,5,20)             130.2158         calculate D2E/DX2 analytically  !
 ! A15   A(6,5,20)             114.8724         calculate D2E/DX2 analytically  !
 ! A16   A(3,6,5)              128.923          calculate D2E/DX2 analytically  !
 ! A17   A(3,6,9)              109.7221         calculate D2E/DX2 analytically  !
 ! A18   A(5,6,9)              121.3479         calculate D2E/DX2 analytically  !
 ! A19   A(3,7,8)              105.7196         calculate D2E/DX2 analytically  !
 ! A20   A(3,7,13)             138.0248         calculate D2E/DX2 analytically  !
 ! A21   A(8,7,13)             116.2525         calculate D2E/DX2 analytically  !
 ! A22   A(7,8,9)              110.7664         calculate D2E/DX2 analytically  !
 ! A23   A(7,8,10)             128.648          calculate D2E/DX2 analytically  !
 ! A24   A(9,8,10)             120.5856         calculate D2E/DX2 analytically  !
 ! A25   A(6,9,8)              108.4316         calculate D2E/DX2 analytically  !
 ! A26   A(6,9,21)             125.5463         calculate D2E/DX2 analytically  !
 ! A27   A(8,9,21)             126.0207         calculate D2E/DX2 analytically  !
 ! A28   A(8,10,11)            114.8815         calculate D2E/DX2 analytically  !
 ! A29   A(8,10,22)            114.9836         calculate D2E/DX2 analytically  !
 ! A30   A(11,10,22)           130.1348         calculate D2E/DX2 analytically  !
 ! A31   A(10,11,12)           120.3497         calculate D2E/DX2 analytically  !
 ! A32   A(10,11,23)           121.1929         calculate D2E/DX2 analytically  !
 ! A33   A(12,11,23)           118.4571         calculate D2E/DX2 analytically  !
 ! A34   A(11,12,13)           122.5632         calculate D2E/DX2 analytically  !
 ! A35   A(11,12,14)           119.5674         calculate D2E/DX2 analytically  !
 ! A36   A(13,12,14)           117.8689         calculate D2E/DX2 analytically  !
 ! A37   A(7,13,12)            117.2922         calculate D2E/DX2 analytically  !
 ! A38   A(7,13,16)            124.3271         calculate D2E/DX2 analytically  !
 ! A39   A(12,13,16)           118.3788         calculate D2E/DX2 analytically  !
 ! A40   A(12,14,15)           121.7156         calculate D2E/DX2 analytically  !
 ! A41   A(12,14,24)           118.1486         calculate D2E/DX2 analytically  !
 ! A42   A(15,14,24)           120.1354         calculate D2E/DX2 analytically  !
 ! A43   A(14,15,17)           120.1032         calculate D2E/DX2 analytically  !
 ! A44   A(14,15,27)           120.1832         calculate D2E/DX2 analytically  !
 ! A45   A(17,15,27)           119.7127         calculate D2E/DX2 analytically  !
 ! A46   A(13,16,17)           121.2873         calculate D2E/DX2 analytically  !
 ! A47   A(13,16,25)           118.5961         calculate D2E/DX2 analytically  !
 ! A48   A(17,16,25)           120.1107         calculate D2E/DX2 analytically  !
 ! A49   A(15,17,16)           120.6379         calculate D2E/DX2 analytically  !
 ! A50   A(15,17,26)           119.531          calculate D2E/DX2 analytically  !
 ! A51   A(16,17,26)           119.8305         calculate D2E/DX2 analytically  !
 ! A52   A(5,20,32)            122.7196         calculate D2E/DX2 analytically  !
 ! A53   A(5,20,34)            118.7138         calculate D2E/DX2 analytically  !
 ! A54   A(32,20,34)           118.5664         calculate D2E/DX2 analytically  !
 ! A55   A(9,21,32)            114.1061         calculate D2E/DX2 analytically  !
 ! A56   A(9,21,33)            113.9221         calculate D2E/DX2 analytically  !
 ! A57   A(32,21,33)           131.9717         calculate D2E/DX2 analytically  !
 ! A58   A(10,22,33)           122.9018         calculate D2E/DX2 analytically  !
 ! A59   A(10,22,37)           118.4194         calculate D2E/DX2 analytically  !
 ! A60   A(33,22,37)           118.6787         calculate D2E/DX2 analytically  !
 ! A61   A(2,28,29)            112.6687         calculate D2E/DX2 analytically  !
 ! A62   A(2,28,30)             89.9259         calculate D2E/DX2 analytically  !
 ! A63   A(29,28,30)           157.3397         calculate D2E/DX2 analytically  !
 ! A64   A(20,32,21)           121.4058         calculate D2E/DX2 analytically  !
 ! A65   A(20,32,35)           118.7826         calculate D2E/DX2 analytically  !
 ! A66   A(21,32,35)           119.8115         calculate D2E/DX2 analytically  !
 ! A67   A(21,33,22)           121.5858         calculate D2E/DX2 analytically  !
 ! A68   A(21,33,36)           119.5774         calculate D2E/DX2 analytically  !
 ! A69   A(22,33,36)           118.8368         calculate D2E/DX2 analytically  !
 ! A70   L(28,29,31,26,-1)     181.5816         calculate D2E/DX2 analytically  !
 ! A71   L(28,29,31,26,-2)     191.2289         calculate D2E/DX2 analytically  !
 ! D1    D(4,1,2,3)             -1.2988         calculate D2E/DX2 analytically  !
 ! D2    D(4,1,2,28)           172.7242         calculate D2E/DX2 analytically  !
 ! D3    D(18,1,2,3)           178.9886         calculate D2E/DX2 analytically  !
 ! D4    D(18,1,2,28)           -6.9884         calculate D2E/DX2 analytically  !
 ! D5    D(2,1,4,5)              0.1722         calculate D2E/DX2 analytically  !
 ! D6    D(2,1,4,19)          -179.6307         calculate D2E/DX2 analytically  !
 ! D7    D(18,1,4,5)           179.8838         calculate D2E/DX2 analytically  !
 ! D8    D(18,1,4,19)            0.081          calculate D2E/DX2 analytically  !
 ! D9    D(1,2,3,6)              1.4387         calculate D2E/DX2 analytically  !
 ! D10   D(1,2,3,7)            179.6965         calculate D2E/DX2 analytically  !
 ! D11   D(28,2,3,6)          -171.3388         calculate D2E/DX2 analytically  !
 ! D12   D(28,2,3,7)             6.919          calculate D2E/DX2 analytically  !
 ! D13   D(1,2,28,29)           75.9856         calculate D2E/DX2 analytically  !
 ! D14   D(1,2,28,30)         -102.2423         calculate D2E/DX2 analytically  !
 ! D15   D(3,2,28,29)         -110.4029         calculate D2E/DX2 analytically  !
 ! D16   D(3,2,28,30)           71.3692         calculate D2E/DX2 analytically  !
 ! D17   D(2,3,6,5)             -0.6749         calculate D2E/DX2 analytically  !
 ! D18   D(2,3,6,9)            178.3542         calculate D2E/DX2 analytically  !
 ! D19   D(7,3,6,5)           -179.5761         calculate D2E/DX2 analytically  !
 ! D20   D(7,3,6,9)             -0.547          calculate D2E/DX2 analytically  !
 ! D21   D(2,3,7,8)           -177.6852         calculate D2E/DX2 analytically  !
 ! D22   D(2,3,7,13)             3.015          calculate D2E/DX2 analytically  !
 ! D23   D(6,3,7,8)              0.6408         calculate D2E/DX2 analytically  !
 ! D24   D(6,3,7,13)          -178.6591         calculate D2E/DX2 analytically  !
 ! D25   D(1,4,5,6)              0.5563         calculate D2E/DX2 analytically  !
 ! D26   D(1,4,5,20)          -179.1087         calculate D2E/DX2 analytically  !
 ! D27   D(19,4,5,6)          -179.6438         calculate D2E/DX2 analytically  !
 ! D28   D(19,4,5,20)            0.6911         calculate D2E/DX2 analytically  !
 ! D29   D(4,5,6,3)             -0.3077         calculate D2E/DX2 analytically  !
 ! D30   D(4,5,6,9)           -179.2375         calculate D2E/DX2 analytically  !
 ! D31   D(20,5,6,3)           179.4104         calculate D2E/DX2 analytically  !
 ! D32   D(20,5,6,9)             0.4806         calculate D2E/DX2 analytically  !
 ! D33   D(4,5,20,32)          179.296          calculate D2E/DX2 analytically  !
 ! D34   D(4,5,20,34)           -0.5841         calculate D2E/DX2 analytically  !
 ! D35   D(6,5,20,32)           -0.3692         calculate D2E/DX2 analytically  !
 ! D36   D(6,5,20,34)          179.7508         calculate D2E/DX2 analytically  !
 ! D37   D(3,6,9,8)              0.2443         calculate D2E/DX2 analytically  !
 ! D38   D(3,6,9,21)          -179.3515         calculate D2E/DX2 analytically  !
 ! D39   D(5,6,9,8)            179.3599         calculate D2E/DX2 analytically  !
 ! D40   D(5,6,9,21)            -0.2359         calculate D2E/DX2 analytically  !
 ! D41   D(3,7,8,9)             -0.521          calculate D2E/DX2 analytically  !
 ! D42   D(3,7,8,10)           179.5248         calculate D2E/DX2 analytically  !
 ! D43   D(13,7,8,9)           178.9568         calculate D2E/DX2 analytically  !
 ! D44   D(13,7,8,10)           -0.9973         calculate D2E/DX2 analytically  !
 ! D45   D(3,7,13,12)         -179.4683         calculate D2E/DX2 analytically  !
 ! D46   D(3,7,13,16)            1.0352         calculate D2E/DX2 analytically  !
 ! D47   D(8,7,13,12)            1.2832         calculate D2E/DX2 analytically  !
 ! D48   D(8,7,13,16)         -178.2133         calculate D2E/DX2 analytically  !
 ! D49   D(7,8,9,6)              0.1925         calculate D2E/DX2 analytically  !
 ! D50   D(7,8,9,21)           179.7859         calculate D2E/DX2 analytically  !
 ! D51   D(10,8,9,6)          -179.8491         calculate D2E/DX2 analytically  !
 ! D52   D(10,8,9,21)           -0.2557         calculate D2E/DX2 analytically  !
 ! D53   D(7,8,10,11)            0.0488         calculate D2E/DX2 analytically  !
 ! D54   D(7,8,10,22)         -179.8688         calculate D2E/DX2 analytically  !
 ! D55   D(9,8,10,11)         -179.9014         calculate D2E/DX2 analytically  !
 ! D56   D(9,8,10,22)            0.1809         calculate D2E/DX2 analytically  !
 ! D57   D(6,9,21,32)           -0.1553         calculate D2E/DX2 analytically  !
 ! D58   D(6,9,21,33)          179.7            calculate D2E/DX2 analytically  !
 ! D59   D(8,9,21,32)         -179.6812         calculate D2E/DX2 analytically  !
 ! D60   D(8,9,21,33)            0.1741         calculate D2E/DX2 analytically  !
 ! D61   D(8,10,11,12)           0.5321         calculate D2E/DX2 analytically  !
 ! D62   D(8,10,11,23)        -179.6756         calculate D2E/DX2 analytically  !
 ! D63   D(22,10,11,12)       -179.5655         calculate D2E/DX2 analytically  !
 ! D64   D(22,10,11,23)          0.2267         calculate D2E/DX2 analytically  !
 ! D65   D(8,10,22,33)          -0.0646         calculate D2E/DX2 analytically  !
 ! D66   D(8,10,22,37)         179.919          calculate D2E/DX2 analytically  !
 ! D67   D(11,10,22,33)       -179.9669         calculate D2E/DX2 analytically  !
 ! D68   D(11,10,22,37)          0.0166         calculate D2E/DX2 analytically  !
 ! D69   D(10,11,12,13)         -0.1588         calculate D2E/DX2 analytically  !
 ! D70   D(10,11,12,14)        179.5725         calculate D2E/DX2 analytically  !
 ! D71   D(23,11,12,13)       -179.9567         calculate D2E/DX2 analytically  !
 ! D72   D(23,11,12,14)         -0.2254         calculate D2E/DX2 analytically  !
 ! D73   D(11,12,13,7)          -0.8045         calculate D2E/DX2 analytically  !
 ! D74   D(11,12,13,16)        178.7229         calculate D2E/DX2 analytically  !
 ! D75   D(14,12,13,7)         179.46           calculate D2E/DX2 analytically  !
 ! D76   D(14,12,13,16)         -1.0126         calculate D2E/DX2 analytically  !
 ! D77   D(11,12,14,15)       -179.2706         calculate D2E/DX2 analytically  !
 ! D78   D(11,12,14,24)          0.5345         calculate D2E/DX2 analytically  !
 ! D79   D(13,12,14,15)          0.4732         calculate D2E/DX2 analytically  !
 ! D80   D(13,12,14,24)       -179.7218         calculate D2E/DX2 analytically  !
 ! D81   D(7,13,16,17)        -179.6623         calculate D2E/DX2 analytically  !
 ! D82   D(7,13,16,25)           1.2196         calculate D2E/DX2 analytically  !
 ! D83   D(12,13,16,17)          0.8463         calculate D2E/DX2 analytically  !
 ! D84   D(12,13,16,25)       -178.2718         calculate D2E/DX2 analytically  !
 ! D85   D(12,14,15,17)          0.27           calculate D2E/DX2 analytically  !
 ! D86   D(12,14,15,27)        179.9267         calculate D2E/DX2 analytically  !
 ! D87   D(24,14,15,17)       -179.5313         calculate D2E/DX2 analytically  !
 ! D88   D(24,14,15,27)          0.1255         calculate D2E/DX2 analytically  !
 ! D89   D(14,15,17,16)         -0.4727         calculate D2E/DX2 analytically  !
 ! D90   D(14,15,17,26)        179.2571         calculate D2E/DX2 analytically  !
 ! D91   D(27,15,17,16)        179.8689         calculate D2E/DX2 analytically  !
 ! D92   D(27,15,17,26)         -0.4012         calculate D2E/DX2 analytically  !
 ! D93   D(13,16,17,15)         -0.1053         calculate D2E/DX2 analytically  !
 ! D94   D(13,16,17,26)       -179.8343         calculate D2E/DX2 analytically  !
 ! D95   D(25,16,17,15)        178.9996         calculate D2E/DX2 analytically  !
 ! D96   D(25,16,17,26)         -0.7295         calculate D2E/DX2 analytically  !
 ! D97   D(5,20,32,21)          -0.0056         calculate D2E/DX2 analytically  !
 ! D98   D(5,20,32,35)        -179.8884         calculate D2E/DX2 analytically  !
 ! D99   D(34,20,32,21)        179.8746         calculate D2E/DX2 analytically  !
 ! D100  D(34,20,32,35)         -0.0082         calculate D2E/DX2 analytically  !
 ! D101  D(9,21,32,20)           0.2665         calculate D2E/DX2 analytically  !
 ! D102  D(9,21,32,35)        -179.8518         calculate D2E/DX2 analytically  !
 ! D103  D(33,21,32,20)       -179.5556         calculate D2E/DX2 analytically  !
 ! D104  D(33,21,32,35)          0.3261         calculate D2E/DX2 analytically  !
 ! D105  D(9,21,33,22)          -0.0442         calculate D2E/DX2 analytically  !
 ! D106  D(9,21,33,36)         179.9812         calculate D2E/DX2 analytically  !
 ! D107  D(32,21,33,22)        179.7781         calculate D2E/DX2 analytically  !
 ! D108  D(32,21,33,36)         -0.1965         calculate D2E/DX2 analytically  !
 ! D109  D(10,22,33,21)         -0.0026         calculate D2E/DX2 analytically  !
 ! D110  D(10,22,33,36)        179.9722         calculate D2E/DX2 analytically  !
 ! D111  D(37,22,33,21)       -179.9861         calculate D2E/DX2 analytically  !
 ! D112  D(37,22,33,36)         -0.0113         calculate D2E/DX2 analytically  !
 --------------------------------------------------------------------------------
 Trust Radius=3.00D-01 FncErr=1.00D-07 GrdErr=1.00D-06 EigMax=2.50D+02 EigMin=1.00D-04
 Number of steps in this run=    222 maximum allowed number of steps=    222.
 Search for a saddle point of order  1.
 GradGradGradGradGradGradGradGradGradGradGradGradGradGradGradGradGradGrad

                          Input orientation:                          
 ---------------------------------------------------------------------
 Center     Atomic      Atomic             Coordinates (Angstroms)
 Number     Number       Type             X           Y           Z
 ---------------------------------------------------------------------
      1          6           0       -1.825536    3.116409   -0.085390
      2          6           0       -0.577923    2.455300   -0.092866
      3          6           0       -0.456918    1.090007   -0.035978
      4          6           0       -3.030751    2.420768   -0.045863
      5          6           0       -3.006491    0.999637   -0.008175
      6          6           0       -1.735149    0.435295   -0.002805
      7          6           0        0.560634   -0.020622   -0.021634
      8          6           0       -0.178682   -1.213420    0.002769
      9          6           0       -1.555592   -0.944998    0.016787
     10          6           0        0.290826   -2.534670    0.014388
     11          6           0        1.681685   -2.664337    0.000523
     12          6           0        2.507877   -1.513424   -0.012025
     13          6           0        1.966220   -0.156674   -0.014624
     14          6           0        3.927260   -1.665265   -0.016841
     15          6           0        4.767003   -0.583551   -0.014072
     16          6           0        2.877974    0.935522    0.000342
     17          6           0        4.233784    0.731319   -0.000446
     18          1           0       -1.842565    4.200314   -0.116082
     19          1           0       -3.968332    2.967468   -0.047529
     20          6           0       -4.093088    0.048997    0.018975
     21          6           0       -2.563076   -1.882913    0.037201
     22          6           0       -0.744853   -3.553934    0.037056
     23          1           0        2.155385   -3.641198    0.002443
     24          1           0        4.334503   -2.671090   -0.019582
     25          1           0        2.480535    1.941658    0.027125
     26          1           0        4.907311    1.581128    0.013872
     27          1           0        5.841459   -0.727654   -0.016659
     28          6           0        1.073010    4.016705   -0.437904
     29          6           0        1.307090    4.680323    0.556901
     30          1           0        1.147176    3.711017   -1.457184
     31          1           0        1.382050    5.136798    1.515245
     32          6           0       -3.888933   -1.321721    0.040675
     33          6           0       -2.089986   -3.254283    0.047869
     34          1           0       -5.112291    0.421981    0.020571
     35          1           0       -4.752671   -1.978408    0.058691
     36          1           0       -2.807465   -4.068329    0.064350
     37          1           0       -0.443412   -4.596516    0.045551
 ---------------------------------------------------------------------
                    Distance matrix (angstroms):
                    1          2          3          4          5
     1  C    0.000000
     2  C    1.411970   0.000000
     3  C    2.445785   1.371825   0.000000
     4  C    1.392129   2.453521   2.897523   0.000000
     5  C    2.425148   2.832679   2.551326   1.421838   0.000000
     6  C    2.683908   2.329743   1.436531   2.371190   1.390979
     7  C    3.941933   2.726092   1.506358   4.342697   3.710187
     8  C    4.633284   3.691618   2.320494   4.619955   3.590856
     9  C    4.071650   3.539758   2.313248   3.675378   2.426383
    10  C    6.035200   5.066165   3.701343   5.965976   4.833646
    11  C    6.762027   5.596895   4.320886   6.933073   5.950107
    12  C    6.341861   5.027869   3.945686   6.793777   6.060012
    13  C    5.009540   3.647080   2.725118   5.622624   5.105385
    14  C    7.480893   6.105859   5.178118   8.069103   7.428235
    15  C    7.560183   6.148907   5.485492   8.356549   7.933078
    16  C    5.185231   3.776458   3.338666   6.092711   5.884820
    17  C    6.512390   5.112062   4.704530   7.458537   7.245249
    18  H    1.084473   2.155210   3.405942   2.140911   3.407448
    19  H    2.148300   3.429176   3.981836   1.085330   2.190672
    20  C    3.815980   4.261360   3.782652   2.599627   1.444004
    21  C    5.054920   4.772614   3.644106   4.329814   2.916808
    22  C    6.758428   6.012956   4.653432   6.397599   5.084492
    23  H    7.843513   6.681867   5.404619   7.977830   6.941356
    24  H    8.452547   7.100505   6.091292   8.954031   8.207592
    25  H    4.464857   3.103609   3.059072   5.532553   5.567414
    26  H    6.906386   5.555480   5.386895   7.982568   7.935167
    27  H    8.576967   7.165575   6.555442   9.414325   9.014978
    28  C    3.055547   2.298394   3.326828   4.420584   5.092121
    29  C    3.559735   2.987674   4.043958   4.928060   5.698574
    30  H    3.327521   2.532618   3.385652   4.594741   5.167607
    31  H    4.114926   3.690250   4.707931   5.411718   6.220627
    32  C    4.895967   5.024590   4.195359   3.840597   2.483907
    33  C    6.377571   5.908086   4.641853   5.753262   4.351891
    34  H    4.251344   4.970689   4.703398   2.886585   2.183783
    35  H    5.877588   6.091737   5.279927   4.725324   3.452878
    36  H    7.253073   6.895891   5.669530   6.493873   5.072391
    37  H    7.836876   7.054457   5.687123   7.479636   6.155419
                    6          7          8          9         10
     6  C    0.000000
     7  C    2.340691   0.000000
     8  C    2.267351   1.403549   0.000000
     9  C    1.392061   2.309623   1.402900   0.000000
    10  C    3.595214   2.528741   1.402239   2.436457   0.000000
    11  C    4.613294   2.871668   2.359265   3.665563   1.396959
    12  C    4.669139   2.453631   2.703298   4.103135   2.441097
    13  C    3.748426   1.412173   2.391154   3.609100   2.909064
    14  C    6.039489   3.746871   4.130776   5.530062   3.739050
    15  C    6.581501   4.243876   4.985661   6.332993   4.883015
    16  C    4.640166   2.506942   3.736456   4.815925   4.328483
    17  C    5.976269   3.749386   4.822020   6.027206   5.119944
    18  H    3.768254   4.858043   5.664905   5.155021   7.066002
    19  H    3.376538   5.425946   5.643031   4.597047   6.958289
    20  C    2.389472   4.654420   4.112971   2.725237   5.088620
    21  C    2.461941   3.637190   2.476841   1.376635   2.927467
    22  C    4.110502   3.767232   2.408263   2.732079   1.453287
    23  H    5.635076   3.956309   3.367785   4.587052   2.168208
    24  H    6.818400   4.611624   4.742799   6.137910   4.046120
    25  H    4.476831   2.745713   4.126323   4.962178   4.983222
    26  H    6.740585   4.632544   5.803184   6.939052   6.184798
    27  H    7.665353   5.327948   6.039739   7.400319   5.837448
    28  C    4.571823   4.090944   5.395844   5.633364   6.613388
    29  C    5.252500   4.794871   6.103342   6.334896   7.306383
    30  H    4.599279   4.041035   5.304662   5.581758   6.473598
    31  H    5.841707   5.443868   6.711836   6.918335   7.892703
    32  C    2.779889   4.636312   3.712025   2.363677   4.352278
    33  C    3.706948   4.181768   2.796469   2.370515   2.487414
    34  H    3.377249   5.690321   5.197629   3.810348   6.159180
    35  H    3.864606   5.663090   4.637856   3.360209   5.074274
    36  H    4.630011   5.266442   3.881340   3.365211   3.457458
    37  H    5.195194   4.685235   3.393708   3.817244   2.188901
                   11         12         13         14         15
    11  C    0.000000
    12  C    1.416810   0.000000
    13  C    2.523799   1.460880   0.000000
    14  C    2.457855   1.427490   2.474173   0.000000
    15  C    3.721434   2.443014   2.833127   1.369409   0.000000
    16  C    3.793428   2.476784   1.422818   2.804530   2.424092
    17  C    4.247786   2.831565   2.435278   2.416162   1.418940
    18  H    7.717342   7.182199   5.787960   8.228350   8.159789
    19  H    7.977608   7.875337   6.706732   9.154427   9.429578
    20  C    6.380480   6.783425   6.062891   8.201583   8.882704
    21  C    4.316244   5.084635   4.847382   6.494209   7.444530
    22  C    2.584725   3.840097   4.346719   5.039704   6.261497
    23  H    1.085658   2.156822   3.489697   2.654096   4.021197
    24  H    2.652903   2.162593   3.454139   1.085144   2.131878
    25  H    4.674833   3.455412   2.160847   3.886495   3.406804
    26  H    5.331868   3.915892   3.416253   3.391240   2.169401
    27  H    4.588546   3.424942   3.917078   2.131495   1.084079
    28  C    6.723022   5.729096   4.288832   6.372505   5.915029
    29  C    7.375223   6.334672   4.915042   6.889191   6.324980
    30  H    6.561688   5.588808   4.208426   6.221564   5.799055
    31  H    7.952476   6.915598   5.540993   7.422496   6.820492
    32  C    5.730272   6.399899   5.970193   7.823951   8.687527
    33  C    3.817824   4.916759   5.104106   6.223859   7.359004
    34  H    7.462163   7.862176   7.102211   9.277472   9.930395
    35  H    6.471076   7.275766   6.961867   8.685906   9.621596
    36  H    4.704013   5.897986   6.172143   7.151072   8.338009
    37  H    2.872522   4.268358   5.051945   5.262974   6.576919
                   16         17         18         19         20
    16  C    0.000000
    17  C    1.371102   0.000000
    18  H    5.740724   6.997808   0.000000
    19  H    7.141639   8.501605   2.458352   0.000000
    20  C    7.027231   8.354803   4.724037   2.921893   0.000000
    21  C    6.127802   7.282371   6.127665   5.050556   2.464456
    22  C    5.769007   6.568990   7.833057   7.275071   4.918548
    23  H    4.633412   4.841349   8.802668   9.009821   7.256806
    24  H    3.889669   3.403953   9.240220  10.036493   8.855769
    25  H    1.082120   2.130625   4.879675   6.530371   6.840669
    26  H    2.129601   1.084444   7.241398   8.983471   9.129876
    27  H    3.398336   2.171056   9.129018  10.482694   9.964923
    28  C    3.597728   4.579915   2.939024   5.164148   6.529932
    29  C    4.098899   4.946798   3.256323   5.579362   7.134456
    30  H    3.580980   4.530765   3.313083   5.358023   6.561235
    31  H    4.709930   5.462413   3.733145   5.981207   7.622446
    32  C    7.133569   8.378257   5.891101   4.290831   1.386008
    33  C    6.499027   7.475120   7.460504   6.499805   3.863277
    34  H    8.006776   9.351216   4.998558   2.791556   1.085308
    35  H    8.168301   9.386293   6.831974   5.008808   2.132369
    36  H    7.574090   8.521737   8.326707   7.131800   4.313613
    37  H    6.452681   7.089718   8.908870   8.345512   5.907760
                   21         22         23         24         25
    21  C    0.000000
    22  C    2.469463   0.000000
    23  H    5.035539   2.901757   0.000000
    24  H    6.942697   5.155820   2.385404   0.000000
    25  H    6.329728   6.372186   5.592371   4.971602   0.000000
    26  H    8.234489   7.636515   5.903043   4.290756   2.453446
    27  H    8.483733   7.167304   4.698536   2.459241   4.292197
    28  C    6.946390   7.800307   7.746542   7.452445   2.550137
    29  C    7.637037   8.501982   8.383003   7.971251   3.026206
    30  H    6.876860   7.654544   7.563204   7.277159   2.666768
    31  H    8.186878   9.068494   8.940908   8.487390   3.691895
    32  C    1.439738   3.855908   6.474196   8.333626   7.156811
    33  C    1.450718   1.378147   4.263208   6.451257   6.920108
    34  H    3.436759   5.906157   8.326396   9.940353   7.743414
    35  H    2.191782   4.306432   7.105580   9.113872   8.227222
    36  H    2.199206   2.125962   4.981581   7.277845   8.005265
    37  H    3.443354   1.085318   2.769158   5.151697   7.162229
                   26         27         28         29         30
    26  H    0.000000
    27  H    2.490791   0.000000
    28  C    4.564866   6.739770   0.000000
    29  C    4.781368   7.080656   1.218532   0.000000
    30  H    4.564981   6.619154   1.066713   2.240907   0.000000
    31  H    5.227272   7.524949   2.272643   1.064148   3.305049
    32  C    9.262892   9.748678   7.304020   7.955481   7.275605
    33  C    8.505558   8.324412   7.944041   8.646225   7.826864
    34  H   10.086431  11.013977   7.168695   7.722019   7.223742
    35  H   10.295026  10.667973   8.374159   9.017074   8.335204
    36  H    9.562253   9.272031   8.982100   9.680448   8.858469
    37  H    8.172792   7.380486   8.759043   9.454389   8.590884
                   31         32         33         34         35
    31  H    0.000000
    32  C    8.465819   0.000000
    33  C    9.198830   2.640276   0.000000
    34  H    8.163334   2.130142   4.759201   0.000000
    35  H    9.506972   1.085175   2.952603   2.427478   0.000000
    36  H   10.217216   2.951947   1.085227   5.047477   2.855106
    37  H   10.011479   4.753517   2.124335   6.854514   5.042259
                   36         37
    36  H    0.000000
    37  H    2.422412   0.000000
 Stoichiometry    C24H13(2)
 Framework group  C1[X(C24H13)]
 Deg. of freedom   105
 Full point group                 C1      NOp   1
 Largest Abelian subgroup         C1      NOp   1
 Largest concise Abelian subgroup C1      NOp   1
                         Standard orientation:                         
 ---------------------------------------------------------------------
 Center     Atomic      Atomic             Coordinates (Angstroms)
 Number     Number       Type             X           Y           Z
 ---------------------------------------------------------------------
      1          6           0       -1.825536    3.116409   -0.085390
      2          6           0       -0.577923    2.455300   -0.092866
      3          6           0       -0.456918    1.090007   -0.035978
      4          6           0       -3.030751    2.420768   -0.045863
      5          6           0       -3.006491    0.999637   -0.008175
      6          6           0       -1.735149    0.435295   -0.002805
      7          6           0        0.560634   -0.020622   -0.021634
      8          6           0       -0.178682   -1.213420    0.002769
      9          6           0       -1.555592   -0.944998    0.016787
     10          6           0        0.290826   -2.534670    0.014388
     11          6           0        1.681685   -2.664337    0.000523
     12          6           0        2.507877   -1.513424   -0.012025
     13          6           0        1.966220   -0.156674   -0.014624
     14          6           0        3.927260   -1.665264   -0.016841
     15          6           0        4.767003   -0.583550   -0.014072
     16          6           0        2.877974    0.935523    0.000342
     17          6           0        4.233784    0.731320   -0.000446
     18          1           0       -1.842566    4.200314   -0.116082
     19          1           0       -3.968332    2.967467   -0.047529
     20          6           0       -4.093088    0.048996    0.018975
     21          6           0       -2.563076   -1.882913    0.037201
     22          6           0       -0.744852   -3.553934    0.037056
     23          1           0        2.155386   -3.641198    0.002443
     24          1           0        4.334503   -2.671089   -0.019582
     25          1           0        2.480535    1.941658    0.027125
     26          1           0        4.907311    1.581129    0.013872
     27          1           0        5.841459   -0.727653   -0.016659
     28          6           0        1.073009    4.016705   -0.437904
     29          6           0        1.307089    4.680323    0.556901
     30          1           0        1.147175    3.711017   -1.457184
     31          1           0        1.382049    5.136798    1.515245
     32          6           0       -3.888933   -1.321722    0.040675
     33          6           0       -2.089985   -3.254283    0.047869
     34          1           0       -5.112291    0.421980    0.020571
     35          1           0       -4.752671   -1.978409    0.058691
     36          1           0       -2.807464   -4.068329    0.064350
     37          1           0       -0.443411   -4.596516    0.045551
 ---------------------------------------------------------------------
 Rotational constants (GHZ):           0.3354490           0.2530146           0.1451271
 Standard basis: 6-311+G(d,p) (5D, 7F)
 There are   630 symmetry adapted cartesian basis functions of A   symmetry.
 There are   606 symmetry adapted basis functions of A   symmetry.
   606 basis functions,   968 primitive gaussians,   630 cartesian basis functions
    79 alpha electrons       78 beta electrons
       nuclear repulsion energy      1777.6412639667 Hartrees.
 NAtoms=   37 NActive=   37 NUniq=   37 SFac= 1.00D+00 NAtFMM=   60 NAOKFM=F Big=F
 Integral buffers will be    131072 words long.
 Raffenetti 2 integral format.
 Two-electron integral symmetry is turned on.
 One-electron integrals computed using PRISM.
 NBasis=   606 RedAO= T EigKep=  1.30D-06  NBF=   606
 NBsUse=   590 1.00D-06 EigRej=  8.35D-07 NBFU=   590
 ExpMin= 4.38D-02 ExpMax= 4.56D+03 ExpMxC= 6.82D+02 IAcc=2 IRadAn=         4 AccDes= 0.00D+00
 Harris functional with IExCor=  402 and IRadAn=       4 diagonalized for initial guess.
 HarFok:  IExCor=  402 AccDes= 0.00D+00 IRadAn=         4 IDoV= 1 UseB2=F ITyADJ=14
 ICtDFT=  3500011 ScaDFX=  1.000000  1.000000  1.000000  1.000000
 FoFCou: FMM=F IPFlag=           0 FMFlag=      100000 FMFlg1=           0
         NFxFlg=           0 DoJE=T BraDBF=F KetDBF=T FulRan=T
         wScrn=  0.000000 ICntrl=       500 IOpCl=  0 I1Cent=   200000004 NGrid=           0
         NMat0=    1 NMatS0=      1 NMatT0=    0 NMatD0=    1 NMtDS0=    0 NMtDT0=    0
 Petite list used in FoFCou.
 Initial guess <Sx>= 0.0000 <Sy>= 0.0000 <Sz>= 0.5000 <S**2>= 0.7500 S= 0.5000
 Requested convergence on RMS density matrix=1.00D-08 within 128 cycles.
 Requested convergence on MAX density matrix=1.00D-06.
 Requested convergence on             energy=1.00D-06.
 No special actions if energy rises.
 Restarting incremental Fock formation.
 SCF Done:  E(UB3LYP) =  -922.450942103     A.U. after   23 cycles
            NFock= 23  Conv=0.66D-08     -V/T= 2.0045
 <Sx>= 0.0000 <Sy>= 0.0000 <Sz>= 0.5000 <S**2>= 0.7741 S= 0.5120
 <L.S>=  0.00000000000    
 Annihilation of the first spin contaminant:
 S**2 before annihilation     0.7741,   after     0.7503
 DoSCS=F DFT=T ScalE2(SS,OS)=  1.000000  1.000000
 Range of M.O.s used for correlation:     1   590
 NBasis=   606 NAE=    79 NBE=    78 NFC=     0 NFV=     0
 NROrb=    590 NOA=    79 NOB=    78 NVA=   511 NVB=   512

 **** Warning!!: The largest alpha MO coefficient is  0.14956008D+03


 **** Warning!!: The largest beta MO coefficient is  0.14561066D+03

 Symmetrizing basis deriv contribution to polar:
 IMax=3 JMax=2 DiffMx= 0.00D+00
 G2DrvN: will do    38 centers at a time, making    1 passes.
 Calling FoFCou, ICntrl=  3107 FMM=F I1Cent=   0 AccDes= 0.00D+00.
 End of G2Drv F.D. properties file   721 does not exist.
 End of G2Drv F.D. properties file   722 does not exist.
 End of G2Drv F.D. properties file   788 does not exist.
          IDoAtm=1111111111111111111111111111111111111
          Differentiating once with respect to nuclear coordinates.
 CalDSu exits because no D1Ps are significant.
          There are   114 degrees of freedom in the 1st order CPHF.  IDoFFX=6 NUNeed=     0.
    108 vectors produced by pass  0 Test12= 8.03D-14 1.00D-09 XBig12= 5.32D-01 1.27D-01.
 AX will form   108 AO Fock derivatives at one time.
    108 vectors produced by pass  1 Test12= 8.03D-14 1.00D-09 XBig12= 1.50D-01 5.69D-02.
    108 vectors produced by pass  2 Test12= 8.03D-14 1.00D-09 XBig12= 3.18D-03 6.04D-03.
    108 vectors produced by pass  3 Test12= 8.03D-14 1.00D-09 XBig12= 5.58D-05 1.10D-03.
    108 vectors produced by pass  4 Test12= 8.03D-14 1.00D-09 XBig12= 8.92D-07 7.90D-05.
    108 vectors produced by pass  5 Test12= 8.03D-14 1.00D-09 XBig12= 3.66D-09 4.48D-06.
     96 vectors produced by pass  6 Test12= 8.03D-14 1.00D-09 XBig12= 1.50D-11 2.69D-07.
     38 vectors produced by pass  7 Test12= 8.03D-14 1.00D-09 XBig12= 7.29D-14 1.32D-08.
     32 vectors produced by pass  8 Test12= 8.03D-14 1.00D-09 XBig12= 1.12D-13 3.01D-08.
     32 vectors produced by pass  9 Test12= 8.03D-14 1.00D-09 XBig12= 5.29D-12 1.31D-07.
      2 vectors produced by pass 10 Test12= 8.03D-14 1.00D-09 XBig12= 2.03D-13 3.30D-08.
      1 vectors produced by pass 11 Test12= 8.03D-14 1.00D-09 XBig12= 1.37D-15 2.35D-09.
 InvSVY:  IOpt=1 It=  1 EMax= 8.88D-16
 Solved reduced A of dimension   849 with   114 vectors.
 End of Minotr F.D. properties file   721 does not exist.
 End of Minotr F.D. properties file   722 does not exist.
 End of Minotr F.D. properties file   788 does not exist.

 **********************************************************************

            Population analysis using the SCF density.

 **********************************************************************

 Orbital symmetries:
 Alpha Orbitals:
       Occupied  (A) (A) (A) (A) (A) (A) (A) (A) (A) (A) (A) (A)
                 (A) (A) (A) (A) (A) (A) (A) (A) (A) (A) (A) (A)
                 (A) (A) (A) (A) (A) (A) (A) (A) (A) (A) (A) (A)
                 (A) (A) (A) (A) (A) (A) (A) (A) (A) (A) (A) (A)
                 (A) (A) (A) (A) (A) (A) (A) (A) (A) (A) (A) (A)
                 (A) (A) (A) (A) (A) (A) (A) (A) (A) (A) (A) (A)
                 (A) (A) (A) (A) (A) (A) (A)
       Virtual   (A) (A) (A) (A) (A) (A) (A) (A) (A) (A) (A) (A)
                 (A) (A) (A) (A) (A) (A) (A) (A) (A) (A) (A) (A)
                 (A) (A) (A) (A) (A) (A) (A) (A) (A) (A) (A) (A)
                 (A) (A) (A) (A) (A) (A) (A) (A) (A) (A) (A) (A)
                 (A) (A) (A) (A) (A) (A) (A) (A) (A) (A) (A) (A)
                 (A) (A) (A) (A) (A) (A) (A) (A) (A) (A) (A) (A)
                 (A) (A) (A) (A) (A) (A) (A) (A) (A) (A) (A) (A)
                 (A) (A) (A) (A) (A) (A) (A) (A) (A) (A) (A) (A)
                 (A) (A) (A) (A) (A) (A) (A) (A) (A) (A) (A) (A)
                 (A) (A) (A) (A) (A) (A) (A) (A) (A) (A) (A) (A)
                 (A) (A) (A) (A) (A) (A) (A) (A) (A) (A) (A) (A)
                 (A) (A) (A) (A) (A) (A) (A) (A) (A) (A) (A) (A)
                 (A) (A) (A) (A) (A) (A) (A) (A) (A) (A) (A) (A)
                 (A) (A) (A) (A) (A) (A) (A) (A) (A) (A) (A) (A)
                 (A) (A) (A) (A) (A) (A) (A) (A) (A) (A) (A) (A)
                 (A) (A) (A) (A) (A) (A) (A) (A) (A) (A) (A) (A)
                 (A) (A) (A) (A) (A) (A) (A) (A) (A) (A) (A) (A)
                 (A) (A) (A) (A) (A) (A) (A) (A) (A) (A) (A) (A)
                 (A) (A) (A) (A) (A) (A) (A) (A) (A) (A) (A) (A)
                 (A) (A) (A) (A) (A) (A) (A) (A) (A) (A) (A) (A)
                 (A) (A) (A) (A) (A) (A) (A) (A) (A) (A) (A) (A)
                 (A) (A) (A) (A) (A) (A) (A) (A) (A) (A) (A) (A)
                 (A) (A) (A) (A) (A) (A) (A) (A) (A) (A) (A) (A)
                 (A) (A) (A) (A) (A) (A) (A) (A) (A) (A) (A) (A)
                 (A) (A) (A) (A) (A) (A) (A) (A) (A) (A) (A) (A)
                 (A) (A) (A) (A) (A) (A) (A) (A) (A) (A) (A) (A)
                 (A) (A) (A) (A) (A) (A) (A) (A) (A) (A) (A) (A)
                 (A) (A) (A) (A) (A) (A) (A) (A) (A) (A) (A) (A)
                 (A) (A) (A) (A) (A) (A) (A) (A) (A) (A) (A) (A)
                 (A) (A) (A) (A) (A) (A) (A) (A) (A) (A) (A) (A)
                 (A) (A) (A) (A) (A) (A) (A) (A) (A) (A) (A) (A)
                 (A) (A) (A) (A) (A) (A) (A) (A) (A) (A) (A) (A)
                 (A) (A) (A) (A) (A) (A) (A) (A) (A) (A) (A) (A)
                 (A) (A) (A) (A) (A) (A) (A) (A) (A) (A) (A) (A)
                 (A) (A) (A) (A) (A) (A) (A) (A) (A) (A) (A) (A)
                 (A) (A) (A) (A) (A) (A) (A) (A) (A) (A) (A) (A)
                 (A) (A) (A) (A) (A) (A) (A) (A) (A) (A) (A) (A)
                 (A) (A) (A) (A) (A) (A) (A) (A) (A) (A) (A) (A)
                 (A) (A) (A) (A) (A) (A) (A) (A) (A) (A) (A) (A)
                 (A) (A) (A) (A) (A) (A) (A) (A) (A) (A) (A) (A)
                 (A) (A) (A) (A) (A) (A) (A) (A) (A) (A) (A) (A)
                 (A) (A) (A) (A) (A) (A) (A) (A) (A) (A) (A) (A)
                 (A) (A) (A) (A) (A) (A) (A)
 Beta  Orbitals:
       Occupied  (A) (A) (A) (A) (A) (A) (A) (A) (A) (A) (A) (A)
                 (A) (A) (A) (A) (A) (A) (A) (A) (A) (A) (A) (A)
                 (A) (A) (A) (A) (A) (A) (A) (A) (A) (A) (A) (A)
                 (A) (A) (A) (A) (A) (A) (A) (A) (A) (A) (A) (A)
                 (A) (A) (A) (A) (A) (A) (A) (A) (A) (A) (A) (A)
                 (A) (A) (A) (A) (A) (A) (A) (A) (A) (A) (A) (A)
                 (A) (A) (A) (A) (A) (A)
       Virtual   (A) (A) (A) (A) (A) (A) (A) (A) (A) (A) (A) (A)
                 (A) (A) (A) (A) (A) (A) (A) (A) (A) (A) (A) (A)
                 (A) (A) (A) (A) (A) (A) (A) (A) (A) (A) (A) (A)
                 (A) (A) (A) (A) (A) (A) (A) (A) (A) (A) (A) (A)
                 (A) (A) (A) (A) (A) (A) (A) (A) (A) (A) (A) (A)
                 (A) (A) (A) (A) (A) (A) (A) (A) (A) (A) (A) (A)
                 (A) (A) (A) (A) (A) (A) (A) (A) (A) (A) (A) (A)
                 (A) (A) (A) (A) (A) (A) (A) (A) (A) (A) (A) (A)
                 (A) (A) (A) (A) (A) (A) (A) (A) (A) (A) (A) (A)
                 (A) (A) (A) (A) (A) (A) (A) (A) (A) (A) (A) (A)
                 (A) (A) (A) (A) (A) (A) (A) (A) (A) (A) (A) (A)
                 (A) (A) (A) (A) (A) (A) (A) (A) (A) (A) (A) (A)
                 (A) (A) (A) (A) (A) (A) (A) (A) (A) (A) (A) (A)
                 (A) (A) (A) (A) (A) (A) (A) (A) (A) (A) (A) (A)
                 (A) (A) (A) (A) (A) (A) (A) (A) (A) (A) (A) (A)
                 (A) (A) (A) (A) (A) (A) (A) (A) (A) (A) (A) (A)
                 (A) (A) (A) (A) (A) (A) (A) (A) (A) (A) (A) (A)
                 (A) (A) (A) (A) (A) (A) (A) (A) (A) (A) (A) (A)
                 (A) (A) (A) (A) (A) (A) (A) (A) (A) (A) (A) (A)
                 (A) (A) (A) (A) (A) (A) (A) (A) (A) (A) (A) (A)
                 (A) (A) (A) (A) (A) (A) (A) (A) (A) (A) (A) (A)
                 (A) (A) (A) (A) (A) (A) (A) (A) (A) (A) (A) (A)
                 (A) (A) (A) (A) (A) (A) (A) (A) (A) (A) (A) (A)
                 (A) (A) (A) (A) (A) (A) (A) (A) (A) (A) (A) (A)
                 (A) (A) (A) (A) (A) (A) (A) (A) (A) (A) (A) (A)
                 (A) (A) (A) (A) (A) (A) (A) (A) (A) (A) (A) (A)
                 (A) (A) (A) (A) (A) (A) (A) (A) (A) (A) (A) (A)
                 (A) (A) (A) (A) (A) (A) (A) (A) (A) (A) (A) (A)
                 (A) (A) (A) (A) (A) (A) (A) (A) (A) (A) (A) (A)
                 (A) (A) (A) (A) (A) (A) (A) (A) (A) (A) (A) (A)
                 (A) (A) (A) (A) (A) (A) (A) (A) (A) (A) (A) (A)
                 (A) (A) (A) (A) (A) (A) (A) (A) (A) (A) (A) (A)
                 (A) (A) (A) (A) (A) (A) (A) (A) (A) (A) (A) (A)
                 (A) (A) (A) (A) (A) (A) (A) (A) (A) (A) (A) (A)
                 (A) (A) (A) (A) (A) (A) (A) (A) (A) (A) (A) (A)
                 (A) (A) (A) (A) (A) (A) (A) (A) (A) (A) (A) (A)
                 (A) (A) (A) (A) (A) (A) (A) (A) (A) (A) (A) (A)
                 (A) (A) (A) (A) (A) (A) (A) (A) (A) (A) (A) (A)
                 (A) (A) (A) (A) (A) (A) (A) (A) (A) (A) (A) (A)
                 (A) (A) (A) (A) (A) (A) (A) (A) (A) (A) (A) (A)
                 (A) (A) (A) (A) (A) (A) (A) (A) (A) (A) (A) (A)
                 (A) (A) (A) (A) (A) (A) (A) (A) (A) (A) (A) (A)
                 (A) (A) (A) (A) (A) (A) (A) (A)
 The electronic state is 2-A.
 Alpha  occ. eigenvalues --  -10.20850 -10.19839 -10.19824 -10.19649 -10.19572
 Alpha  occ. eigenvalues --  -10.19528 -10.19363 -10.19184 -10.19156 -10.19137
 Alpha  occ. eigenvalues --  -10.19116 -10.19076 -10.19054 -10.19031 -10.18972
 Alpha  occ. eigenvalues --  -10.18895 -10.18663 -10.18190 -10.18097 -10.17908
 Alpha  occ. eigenvalues --  -10.17649 -10.17266 -10.17040 -10.16693  -0.91897
 Alpha  occ. eigenvalues --   -0.87764  -0.85769  -0.83716  -0.81526  -0.79645
 Alpha  occ. eigenvalues --   -0.77465  -0.76971  -0.75709  -0.73225  -0.72678
 Alpha  occ. eigenvalues --   -0.71395  -0.66029  -0.64160  -0.62770  -0.62117
 Alpha  occ. eigenvalues --   -0.59876  -0.58452  -0.58149  -0.56197  -0.53093
 Alpha  occ. eigenvalues --   -0.52141  -0.51362  -0.50578  -0.48905  -0.48787
 Alpha  occ. eigenvalues --   -0.47726  -0.45720  -0.44696  -0.44180  -0.43580
 Alpha  occ. eigenvalues --   -0.43304  -0.43216  -0.41975  -0.41199  -0.40665
 Alpha  occ. eigenvalues --   -0.39825  -0.39214  -0.37445  -0.36964  -0.36904
 Alpha  occ. eigenvalues --   -0.34850  -0.34419  -0.34352  -0.33738  -0.32503
 Alpha  occ. eigenvalues --   -0.32011  -0.30540  -0.29884  -0.27721  -0.26614
 Alpha  occ. eigenvalues --   -0.23256  -0.22943  -0.21460  -0.20894
 Alpha virt. eigenvalues --   -0.09322  -0.04885  -0.02738  -0.02346   0.00252
 Alpha virt. eigenvalues --    0.00361   0.00800   0.00876   0.00941   0.01206
 Alpha virt. eigenvalues --    0.01737   0.01889   0.02100   0.02749   0.03388
 Alpha virt. eigenvalues --    0.03783   0.03807   0.04114   0.04735   0.05371
 Alpha virt. eigenvalues --    0.05816   0.06083   0.06529   0.06775   0.07026
 Alpha virt. eigenvalues --    0.07445   0.08206   0.08387   0.08695   0.08771
 Alpha virt. eigenvalues --    0.09283   0.10093   0.10174   0.10709   0.10974
 Alpha virt. eigenvalues --    0.11357   0.11468   0.11860   0.12464   0.12942
 Alpha virt. eigenvalues --    0.13034   0.13259   0.13707   0.14282   0.14472
 Alpha virt. eigenvalues --    0.14949   0.15426   0.15547   0.15722   0.16053
 Alpha virt. eigenvalues --    0.16476   0.16725   0.16952   0.17219   0.17766
 Alpha virt. eigenvalues --    0.17859   0.18056   0.18263   0.18610   0.18817
 Alpha virt. eigenvalues --    0.18917   0.19175   0.19508   0.19621   0.19856
 Alpha virt. eigenvalues --    0.20026   0.20491   0.21004   0.21206   0.21354
 Alpha virt. eigenvalues --    0.21749   0.21797   0.22124   0.22269   0.22846
 Alpha virt. eigenvalues --    0.23023   0.23103   0.23401   0.23476   0.23655
 Alpha virt. eigenvalues --    0.23786   0.24530   0.24990   0.25133   0.25310
 Alpha virt. eigenvalues --    0.25541   0.26152   0.26325   0.26775   0.27186
 Alpha virt. eigenvalues --    0.27378   0.27600   0.27956   0.28636   0.28683
 Alpha virt. eigenvalues --    0.29100   0.29379   0.29553   0.30018   0.30070
 Alpha virt. eigenvalues --    0.30796   0.31136   0.31885   0.32163   0.32885
 Alpha virt. eigenvalues --    0.33101   0.33551   0.34109   0.34686   0.35380
 Alpha virt. eigenvalues --    0.35638   0.36123   0.37702   0.38227   0.39079
 Alpha virt. eigenvalues --    0.39370   0.39903   0.40612   0.41161   0.41929
 Alpha virt. eigenvalues --    0.42816   0.43510   0.44066   0.45111   0.46373
 Alpha virt. eigenvalues --    0.46719   0.48395   0.49090   0.49674   0.50439
 Alpha virt. eigenvalues --    0.51294   0.52044   0.52346   0.52553   0.52928
 Alpha virt. eigenvalues --    0.53778   0.53900   0.54387   0.54904   0.55145
 Alpha virt. eigenvalues --    0.55516   0.56362   0.56546   0.57189   0.57269
 Alpha virt. eigenvalues --    0.57718   0.57958   0.58399   0.59044   0.59771
 Alpha virt. eigenvalues --    0.60202   0.60216   0.60650   0.61149   0.61908
 Alpha virt. eigenvalues --    0.62200   0.62692   0.63122   0.63619   0.64014
 Alpha virt. eigenvalues --    0.64116   0.64233   0.65028   0.65385   0.66114
 Alpha virt. eigenvalues --    0.66446   0.66733   0.67150   0.67493   0.68262
 Alpha virt. eigenvalues --    0.68383   0.69106   0.69569   0.70308   0.70605
 Alpha virt. eigenvalues --    0.70826   0.71408   0.71614   0.71914   0.72444
 Alpha virt. eigenvalues --    0.72845   0.73513   0.74026   0.74907   0.75238
 Alpha virt. eigenvalues --    0.75747   0.76652   0.77151   0.77451   0.77792
 Alpha virt. eigenvalues --    0.78315   0.80328   0.81128   0.81456   0.82419
 Alpha virt. eigenvalues --    0.82817   0.84630   0.85112   0.85543   0.86396
 Alpha virt. eigenvalues --    0.86880   0.87464   0.88707   0.89101   0.90174
 Alpha virt. eigenvalues --    0.90579   0.91269   0.92547   0.93525   0.93744
 Alpha virt. eigenvalues --    0.94006   0.95019   0.95386   0.95947   0.96155
 Alpha virt. eigenvalues --    0.96256   0.96851   0.97454   0.98153   0.98528
 Alpha virt. eigenvalues --    0.98735   0.99644   0.99810   1.00433   1.01070
 Alpha virt. eigenvalues --    1.01809   1.02502   1.03740   1.04064   1.04559
 Alpha virt. eigenvalues --    1.05066   1.05217   1.05556   1.06160   1.06968
 Alpha virt. eigenvalues --    1.07306   1.07841   1.09252   1.09492   1.09864
 Alpha virt. eigenvalues --    1.12214   1.13508   1.14427   1.14932   1.15227
 Alpha virt. eigenvalues --    1.15471   1.16140   1.16371   1.18755   1.19563
 Alpha virt. eigenvalues --    1.20866   1.22801   1.23934   1.27984   1.30051
 Alpha virt. eigenvalues --    1.31168   1.31895   1.33074   1.34854   1.36525
 Alpha virt. eigenvalues --    1.38220   1.39321   1.40107   1.41117   1.42238
 Alpha virt. eigenvalues --    1.43183   1.45455   1.46510   1.47235   1.47420
 Alpha virt. eigenvalues --    1.48133   1.48534   1.48794   1.49199   1.50368
 Alpha virt. eigenvalues --    1.51060   1.51403   1.52349   1.52743   1.54747
 Alpha virt. eigenvalues --    1.55566   1.56237   1.56638   1.57480   1.57990
 Alpha virt. eigenvalues --    1.58834   1.59124   1.59979   1.61670   1.63467
 Alpha virt. eigenvalues --    1.64325   1.66067   1.66471   1.67525   1.68070
 Alpha virt. eigenvalues --    1.68823   1.70320   1.71773   1.72095   1.73313
 Alpha virt. eigenvalues --    1.73563   1.74401   1.75350   1.76159   1.76787
 Alpha virt. eigenvalues --    1.77680   1.79235   1.80261   1.80838   1.81385
 Alpha virt. eigenvalues --    1.81893   1.82769   1.83571   1.83791   1.84457
 Alpha virt. eigenvalues --    1.85716   1.86284   1.87161   1.87928   1.88332
 Alpha virt. eigenvalues --    1.88876   1.89478   1.89899   1.90450   1.90964
 Alpha virt. eigenvalues --    1.92769   1.93523   1.93828   1.94140   1.95031
 Alpha virt. eigenvalues --    1.95919   1.96433   1.97577   1.98484   1.98682
 Alpha virt. eigenvalues --    1.99382   2.00561   2.02833   2.03353   2.03604
 Alpha virt. eigenvalues --    2.03928   2.05089   2.06359   2.07115   2.08263
 Alpha virt. eigenvalues --    2.11077   2.11626   2.13359   2.13761   2.14362
 Alpha virt. eigenvalues --    2.16527   2.18704   2.18851   2.20445   2.22082
 Alpha virt. eigenvalues --    2.22816   2.23618   2.23653   2.26367   2.26754
 Alpha virt. eigenvalues --    2.27997   2.30262   2.32720   2.35117   2.37266
 Alpha virt. eigenvalues --    2.38356   2.41213   2.42162   2.42888   2.43278
 Alpha virt. eigenvalues --    2.43865   2.44514   2.45006   2.45706   2.47113
 Alpha virt. eigenvalues --    2.48223   2.53303   2.54943   2.57258   2.57573
 Alpha virt. eigenvalues --    2.59263   2.60738   2.62092   2.62554   2.64313
 Alpha virt. eigenvalues --    2.64954   2.66243   2.66885   2.69608   2.69863
 Alpha virt. eigenvalues --    2.70442   2.71435   2.72326   2.73298   2.73408
 Alpha virt. eigenvalues --    2.74274   2.74713   2.74934   2.75310   2.75733
 Alpha virt. eigenvalues --    2.76049   2.76449   2.76556   2.77181   2.78315
 Alpha virt. eigenvalues --    2.79670   2.79862   2.80719   2.81601   2.81736
 Alpha virt. eigenvalues --    2.81952   2.83432   2.84524   2.85069   2.85820
 Alpha virt. eigenvalues --    2.86207   2.87238   2.90214   2.90693   2.90888
 Alpha virt. eigenvalues --    2.92288   2.92384   2.93712   2.95109   2.98118
 Alpha virt. eigenvalues --    2.99301   3.00288   3.01247   3.02097   3.04949
 Alpha virt. eigenvalues --    3.07360   3.08306   3.10377   3.13049   3.13548
 Alpha virt. eigenvalues --    3.14223   3.17853   3.18868   3.20166   3.21630
 Alpha virt. eigenvalues --    3.21878   3.24331   3.26988   3.28786   3.33404
 Alpha virt. eigenvalues --    3.34584   3.35363   3.38057   3.39099   3.40748
 Alpha virt. eigenvalues --    3.43312   3.44540   3.45589   3.46145   3.47498
 Alpha virt. eigenvalues --    3.48411   3.51127   3.51695   3.54964   3.56260
 Alpha virt. eigenvalues --    3.59993   3.61404   3.64154   3.66506   3.70155
 Alpha virt. eigenvalues --    3.70937   3.81435   3.81712   3.85342   3.86369
 Alpha virt. eigenvalues --    4.03441   4.04194   4.06518   4.06845   4.07071
 Alpha virt. eigenvalues --    4.09370   4.20836   4.22715   4.27893   4.34793
 Alpha virt. eigenvalues --    4.54531   4.76410   4.77323   4.77990   4.82093
 Alpha virt. eigenvalues --    4.85154   4.88060  23.37892  23.60801  23.63342
 Alpha virt. eigenvalues --   23.73570  23.81605  23.84909  23.86943  23.90255
 Alpha virt. eigenvalues --   23.93129  23.95497  23.98564  23.99212  24.02096
 Alpha virt. eigenvalues --   24.06935  24.08723  24.10316  24.11893  24.13484
 Alpha virt. eigenvalues --   24.13957  24.14206  24.15984  24.20235  24.20875
 Alpha virt. eigenvalues --   24.97251
  Beta  occ. eigenvalues --  -10.19875 -10.19845 -10.19835 -10.19566 -10.19518
  Beta  occ. eigenvalues --  -10.19456 -10.19324 -10.19180 -10.19114 -10.19095
  Beta  occ. eigenvalues --  -10.19052 -10.19049 -10.19026 -10.18988 -10.18911
  Beta  occ. eigenvalues --  -10.18676 -10.18583 -10.18194 -10.18102 -10.17905
  Beta  occ. eigenvalues --  -10.17646 -10.17147 -10.17051 -10.16685  -0.91764
  Beta  occ. eigenvalues --   -0.87683  -0.85508  -0.83635  -0.81340  -0.79429
  Beta  occ. eigenvalues --   -0.77079  -0.76646  -0.75375  -0.72862  -0.72514
  Beta  occ. eigenvalues --   -0.71347  -0.65835  -0.63997  -0.62454  -0.61966
  Beta  occ. eigenvalues --   -0.59712  -0.58338  -0.57643  -0.56112  -0.53021
  Beta  occ. eigenvalues --   -0.51775  -0.51112  -0.50246  -0.48791  -0.48596
  Beta  occ. eigenvalues --   -0.47537  -0.45342  -0.44582  -0.43943  -0.43449
  Beta  occ. eigenvalues --   -0.43212  -0.43153  -0.41834  -0.40944  -0.40568
  Beta  occ. eigenvalues --   -0.39700  -0.39192  -0.37187  -0.36780  -0.36362
  Beta  occ. eigenvalues --   -0.34793  -0.34351  -0.33990  -0.33636  -0.31983
  Beta  occ. eigenvalues --   -0.30849  -0.30316  -0.29687  -0.27712  -0.26395
  Beta  occ. eigenvalues --   -0.23230  -0.22849  -0.20821
  Beta virt. eigenvalues --   -0.09413  -0.08947  -0.04679  -0.02710  -0.02101
  Beta virt. eigenvalues --    0.00280   0.00512   0.00840   0.00927   0.01022
  Beta virt. eigenvalues --    0.01591   0.01803   0.01963   0.02145   0.02986
  Beta virt. eigenvalues --    0.03668   0.03796   0.03901   0.04139   0.04834
  Beta virt. eigenvalues --    0.05415   0.05829   0.06103   0.06605   0.06811
  Beta virt. eigenvalues --    0.07254   0.07557   0.08238   0.08445   0.08731
  Beta virt. eigenvalues --    0.08952   0.09445   0.10102   0.10221   0.10759
  Beta virt. eigenvalues --    0.11047   0.11423   0.11518   0.12087   0.12568
  Beta virt. eigenvalues --    0.12961   0.13036   0.13342   0.13748   0.14316
  Beta virt. eigenvalues --    0.14516   0.14980   0.15546   0.15593   0.15778
  Beta virt. eigenvalues --    0.16116   0.16474   0.16745   0.16995   0.17284
  Beta virt. eigenvalues --    0.17820   0.17923   0.18147   0.18475   0.18672
  Beta virt. eigenvalues --    0.18841   0.18956   0.19238   0.19536   0.19655
  Beta virt. eigenvalues --    0.19873   0.20069   0.20505   0.21079   0.21262
  Beta virt. eigenvalues --    0.21436   0.21784   0.21967   0.22152   0.22380
  Beta virt. eigenvalues --    0.22859   0.23043   0.23125   0.23423   0.23494
  Beta virt. eigenvalues --    0.23702   0.23844   0.24547   0.25041   0.25169
  Beta virt. eigenvalues --    0.25341   0.25554   0.26218   0.26402   0.26810
  Beta virt. eigenvalues --    0.27208   0.27387   0.27672   0.27986   0.28678
  Beta virt. eigenvalues --    0.28774   0.29195   0.29404   0.29607   0.30048
  Beta virt. eigenvalues --    0.30131   0.30828   0.31183   0.32175   0.32355
  Beta virt. eigenvalues --    0.33035   0.33198   0.33588   0.34190   0.34792
  Beta virt. eigenvalues --    0.35416   0.35736   0.36261   0.37811   0.38393
  Beta virt. eigenvalues --    0.39184   0.39465   0.39991   0.40725   0.41314
  Beta virt. eigenvalues --    0.42098   0.42881   0.43566   0.44166   0.45156
  Beta virt. eigenvalues --    0.46410   0.46792   0.48482   0.49300   0.49924
  Beta virt. eigenvalues --    0.50616   0.51406   0.52252   0.52382   0.52643
  Beta virt. eigenvalues --    0.52982   0.53817   0.53972   0.54524   0.54961
  Beta virt. eigenvalues --    0.55304   0.55633   0.56486   0.56655   0.57241
  Beta virt. eigenvalues --    0.57340   0.57927   0.58162   0.58469   0.59246
  Beta virt. eigenvalues --    0.59883   0.60309   0.60324   0.60697   0.61396
  Beta virt. eigenvalues --    0.62144   0.62273   0.62858   0.63265   0.63808
  Beta virt. eigenvalues --    0.64014   0.64152   0.64442   0.65085   0.65593
  Beta virt. eigenvalues --    0.66287   0.66626   0.66810   0.67382   0.67561
  Beta virt. eigenvalues --    0.68377   0.68524   0.69237   0.69607   0.70596
  Beta virt. eigenvalues --    0.70824   0.70883   0.71432   0.71723   0.71979
  Beta virt. eigenvalues --    0.72567   0.73006   0.73609   0.74053   0.74941
  Beta virt. eigenvalues --    0.75327   0.75943   0.76726   0.77386   0.77485
  Beta virt. eigenvalues --    0.78326   0.78688   0.80443   0.81267   0.81594
  Beta virt. eigenvalues --    0.82530   0.83074   0.84706   0.85273   0.85571
  Beta virt. eigenvalues --    0.86663   0.87084   0.87596   0.88843   0.89219
  Beta virt. eigenvalues --    0.90281   0.90651   0.91350   0.92576   0.93621
  Beta virt. eigenvalues --    0.93850   0.94055   0.95212   0.95520   0.96014
  Beta virt. eigenvalues --    0.96243   0.96333   0.96926   0.97689   0.98228
  Beta virt. eigenvalues --    0.98574   0.98851   0.99651   1.00106   1.00452
  Beta virt. eigenvalues --    1.01202   1.01867   1.02815   1.03908   1.04187
  Beta virt. eigenvalues --    1.04695   1.05141   1.05261   1.05692   1.06302
  Beta virt. eigenvalues --    1.07028   1.07333   1.08212   1.09300   1.09654
  Beta virt. eigenvalues --    1.09927   1.12327   1.13573   1.14457   1.14973
  Beta virt. eigenvalues --    1.15237   1.15507   1.16157   1.16394   1.18766
  Beta virt. eigenvalues --    1.19705   1.20957   1.23153   1.25518   1.28105
  Beta virt. eigenvalues --    1.30368   1.31716   1.32492   1.33748   1.35314
  Beta virt. eigenvalues --    1.36776   1.38483   1.39900   1.40318   1.41559
  Beta virt. eigenvalues --    1.42539   1.43728   1.45511   1.46764   1.47246
  Beta virt. eigenvalues --    1.47692   1.48248   1.48683   1.48838   1.49356
  Beta virt. eigenvalues --    1.50466   1.51265   1.51466   1.52545   1.53106
  Beta virt. eigenvalues --    1.54999   1.55702   1.56536   1.56653   1.57546
  Beta virt. eigenvalues --    1.58141   1.58955   1.59573   1.60138   1.61710
  Beta virt. eigenvalues --    1.63518   1.64591   1.66142   1.66544   1.67677
  Beta virt. eigenvalues --    1.68133   1.68872   1.70344   1.71866   1.72261
  Beta virt. eigenvalues --    1.73319   1.73562   1.74409   1.75402   1.76214
  Beta virt. eigenvalues --    1.76867   1.77754   1.79471   1.80363   1.81118
  Beta virt. eigenvalues --    1.81555   1.82092   1.82990   1.83684   1.83901
  Beta virt. eigenvalues --    1.84697   1.85962   1.86345   1.87420   1.88075
  Beta virt. eigenvalues --    1.88459   1.88988   1.89740   1.90018   1.90602
  Beta virt. eigenvalues --    1.91081   1.92825   1.93680   1.93940   1.94216
  Beta virt. eigenvalues --    1.95161   1.95983   1.96756   1.97751   1.98560
  Beta virt. eigenvalues --    1.99103   1.99715   2.00863   2.02903   2.03545
  Beta virt. eigenvalues --    2.03726   2.04066   2.05298   2.06463   2.07239
  Beta virt. eigenvalues --    2.08309   2.11178   2.11747   2.13559   2.13870
  Beta virt. eigenvalues --    2.14435   2.16673   2.18871   2.19245   2.20462
  Beta virt. eigenvalues --    2.22307   2.23194   2.23753   2.23885   2.26423
  Beta virt. eigenvalues --    2.26828   2.28138   2.30401   2.33161   2.35169
  Beta virt. eigenvalues --    2.37444   2.38582   2.41329   2.42211   2.43071
  Beta virt. eigenvalues --    2.43335   2.44000   2.44793   2.45116   2.45799
  Beta virt. eigenvalues --    2.47123   2.48266   2.54072   2.54994   2.57495
  Beta virt. eigenvalues --    2.57761   2.59458   2.60870   2.62417   2.62825
  Beta virt. eigenvalues --    2.64459   2.64988   2.66391   2.66967   2.69776
  Beta virt. eigenvalues --    2.69909   2.70536   2.71478   2.72353   2.73494
  Beta virt. eigenvalues --    2.73534   2.74377   2.74855   2.74986   2.75363
  Beta virt. eigenvalues --    2.75769   2.76062   2.76536   2.76673   2.77249
  Beta virt. eigenvalues --    2.78392   2.79797   2.79971   2.80892   2.81783
  Beta virt. eigenvalues --    2.82054   2.82691   2.84233   2.84796   2.85167
  Beta virt. eigenvalues --    2.85884   2.86356   2.87320   2.90293   2.90826
  Beta virt. eigenvalues --    2.91003   2.92380   2.92525   2.93757   2.95228
  Beta virt. eigenvalues --    2.98257   2.99357   3.00306   3.01260   3.02155
  Beta virt. eigenvalues --    3.04991   3.08027   3.09145   3.11020   3.13170
  Beta virt. eigenvalues --    3.13659   3.14374   3.18367   3.18962   3.20270
  Beta virt. eigenvalues --    3.21710   3.22088   3.24506   3.27342   3.28908
  Beta virt. eigenvalues --    3.33512   3.34721   3.35603   3.38263   3.39223
  Beta virt. eigenvalues --    3.41005   3.43414   3.44691   3.45640   3.46313
  Beta virt. eigenvalues --    3.47607   3.48623   3.51223   3.52022   3.55155
  Beta virt. eigenvalues --    3.56355   3.60130   3.61504   3.64184   3.66843
  Beta virt. eigenvalues --    3.70277   3.71174   3.81615   3.81735   3.85423
  Beta virt. eigenvalues --    3.86644   4.03477   4.04248   4.06534   4.06924
  Beta virt. eigenvalues --    4.07086   4.09501   4.20841   4.22725   4.27916
  Beta virt. eigenvalues --    4.34905   4.54578   4.76590   4.77408   4.78034
  Beta virt. eigenvalues --    4.82100   4.85215   4.88072  23.38028  23.60976
  Beta virt. eigenvalues --   23.63538  23.73809  23.81676  23.84922  23.86947
  Beta virt. eigenvalues --   23.90493  23.93144  23.95502  23.98586  23.99220
  Beta virt. eigenvalues --   24.02180  24.06958  24.08766  24.10492  24.11896
  Beta virt. eigenvalues --   24.13550  24.13974  24.14226  24.16382  24.20236
  Beta virt. eigenvalues --   24.20900  24.97479
          Condensed to atoms (all electrons):
               1          2          3          4          5          6
     1  C    9.546398  -2.436472  -0.010168   0.978322  -0.759727   1.387906
     2  C   -2.436472   9.462808   0.015779  -1.745805   0.371634  -1.020719
     3  C   -0.010168   0.015779   6.199727   0.467923   0.138077   0.272051
     4  C    0.978322  -1.745805   0.467923   9.020174  -0.338901  -0.522777
     5  C   -0.759727   0.371634   0.138077  -0.338901   8.521539  -0.311768
     6  C    1.387906  -1.020719   0.272051  -0.522777  -0.311768   7.300324
     7  C   -0.999762   1.243287  -0.202801  -0.453113  -0.060888  -0.308053
     8  C    0.007864  -0.306547   0.228601   0.056302   0.455140  -0.179350
     9  C   -0.388027   0.190178  -0.026109  -0.592454   0.070679   0.220244
    10  C   -0.239993   0.259766  -0.506222  -0.107002  -0.646989   0.533530
    11  C   -0.048410   0.118596  -0.100897   0.030088  -0.061551  -0.015464
    12  C   -0.102423  -0.139194  -0.216237  -0.095115   0.103047  -0.158871
    13  C    0.080863   0.022524   0.313613   0.035807   0.002374  -0.028474
    14  C    0.028079  -0.068075   0.284155  -0.013118   0.053460   0.020572
    15  C   -0.017395   0.009871   0.039385   0.003477   0.006205  -0.055347
    16  C   -0.148944   0.262919   0.224530  -0.063781   0.043850  -0.257516
    17  C   -0.061279  -0.010770  -0.464771  -0.009826  -0.069778   0.018747
    18  H    0.374003  -0.065899   0.012371  -0.001819   0.009207   0.004504
    19  H    0.029225  -0.041166  -0.014682   0.380131  -0.081289   0.043122
    20  C   -0.663136   0.501412  -0.803997  -0.860737  -0.992940  -0.370434
    21  C    0.220188  -0.498731   0.216842   0.248227   0.531583   0.614489
    22  C    0.106806  -0.321328   0.014893  -0.027743   0.275583  -0.514515
    23  H   -0.000045  -0.000056  -0.001403  -0.000072  -0.000601   0.002918
    24  H   -0.000021  -0.000377   0.000740  -0.000012   0.000005  -0.000105
    25  H    0.009003  -0.004180   0.021573   0.001835   0.001941   0.000028
    26  H   -0.000199  -0.000077   0.000431  -0.000003   0.000023  -0.000482
    27  H    0.000022   0.000102  -0.000143  -0.000002  -0.000007   0.000117
    28  C   -0.148913  -0.018893   0.015964  -0.130434  -0.010515  -0.099918
    29  C    0.090933  -0.190377   0.067130   0.001533   0.034773  -0.092588
    30  H   -0.011509  -0.027248   0.003098   0.000717   0.004427  -0.008910
    31  H   -0.001313  -0.012492   0.002474   0.001150   0.000617  -0.001957
    32  C   -0.352724   0.376265  -0.604381  -0.208997  -1.898247   0.227504
    33  C   -0.020319  -0.186176   0.241281   0.258463   0.367055  -0.764227
    34  H   -0.002800   0.015677  -0.010003   0.017171  -0.128243   0.019051
    35  H   -0.001398   0.001362  -0.002029  -0.004037  -0.035268   0.008506
    36  H    0.000335  -0.000651   0.002305   0.000468   0.012572  -0.017493
    37  H   -0.000077  -0.000166   0.002261   0.000261   0.002175  -0.002735
               7          8          9         10         11         12
     1  C   -0.999762   0.007864  -0.388027  -0.239993  -0.048410  -0.102423
     2  C    1.243287  -0.306547   0.190178   0.259766   0.118596  -0.139194
     3  C   -0.202801   0.228601  -0.026109  -0.506222  -0.100897  -0.216237
     4  C   -0.453113   0.056302  -0.592454  -0.107002   0.030088  -0.095115
     5  C   -0.060888   0.455140   0.070679  -0.646989  -0.061551   0.103047
     6  C   -0.308053  -0.179350   0.220244   0.533530  -0.015464  -0.158871
     7  C    7.460693  -0.070878  -0.165810   1.006435   0.681977   0.004022
     8  C   -0.070878   6.483480   0.420066  -0.289501   0.206801  -0.256583
     9  C   -0.165810   0.420066   6.969514  -0.635270  -0.734134  -0.384424
    10  C    1.006435  -0.289501  -0.635270   9.799294   1.344935  -0.849268
    11  C    0.681977   0.206801  -0.734134   1.344935   7.311969   0.982083
    12  C    0.004022  -0.256583  -0.384424  -0.849268   0.982083  10.176603
    13  C    0.704868  -0.073939  -0.206544  -0.727111   0.399104   0.859706
    14  C   -0.763122  -0.721107   0.244337  -0.147815  -1.755324  -2.190671
    15  C   -0.233676  -0.116603  -0.058832  -0.373273  -0.443656  -0.690842
    16  C   -0.828359  -0.357893  -0.338675  -0.420022  -0.576168  -0.996675
    17  C    0.214639   0.243954  -0.046029   0.113231   0.143183   0.972857
    18  H   -0.002514   0.000611   0.001442   0.000117   0.000059  -0.000381
    19  H   -0.004217   0.002189  -0.012147  -0.000767  -0.000052   0.000048
    20  C    0.157629  -0.766889   0.677336   0.208884  -0.008648  -0.048398
    21  C   -0.173758   0.070355   0.109228   0.802578  -0.101831  -0.201626
    22  C   -1.118971   0.849523   1.563264  -2.271706  -1.825688  -1.018164
    23  H   -0.014992   0.021258  -0.012685  -0.045860   0.369328  -0.072114
    24  H   -0.002313   0.004748   0.001837   0.042903   0.074545  -0.129078
    25  H   -0.014867  -0.006490   0.000012  -0.001202   0.003776  -0.001414
    26  H   -0.007636   0.003306  -0.000373  -0.000002   0.003145   0.012761
    27  H    0.004748   0.002265   0.000158   0.006225   0.015481   0.061136
    28  C    0.040961   0.008449   0.013527   0.012058  -0.009141   0.021818
    29  C    0.012642  -0.004752   0.009900   0.003550  -0.004564   0.012449
    30  H    0.000581  -0.000142   0.000004  -0.000366   0.000040  -0.000428
    31  H    0.000583   0.000033   0.000096   0.000006  -0.000007  -0.000010
    32  C    0.290052  -0.766201  -0.220311   0.724978   0.063887   0.032949
    33  C   -0.434500   0.896407  -0.601190  -1.817612  -0.003573  -0.230776
    34  H    0.006165  -0.002213   0.005914   0.004116   0.000299   0.000177
    35  H    0.003459  -0.018837   0.027308   0.011884   0.000599  -0.000416
    36  H   -0.001832   0.012486   0.045133  -0.035519  -0.008585   0.001169
    37  H   -0.004147   0.028263  -0.000251  -0.074979   0.053885   0.025749
              13         14         15         16         17         18
     1  C    0.080863   0.028079  -0.017395  -0.148944  -0.061279   0.374003
     2  C    0.022524  -0.068075   0.009871   0.262919  -0.010770  -0.065899
     3  C    0.313613   0.284155   0.039385   0.224530  -0.464771   0.012371
     4  C    0.035807  -0.013118   0.003477  -0.063781  -0.009826  -0.001819
     5  C    0.002374   0.053460   0.006205   0.043850  -0.069778   0.009207
     6  C   -0.028474   0.020572  -0.055347  -0.257516   0.018747   0.004504
     7  C    0.704868  -0.763122  -0.233676  -0.828359   0.214639  -0.002514
     8  C   -0.073939  -0.721107  -0.116603  -0.357893   0.243954   0.000611
     9  C   -0.206544   0.244337  -0.058832  -0.338675  -0.046029   0.001442
    10  C   -0.727111  -0.147815  -0.373273  -0.420022   0.113231   0.000117
    11  C    0.399104  -1.755324  -0.443656  -0.576168   0.143183   0.000059
    12  C    0.859706  -2.190671  -0.690842  -0.996675   0.972857  -0.000381
    13  C    6.796338  -1.152356   0.387683   0.033717  -0.747988  -0.000069
    14  C   -1.152356  11.005656   0.604753   2.066667  -1.521760  -0.000048
    15  C    0.387683   0.604753   6.531564   0.025526   0.546177   0.000016
    16  C    0.033717   2.066667   0.025526   9.005939  -1.477874   0.000994
    17  C   -0.747988  -1.521760   0.546177  -1.477874   8.223431   0.000406
    18  H   -0.000069  -0.000048   0.000016   0.000994   0.000406   0.524507
    19  H    0.000053   0.000005  -0.000001  -0.000110   0.000000  -0.006800
[...]
 0086291,-0.00381889,0.00007548,0.00309013,0.00577382,-0.00013199,-0.00
 326749,-0.00217539,0.00004674,0.00514914,0.00600200,-0.00022576,-0.021
 28044,0.00694557,0.00010629,0.03588108,-0.01695101,-0.00010602,-0.0553
 2989,-0.02641669,0.00095324,0.01911042,0.00155090,-0.00008420,-0.00689
 063,-0.00950813,0.00013168,-0.00763749,0.00301585,0.00002538,0.0051939
 2,0.00091186,-0.00003710,-0.00051220,-0.00484982,-0.00003680,0.0026238
 7,0.00157474,0.00004758,-0.00316965,0.00240228,0.00001280,0.00007617,-
 0.00001776,0.00001628,-0.00004446,-0.00006669,-0.00000773,-0.00672667,
 -0.00941594,0.00027437,-0.11770979,0.01249430,0.00045722,-0.36369573,0
 .07433804,0.00242634,0.00003136,0.00037819,-0.00002718,0.00000675,0.00
 011853,-0.00000416,-0.00006419,-0.00009703,0.00000142,-0.00008303,0.00
 001770,0.00000715,-0.00009736,-0.00010069,0.00000206,0.00000155,-0.000
 17367,-0.00004094,0.00012352,0.00002977,0.00003951,-0.00007955,0.00005
 123,-0.00001354,-0.00006697,-0.00000636,-0.00000673,-0.01049708,0.0385
 8356,-0.00039328,0.70545453,-0.00189576,-0.00055762,0.00003372,0.00051
 809,-0.00115079,0.00006984,0.00039984,-0.00118200,-0.00007659,0.001351
 64,0.00252411,-0.00005825,-0.00544933,-0.00546881,0.00014108,-0.003048
 85,-0.00208758,0.00011522,-0.00672317,-0.00460049,0.00008264,0.0172367
 9,-0.00268334,-0.00011012,-0.02549725,-0.04750434,0.00089794,-0.003659
 10,0.02754281,-0.00022244,-0.01457808,-0.00892653,0.00023650,0.0041051
 5,0.00877757,-0.00012822,0.00787786,-0.00247894,0.00003837,-0.00459465
 ,-0.00161533,0.00002775,0.00066690,0.00435165,0.00003016,-0.00325955,-
 0.00175529,-0.00000930,0.00306898,-0.00276792,-0.00001404,-0.00001933,
 0.00002585,-0.00001872,0.00002415,0.00002809,0.00000811,0.00075093,0.0
 1300703,-0.00018544,0.03743893,-0.22559533,0.00150389,0.02868407,-0.13
 491616,0.00051124,-0.00034638,-0.00012351,0.00002326,0.00003373,-0.000
 07235,0.00000503,-0.00002268,0.00002583,-0.00000485,0.00007201,-0.0000
 3056,-0.00001135,-0.00001349,0.00003676,-0.00000024,0.00000730,0.00001
 399,0.00001609,-0.00000776,-0.00000173,-0.00001324,-0.00000088,-0.0000
 1064,0.00000283,0.00000215,-0.00000543,0.00000016,0.01719561,-0.014235
 83,0.00005653,0.05497277,0.61721956,0.00004001,0.00002260,0.00027271,-
 0.00005089,0.00000858,-0.00024869,0.00001658,-0.00002867,-0.00054803,-
 0.00000696,-0.00003721,-0.00076150,0.00004105,0.00000497,-0.00097488,0
 .00010112,0.00023683,0.00697346,-0.00001145,-0.00000947,-0.00061934,0.
 00002298,-0.00005281,-0.00215198,-0.00005172,0.00066965,0.00560808,0.0
 0067230,0.00000054,0.00419116,-0.00000595,0.00012852,0.00406187,0.0000
 3078,0.00001944,0.00016921,0.00001758,-0.00000928,0.00000223,-0.000012
 33,0.00001132,-0.00062472,-0.00000076,0.00000518,0.00015185,0.00000433
 ,-0.00000058,0.00017459,0.00000314,0.00000383,-0.00005256,-0.00000285,
 -0.00000033,-0.00004813,0.00000467,0.00000222,0.00005844,0.00009304,-0
 .00001452,0.00467439,0.00024449,0.00176529,-0.06011491,0.00287877,0.00
 004188,-0.05856634,-0.00000432,-0.00000081,-0.00016622,-0.00000096,-0.
 00000104,0.00000319,0.00000077,0.00000145,-0.00001107,-0.00000099,0.00
 000058,-0.00002295,0.00000165,0.00000030,0.00005316,-0.00002294,-0.000
 01702,-0.00002168,-0.00000936,-0.00000567,0.00001646,0.00000743,-0.000
 00172,-0.00000952,-0.00000104,-0.00000061,-0.00000322,-0.00015191,-0.0
 0013698,-0.00006026,-0.00654104,-0.00604833,0.13147949,-0.00007072,-0.
 00028524,0.00000262,0.00015555,0.00007573,0.00001390,-0.00024030,0.000
 85509,-0.00003033,0.00120054,0.00101932,-0.00005931,-0.01795539,0.0102
 2315,-0.00004468,-0.00213171,-0.00427381,0.00017338,-0.00041669,-0.000
 09774,0.00000849,-0.00019098,0.00015491,-0.00000247,0.00053414,-0.0005
 8339,-0.00000515,-0.00001446,-0.00008424,0.00000073,-0.00001863,0.0000
 0862,0.00000058,-0.00002967,0.00003141,-0.00000214,0.00008696,0.000118
 90,-0.00000251,-0.00000276,0.00000680,0.00000178,0.00000327,0.00001142
 ,-0.00000085,-0.00003398,-0.00001610,-0.00000129,0.00001060,-0.0000308
 0,0.00000120,-0.00003335,-0.00004137,-0.00000069,0.00003417,-0.0009810
 2,0.00002878,-0.30111380,0.08891989,0.00057779,0.00167306,0.00023073,0
 .00005311,0.00008602,0.00015256,-0.00000524,-0.00000830,0.00000651,0.0
 0000023,-0.00000496,0.00000599,0.,0.00000935,0.00000076,0.00000025,-0.
 00000395,-0.00000398,-0.00000017,-0.00000745,0.00000116,-0.00000007,0.
 00002221,-0.00000313,-0.00000595,-0.00004362,-0.00005906,-0.00000258,-
 0.00000302,0.00000879,-0.00001070,0.00000923,0.00002032,0.00000727,-0.
 00135937,-0.00075263,0.00004957,-0.00015795,-0.00013956,0.00000431,0.3
 1903418,0.00044828,0.00001909,-0.00001371,-0.00015966,0.00037501,-0.00
 000166,-0.00075057,0.00040394,0.00000270,0.00000505,0.00140016,-0.0000
 7580,-0.01936540,0.01067727,-0.00001225,-0.00314235,-0.00269307,0.0001
 6378,-0.00024656,-0.00010402,0.00001301,-0.00014207,0.00016459,-0.0000
 1153,-0.00042947,-0.00077377,0.00000340,-0.00008429,-0.00013554,0.0000
 0350,-0.00003056,0.00004047,0.00000153,-0.00001742,0.00000675,-0.00000
 332,0.00001598,0.00009495,-0.00000695,-0.00001053,0.00002048,0.0000019
 7,0.00000556,0.00001213,-0.00000011,0.00000428,-0.00000862,-0.00000069
 ,0.00001487,0.00000063,0.00000026,0.00001530,-0.00000730,-0.00000042,0
 .00061765,-0.00024908,0.00000628,0.08675944,-0.08930178,0.00029753,-0.
 00030521,-0.00559563,0.00024137,0.00010513,-0.00050201,-0.00000522,-0.
 00000289,-0.00000351,0.00000007,-0.00000337,-0.00000204,-0.00000013,0.
 00000544,0.00000429,0.00000068,0.00000112,0.00000216,0.00000010,0.0000
 0342,0.00000072,-0.00000010,0.00000945,-0.00000700,0.00000265,0.000004
 23,0.00000039,-0.00000256,-0.00000371,0.00000247,0.00000120,-0.0000037
 5,-0.00000249,-0.00000181,0.03025665,-0.00765049,-0.00004169,0.0012769
 2,0.00052674,-0.00001149,-0.09478110,0.09249392,-0.00002939,-0.0000062
 2,-0.00015807,0.00001338,-0.00000534,0.00005087,-0.00001848,-0.0000185
 9,0.00061492,-0.00001333,-0.00006978,-0.00233688,0.00037454,-0.0003309
 7,0.00242435,0.00020358,0.00012000,0.00399510,0.00002344,-0.00000328,0
 .00032146,0.00002459,-0.00001150,-0.00053444,-0.00002396,0.00005015,-0
 .00104736,-0.00000282,0.00001604,0.00015058,0.00000937,0.00000293,0.00
 000376,0.00000370,-0.00000740,-0.00001350,-0.00000876,-0.00000621,-0.0
 0031482,-0.00000041,-0.00000059,0.00005964,0.00000117,-0.00000069,-0.0
 0000297,0.00000026,0.00000333,0.00000596,-0.00000109,-0.00000039,-0.00
 000225,0.00000145,0.00000416,0.00010822,-0.00000930,0.00001059,0.00029
 658,0.00066002,0.00038970,-0.03445393,0.00006161,0.00026116,0.00857080
 ,-0.00001261,0.00000736,-0.00047073,0.00000043,0.00000003,-0.00000294,
 0.00000022,-0.00000014,-0.00000248,-0.00000048,-0.00000037,0.00000221,
 0.00000006,-0.00000001,0.00000247,0.,-0.00000004,-0.00000256,0.0000042
 1,0.00000703,0.00000922,0.00000227,0.00000085,-0.00001115,0.00000277,0
 .00000088,0.00000721,-0.00000249,-0.00000083,0.00000459,-0.00049149,0.
 00014551,0.00360107,-0.00002522,-0.00001034,0.00045016,-0.00069808,-0.
 00044074,0.02417982,0.00020328,0.00000462,-0.00000898,-0.00005349,0.00
 018788,0.00000387,-0.00019854,-0.00018750,-0.00000103,0.00020968,-0.00
 005151,0.00000288,0.00095876,0.00190870,0.00002361,0.00023045,0.000864
 67,-0.00002017,-0.00053132,0.00020007,0.00000426,-0.00002422,-0.001502
 44,0.00001511,-0.00482146,0.00376178,0.00005539,0.00013078,-0.00002395
 ,0.00000037,-0.00000151,0.00006034,-0.00000094,-0.00001488,0.00002187,
 -0.00000088,0.00006222,-0.00017646,0.00000460,0.00001487,-0.00001576,0
 .00000011,-0.00003288,0.00000863,-0.00000012,-0.00008393,0.00002764,-0
 .00000142,0.00000231,-0.00002211,-0.00000004,0.00002562,0.00001354,-0.
 00000259,0.00000252,-0.00001490,0.00000152,0.00647535,0.00504656,-0.00
 010667,-0.01735258,-0.01934853,0.00045529,-0.00014827,0.00027904,-0.00
 000514,-0.00003573,0.00001556,0.00000059,-0.00000649,0.00000872,0.0000
 0021,0.00000151,0.00000110,-0.00000009,-0.00001179,-0.00000499,0.00000
 017,-0.00000736,0.00000023,-0.00000001,0.00001179,-0.00000564,-0.00000
 646,-0.00001258,-0.00002272,0.00000161,-0.00000293,0.00000951,-0.00000
 471,0.00000299,0.00000955,0.00000343,-0.23324467,-0.13310203,0.0038782
 2,0.00150285,-0.00103417,-0.00002744,0.00099629,-0.00020029,-0.0000457
 2,0.24593917,-0.00013502,-0.00052494,0.00000745,0.00021830,-0.00013577
 ,0.00000532,0.00001770,0.00018301,-0.00001818,-0.00133693,0.00016608,0
 .00001565,0.00263262,-0.00454700,0.00020489,0.00053965,-0.00043004,-0.
 00000050,0.00012702,-0.00016311,0.00000200,0.00047997,0.00061183,-0.00
 000705,0.00290478,-0.00039403,0.00004426,0.00001073,0.00019926,-0.0000
 0314,-0.00005941,-0.00003333,0.00000096,0.00002406,0.00004428,0.000000
 21,0.00006178,0.00008893,-0.00000368,-0.00001997,-0.00001154,-0.000000
 56,0.00000709,0.00001702,0.00000052,-0.00000654,-0.00002125,0.00000056
 ,0.00001239,-0.00001667,-0.00000020,-0.00012596,-0.00006602,0.00000510
 ,0.00003992,-0.00004247,0.00000345,-0.02603873,-0.01564473,0.00051962,
 0.01006701,0.01075477,-0.00020985,-0.00029399,-0.00001879,0.00000115,0
 .00000483,0.00000080,0.00000015,0.00000006,0.00000311,0.00000009,0.000
 00444,-0.00000133,0.,0.00000155,-0.00000274,-0.00000018,-0.00000466,0.
 00000095,0.00000008,-0.00000715,0.00000188,-0.00000964,-0.00003165,-0.
 00002733,0.00000451,0.00000843,0.00000067,-0.00000585,0.00001149,0.000
 01242,0.00000592,-0.13080371,-0.15713984,0.00310139,-0.00023641,0.0011
 5304,-0.00004297,0.00024575,0.00086289,-0.00010746,0.14226880,0.165278
 47,-0.00000736,-0.00001647,-0.00062610,-0.00000046,0.00000136,0.000142
 30,-0.00002412,-0.00001701,-0.00058133,0.00000708,-0.00000283,0.000450
 32,0.00001711,0.00023339,0.00877116,0.00000783,-0.00003582,-0.00081310
 ,0.00000578,0.00000222,0.00000841,-0.00000569,0.00000216,0.00049737,0.
 00005014,0.00005373,0.00456335,0.00000426,0.00000338,-0.00008429,-0.00
 000069,-0.00000119,0.00002905,0.00000277,-0.00000127,-0.00001386,-0.00
 000335,-0.00000348,-0.00008819,-0.00000070,-0.00000007,-0.00000237,0.0
 0000111,-0.00000044,-0.00000467,-0.00000105,0.00000176,-0.00002586,-0.
 00000191,-0.00000022,0.00001226,-0.00000074,-0.00000017,-0.00006994,0.
 00000129,0.00000530,0.00017344,0.00038935,0.00031599,0.00308399,-0.000
 03831,0.00006202,0.00235922,-0.00000829,-0.00000710,-0.00012253,0.0000
 0042,-0.00000004,0.00001022,0.00000013,-0.00000016,0.00000317,-0.00000
 076,0.00000053,-0.00000074,-0.00000020,0.00000004,0.00000611,0.0000000
 9,-0.00000007,0.00000193,0.00001472,0.00001286,0.00001358,-0.00000141,
 -0.00000245,-0.00000028,-0.00000142,0.00000352,0.00000898,-0.00000070,
 -0.00000089,0.00000201,0.00386931,0.00307370,-0.03469964,-0.00001982,-
 0.00004250,-0.00212204,-0.00005168,-0.00011052,-0.00553492,-0.00421503
 ,-0.00352653,0.02437883,0.00001731,0.00000108,-0.00000032,0.00005183,0
 .00001889,-0.00000541,-0.00012078,0.00011688,0.00000294,-0.00002411,-0
 .00004053,0.00000266,0.00019080,-0.00000679,-0.00000084,0.00049461,0.0
 0042782,-0.00000529,0.00020576,0.00002428,-0.00000774,-0.00026736,0.00
 042889,-0.00001542,-0.00007235,0.00258887,0.00001679,-0.00407843,0.003
 13370,0.00011184,-0.00001408,-0.00137497,0.00002134,-0.00050729,0.0000
 8526,-0.00000633,-0.00012464,0.00005728,0.00000404,0.00008102,-0.00014
 466,-0.00000206,-0.00008682,-0.00007437,-0.00000029,0.00007513,0.00003
 924,0.00000108,-0.00007524,0.00006041,0.00000107,0.00000081,-0.0000063
 5,-0.00000055,0.00000125,0.00000165,0.00000004,-0.00004161,-0.00029255
 ,0.00000307,0.00994764,0.00822743,-0.00017040,-0.01735608,-0.02439905,
 0.00048831,-0.00003151,0.00004937,0.00000265,0.00000215,0.00001400,-0.
 00000012,-0.00000483,-0.00000601,-0.00000058,-0.00000764,-0.00000672,-
 0.00000012,-0.00001877,-0.00001523,0.00000032,0.00000880,0.00000327,0.
 00000070,-0.00000062,-0.00001063,-0.00000048,-0.00000129,0.00000687,-0
 .00000489,0.00000137,0.00000722,0.00000256,0.00108874,-0.00022658,-0.0
 0002757,-0.17639553,-0.13496459,0.00295551,0.00000361,-0.00002562,0.00
 000118,-0.00014354,-0.00056238,0.00001044,0.18633192,0.00002772,-0.000
 05302,-0.00000107,-0.00010897,0.00005745,0.00002290,0.00004142,-0.0005
 2582,0.00000288,0.00005412,0.00001499,0.00000087,0.00004171,0.00011828
 ,-0.00000588,-0.00148339,-0.00000659,0.00000963,-0.00022690,-0.0000987
 0,0.00000610,0.00084745,0.00016113,-0.00002046,0.00346054,-0.00519022,
 0.00006999,0.00233926,0.00045474,0.00007770,-0.00008640,0.00034355,-0.
 00000203,0.00014105,0.00011442,-0.00001327,0.00018366,-0.00003858,-0.0
 0000005,-0.00004931,0.00001525,-0.00000088,-0.00001116,0.00007718,0.00
 000208,-0.00008283,-0.00003353,-0.00000263,0.00006178,-0.00003513,0.00
 000035,0.00000254,-0.00000678,-0.00000129,0.00001529,-0.00003500,0.000
 00082,0.00025503,-0.00017754,0.00000166,-0.02110158,-0.01642192,0.0004
 2652,0.00679972,0.00787984,-0.00012089,-0.00001515,-0.00000174,0.00000
 393,-0.00000751,0.00000342,-0.00000018,0.00000965,0.00000410,-0.000000
 05,-0.00000249,-0.00000325,-0.00000013,0.00000015,0.00000477,0.0000001
 0,0.00001479,0.00000319,-0.00001224,-0.00004888,-0.00005226,-0.0000017
 0,0.00000261,0.00000237,-0.00000497,0.00001340,0.00001556,0.00000595,-
 0.00095834,0.00157160,-0.00003263,-0.13761715,-0.21389329,0.00340327,0
 .00003257,-0.00004527,0.00000116,0.00097889,-0.00016091,-0.00000372,0.
 14662992,0.22490330,0.00000673,0.00000110,-0.00003880,-0.00000570,0.00
 001076,0.00000302,-0.00000157,-0.00000282,-0.00004446,-0.00000120,-0.0
 0000404,0.00006711,-0.00000388,0.00000302,-0.00004910,0.00001603,-0.00
 000250,0.00030003,0.00001008,0.00000698,-0.00053530,-0.00002476,-0.000
 03415,-0.00062090,0.00004172,0.00009364,0.00382673,0.00008550,0.000082
 03,0.00938794,0.00002051,0.00001079,0.00038850,-0.00001627,-0.00000741
 ,-0.00099379,-0.00001384,0.00000473,0.00015812,0.00000760,-0.00000053,
 -0.00009178,-0.00000171,-0.00000751,0.00008725,0.00000744,0.00000201,0
 .00008134,-0.00000604,0.00000458,-0.00001158,-0.00000049,-0.00000073,-
 0.00002208,0.00000031,0.00000082,0.00001100,-0.00000512,0.00000137,-0.
 00014482,0.00016467,0.00006992,0.00255542,0.00015623,0.00020693,0.0036
 3231,0.00000391,0.00000133,0.00028455,-0.00000012,0.00000004,-0.000019
 25,-0.00000056,-0.00000024,-0.00000109,0.00000004,0.00000029,-0.000015
 11,-0.00000002,-0.00000033,0.00001941,-0.00000247,0.00000274,0.0000047
 7,0.00000366,0.00000124,-0.00000945,0.00000069,-0.00000055,0.00000082,
 -0.00000032,-0.00000127,0.00000238,-0.00001513,-0.00003102,-0.00170142
 ,0.00295531,0.00339481,-0.03514886,0.00000008,0.00000237,0.00007893,-0
 .00000515,0.00001024,0.00015078,-0.00330792,-0.00373664,0.02436086,0.0
 0008685,-0.00000496,-0.00000161,0.00005898,0.00005771,-0.00000501,-0.0
 0014919,-0.00033778,0.00001252,0.00001852,-0.00008856,0.00000292,-0.00
 013924,-0.00002857,0.00000325,0.00018852,-0.00012964,-0.00000407,0.000
 63602,-0.00065186,0.00000491,-0.00348984,-0.00309645,0.00011398,-0.000
 64006,-0.00029045,-0.00000361,0.00976962,-0.02140439,0.00015311,0.0015
 5563,-0.00000429,-0.00003480,0.00000260,0.00036037,-0.00001193,0.00030
 167,-0.00005345,0.00000642,-0.00007842,-0.00002388,0.00000061,0.000024
 47,0.00006817,0.00000054,-0.00008765,0.00002676,-0.00000176,0.00002751
 ,-0.00007087,-0.00000064,0.00001294,-0.00000070,0.00000040,-0.00000462
 ,-0.00000126,-0.00000019,-0.00046895,0.00013490,-0.00000424,-0.0055365
 7,-0.00005284,0.00015090,-0.07777160,0.07103973,-0.00033682,-0.0003272
 4,0.00068256,-0.00000039,-0.00002207,-0.00000172,0.00000055,0.00000308
 ,0.00001129,0.00000092,-0.00000206,0.00000420,0.00000002,0.00000223,0.
 00000360,0.00000011,-0.00000053,-0.00000104,0.00000030,0.00000918,0.00
 000943,-0.00000016,-0.00000215,0.00000062,0.00000198,-0.00000402,-0.00
 000419,-0.00000158,0.00060557,0.00125064,-0.00001341,-0.00592918,0.030
 84767,-0.00023759,-0.00001816,0.00015605,-0.00000462,-0.00004231,-0.00
 002583,0.00000187,0.00086979,-0.00015320,-0.00006822,0.08054066,0.0000
 6711,-0.00003203,0.00000014,0.00007256,0.00010295,-0.00000140,-0.00019
 574,-0.00043540,0.00001939,-0.00000124,-0.00005983,0.00000172,-0.00009
 920,0.00003516,0.00000358,0.00015588,-0.00018495,-0.00000705,0.0009778
 4,-0.00012874,-0.00000559,-0.00421887,-0.00159364,0.00009621,-0.000431
 83,0.00063468,-0.00001240,0.00822933,-0.01714215,0.00013065,0.00098797
 ,0.00110819,-0.00003461,-0.00041139,0.00003057,-0.00000840,0.00002676,
 0.00007415,0.00000843,0.00010570,-0.00007367,0.00000119,-0.00002926,-0
 .00007966,-0.00000172,-0.00004580,0.00008565,-0.00000117,-0.00008225,-
 0.00002513,0.00000069,0.00001159,-0.00001243,-0.00000014,0.00000621,-0
 .00000797,0.,0.00019306,0.00007562,-0.00001018,0.00067816,0.00161645,0
 .00007414,0.07345627,-0.31212332,0.00234380,-0.00092757,0.00007396,0.0
 0001331,-0.00001981,0.00002050,0.00000074,0.00000983,0.00000309,0.0000
 0032,-0.00001189,-0.00000169,0.00000016,-0.00001671,-0.00000460,0.0000
 0014,0.00001430,0.00000197,-0.00000488,-0.00001782,-0.00002923,-0.0000
 0072,-0.00000151,0.00000884,-0.00000681,0.00000539,0.00001196,0.000004
 44,-0.00015072,-0.00024001,0.00000998,-0.00038130,-0.00356921,0.000093
 03,0.00000275,-0.00002739,0.00000001,0.00003530,0.00000243,0.00000101,
 0.00023472,0.00103442,-0.00008199,-0.07822777,0.33085043,0.00000316,-0
 .00000448,-0.00003552,-0.00000292,-0.00000684,-0.00030849,0.00000719,0
 .00000397,0.00028958,-0.00000512,-0.00000535,0.00001959,-0.00000693,0.
 00001003,0.00014693,0.00000083,-0.00002941,-0.00054511,0.00000271,0.00
 003141,0.00058300,0.00012835,0.00006078,0.00352461,-0.00000963,0.00001
 633,-0.00094388,-0.00016566,0.00047433,0.00235379,-0.00004261,-0.00003
 650,-0.00192025,0.00000202,-0.00001330,-0.00016932,-0.00000895,0.00000
 049,-0.00001457,0.00000018,0.00000070,0.00000691,-0.00000090,-0.000000
 60,0.00001846,0.00000200,0.00000115,0.00003538,-0.00000059,0.00000111,
 -0.00002456,0.00000137,0.00000261,0.00007935,-0.00000065,0.00000003,0.
 00000327,-0.00000133,-0.00000737,-0.00058585,0.00013486,0.00007915,0.0
 0907126,-0.00036006,0.00238118,-0.03464093,0.00001664,-0.00000821,0.00
 029274,0.00000044,0.,0.00001816,-0.00000031,-0.00000047,0.00001085,-0.
 00000003,-0.00000013,0.00000020,0.00000008,-0.00000004,-0.00000094,0.0
 0000140,-0.00000041,0.00000214,0.00000031,0.00000133,-0.00000470,-0.00
 000058,0.00000421,0.00000376,0.00000016,-0.00000129,0.00000224,0.00000
 461,-0.00001246,0.00043669,0.00009365,-0.00024122,0.00393646,-0.000000
 17,-0.00000171,-0.00004893,0.00000136,0.00000226,0.00012337,-0.0000702
 0,-0.00007522,-0.00595349,0.00027537,-0.00262605,0.02423779\\0.0000320
 2,0.00000951,-0.00000195,-0.00108459,-0.00101016,0.00022326,-0.0000042
 7,0.00000810,0.00000150,-0.00001930,-0.00001690,0.00000185,0.00000453,
 0.00001455,0.00000052,0.00000206,-0.00000801,0.00000398,0.00001655,-0.
 00000765,0.00000036,-0.00000595,0.00000058,-0.00000320,0.00000227,0.00
 000399,0.00000023,-0.00000067,-0.00000171,0.00000110,0.00000297,0.0000
 0218,0.00000226,-0.00000632,-0.00000318,-0.00000353,-0.00000768,0.0000
 0317,0.00000090,0.00000298,-0.00000286,0.00000057,0.00000085,0.0000010
 1,-0.00000232,0.00000269,-0.00000191,-0.00000234,-0.00000265,0.0000019
 5,0.00000088,-0.00000598,-0.00000113,0.00000110,0.00000221,0.00000128,
 0.00000024,-0.00000125,-0.00000081,0.00000146,-0.00000100,-0.00000381,
 0.00000132,0.00000353,0.00000136,0.00000090,-0.00000111,-0.00000026,-0
 .00000116,-0.00000034,-0.00000053,-0.00000199,0.00000187,-0.00000062,-
 0.00000249,-0.00000030,-0.00000038,-0.00000304,-0.00000015,-0.00000136
 ,-0.00000204,0.00106833,0.00099378,-0.00025265,0.00000085,0.00001476,0
 .00003198,0.00000055,-0.00000252,-0.00000867,0.00000389,0.00000357,0.0
 0000092,-0.00000009,0.00000181,0.00000140,-0.00000462,0.00000277,0.000
 00046,-0.00000051,-0.00000167,0.00000252,-0.00000089,0.00000166,0.0000
 0290,0.00000068,-0.00000013,0.00000155,-0.00000114,-0.00000043,0.00000
 122\\\@


 DEPRESSION IS WAITING FOR YOUR SHIP TO COME IN,
 AND FINDING OUT IT'S THE TITANIC.
 Job cpu time:       0 days 16 hours 18 minutes 34.6 seconds.
 Elapsed time:       0 days  0 hours 48 minutes 55.7 seconds.
 File lengths (MBytes):  RWF=   2393 Int=      0 D2E=      0 Chk=     39 Scr=      1
 Normal termination of Gaussian 16 at Thu Apr  4 15:25:10 2019.
