 Entering Gaussian System, Link 0=g09
 Initial command:
 /usr/local/Cluster-Apps/gaussian/g09/l1.exe "/rds/user/am2145/hpc-work/scratch/19184573/Gau-227629.inp" -scrdir="/rds/user/am2145/hpc-work/scratch/19184573/"
 Entering Link 1 = /usr/local/Cluster-Apps/gaussian/g09/l1.exe PID=    227630.
  
 Copyright (c) 1988,1990,1992,1993,1995,1998,2003,2009,2013,
            Gaussian, Inc.  All Rights Reserved.
  
 This is part of the Gaussian(R) 09 program.  It is based on
 the Gaussian(R) 03 system (copyright 2003, Gaussian, Inc.),
 the Gaussian(R) 98 system (copyright 1998, Gaussian, Inc.),
 the Gaussian(R) 94 system (copyright 1995, Gaussian, Inc.),
 the Gaussian 92(TM) system (copyright 1992, Gaussian, Inc.),
 the Gaussian 90(TM) system (copyright 1990, Gaussian, Inc.),
 the Gaussian 88(TM) system (copyright 1988, Gaussian, Inc.),
 the Gaussian 86(TM) system (copyright 1986, Carnegie Mellon
 University), and the Gaussian 82(TM) system (copyright 1983,
 Carnegie Mellon University). Gaussian is a federally registered
 trademark of Gaussian, Inc.
  
 This software contains proprietary and confidential information,
 including trade secrets, belonging to Gaussian, Inc.
  
 This software is provided under written license and may be
 used, copied, transmitted, or stored only in accord with that
 written license.
  
 The following legend is applicable only to US Government
 contracts under FAR:
  
                    RESTRICTED RIGHTS LEGEND
  
 Use, reproduction and disclosure by the US Government is
 subject to restrictions as set forth in subparagraphs (a)
 and (c) of the Commercial Computer Software - Restricted
 Rights clause in FAR 52.227-19.
  
 Gaussian, Inc.
 340 Quinnipiac St., Bldg. 40, Wallingford CT 06492
  
  
 ---------------------------------------------------------------
 Warning -- This program may not be used in any manner that
 competes with the business of Gaussian, Inc. or will provide
 assistance to any competitor of Gaussian, Inc.  The licensee
 of this program is prohibited from giving any competitor of
 Gaussian, Inc. access to this program.  By using this program,
 the user acknowledges that Gaussian, Inc. is engaged in the
 business of creating and licensing software in the field of
 computational chemistry and represents and warrants to the
 licensee that it is not a competitor of Gaussian, Inc. and that
 it will not use this program in any manner prohibited above.
 ---------------------------------------------------------------
  

 Cite this work as:
 Gaussian 09, Revision D.01,
 M. J. Frisch, G. W. Trucks, H. B. Schlegel, G. E. Scuseria, 
 M. A. Robb, J. R. Cheeseman, G. Scalmani, V. Barone, B. Mennucci, 
 G. A. Petersson, H. Nakatsuji, M. Caricato, X. Li, H. P. Hratchian, 
 A. F. Izmaylov, J. Bloino, G. Zheng, J. L. Sonnenberg, M. Hada, 
 M. Ehara, K. Toyota, R. Fukuda, J. Hasegawa, M. Ishida, T. Nakajima, 
 Y. Honda, O. Kitao, H. Nakai, T. Vreven, J. A. Montgomery, Jr., 
 J. E. Peralta, F. Ogliaro, M. Bearpark, J. J. Heyd, E. Brothers, 
 K. N. Kudin, V. N. Staroverov, T. Keith, R. Kobayashi, J. Normand, 
 K. Raghavachari, A. Rendell, J. C. Burant, S. S. Iyengar, J. Tomasi, 
 M. Cossi, N. Rega, J. M. Millam, M. Klene, J. E. Knox, J. B. Cross, 
 V. Bakken, C. Adamo, J. Jaramillo, R. Gomperts, R. E. Stratmann, 
 O. Yazyev, A. J. Austin, R. Cammi, C. Pomelli, J. W. Ochterski, 
 R. L. Martin, K. Morokuma, V. G. Zakrzewski, G. A. Voth, 
 P. Salvador, J. J. Dannenberg, S. Dapprich, A. D. Daniels, 
 O. Farkas, J. B. Foresman, J. V. Ortiz, J. Cioslowski, 
 and D. J. Fox, Gaussian, Inc., Wallingford CT, 2013.
 
 ******************************************
 Gaussian 09:  ES64L-G09RevD.01 24-Apr-2013
                 1-Feb-2020 
 ******************************************
 %NProcShared=20
 Will use up to   20 processors via shared memory.
 %mem=64GB
 %Chk=AS2b_Hmig_guess.chk
 --------------------------------------------------
 #n opt=(ts,calcfc,noeigen) freq b3lyp/6-311+g(d,p)
 --------------------------------------------------
 1/5=1,10=4,11=1,14=-1,18=20,26=3,38=1/1,3;
 2/9=110,12=2,17=6,18=5,40=1/2;
 3/5=4,6=6,7=111,11=2,16=1,25=1,30=1,71=2,74=-5,140=1/1,2,3;
 4//1;
 5/5=2,38=5/2;
 8/6=4,10=90,11=11/1;
 11/6=1,8=1,9=11,15=111,16=1/1,2,10;
 10/6=1,13=1/2;
 6/7=2,8=2,9=2,10=2,28=1/1;
 7/10=1,18=20,25=1/1,2,3,16;
 1/5=1,10=4,11=1,14=-1,18=20,26=3/3(2);
 2/9=110/2;
 99//99;
 2/9=110/2;
 3/5=4,6=6,7=111,11=2,16=1,25=1,30=1,71=1,74=-5/1,2,3;
 4/5=5,16=3,69=1/1;
 5/5=2,38=5/2;
 7//1,2,3,16;
 1/5=1,11=1,14=-1,18=20,26=3/3(-5);
 2/9=110/2;
 6/7=2,8=2,9=2,10=2,19=2,28=1/1;
 99/9=1/99;
 ---------------
 AS2b_Hmig_guess
 ---------------
 Symbolic Z-matrix:
 Charge =  0 Multiplicity = 2
 C                    -2.05227   3.10455  -0.22826 
 C                    -0.73149   2.56825  -0.0966 
 C                    -0.59225   1.1926    0.0769 
 C                    -3.20266   2.33375  -0.18331 
 C                    -3.09926   0.92177  -0.02326 
 C                    -1.79766   0.44881   0.10755 
 C                     0.53925   0.17693   0.08893 
 C                    -0.11521  -1.07255   0.1175 
 C                    -1.51272  -0.91182   0.13927 
 C                     0.43222  -2.36152   0.03967 
 C                     1.82039  -2.40246  -0.06106 
 C                     2.57854  -1.20761  -0.06886 
 C                     1.96761   0.13021   0.02692 
 C                     3.99805  -1.31799  -0.18604 
 C                     4.82188  -0.22832  -0.18937 
 C                     2.90955   1.20132   0.05251 
 C                     4.25962   1.06819  -0.04484 
 H                    -2.14481   4.17671  -0.36446 
 H                    -4.17164   2.81008  -0.29089 
 C                    -4.11436  -0.10046  -0.04773 
 C                    -2.45092  -1.91749   0.07153 
 C                    -0.52648  -3.4531    0.01838 
 H                     2.34974  -3.34609  -0.14933 
 H                     4.41848  -2.31436  -0.27059 
 H                     2.55386   2.51914   0.32089 
 H                     4.90621   1.93809   0.00478 
 H                     5.89606  -0.34431  -0.27896 
 C                     0.54188   3.29731  -0.21989 
 C                     1.46872   3.0388    0.70707 
 H                     0.78713   3.76796  -1.16972 
 H                     1.20801   2.52432   1.62776 
 C                    -3.8108   -1.45249  -0.00036 
 C                    -1.88685  -3.2523    0.03169 
 H                    -5.15558   0.1955   -0.12603 
 H                    -4.62246  -2.17153  -0.04142 
 H                    -2.54663  -4.11305  -0.0049 
 H                    -0.14715  -4.46879  -0.02725 
 

 GradGradGradGradGradGradGradGradGradGradGradGradGradGradGradGradGradGrad
 Berny optimization.
 Initialization pass.
                           ----------------------------
                           !    Initial Parameters    !
                           ! (Angstroms and Degrees)  !
 --------------------------                            --------------------------
 ! Name  Definition              Value          Derivative Info.                !
 --------------------------------------------------------------------------------
 ! R1    R(1,2)                  1.4316         calculate D2E/DX2 analytically  !
 ! R2    R(1,4)                  1.3855         calculate D2E/DX2 analytically  !
 ! R3    R(1,18)                 1.0847         calculate D2E/DX2 analytically  !
 ! R4    R(2,3)                  1.3935         calculate D2E/DX2 analytically  !
 ! R5    R(2,28)                 1.4725         calculate D2E/DX2 analytically  !
 ! R6    R(3,6)                  1.4167         calculate D2E/DX2 analytically  !
 ! R7    R(3,7)                  1.5205         calculate D2E/DX2 analytically  !
 ! R8    R(4,5)                  1.4248         calculate D2E/DX2 analytically  !
 ! R9    R(4,19)                 1.0851         calculate D2E/DX2 analytically  !
 ! R10   R(5,6)                  1.391          calculate D2E/DX2 analytically  !
 ! R11   R(5,20)                 1.4408         calculate D2E/DX2 analytically  !
 ! R12   R(6,9)                  1.3905         calculate D2E/DX2 analytically  !
 ! R13   R(7,8)                  1.4108         calculate D2E/DX2 analytically  !
 ! R14   R(7,13)                 1.4305         calculate D2E/DX2 analytically  !
 ! R15   R(8,9)                  1.4069         calculate D2E/DX2 analytically  !
 ! R16   R(8,10)                 1.4026         calculate D2E/DX2 analytically  !
 ! R17   R(9,21)                 1.377          calculate D2E/DX2 analytically  !
 ! R18   R(10,11)                1.3924         calculate D2E/DX2 analytically  !
 ! R19   R(10,22)                1.453          calculate D2E/DX2 analytically  !
 ! R20   R(11,12)                1.4151         calculate D2E/DX2 analytically  !
 ! R21   R(11,23)                1.0856         calculate D2E/DX2 analytically  !
 ! R22   R(12,13)                1.4738         calculate D2E/DX2 analytically  !
 ! R23   R(12,14)                1.4286         calculate D2E/DX2 analytically  !
 ! R24   R(13,16)                1.4266         calculate D2E/DX2 analytically  !
 ! R25   R(14,15)                1.366          calculate D2E/DX2 analytically  !
 ! R26   R(14,24)                1.0847         calculate D2E/DX2 analytically  !
 ! R27   R(15,17)                1.4206         calculate D2E/DX2 analytically  !
 ! R28   R(15,27)                1.0841         calculate D2E/DX2 analytically  !
 ! R29   R(16,17)                1.3601         calculate D2E/DX2 analytically  !
 ! R30   R(17,26)                1.085          calculate D2E/DX2 analytically  !
 ! R31   R(20,32)                1.3865         calculate D2E/DX2 analytically  !
 ! R32   R(20,34)                1.0853         calculate D2E/DX2 analytically  !
 ! R33   R(21,32)                1.439          calculate D2E/DX2 analytically  !
 ! R34   R(21,33)                1.4496         calculate D2E/DX2 analytically  !
 ! R35   R(22,33)                1.3752         calculate D2E/DX2 analytically  !
 ! R36   R(22,37)                1.0852         calculate D2E/DX2 analytically  !
 ! R37   R(25,29)                1.2636         calculate D2E/DX2 analytically  !
 ! R38   R(28,29)                1.3361         calculate D2E/DX2 analytically  !
 ! R39   R(28,30)                1.088          calculate D2E/DX2 analytically  !
 ! R40   R(29,31)                1.0864         calculate D2E/DX2 analytically  !
 ! R41   R(32,35)                1.0851         calculate D2E/DX2 analytically  !
 ! R42   R(33,36)                1.0851         calculate D2E/DX2 analytically  !
 ! A1    A(2,1,4)              123.687          calculate D2E/DX2 analytically  !
 ! A2    A(2,1,18)             117.4218         calculate D2E/DX2 analytically  !
 ! A3    A(4,1,18)             118.8902         calculate D2E/DX2 analytically  !
 ! A4    A(1,2,3)              118.2587         calculate D2E/DX2 analytically  !
 ! A5    A(1,2,28)             127.2047         calculate D2E/DX2 analytically  !
 ! A6    A(3,2,28)             114.3802         calculate D2E/DX2 analytically  !
 ! A7    A(2,3,6)              115.8454         calculate D2E/DX2 analytically  !
 ! A8    A(2,3,7)              137.2855         calculate D2E/DX2 analytically  !
 ! A9    A(6,3,7)              106.3968         calculate D2E/DX2 analytically  !
 ! A10   A(1,4,5)              119.652          calculate D2E/DX2 analytically  !
 ! A11   A(1,4,19)             119.6065         calculate D2E/DX2 analytically  !
 ! A12   A(5,4,19)             120.7295         calculate D2E/DX2 analytically  !
 ! A13   A(4,5,6)              114.546          calculate D2E/DX2 analytically  !
 ! A14   A(4,5,20)             130.5465         calculate D2E/DX2 analytically  !
 ! A15   A(6,5,20)             114.8095         calculate D2E/DX2 analytically  !
 ! A16   A(3,6,5)              127.9949         calculate D2E/DX2 analytically  !
 ! A17   A(3,6,9)              109.8684         calculate D2E/DX2 analytically  !
 ! A18   A(5,6,9)              121.7754         calculate D2E/DX2 analytically  !
 ! A19   A(3,7,8)              104.2733         calculate D2E/DX2 analytically  !
 ! A20   A(3,7,13)             139.8646         calculate D2E/DX2 analytically  !
 ! A21   A(8,7,13)             115.7957         calculate D2E/DX2 analytically  !
 ! A22   A(7,8,9)              111.0961         calculate D2E/DX2 analytically  !
 ! A23   A(7,8,10)             129.1789         calculate D2E/DX2 analytically  !
 ! A24   A(9,8,10)             119.5745         calculate D2E/DX2 analytically  !
 ! A25   A(6,9,8)              108.3601         calculate D2E/DX2 analytically  !
 ! A26   A(6,9,21)             125.0222         calculate D2E/DX2 analytically  !
 ! A27   A(8,9,21)             126.3408         calculate D2E/DX2 analytically  !
 ! A28   A(8,10,11)            114.8441         calculate D2E/DX2 analytically  !
 ! A29   A(8,10,22)            115.7034         calculate D2E/DX2 analytically  !
 ! A30   A(11,10,22)           129.3947         calculate D2E/DX2 analytically  !
 ! A31   A(10,11,12)           120.6434         calculate D2E/DX2 analytically  !
 ! A32   A(10,11,23)           121.17           calculate D2E/DX2 analytically  !
 ! A33   A(12,11,23)           118.1813         calculate D2E/DX2 analytically  !
 ! A34   A(11,12,13)           122.9561         calculate D2E/DX2 analytically  !
 ! A35   A(11,12,14)           117.8759         calculate D2E/DX2 analytically  !
 ! A36   A(13,12,14)           119.1661         calculate D2E/DX2 analytically  !
 ! A37   A(7,13,12)            116.5111         calculate D2E/DX2 analytically  !
 ! A38   A(7,13,16)            129.3456         calculate D2E/DX2 analytically  !
 ! A39   A(12,13,16)           114.1419         calculate D2E/DX2 analytically  !
 ! A40   A(12,14,15)           122.5342         calculate D2E/DX2 analytically  !
 ! A41   A(12,14,24)           117.5472         calculate D2E/DX2 analytically  !
 ! A42   A(15,14,24)           119.9181         calculate D2E/DX2 analytically  !
 ! A43   A(14,15,17)           119.2802         calculate D2E/DX2 analytically  !
 ! A44   A(14,15,27)           120.8237         calculate D2E/DX2 analytically  !
 ! A45   A(17,15,27)           119.8827         calculate D2E/DX2 analytically  !
 ! A46   A(13,16,17)           125.4943         calculate D2E/DX2 analytically  !
 ! A47   A(15,17,16)           119.3078         calculate D2E/DX2 analytically  !
 ! A48   A(15,17,26)           120.034          calculate D2E/DX2 analytically  !
 ! A49   A(16,17,26)           120.6491         calculate D2E/DX2 analytically  !
 ! A50   A(5,20,32)            122.4802         calculate D2E/DX2 analytically  !
 ! A51   A(5,20,34)            118.9252         calculate D2E/DX2 analytically  !
 ! A52   A(32,20,34)           118.5832         calculate D2E/DX2 analytically  !
 ! A53   A(9,21,32)            114.2256         calculate D2E/DX2 analytically  !
 ! A54   A(9,21,33)            114.1239         calculate D2E/DX2 analytically  !
 ! A55   A(32,21,33)           131.5974         calculate D2E/DX2 analytically  !
 ! A56   A(10,22,33)           122.8798         calculate D2E/DX2 analytically  !
 ! A57   A(10,22,37)           118.2386         calculate D2E/DX2 analytically  !
 ! A58   A(33,22,37)           118.873          calculate D2E/DX2 analytically  !
 ! A59   A(2,28,29)            116.4878         calculate D2E/DX2 analytically  !
 ! A60   A(2,28,30)            118.8287         calculate D2E/DX2 analytically  !
 ! A61   A(29,28,30)           122.2077         calculate D2E/DX2 analytically  !
 ! A62   A(25,29,28)           117.5977         calculate D2E/DX2 analytically  !
 ! A63   A(25,29,31)           105.6834         calculate D2E/DX2 analytically  !
 ! A64   A(28,29,31)           120.871          calculate D2E/DX2 analytically  !
 ! A65   A(20,32,21)           121.5824         calculate D2E/DX2 analytically  !
 ! A66   A(20,32,35)           118.7575         calculate D2E/DX2 analytically  !
 ! A67   A(21,32,35)           119.6456         calculate D2E/DX2 analytically  !
 ! A68   A(21,33,22)           121.3078         calculate D2E/DX2 analytically  !
 ! A69   A(21,33,36)           119.6513         calculate D2E/DX2 analytically  !
 ! A70   A(22,33,36)           119.0332         calculate D2E/DX2 analytically  !
 ! D1    D(4,1,2,3)              0.4844         calculate D2E/DX2 analytically  !
 ! D2    D(4,1,2,28)           175.6621         calculate D2E/DX2 analytically  !
 ! D3    D(18,1,2,3)          -179.8947         calculate D2E/DX2 analytically  !
 ! D4    D(18,1,2,28)           -4.7171         calculate D2E/DX2 analytically  !
 ! D5    D(2,1,4,5)             -1.2339         calculate D2E/DX2 analytically  !
 ! D6    D(2,1,4,19)          -179.9818         calculate D2E/DX2 analytically  !
 ! D7    D(18,1,4,5)           179.1505         calculate D2E/DX2 analytically  !
 ! D8    D(18,1,4,19)            0.4025         calculate D2E/DX2 analytically  !
 ! D9    D(1,2,3,6)             -0.0704         calculate D2E/DX2 analytically  !
 ! D10   D(1,2,3,7)            170.7025         calculate D2E/DX2 analytically  !
 ! D11   D(28,2,3,6)          -175.8546         calculate D2E/DX2 analytically  !
 ! D12   D(28,2,3,7)            -5.0817         calculate D2E/DX2 analytically  !
 ! D13   D(1,2,28,29)          135.2893         calculate D2E/DX2 analytically  !
 ! D14   D(1,2,28,30)          -62.1527         calculate D2E/DX2 analytically  !
 ! D15   D(3,2,28,29)          -49.3738         calculate D2E/DX2 analytically  !
 ! D16   D(3,2,28,30)          113.1842         calculate D2E/DX2 analytically  !
 ! D17   D(2,3,6,5)              0.4836         calculate D2E/DX2 analytically  !
 ! D18   D(2,3,6,9)            173.5942         calculate D2E/DX2 analytically  !
 ! D19   D(7,3,6,5)           -173.0061         calculate D2E/DX2 analytically  !
 ! D20   D(7,3,6,9)              0.1046         calculate D2E/DX2 analytically  !
 ! D21   D(2,3,7,8)           -171.0047         calculate D2E/DX2 analytically  !
 ! D22   D(2,3,7,13)             5.6821         calculate D2E/DX2 analytically  !
 ! D23   D(6,3,7,8)              0.3436         calculate D2E/DX2 analytically  !
 ! D24   D(6,3,7,13)           177.0304         calculate D2E/DX2 analytically  !
 ! D25   D(1,4,5,6)              1.4694         calculate D2E/DX2 analytically  !
 ! D26   D(1,4,5,20)          -174.6888         calculate D2E/DX2 analytically  !
 ! D27   D(19,4,5,6)          -179.797          calculate D2E/DX2 analytically  !
 ! D28   D(19,4,5,20)            4.0448         calculate D2E/DX2 analytically  !
 ! D29   D(4,5,6,3)             -1.1768         calculate D2E/DX2 analytically  !
 ! D30   D(4,5,6,9)           -173.5511         calculate D2E/DX2 analytically  !
 ! D31   D(20,5,6,3)           175.6077         calculate D2E/DX2 analytically  !
 ! D32   D(20,5,6,9)             3.2335         calculate D2E/DX2 analytically  !
 ! D33   D(4,5,20,32)          173.5964         calculate D2E/DX2 analytically  !
 ! D34   D(4,5,20,34)           -5.1558         calculate D2E/DX2 analytically  !
 ! D35   D(6,5,20,32)           -2.5536         calculate D2E/DX2 analytically  !
 ! D36   D(6,5,20,34)          178.6942         calculate D2E/DX2 analytically  !
 ! D37   D(3,6,9,8)             -0.5225         calculate D2E/DX2 analytically  !
 ! D38   D(3,6,9,21)          -174.791          calculate D2E/DX2 analytically  !
 ! D39   D(5,6,9,8)            173.0932         calculate D2E/DX2 analytically  !
 ! D40   D(5,6,9,21)            -1.1753         calculate D2E/DX2 analytically  !
 ! D41   D(3,7,8,9)             -0.6754         calculate D2E/DX2 analytically  !
 ! D42   D(3,7,8,10)           174.7727         calculate D2E/DX2 analytically  !
 ! D43   D(13,7,8,9)          -178.3039         calculate D2E/DX2 analytically  !
 ! D44   D(13,7,8,10)           -2.8559         calculate D2E/DX2 analytically  !
 ! D45   D(3,7,13,12)         -173.4189         calculate D2E/DX2 analytically  !
 ! D46   D(3,7,13,16)            7.0253         calculate D2E/DX2 analytically  !
 ! D47   D(8,7,13,12)            3.0145         calculate D2E/DX2 analytically  !
 ! D48   D(8,7,13,16)         -176.5413         calculate D2E/DX2 analytically  !
 ! D49   D(7,8,9,6)              0.77           calculate D2E/DX2 analytically  !
 ! D50   D(7,8,9,21)           174.9427         calculate D2E/DX2 analytically  !
 ! D51   D(10,8,9,6)          -175.1737         calculate D2E/DX2 analytically  !
 ! D52   D(10,8,9,21)           -1.001          calculate D2E/DX2 analytically  !
 ! D53   D(7,8,10,11)            0.9959         calculate D2E/DX2 analytically  !
 ! D54   D(7,8,10,22)         -176.5018         calculate D2E/DX2 analytically  !
 ! D55   D(9,8,10,11)          176.1121         calculate D2E/DX2 analytically  !
 ! D56   D(9,8,10,22)           -1.3857         calculate D2E/DX2 analytically  !
 ! D57   D(6,9,21,32)           -1.7046         calculate D2E/DX2 analytically  !
 ! D58   D(6,9,21,33)          175.9585         calculate D2E/DX2 analytically  !
 ! D59   D(8,9,21,32)         -174.9471         calculate D2E/DX2 analytically  !
 ! D60   D(8,9,21,33)            2.716          calculate D2E/DX2 analytically  !
 ! D61   D(8,10,11,12)           0.5054         calculate D2E/DX2 analytically  !
 ! D62   D(8,10,11,23)        -178.6423         calculate D2E/DX2 analytically  !
 ! D63   D(22,10,11,12)        177.5876         calculate D2E/DX2 analytically  !
 ! D64   D(22,10,11,23)         -1.5601         calculate D2E/DX2 analytically  !
 ! D65   D(8,10,22,33)           1.9231         calculate D2E/DX2 analytically  !
 ! D66   D(8,10,22,37)        -179.1583         calculate D2E/DX2 analytically  !
 ! D67   D(11,10,22,33)       -175.1383         calculate D2E/DX2 analytically  !
 ! D68   D(11,10,22,37)          3.7803         calculate D2E/DX2 analytically  !
 ! D69   D(10,11,12,13)          0.0118         calculate D2E/DX2 analytically  !
 ! D70   D(10,11,12,14)       -179.4791         calculate D2E/DX2 analytically  !
 ! D71   D(23,11,12,13)        179.1845         calculate D2E/DX2 analytically  !
 ! D72   D(23,11,12,14)         -0.3065         calculate D2E/DX2 analytically  !
 ! D73   D(11,12,13,7)          -1.8772         calculate D2E/DX2 analytically  !
 ! D74   D(11,12,13,16)        177.7463         calculate D2E/DX2 analytically  !
 ! D75   D(14,12,13,7)         177.6075         calculate D2E/DX2 analytically  !
 ! D76   D(14,12,13,16)         -2.769          calculate D2E/DX2 analytically  !
 ! D77   D(11,12,14,15)       -179.2932         calculate D2E/DX2 analytically  !
 ! D78   D(11,12,14,24)          0.459          calculate D2E/DX2 analytically  !
 ! D79   D(13,12,14,15)          1.196          calculate D2E/DX2 analytically  !
 ! D80   D(13,12,14,24)       -179.0518         calculate D2E/DX2 analytically  !
 ! D81   D(7,13,16,17)        -178.2777         calculate D2E/DX2 analytically  !
 ! D82   D(12,13,16,17)          2.1579         calculate D2E/DX2 analytically  !
 ! D83   D(12,14,15,17)          1.2837         calculate D2E/DX2 analytically  !
 ! D84   D(12,14,15,27)        179.9447         calculate D2E/DX2 analytically  !
 ! D85   D(24,14,15,17)       -178.4628         calculate D2E/DX2 analytically  !
 ! D86   D(24,14,15,27)          0.1982         calculate D2E/DX2 analytically  !
 ! D87   D(14,15,17,16)         -2.0106         calculate D2E/DX2 analytically  !
 ! D88   D(14,15,17,26)        176.8966         calculate D2E/DX2 analytically  !
 ! D89   D(27,15,17,16)        179.3156         calculate D2E/DX2 analytically  !
 ! D90   D(27,15,17,26)         -1.7772         calculate D2E/DX2 analytically  !
 ! D91   D(13,16,17,15)          0.1971         calculate D2E/DX2 analytically  !
 ! D92   D(13,16,17,26)       -178.7032         calculate D2E/DX2 analytically  !
 ! D93   D(5,20,32,21)          -0.2433         calculate D2E/DX2 analytically  !
 ! D94   D(5,20,32,35)        -178.8501         calculate D2E/DX2 analytically  !
 ! D95   D(34,20,32,21)        178.513          calculate D2E/DX2 analytically  !
 ! D96   D(34,20,32,35)         -0.0938         calculate D2E/DX2 analytically  !
 ! D97   D(9,21,32,20)           2.3441         calculate D2E/DX2 analytically  !
 ! D98   D(9,21,32,35)        -179.0612         calculate D2E/DX2 analytically  !
 ! D99   D(33,21,32,20)       -174.8035         calculate D2E/DX2 analytically  !
 ! D100  D(33,21,32,35)          3.7912         calculate D2E/DX2 analytically  !
 ! D101  D(9,21,33,22)          -2.076          calculate D2E/DX2 analytically  !
 ! D102  D(9,21,33,36)         178.9426         calculate D2E/DX2 analytically  !
 ! D103  D(32,21,33,22)        175.0739         calculate D2E/DX2 analytically  !
 ! D104  D(32,21,33,36)         -3.9075         calculate D2E/DX2 analytically  !
 ! D105  D(10,22,33,21)         -0.1476         calculate D2E/DX2 analytically  !
 ! D106  D(10,22,33,36)        178.84           calculate D2E/DX2 analytically  !
 ! D107  D(37,22,33,21)       -179.0597         calculate D2E/DX2 analytically  !
 ! D108  D(37,22,33,36)         -0.0721         calculate D2E/DX2 analytically  !
 ! D109  D(2,28,29,25)         116.8289         calculate D2E/DX2 analytically  !
 ! D110  D(2,28,29,31)         -15.0737         calculate D2E/DX2 analytically  !
 ! D111  D(30,28,29,25)        -45.0909         calculate D2E/DX2 analytically  !
 ! D112  D(30,28,29,31)       -176.9935         calculate D2E/DX2 analytically  !
 --------------------------------------------------------------------------------
 Trust Radius=3.00D-01 FncErr=1.00D-07 GrdErr=1.00D-06
 Number of steps in this run=    222 maximum allowed number of steps=    222.
 Search for a saddle point of order  1.
 GradGradGradGradGradGradGradGradGradGradGradGradGradGradGradGradGradGrad

                          Input orientation:                          
 ---------------------------------------------------------------------
 Center     Atomic      Atomic             Coordinates (Angstroms)
 Number     Number       Type             X           Y           Z
 ---------------------------------------------------------------------
      1          6           0       -2.052270    3.104550   -0.228260
      2          6           0       -0.731490    2.568250   -0.096600
      3          6           0       -0.592250    1.192600    0.076900
      4          6           0       -3.202660    2.333750   -0.183310
      5          6           0       -3.099260    0.921770   -0.023260
      6          6           0       -1.797660    0.448810    0.107550
      7          6           0        0.539250    0.176930    0.088930
      8          6           0       -0.115210   -1.072550    0.117500
      9          6           0       -1.512720   -0.911820    0.139270
     10          6           0        0.432220   -2.361520    0.039670
     11          6           0        1.820390   -2.402460   -0.061060
     12          6           0        2.578540   -1.207610   -0.068860
     13          6           0        1.967610    0.130210    0.026920
     14          6           0        3.998050   -1.317990   -0.186040
     15          6           0        4.821880   -0.228320   -0.189370
     16          6           0        2.909550    1.201320    0.052510
     17          6           0        4.259620    1.068190   -0.044840
     18          1           0       -2.144810    4.176710   -0.364460
     19          1           0       -4.171640    2.810080   -0.290890
     20          6           0       -4.114360   -0.100460   -0.047730
     21          6           0       -2.450920   -1.917490    0.071530
     22          6           0       -0.526480   -3.453100    0.018380
     23          1           0        2.349740   -3.346090   -0.149330
     24          1           0        4.418480   -2.314360   -0.270590
     25          1           0        2.553860    2.519140    0.320890
     26          1           0        4.906210    1.938090    0.004780
     27          1           0        5.896060   -0.344310   -0.278960
     28          6           0        0.541880    3.297310   -0.219890
     29          6           0        1.468720    3.038800    0.707070
     30          1           0        0.787130    3.767960   -1.169720
     31          1           0        1.208010    2.524320    1.627760
     32          6           0       -3.810800   -1.452490   -0.000360
     33          6           0       -1.886850   -3.252300    0.031690
     34          1           0       -5.155580    0.195500   -0.126030
     35          1           0       -4.622460   -2.171530   -0.041420
     36          1           0       -2.546630   -4.113050   -0.004900
     37          1           0       -0.147150   -4.468790   -0.027250
 ---------------------------------------------------------------------
                    Distance matrix (angstroms):
                    1          2          3          4          5
     1  C    0.000000
     2  C    1.431577   0.000000
     3  C    2.424940   1.393522   0.000000
     4  C    1.385478   2.483785   2.860799   0.000000
     5  C    2.429556   2.884893   2.523585   1.424779   0.000000
     6  C    2.688968   2.381265   1.416748   2.368887   1.391030
     7  C    3.922696   2.714335   1.520534   4.327572   3.715660
     8  C    4.617349   3.698792   2.315193   4.607137   3.591891
     9  C    4.069081   3.574471   2.297768   3.673374   2.430139
    10  C    6.010191   5.067092   3.699013   5.942023   4.822375
    11  C    6.734435   5.587603   4.331780   6.904901   5.937583
    12  C    6.329655   5.021373   3.979468   6.780605   6.064136
    13  C    5.007120   3.639291   2.772013   5.624187   5.128573
    14  C    7.494466   6.122043   5.238612   8.073750   7.444114
    15  C    7.639599   6.218467   5.603813   8.423626   8.005920
    16  C    5.321727   3.892031   3.501896   6.220701   6.015786
    17  C    6.634784   5.211913   4.854991   7.570102   7.360368
    18  H    1.084731   2.157861   3.392662   2.132689   3.409109
    19  H    2.140646   3.454108   3.945066   1.085074   2.187999
    20  C    3.815350   4.309085   3.754037   2.602875   1.440826
    21  C    5.046750   4.806929   3.623168   4.324708   2.913885
    22  C    6.737332   6.025936   4.646534   6.378891   5.075472
    23  H    7.809909   6.669046   5.413519   7.942977   6.922581
    24  H    8.440200   7.098757   6.125923   8.927167   8.188414
    25  H    4.675543   3.312134   3.423047   5.781532   5.884539
    26  H    7.059418   5.673715   5.549236   8.120696   8.069773
    27  H    8.664477   7.241594   6.677342   9.485139   9.087581
    28  C    2.601315   1.472481   2.409178   3.866700   4.351983
    29  C    3.643698   2.389190   2.837810   4.807459   5.087400
    30  H    3.064091   2.212939   3.176355   4.352975   4.951686
    31  H    3.796169   2.595575   2.723891   4.771824   4.883299
    32  C    4.889885   5.065349   4.166717   3.839130   2.478694
    33  C    6.364313   5.935496   4.629813   5.742955   4.346932
    34  H    4.254827   5.020297   4.675400   2.896427   2.183227
    35  H    5.871780   6.132553   5.251092   4.725835   3.448039
    36  H    7.237958   6.924082   5.654751   6.482549   5.065091
    37  H    7.811873   7.061600   5.679815   7.458890   6.145983
                    6          7          8          9         10
     6  C    0.000000
     7  C    2.352746   0.000000
     8  C    2.268319   1.410792   0.000000
     9  C    1.390507   2.323465   1.406891   0.000000
    10  C    3.588165   2.541183   1.402562   2.427827   0.000000
    11  C    4.609605   2.883933   2.355226   3.656742   1.392422
    12  C    4.682518   2.469930   2.703564   4.107215   2.439257
    13  C    3.779585   1.430469   2.406860   3.634714   2.926825
    14  C    6.066138   3.778054   4.131741   5.535286   3.722236
    15  C    6.660704   4.310754   5.018142   6.379838   4.885910
    16  C    4.767298   2.582445   3.784690   4.901975   4.339488
    17  C    6.090771   3.827975   4.873219   6.105264   5.139946
    18  H    3.773665   4.838179   5.648565   5.152322   7.039379
    19  H    3.371963   5.410197   5.629940   4.594283   6.931828
    20  C    2.385982   4.663873   4.118915   2.731630   5.078525
    21  C    2.455081   3.650755   2.484266   1.377019   2.917306
    22  C    4.104723   3.783897   2.417847   2.728624   1.452965
    23  H    5.627449   3.968162   3.363950   4.574665   2.163789
    24  H    6.813112   4.624306   4.716678   6.108538   3.998594
    25  H    4.823640   3.098130   4.479457   5.323678   5.329285
    26  H    6.868070   4.709470   5.855879   7.024439   6.205195
    27  H    7.744143   5.394668   6.068186   7.442245   5.833027
    28  C    3.700624   3.135626   4.431848   4.697569   5.665841
    29  C    4.211497   3.071858   4.445180   4.981845   5.539243
    30  H    4.396512   3.813285   5.089370   5.376161   6.257724
    31  H    3.956366   2.885390   4.119377   4.628718   5.195701
    32  C    2.771158   4.646065   3.716938   2.364951   4.339488
    33  C    3.702962   4.201054   2.810228   2.372634   2.484278
    34  H    3.375552   5.698916   5.203132   3.816670   6.147302
    35  H    3.855888   5.672346   4.642016   3.360060   5.058899
    36  H    4.624302   5.285394   3.895051   3.367139   3.455921
    37  H    5.188944   4.697591   3.399473   3.813731   2.186489
                   11         12         13         14         15
    11  C    0.000000
    12  C    1.415104   0.000000
    13  C    2.538470   1.473829   0.000000
    14  C    2.435959   1.428609   2.503062   0.000000
    15  C    3.708408   2.450736   2.884819   1.366048   0.000000
    16  C    3.766483   2.434593   1.426598   2.754752   2.399871
    17  C    4.242112   2.829465   2.477552   2.404623   1.420550
    18  H    7.687675   7.168564   5.782676   8.243682   8.244375
    19  H    7.945302   7.858502   6.706198   9.154004   9.493449
    20  C    6.365582   6.783888   6.086801   8.204432   8.938277
    21  C    4.300798   5.081251   4.870161   6.481895   7.470943
    22  C    2.572538   3.832882   4.365853   5.007180   6.248786
    23  H    1.085560   2.152190   3.501678   2.613707   3.979142
    24  H    2.608014   2.156611   3.474363   1.084741   2.126239
    25  H    4.990592   3.747156   2.477316   4.131129   3.599002
    26  H    5.326067   3.913937   3.450259   3.385738   2.176726
    27  H    4.571055   3.434439   3.968810   2.135212   1.084132
    28  C    5.843560   4.946221   3.481974   5.766043   5.545214
    29  C    5.506451   4.457103   3.028430   5.116324   4.766693
    30  H    6.353805   5.401605   4.007331   6.094631   5.762859
    31  H    5.244071   4.322519   2.978497   5.083064   4.892754
    32  C    5.711079   6.394398   5.991302   7.812215   8.721094
    33  C    3.804531   4.912288   5.128183   6.198468   7.362091
    34  H    7.444312   7.860572   7.125131   9.278103   9.986658
    35  H    6.447017   7.265280   6.980809   8.663870   9.643314
    36  H    4.690430   5.891777   6.195533   7.118849   8.331872
    37  H    2.853432   4.250460   5.062208   5.209169   6.534457
                   16         17         18         19         20
    16  C    0.000000
    17  C    1.360106   0.000000
    18  H    5.879912   7.126133   0.000000
    19  H    7.269751   8.612832   2.445635   0.000000
    20  C    7.144228   8.455134   4.719494   2.921241   0.000000
    21  C    6.201772   7.345691   6.117439   5.044021   2.466344
    22  C    5.785421   6.584285   7.808941   7.253293   4.910952
    23  H    4.586182   4.810866   8.765830   8.969218   7.233880
    24  H    3.839436   3.393795   9.231445  10.002523   8.818185
    25  H    1.391112   2.269060   5.029388   6.759532   7.173796
    26  H    2.128793   1.085019   7.407067   9.124426   9.248196
    27  H    3.379066   2.174374   9.225103  10.550303  10.016059
    28  C    3.173836   4.338342   2.830644   4.739167   5.766719
    29  C    2.425030   3.498256   3.937082   5.732530   6.449454
    30  H    3.547697   4.540077   3.067864   5.126332   6.344142
    31  H    2.669640   3.772298   4.235651   5.718698   6.166389
    32  C    7.225552   8.455027   5.881835   4.287670   1.386498
    33  C    6.545274   7.513427   7.444036   6.486661   3.860337
    34  H    8.129568   9.455907   4.997161   2.798454   1.085294
    35  H    8.253249   9.454477   6.822262   5.008185   2.132495
    36  H    7.616805   8.554056   8.307278   7.117034   4.308189
    37  H    6.442043   7.076587   8.879697   8.321537   5.900973
                   21         22         23         24         25
    21  C    0.000000
    22  C    2.462599   0.000000
    23  H    5.013583   2.883092   0.000000
    24  H    6.889355   5.082604   2.314920   0.000000
    25  H    6.692809   6.726638   5.887588   5.214344   0.000000
    26  H    8.306462   7.653707   5.872125   4.289177   2.443582
    27  H    8.501165   7.141569   4.647997   2.462602   4.441786
    28  C    6.019628   6.838582   6.885354   6.820663   2.223973
    29  C    6.350772   6.826411   6.502033   6.189768   1.263610
    30  H    6.659580   7.435110   7.354771   7.140711   2.627319
    31  H    5.961484   6.428694   6.238855   6.109310   1.875966
    32  C    1.438981   3.845718   6.446717   8.278701   7.509057
    33  C    1.449648   1.375174   4.241493   6.381872   7.287871
    34  H    3.437869   5.895906   8.298990   9.898632   8.064397
    35  H    2.189265   4.292208   7.071266   9.044972   8.580980
    36  H    2.198974   2.125343   4.958178   7.198516   8.372997
    37  H    3.438931   1.085173   2.740405   5.054281   7.499855
                   26         27         28         29         30
    26  H    0.000000
    27  H    2.503929   0.000000
    28  C    4.576607   6.475502   0.000000
    29  C    3.677106   5.658536   1.336082   0.000000
    30  H    4.657756   6.618564   1.088042   2.125695   0.000000
    31  H    4.080982   5.817425   2.110700   1.086430   3.090255
    32  C    9.353199   9.773884   6.446287   6.967458   7.054180
    33  C    8.549066   8.314241   6.989951   7.161978   7.607733
    34  H   10.212412  11.065872   6.487764   7.256705   7.011958
    35  H   10.377218  10.678690   7.523993   8.050481   8.112599
    36  H    9.600063   9.249731   8.031099   8.232794   8.636034
    37  H    8.159999   7.320866   7.798986   7.714543   8.367925
                   31         32         33         34         35
    31  H    0.000000
    32  C    6.607136   0.000000
    33  C    6.744993   2.634754   0.000000
    34  H    6.999604   2.130750   4.753609   0.000000
    35  H    7.670173   1.085125   2.942273   2.427799   0.000000
    36  H    7.798563   2.945628   1.085145   5.038343   2.842517
    37  H    7.312941   4.745642   2.123647   6.844686   5.030507
                   36         37
    36  H    0.000000
    37  H    2.425810   0.000000
 Stoichiometry    C24H13(2)
 Framework group  C1[X(C24H13)]
 Deg. of freedom   105
 Full point group                 C1      NOp   1
 Largest Abelian subgroup         C1      NOp   1
 Largest concise Abelian subgroup C1      NOp   1
                         Standard orientation:                         
 ---------------------------------------------------------------------
 Center     Atomic      Atomic             Coordinates (Angstroms)
 Number     Number       Type             X           Y           Z
 ---------------------------------------------------------------------
      1          6           0       -2.052269    3.104551   -0.228259
      2          6           0       -0.731489    2.568250   -0.096599
      3          6           0       -0.592249    1.192600    0.076901
      4          6           0       -3.202659    2.333751   -0.183309
      5          6           0       -3.099259    0.921771   -0.023259
      6          6           0       -1.797659    0.448810    0.107551
      7          6           0        0.539251    0.176930    0.088931
      8          6           0       -0.115209   -1.072550    0.117501
      9          6           0       -1.512719   -0.911820    0.139271
     10          6           0        0.432220   -2.361520    0.039671
     11          6           0        1.820390   -2.402460   -0.061059
     12          6           0        2.578541   -1.207610   -0.068859
     13          6           0        1.967611    0.130210    0.026921
     14          6           0        3.998051   -1.317990   -0.186039
     15          6           0        4.821881   -0.228320   -0.189369
     16          6           0        2.909551    1.201320    0.052511
     17          6           0        4.259621    1.068190   -0.044839
     18          1           0       -2.144809    4.176711   -0.364459
     19          1           0       -4.171639    2.810081   -0.290889
     20          6           0       -4.114359   -0.100459   -0.047729
     21          6           0       -2.450920   -1.917489    0.071531
     22          6           0       -0.526480   -3.453100    0.018381
     23          1           0        2.349740   -3.346090   -0.149329
     24          1           0        4.418480   -2.314360   -0.270589
     25          1           0        2.553861    2.519140    0.320891
     26          1           0        4.906211    1.938090    0.004781
     27          1           0        5.896061   -0.344310   -0.278959
     28          6           0        0.541881    3.297310   -0.219889
     29          6           0        1.468721    3.038800    0.707071
     30          1           0        0.787131    3.767960   -1.169719
     31          1           0        1.208011    2.524320    1.627761
     32          6           0       -3.810800   -1.452489   -0.000359
     33          6           0       -1.886850   -3.252299    0.031691
     34          1           0       -5.155579    0.195501   -0.126029
     35          1           0       -4.622460   -2.171529   -0.041419
     36          1           0       -2.546630   -4.113049   -0.004899
     37          1           0       -0.147150   -4.468790   -0.027249
 ---------------------------------------------------------------------
 Rotational constants (GHZ):      0.4106876      0.2480879      0.1560098
 Standard basis: 6-311+G(d,p) (5D, 7F)
 There are   630 symmetry adapted cartesian basis functions of A   symmetry.
 There are   606 symmetry adapted basis functions of A   symmetry.
   606 basis functions,   968 primitive gaussians,   630 cartesian basis functions
    79 alpha electrons       78 beta electrons
       nuclear repulsion energy      1822.4095880901 Hartrees.
 NAtoms=   37 NActive=   37 NUniq=   37 SFac= 1.00D+00 NAtFMM=   60 NAOKFM=F Big=F
 Integral buffers will be    131072 words long.
 Raffenetti 2 integral format.
 Two-electron integral symmetry is turned on.
 One-electron integrals computed using PRISM.
 NBasis=   606 RedAO= T EigKep=  1.54D-06  NBF=   606
 NBsUse=   590 1.00D-06 EigRej=  8.21D-07 NBFU=   590
 ExpMin= 4.38D-02 ExpMax= 4.56D+03 ExpMxC= 6.82D+02 IAcc=2 IRadAn=         4 AccDes= 0.00D+00
 Harris functional with IExCor=  402 and IRadAn=       4 diagonalized for initial guess.
 HarFok:  IExCor=  402 AccDes= 0.00D+00 IRadAn=         4 IDoV= 1 UseB2=F ITyADJ=14
 ICtDFT=  3500011 ScaDFX=  1.000000  1.000000  1.000000  1.000000
 FoFCou: FMM=F IPFlag=           0 FMFlag=      100000 FMFlg1=           0
         NFxFlg=           0 DoJE=T BraDBF=F KetDBF=T FulRan=T
         wScrn=  0.000000 ICntrl=     500 IOpCl=  0 I1Cent=   200000004 NGrid=           0
         NMat0=    1 NMatS0=      1 NMatT0=    0 NMatD0=    1 NMtDS0=    0 NMtDT0=    0
 Petite list used in FoFCou.
 Initial guess <Sx>= 0.0000 <Sy>= 0.0000 <Sz>= 0.5000 <S**2>= 0.7500 S= 0.5000
 Requested convergence on RMS density matrix=1.00D-08 within 128 cycles.
 Requested convergence on MAX density matrix=1.00D-06.
 Requested convergence on             energy=1.00D-06.
 No special actions if energy rises.
 Restarting incremental Fock formation.
 SCF Done:  E(UB3LYP) =  -922.460320553     A.U. after   25 cycles
            NFock= 25  Conv=0.97D-08     -V/T= 2.0044
 <Sx>= 0.0000 <Sy>= 0.0000 <Sz>= 0.5000 <S**2>= 0.7621 S= 0.5060
 <L.S>= 0.000000000000E+00
 Annihilation of the first spin contaminant:
 S**2 before annihilation     0.7621,   after     0.7501
 DoSCS=F DFT=T ScalE2(SS,OS)=  1.000000  1.000000
 Range of M.O.s used for correlation:     1   590
 NBasis=   606 NAE=    79 NBE=    78 NFC=     0 NFV=     0
 NROrb=    590 NOA=    79 NOB=    78 NVA=   511 NVB=   512

 **** Warning!!: The largest alpha MO coefficient is  0.13881500D+03


 **** Warning!!: The largest beta MO coefficient is  0.13937575D+03

 Symmetrizing basis deriv contribution to polar:
 IMax=3 JMax=2 DiffMx= 0.00D+00
 G2DrvN: will do    38 centers at a time, making    1 passes.
 Calling FoFCou, ICntrl=  3107 FMM=F I1Cent=   0 AccDes= 0.00D+00.
 End of G2Drv F.D. properties file   721 does not exist.
 End of G2Drv F.D. properties file   722 does not exist.
 End of G2Drv F.D. properties file   788 does not exist.
          IDoAtm=1111111111111111111111111111111111111
          Differentiating once with respect to nuclear coordinates.
          There are   114 degrees of freedom in the 1st order CPHF.  IDoFFX=6 NUNeed=     0.
    108 vectors produced by pass  0 Test12= 8.03D-14 1.00D-09 XBig12= 5.22D-01 1.24D-01.
 AX will form   108 AO Fock derivatives at one time.
    108 vectors produced by pass  1 Test12= 8.03D-14 1.00D-09 XBig12= 1.08D-01 4.18D-02.
    108 vectors produced by pass  2 Test12= 8.03D-14 1.00D-09 XBig12= 1.76D-03 5.85D-03.
    108 vectors produced by pass  3 Test12= 8.03D-14 1.00D-09 XBig12= 1.97D-05 4.95D-04.
    108 vectors produced by pass  4 Test12= 8.03D-14 1.00D-09 XBig12= 1.91D-07 3.96D-05.
    108 vectors produced by pass  5 Test12= 8.03D-14 1.00D-09 XBig12= 1.28D-09 3.45D-06.
    108 vectors produced by pass  6 Test12= 8.03D-14 1.00D-09 XBig12= 3.50D-11 4.02D-07.
    108 vectors produced by pass  7 Test12= 8.03D-14 1.00D-09 XBig12= 5.66D-12 1.44D-07.
     97 vectors produced by pass  8 Test12= 8.03D-14 1.00D-09 XBig12= 5.56D-13 5.04D-08.
     43 vectors produced by pass  9 Test12= 8.03D-14 1.00D-09 XBig12= 3.69D-15 3.25D-09.
     25 vectors produced by pass 10 Test12= 8.03D-14 1.00D-09 XBig12= 6.72D-16 1.55D-09.
     25 vectors produced by pass 11 Test12= 8.03D-14 1.00D-09 XBig12= 1.03D-13 2.48D-08.
     25 vectors produced by pass 12 Test12= 8.03D-14 1.00D-09 XBig12= 7.41D-13 5.08D-08.
     25 vectors produced by pass 13 Test12= 8.03D-14 1.00D-09 XBig12= 4.88D-13 3.29D-08.
     25 vectors produced by pass 14 Test12= 8.03D-14 1.00D-09 XBig12= 2.43D-13 2.45D-08.
     25 vectors produced by pass 15 Test12= 8.03D-14 1.00D-09 XBig12= 1.54D-13 2.14D-08.
     25 vectors produced by pass 16 Test12= 8.03D-14 1.00D-09 XBig12= 8.76D-14 1.40D-08.
     25 vectors produced by pass 17 Test12= 8.03D-14 1.00D-09 XBig12= 1.19D-13 1.79D-08.
     25 vectors produced by pass 18 Test12= 8.03D-14 1.00D-09 XBig12= 7.73D-14 1.17D-08.
     25 vectors produced by pass 19 Test12= 8.03D-14 1.00D-09 XBig12= 7.28D-14 1.36D-08.
     25 vectors produced by pass 20 Test12= 8.03D-14 1.00D-09 XBig12= 8.45D-14 1.42D-08.
     25 vectors produced by pass 21 Test12= 8.03D-14 1.00D-09 XBig12= 1.31D-13 1.64D-08.
     25 vectors produced by pass 22 Test12= 8.03D-14 1.00D-09 XBig12= 7.19D-14 1.29D-08.
     25 vectors produced by pass 23 Test12= 8.03D-14 1.00D-09 XBig12= 7.23D-14 1.22D-08.
     25 vectors produced by pass 24 Test12= 8.03D-14 1.00D-09 XBig12= 8.22D-14 1.28D-08.
     25 vectors produced by pass 25 Test12= 8.03D-14 1.00D-09 XBig12= 1.10D-13 1.60D-08.
     25 vectors produced by pass 26 Test12= 8.03D-14 1.00D-09 XBig12= 7.96D-14 1.19D-08.
     25 vectors produced by pass 27 Test12= 8.03D-14 1.00D-09 XBig12= 1.29D-13 1.54D-08.
     25 vectors produced by pass 28 Test12= 8.03D-14 1.00D-09 XBig12= 5.36D-14 9.80D-09.
     25 vectors produced by pass 29 Test12= 8.03D-14 1.00D-09 XBig12= 7.65D-14 9.85D-09.
     25 vectors produced by pass 30 Test12= 8.03D-14 1.00D-09 XBig12= 6.77D-14 1.24D-08.
     25 vectors produced by pass 31 Test12= 8.03D-14 1.00D-09 XBig12= 7.96D-14 1.13D-08.
     24 vectors produced by pass 32 Test12= 8.03D-14 1.00D-09 XBig12= 3.67D-14 7.88D-09.
     24 vectors produced by pass 33 Test12= 8.03D-14 1.00D-09 XBig12= 1.18D-13 1.31D-08.
     24 vectors produced by pass 34 Test12= 8.03D-14 1.00D-09 XBig12= 4.13D-14 7.88D-09.
     24 vectors produced by pass 35 Test12= 8.03D-14 1.00D-09 XBig12= 6.92D-14 1.05D-08.
     24 vectors produced by pass 36 Test12= 8.03D-14 1.00D-09 XBig12= 8.95D-14 1.17D-08.
     23 vectors produced by pass 37 Test12= 8.03D-14 1.00D-09 XBig12= 2.63D-14 6.58D-09.
     23 vectors produced by pass 38 Test12= 8.03D-14 1.00D-09 XBig12= 5.46D-14 9.22D-09.
     23 vectors produced by pass 39 Test12= 8.03D-14 1.00D-09 XBig12= 4.13D-14 7.56D-09.
     23 vectors produced by pass 40 Test12= 8.03D-14 1.00D-09 XBig12= 6.52D-14 1.14D-08.
     17 vectors produced by pass 41 Test12= 8.03D-14 1.00D-09 XBig12= 2.11D-14 6.27D-09.
     17 vectors produced by pass 42 Test12= 8.03D-14 1.00D-09 XBig12= 4.66D-14 8.73D-09.
     17 vectors produced by pass 43 Test12= 8.03D-14 1.00D-09 XBig12= 4.39D-14 8.79D-09.
     17 vectors produced by pass 44 Test12= 8.03D-14 1.00D-09 XBig12= 4.63D-14 8.21D-09.
     17 vectors produced by pass 45 Test12= 8.03D-14 1.00D-09 XBig12= 2.46D-14 7.24D-09.
     17 vectors produced by pass 46 Test12= 8.03D-14 1.00D-09 XBig12= 5.20D-14 8.39D-09.
     14 vectors produced by pass 47 Test12= 8.03D-14 1.00D-09 XBig12= 1.44D-14 4.79D-09.
     14 vectors produced by pass 48 Test12= 8.03D-14 1.00D-09 XBig12= 2.86D-14 6.75D-09.
     14 vectors produced by pass 49 Test12= 8.03D-14 1.00D-09 XBig12= 6.69D-14 9.78D-09.
     14 vectors produced by pass 50 Test12= 8.03D-14 1.00D-09 XBig12= 4.86D-14 9.75D-09.
     14 vectors produced by pass 51 Test12= 8.03D-14 1.00D-09 XBig12= 4.36D-14 7.86D-09.
     14 vectors produced by pass 52 Test12= 8.03D-14 1.00D-09 XBig12= 4.18D-14 8.10D-09.
     14 vectors produced by pass 53 Test12= 8.03D-14 1.00D-09 XBig12= 3.98D-14 7.34D-09.
     14 vectors produced by pass 54 Test12= 8.03D-14 1.00D-09 XBig12= 4.59D-14 7.58D-09.
     13 vectors produced by pass 55 Test12= 8.03D-14 1.00D-09 XBig12= 2.98D-14 6.12D-09.
     13 vectors produced by pass 56 Test12= 8.03D-14 1.00D-09 XBig12= 6.08D-14 1.01D-08.
     13 vectors produced by pass 57 Test12= 8.03D-14 1.00D-09 XBig12= 2.67D-14 6.99D-09.
     13 vectors produced by pass 58 Test12= 8.03D-14 1.00D-09 XBig12= 5.80D-14 8.38D-09.
     12 vectors produced by pass 59 Test12= 8.03D-14 1.00D-09 XBig12= 3.13D-14 6.01D-09.
     10 vectors produced by pass 60 Test12= 8.03D-14 1.00D-09 XBig12= 2.63D-14 6.43D-09.
     10 vectors produced by pass 61 Test12= 8.03D-14 1.00D-09 XBig12= 4.45D-14 7.35D-09.
     10 vectors produced by pass 62 Test12= 8.03D-14 1.00D-09 XBig12= 4.41D-14 6.56D-09.
      6 vectors produced by pass 63 Test12= 8.03D-14 1.00D-09 XBig12= 9.95D-15 3.28D-09.
      6 vectors produced by pass 64 Test12= 8.03D-14 1.00D-09 XBig12= 2.45D-14 5.16D-09.
      6 vectors produced by pass 65 Test12= 8.03D-14 1.00D-09 XBig12= 1.72D-14 4.68D-09.
      6 vectors produced by pass 66 Test12= 8.03D-14 1.00D-09 XBig12= 3.73D-14 7.10D-09.
      6 vectors produced by pass 67 Test12= 8.03D-14 1.00D-09 XBig12= 2.48D-14 6.85D-09.
      6 vectors produced by pass 68 Test12= 8.03D-14 1.00D-09 XBig12= 2.17D-14 5.03D-09.
      6 vectors produced by pass 69 Test12= 8.03D-14 1.00D-09 XBig12= 1.69D-14 4.57D-09.
      6 vectors produced by pass 70 Test12= 8.03D-14 1.00D-09 XBig12= 4.13D-14 6.16D-09.
      6 vectors produced by pass 71 Test12= 8.03D-14 1.00D-09 XBig12= 2.93D-14 6.13D-09.
      6 vectors produced by pass 72 Test12= 8.03D-14 1.00D-09 XBig12= 4.12D-14 6.88D-09.
      6 vectors produced by pass 73 Test12= 8.03D-14 1.00D-09 XBig12= 1.66D-14 4.83D-09.
      6 vectors produced by pass 74 Test12= 8.03D-14 1.00D-09 XBig12= 1.83D-14 4.86D-09.
      6 vectors produced by pass 75 Test12= 8.03D-14 1.00D-09 XBig12= 1.51D-14 4.66D-09.
      6 vectors produced by pass 76 Test12= 8.03D-14 1.00D-09 XBig12= 4.58D-14 6.77D-09.
      6 vectors produced by pass 77 Test12= 8.03D-14 1.00D-09 XBig12= 3.21D-14 6.66D-09.
      6 vectors produced by pass 78 Test12= 8.03D-14 1.00D-09 XBig12= 1.91D-14 4.93D-09.
      6 vectors produced by pass 79 Test12= 8.03D-14 1.00D-09 XBig12= 3.44D-14 7.49D-09.
      6 vectors produced by pass 80 Test12= 8.03D-14 1.00D-09 XBig12= 1.49D-14 5.07D-09.
      6 vectors produced by pass 81 Test12= 8.03D-14 1.00D-09 XBig12= 2.27D-14 5.38D-09.
      6 vectors produced by pass 82 Test12= 8.03D-14 1.00D-09 XBig12= 1.24D-14 4.39D-09.
      6 vectors produced by pass 83 Test12= 8.03D-14 1.00D-09 XBig12= 3.86D-14 6.75D-09.
      6 vectors produced by pass 84 Test12= 8.03D-14 1.00D-09 XBig12= 2.32D-14 4.82D-09.
      6 vectors produced by pass 85 Test12= 8.03D-14 1.00D-09 XBig12= 2.01D-14 5.22D-09.
      6 vectors produced by pass 86 Test12= 8.03D-14 1.00D-09 XBig12= 2.52D-14 5.30D-09.
      6 vectors produced by pass 87 Test12= 8.03D-14 1.00D-09 XBig12= 2.00D-14 4.71D-09.
      6 vectors produced by pass 88 Test12= 8.03D-14 1.00D-09 XBig12= 2.26D-14 4.80D-09.
      6 vectors produced by pass 89 Test12= 8.03D-14 1.00D-09 XBig12= 2.50D-14 5.55D-09.
      6 vectors produced by pass 90 Test12= 8.03D-14 1.00D-09 XBig12= 2.59D-14 5.27D-09.
      6 vectors produced by pass 91 Test12= 8.03D-14 1.00D-09 XBig12= 2.15D-14 5.71D-09.
      5 vectors produced by pass 92 Test12= 8.03D-14 1.00D-09 XBig12= 1.14D-14 3.53D-09.
      5 vectors produced by pass 93 Test12= 8.03D-14 1.00D-09 XBig12= 3.27D-14 7.03D-09.
      5 vectors produced by pass 94 Test12= 8.03D-14 1.00D-09 XBig12= 2.43D-14 5.75D-09.
      5 vectors produced by pass 95 Test12= 8.03D-14 1.00D-09 XBig12= 2.06D-14 5.96D-09.
      5 vectors produced by pass 96 Test12= 8.03D-14 1.00D-09 XBig12= 1.83D-14 4.99D-09.
      5 vectors produced by pass 97 Test12= 8.03D-14 1.00D-09 XBig12= 7.99D-15 3.14D-09.
      5 vectors produced by pass 98 Test12= 8.03D-14 1.00D-09 XBig12= 9.19D-15 3.52D-09.
      5 vectors produced by pass 99 Test12= 8.03D-14 1.00D-09 XBig12= 2.03D-14 4.87D-09.
      5 vectors produced by pass100 Test12= 8.03D-14 1.00D-09 XBig12= 2.15D-14 4.88D-09.
      5 vectors produced by pass101 Test12= 8.03D-14 1.00D-09 XBig12= 1.49D-14 5.17D-09.
      5 vectors produced by pass102 Test12= 8.03D-14 1.00D-09 XBig12= 1.94D-14 4.89D-09.
      5 vectors produced by pass103 Test12= 8.03D-14 1.00D-09 XBig12= 3.04D-14 5.81D-09.
      5 vectors produced by pass104 Test12= 8.03D-14 1.00D-09 XBig12= 1.52D-14 3.74D-09.
      5 vectors produced by pass105 Test12= 8.03D-14 1.00D-09 XBig12= 1.46D-14 4.23D-09.
      5 vectors produced by pass106 Test12= 8.03D-14 1.00D-09 XBig12= 1.65D-14 4.10D-09.
      5 vectors produced by pass107 Test12= 8.03D-14 1.00D-09 XBig12= 2.91D-14 5.74D-09.
      5 vectors produced by pass108 Test12= 8.03D-14 1.00D-09 XBig12= 1.46D-14 3.98D-09.
      5 vectors produced by pass109 Test12= 8.03D-14 1.00D-09 XBig12= 1.64D-14 4.50D-09.
      5 vectors produced by pass110 Test12= 8.03D-14 1.00D-09 XBig12= 1.72D-14 4.33D-09.
      5 vectors produced by pass111 Test12= 8.03D-14 1.00D-09 XBig12= 1.15D-14 4.09D-09.
      5 vectors produced by pass112 Test12= 8.03D-14 1.00D-09 XBig12= 1.21D-14 3.52D-09.
      5 vectors produced by pass113 Test12= 8.03D-14 1.00D-09 XBig12= 1.35D-14 4.29D-09.
      5 vectors produced by pass114 Test12= 8.03D-14 1.00D-09 XBig12= 1.98D-14 4.65D-09.
      5 vectors produced by pass115 Test12= 8.03D-14 1.00D-09 XBig12= 1.89D-14 4.56D-09.
      5 vectors produced by pass116 Test12= 8.03D-14 1.00D-09 XBig12= 1.92D-14 4.46D-09.
      5 vectors produced by pass117 Test12= 8.03D-14 1.00D-09 XBig12= 1.24D-14 3.75D-09.
      5 vectors produced by pass118 Test12= 8.03D-14 1.00D-09 XBig12= 2.37D-14 4.69D-09.
      5 vectors produced by pass119 Test12= 8.03D-14 1.00D-09 XBig12= 1.05D-14 3.21D-09.
      5 vectors produced by pass120 Test12= 8.03D-14 1.00D-09 XBig12= 1.84D-14 5.40D-09.
      5 vectors produced by pass121 Test12= 8.03D-14 1.00D-09 XBig12= 2.55D-14 5.64D-09.
      5 vectors produced by pass122 Test12= 8.03D-14 1.00D-09 XBig12= 1.31D-14 3.76D-09.
      5 vectors produced by pass123 Test12= 8.03D-14 1.00D-09 XBig12= 2.04D-14 4.68D-09.
      5 vectors produced by pass124 Test12= 8.03D-14 1.00D-09 XBig12= 9.26D-15 3.18D-09.
      5 vectors produced by pass125 Test12= 8.03D-14 1.00D-09 XBig12= 1.21D-14 4.21D-09.
      5 vectors produced by pass126 Test12= 8.03D-14 1.00D-09 XBig12= 1.25D-14 3.87D-09.
      5 vectors produced by pass127 Test12= 8.03D-14 1.00D-09 XBig12= 9.07D-15 3.57D-09.
      5 vectors produced by pass128 Test12= 8.03D-14 1.00D-09 XBig12= 1.58D-14 4.56D-09.
      5 vectors produced by pass129 Test12= 8.03D-14 1.00D-09 XBig12= 1.86D-14 4.99D-09.
      5 vectors produced by pass130 Test12= 8.03D-14 1.00D-09 XBig12= 1.35D-14 4.16D-09.
      5 vectors produced by pass131 Test12= 8.03D-14 1.00D-09 XBig12= 1.28D-14 4.40D-09.
      5 vectors produced by pass132 Test12= 8.03D-14 1.00D-09 XBig12= 1.32D-14 3.89D-09.
      5 vectors produced by pass133 Test12= 8.03D-14 1.00D-09 XBig12= 9.37D-15 3.18D-09.
      5 vectors produced by pass134 Test12= 8.03D-14 1.00D-09 XBig12= 1.02D-14 3.51D-09.
      5 vectors produced by pass135 Test12= 8.03D-14 1.00D-09 XBig12= 1.63D-14 4.26D-09.
      5 vectors produced by pass136 Test12= 8.03D-14 1.00D-09 XBig12= 8.79D-15 3.73D-09.
      5 vectors produced by pass137 Test12= 8.03D-14 1.00D-09 XBig12= 8.38D-15 3.57D-09.
      5 vectors produced by pass138 Test12= 8.03D-14 1.00D-09 XBig12= 5.66D-15 2.42D-09.
      5 vectors produced by pass139 Test12= 8.03D-14 1.00D-09 XBig12= 6.51D-15 2.50D-09.
      5 vectors produced by pass140 Test12= 8.03D-14 1.00D-09 XBig12= 1.72D-14 5.09D-09.
      5 vectors produced by pass141 Test12= 8.03D-14 1.00D-09 XBig12= 1.02D-14 3.15D-09.
      5 vectors produced by pass142 Test12= 8.03D-14 1.00D-09 XBig12= 1.38D-14 5.11D-09.
      5 vectors produced by pass143 Test12= 8.03D-14 1.00D-09 XBig12= 1.28D-14 3.69D-09.
      5 vectors produced by pass144 Test12= 8.03D-14 1.00D-09 XBig12= 8.40D-15 3.40D-09.
      5 vectors produced by pass145 Test12= 8.03D-14 1.00D-09 XBig12= 8.11D-15 3.44D-09.
      5 vectors produced by pass146 Test12= 8.03D-14 1.00D-09 XBig12= 1.12D-14 4.01D-09.
      5 vectors produced by pass147 Test12= 8.03D-14 1.00D-09 XBig12= 9.97D-15 3.43D-09.
      5 vectors produced by pass148 Test12= 8.03D-14 1.00D-09 XBig12= 1.59D-14 4.17D-09.
      5 vectors produced by pass149 Test12= 8.03D-14 1.00D-09 XBig12= 1.04D-14 3.63D-09.
      5 vectors produced by pass150 Test12= 8.03D-14 1.00D-09 XBig12= 1.21D-14 4.05D-09.
      5 vectors produced by pass151 Test12= 8.03D-14 1.00D-09 XBig12= 6.59D-15 2.96D-09.
      5 vectors produced by pass152 Test12= 8.03D-14 1.00D-09 XBig12= 1.26D-14 4.08D-09.
      5 vectors produced by pass153 Test12= 8.03D-14 1.00D-09 XBig12= 8.05D-15 3.20D-09.
      5 vectors produced by pass154 Test12= 8.03D-14 1.00D-09 XBig12= 1.09D-14 3.79D-09.
      5 vectors produced by pass155 Test12= 8.03D-14 1.00D-09 XBig12= 8.56D-15 3.43D-09.
      5 vectors produced by pass156 Test12= 8.03D-14 1.00D-09 XBig12= 8.51D-15 3.33D-09.
      5 vectors produced by pass157 Test12= 8.03D-14 1.00D-09 XBig12= 1.06D-14 4.02D-09.
      5 vectors produced by pass158 Test12= 8.03D-14 1.00D-09 XBig12= 1.25D-14 3.92D-09.
      5 vectors produced by pass159 Test12= 8.03D-14 1.00D-09 XBig12= 8.60D-15 2.81D-09.
      5 vectors produced by pass160 Test12= 8.03D-14 1.00D-09 XBig12= 1.36D-14 3.93D-09.
      5 vectors produced by pass161 Test12= 8.03D-14 1.00D-09 XBig12= 9.70D-15 3.76D-09.
      5 vectors produced by pass162 Test12= 8.03D-14 1.00D-09 XBig12= 1.36D-14 3.86D-09.
      5 vectors produced by pass163 Test12= 8.03D-14 1.00D-09 XBig12= 8.47D-15 3.35D-09.
      5 vectors produced by pass164 Test12= 8.03D-14 1.00D-09 XBig12= 1.28D-14 4.08D-09.
      5 vectors produced by pass165 Test12= 8.03D-14 1.00D-09 XBig12= 5.66D-15 3.07D-09.
      5 vectors produced by pass166 Test12= 8.03D-14 1.00D-09 XBig12= 9.22D-15 3.01D-09.
      5 vectors produced by pass167 Test12= 8.03D-14 1.00D-09 XBig12= 8.48D-15 3.09D-09.
      5 vectors produced by pass168 Test12= 8.03D-14 1.00D-09 XBig12= 9.46D-15 3.51D-09.
      5 vectors produced by pass169 Test12= 8.03D-14 1.00D-09 XBig12= 1.12D-14 3.85D-09.
      5 vectors produced by pass170 Test12= 8.03D-14 1.00D-09 XBig12= 7.91D-15 2.80D-09.
      5 vectors produced by pass171 Test12= 8.03D-14 1.00D-09 XBig12= 1.51D-14 4.07D-09.
      5 vectors produced by pass172 Test12= 8.03D-14 1.00D-09 XBig12= 6.12D-15 2.93D-09.
      5 vectors produced by pass173 Test12= 8.03D-14 1.00D-09 XBig12= 1.33D-14 3.84D-09.
      5 vectors produced by pass174 Test12= 8.03D-14 1.00D-09 XBig12= 1.31D-14 3.88D-09.
      5 vectors produced by pass175 Test12= 8.03D-14 1.00D-09 XBig12= 5.70D-15 2.34D-09.
      5 vectors produced by pass176 Test12= 8.03D-14 1.00D-09 XBig12= 1.16D-14 3.37D-09.
      5 vectors produced by pass177 Test12= 8.03D-14 1.00D-09 XBig12= 6.47D-15 2.70D-09.
      5 vectors produced by pass178 Test12= 8.03D-14 1.00D-09 XBig12= 1.41D-14 3.90D-09.
      5 vectors produced by pass179 Test12= 8.03D-14 1.00D-09 XBig12= 7.20D-15 2.81D-09.
      5 vectors produced by pass180 Test12= 8.03D-14 1.00D-09 XBig12= 7.84D-15 3.17D-09.
      5 vectors produced by pass181 Test12= 8.03D-14 1.00D-09 XBig12= 1.05D-14 3.62D-09.
      5 vectors produced by pass182 Test12= 8.03D-14 1.00D-09 XBig12= 1.04D-14 4.25D-09.
      5 vectors produced by pass183 Test12= 8.03D-14 1.00D-09 XBig12= 5.88D-15 2.39D-09.
      5 vectors produced by pass184 Test12= 8.03D-14 1.00D-09 XBig12= 9.27D-15 3.01D-09.
      5 vectors produced by pass185 Test12= 8.03D-14 1.00D-09 XBig12= 1.70D-14 4.47D-09.
      5 vectors produced by pass186 Test12= 8.03D-14 1.00D-09 XBig12= 7.85D-15 3.65D-09.
      5 vectors produced by pass187 Test12= 8.03D-14 1.00D-09 XBig12= 1.36D-14 4.45D-09.
      5 vectors produced by pass188 Test12= 8.03D-14 1.00D-09 XBig12= 6.48D-15 2.94D-09.
      5 vectors produced by pass189 Test12= 8.03D-14 1.00D-09 XBig12= 9.97D-15 3.83D-09.
      5 vectors produced by pass190 Test12= 8.03D-14 1.00D-09 XBig12= 1.38D-14 3.79D-09.
      5 vectors produced by pass191 Test12= 8.03D-14 1.00D-09 XBig12= 8.24D-15 3.16D-09.
      5 vectors produced by pass192 Test12= 8.03D-14 1.00D-09 XBig12= 7.39D-15 2.97D-09.
      5 vectors produced by pass193 Test12= 8.03D-14 1.00D-09 XBig12= 6.56D-15 2.93D-09.
      5 vectors produced by pass194 Test12= 8.03D-14 1.00D-09 XBig12= 8.28D-15 3.26D-09.
      5 vectors produced by pass195 Test12= 8.03D-14 1.00D-09 XBig12= 1.22D-14 3.84D-09.
      5 vectors produced by pass196 Test12= 8.03D-14 1.00D-09 XBig12= 1.10D-14 3.90D-09.
      5 vectors produced by pass197 Test12= 8.03D-14 1.00D-09 XBig12= 1.40D-14 4.06D-09.
      5 vectors produced by pass198 Test12= 8.03D-14 1.00D-09 XBig12= 9.54D-15 3.40D-09.
      5 vectors produced by pass199 Test12= 8.03D-14 1.00D-09 XBig12= 8.35D-15 2.95D-09.
      5 vectors produced by pass200 Test12= 8.03D-14 1.00D-09 XBig12= 5.89D-15 2.37D-09.
      5 vectors produced by pass201 Test12= 8.03D-14 1.00D-09 XBig12= 7.64D-15 3.32D-09.
      5 vectors produced by pass202 Test12= 8.03D-14 1.00D-09 XBig12= 1.38D-14 4.34D-09.
      5 vectors produced by pass203 Test12= 8.03D-14 1.00D-09 XBig12= 6.88D-15 2.84D-09.
      5 vectors produced by pass204 Test12= 8.03D-14 1.00D-09 XBig12= 6.98D-15 2.64D-09.
      5 vectors produced by pass205 Test12= 8.03D-14 1.00D-09 XBig12= 8.72D-15 3.23D-09.
      5 vectors produced by pass206 Test12= 8.03D-14 1.00D-09 XBig12= 7.29D-15 3.20D-09.
      5 vectors produced by pass207 Test12= 8.03D-14 1.00D-09 XBig12= 5.55D-15 2.89D-09.
      5 vectors produced by pass208 Test12= 8.03D-14 1.00D-09 XBig12= 8.22D-15 3.40D-09.
      5 vectors produced by pass209 Test12= 8.03D-14 1.00D-09 XBig12= 6.57D-15 2.53D-09.
      5 vectors produced by pass210 Test12= 8.03D-14 1.00D-09 XBig12= 9.16D-15 3.07D-09.
      5 vectors produced by pass211 Test12= 8.03D-14 1.00D-09 XBig12= 1.12D-14 3.38D-09.
      5 vectors produced by pass212 Test12= 8.03D-14 1.00D-09 XBig12= 5.86D-15 2.58D-09.
      5 vectors produced by pass213 Test12= 8.03D-14 1.00D-09 XBig12= 9.49D-15 3.70D-09.
      5 vectors produced by pass214 Test12= 8.03D-14 1.00D-09 XBig12= 4.21D-15 2.16D-09.
      5 vectors produced by pass215 Test12= 8.03D-14 1.00D-09 XBig12= 7.39D-15 3.02D-09.
      5 vectors produced by pass216 Test12= 8.03D-14 1.00D-09 XBig12= 7.21D-15 3.14D-09.
      5 vectors produced by pass217 Test12= 8.03D-14 1.00D-09 XBig12= 7.23D-15 2.98D-09.
      5 vectors produced by pass218 Test12= 8.03D-14 1.00D-09 XBig12= 9.36D-15 3.24D-09.
      5 vectors produced by pass219 Test12= 8.03D-14 1.00D-09 XBig12= 6.31D-15 2.79D-09.
      5 vectors produced by pass220 Test12= 8.03D-14 1.00D-09 XBig12= 7.69D-15 3.29D-09.
      5 vectors produced by pass221 Test12= 8.03D-14 1.00D-09 XBig12= 4.76D-15 2.20D-09.
      5 vectors produced by pass222 Test12= 8.03D-14 1.00D-09 XBig12= 6.97D-15 2.61D-09.
      5 vectors produced by pass223 Test12= 8.03D-14 1.00D-09 XBig12= 6.03D-15 2.90D-09.
      5 vectors produced by pass224 Test12= 8.03D-14 1.00D-09 XBig12= 6.81D-15 2.81D-09.
      5 vectors produced by pass225 Test12= 8.03D-14 1.00D-09 XBig12= 3.40D-15 1.78D-09.
      5 vectors produced by pass226 Test12= 8.03D-14 1.00D-09 XBig12= 7.99D-15 2.85D-09.
      5 vectors produced by pass227 Test12= 8.03D-14 1.00D-09 XBig12= 7.30D-15 3.12D-09.
      5 vectors produced by pass228 Test12= 8.03D-14 1.00D-09 XBig12= 4.02D-15 2.25D-09.
      5 vectors produced by pass229 Test12= 8.03D-14 1.00D-09 XBig12= 6.06D-15 2.79D-09.
      5 vectors produced by pass230 Test12= 8.03D-14 1.00D-09 XBig12= 6.43D-15 3.02D-09.
      5 vectors produced by pass231 Test12= 8.03D-14 1.00D-09 XBig12= 7.89D-15 2.95D-09.
      5 vectors produced by pass232 Test12= 8.03D-14 1.00D-09 XBig12= 4.17D-15 2.35D-09.
      5 vectors produced by pass233 Test12= 8.03D-14 1.00D-09 XBig12= 5.74D-15 2.59D-09.
      5 vectors produced by pass234 Test12= 8.03D-14 1.00D-09 XBig12= 6.62D-15 2.94D-09.
      5 vectors produced by pass235 Test12= 8.03D-14 1.00D-09 XBig12= 5.90D-15 2.69D-09.
      5 vectors produced by pass236 Test12= 8.03D-14 1.00D-09 XBig12= 5.58D-15 2.31D-09.
      5 vectors produced by pass237 Test12= 8.03D-14 1.00D-09 XBig12= 5.31D-15 2.83D-09.
      5 vectors produced by pass238 Test12= 8.03D-14 1.00D-09 XBig12= 3.87D-15 2.05D-09.
      5 vectors produced by pass239 Test12= 8.03D-14 1.00D-09 XBig12= 6.92D-15 3.01D-09.
      5 vectors produced by pass240 Test12= 8.03D-14 1.00D-09 XBig12= 8.78D-15 3.14D-09.
      5 vectors produced by pass241 Test12= 8.03D-14 1.00D-09 XBig12= 7.91D-15 3.13D-09.
      5 vectors produced by pass242 Test12= 8.03D-14 1.00D-09 XBig12= 7.28D-15 3.19D-09.
      5 vectors produced by pass243 Test12= 8.03D-14 1.00D-09 XBig12= 8.58D-15 2.77D-09.
      5 vectors produced by pass244 Test12= 8.03D-14 1.00D-09 XBig12= 6.60D-15 2.60D-09.
      5 vectors produced by pass245 Test12= 8.03D-14 1.00D-09 XBig12= 7.48D-15 2.87D-09.
      5 vectors produced by pass246 Test12= 8.03D-14 1.00D-09 XBig12= 9.46D-15 4.01D-09.
      5 vectors produced by pass247 Test12= 8.03D-14 1.00D-09 XBig12= 5.77D-15 2.47D-09.
      5 vectors produced by pass248 Test12= 8.03D-14 1.00D-09 XBig12= 5.09D-15 2.76D-09.
      5 vectors produced by pass249 Test12= 8.03D-14 1.00D-09 XBig12= 6.67D-15 2.86D-09.
      5 vectors produced by pass250 Test12= 8.03D-14 1.00D-09 XBig12= 4.16D-15 2.20D-09.
      5 vectors produced by pass251 Test12= 8.03D-14 1.00D-09 XBig12= 7.41D-15 2.94D-09.
      5 vectors produced by pass252 Test12= 8.03D-14 1.00D-09 XBig12= 7.23D-15 2.44D-09.
      5 vectors produced by pass253 Test12= 8.03D-14 1.00D-09 XBig12= 6.26D-15 2.91D-09.
      5 vectors produced by pass254 Test12= 8.03D-14 1.00D-09 XBig12= 7.74D-15 3.14D-09.
      5 vectors produced by pass255 Test12= 8.03D-14 1.00D-09 XBig12= 6.75D-15 2.83D-09.
      5 vectors produced by pass256 Test12= 8.03D-14 1.00D-09 XBig12= 6.06D-15 2.38D-09.
      5 vectors produced by pass257 Test12= 8.03D-14 1.00D-09 XBig12= 4.89D-15 2.11D-09.
      5 vectors produced by pass258 Test12= 8.03D-14 1.00D-09 XBig12= 7.81D-15 2.89D-09.
      5 vectors produced by pass259 Test12= 8.03D-14 1.00D-09 XBig12= 4.94D-15 2.15D-09.
      5 vectors produced by pass260 Test12= 8.03D-14 1.00D-09 XBig12= 5.49D-15 2.34D-09.
      5 vectors produced by pass261 Test12= 8.03D-14 1.00D-09 XBig12= 6.38D-15 2.37D-09.
      5 vectors produced by pass262 Test12= 8.03D-14 1.00D-09 XBig12= 3.53D-15 2.04D-09.
      5 vectors produced by pass263 Test12= 8.03D-14 1.00D-09 XBig12= 9.27D-15 3.56D-09.
      5 vectors produced by pass264 Test12= 8.03D-14 1.00D-09 XBig12= 3.61D-15 1.78D-09.
      5 vectors produced by pass265 Test12= 8.03D-14 1.00D-09 XBig12= 5.54D-15 2.29D-09.
      5 vectors produced by pass266 Test12= 8.03D-14 1.00D-09 XBig12= 4.01D-15 2.57D-09.
      5 vectors produced by pass267 Test12= 8.03D-14 1.00D-09 XBig12= 6.48D-15 2.56D-09.
      5 vectors produced by pass268 Test12= 8.03D-14 1.00D-09 XBig12= 4.70D-15 2.56D-09.
      5 vectors produced by pass269 Test12= 8.03D-14 1.00D-09 XBig12= 4.81D-15 2.68D-09.
      5 vectors produced by pass270 Test12= 8.03D-14 1.00D-09 XBig12= 7.56D-15 2.63D-09.
      5 vectors produced by pass271 Test12= 8.03D-14 1.00D-09 XBig12= 5.06D-15 2.70D-09.
      5 vectors produced by pass272 Test12= 8.03D-14 1.00D-09 XBig12= 5.65D-15 2.44D-09.
      5 vectors produced by pass273 Test12= 8.03D-14 1.00D-09 XBig12= 4.29D-15 2.11D-09.
      5 vectors produced by pass274 Test12= 8.03D-14 1.00D-09 XBig12= 4.86D-15 2.02D-09.
      5 vectors produced by pass275 Test12= 8.03D-14 1.00D-09 XBig12= 5.63D-15 2.40D-09.
      5 vectors produced by pass276 Test12= 8.03D-14 1.00D-09 XBig12= 6.44D-15 2.87D-09.
      5 vectors produced by pass277 Test12= 8.03D-14 1.00D-09 XBig12= 3.79D-15 2.04D-09.
      5 vectors produced by pass278 Test12= 8.03D-14 1.00D-09 XBig12= 2.80D-15 1.71D-09.
      5 vectors produced by pass279 Test12= 8.03D-14 1.00D-09 XBig12= 7.36D-15 2.70D-09.
      5 vectors produced by pass280 Test12= 8.03D-14 1.00D-09 XBig12= 3.86D-15 1.89D-09.
      5 vectors produced by pass281 Test12= 8.03D-14 1.00D-09 XBig12= 6.45D-15 2.93D-09.
      5 vectors produced by pass282 Test12= 8.03D-14 1.00D-09 XBig12= 5.64D-15 2.11D-09.
      5 vectors produced by pass283 Test12= 8.03D-14 1.00D-09 XBig12= 3.38D-15 1.67D-09.
      5 vectors produced by pass284 Test12= 8.03D-14 1.00D-09 XBig12= 7.51D-15 2.45D-09.
      5 vectors produced by pass285 Test12= 8.03D-14 1.00D-09 XBig12= 4.89D-15 2.26D-09.
      5 vectors produced by pass286 Test12= 8.03D-14 1.00D-09 XBig12= 5.83D-15 2.20D-09.
      5 vectors produced by pass287 Test12= 8.03D-14 1.00D-09 XBig12= 3.90D-15 2.02D-09.
      5 vectors produced by pass288 Test12= 8.03D-14 1.00D-09 XBig12= 5.32D-15 2.44D-09.
      5 vectors produced by pass289 Test12= 8.03D-14 1.00D-09 XBig12= 4.57D-15 1.95D-09.
      5 vectors produced by pass290 Test12= 8.03D-14 1.00D-09 XBig12= 4.33D-15 2.06D-09.
      4 vectors produced by pass291 Test12= 8.03D-14 1.00D-09 XBig12= 2.09D-15 1.33D-09.
      4 vectors produced by pass292 Test12= 8.03D-14 1.00D-09 XBig12= 7.18D-15 2.64D-09.
      4 vectors produced by pass293 Test12= 8.03D-14 1.00D-09 XBig12= 5.70D-15 2.48D-09.
      4 vectors produced by pass294 Test12= 8.03D-14 1.00D-09 XBig12= 5.36D-15 2.51D-09.
      4 vectors produced by pass295 Test12= 8.03D-14 1.00D-09 XBig12= 6.26D-15 2.72D-09.
      4 vectors produced by pass296 Test12= 8.03D-14 1.00D-09 XBig12= 3.06D-15 1.65D-09.
      4 vectors produced by pass297 Test12= 8.03D-14 1.00D-09 XBig12= 8.09D-15 2.95D-09.
      4 vectors produced by pass298 Test12= 8.03D-14 1.00D-09 XBig12= 4.80D-15 2.22D-09.
      4 vectors produced by pass299 Test12= 8.03D-14 1.00D-09 XBig12= 2.97D-15 2.10D-09.
      4 vectors produced by pass300 Test12= 8.03D-14 1.00D-09 XBig12= 7.18D-15 2.56D-09.
      4 vectors produced by pass301 Test12= 8.03D-14 1.00D-09 XBig12= 3.41D-15 1.62D-09.
      4 vectors produced by pass302 Test12= 8.03D-14 1.00D-09 XBig12= 4.79D-15 2.13D-09.
      4 vectors produced by pass303 Test12= 8.03D-14 1.00D-09 XBig12= 5.71D-15 2.34D-09.
      4 vectors produced by pass304 Test12= 8.03D-14 1.00D-09 XBig12= 4.11D-15 1.77D-09.
      4 vectors produced by pass305 Test12= 8.03D-14 1.00D-09 XBig12= 7.04D-15 2.68D-09.
      4 vectors produced by pass306 Test12= 8.03D-14 1.00D-09 XBig12= 3.59D-15 1.91D-09.
      4 vectors produced by pass307 Test12= 8.03D-14 1.00D-09 XBig12= 6.12D-15 2.33D-09.
      4 vectors produced by pass308 Test12= 8.03D-14 1.00D-09 XBig12= 6.27D-15 2.73D-09.
      4 vectors produced by pass309 Test12= 8.03D-14 1.00D-09 XBig12= 3.80D-15 2.26D-09.
      4 vectors produced by pass310 Test12= 8.03D-14 1.00D-09 XBig12= 4.93D-15 2.51D-09.
      4 vectors produced by pass311 Test12= 8.03D-14 1.00D-09 XBig12= 3.35D-15 2.10D-09.
      4 vectors produced by pass312 Test12= 8.03D-14 1.00D-09 XBig12= 5.62D-15 2.26D-09.
      4 vectors produced by pass313 Test12= 8.03D-14 1.00D-09 XBig12= 6.60D-15 2.80D-09.
      3 vectors produced by pass314 Test12= 8.03D-14 1.00D-09 XBig12= 2.90D-15 1.55D-09.
      3 vectors produced by pass315 Test12= 8.03D-14 1.00D-09 XBig12= 3.08D-15 1.84D-09.
      3 vectors produced by pass316 Test12= 8.03D-14 1.00D-09 XBig12= 6.17D-15 2.26D-09.
      3 vectors produced by pass317 Test12= 8.03D-14 1.00D-09 XBig12= 3.48D-15 1.98D-09.
      3 vectors produced by pass318 Test12= 8.03D-14 1.00D-09 XBig12= 5.71D-15 2.29D-09.
      2 vectors produced by pass319 Test12= 8.03D-14 1.00D-09 XBig12= 2.46D-15 1.36D-09.
 InvSVY:  IOpt=1 It=  1 EMax= 1.44D-15
 Solved reduced A of dimension  3352 with   114 vectors.
 End of Minotr F.D. properties file   721 does not exist.
 End of Minotr F.D. properties file   722 does not exist.
 End of Minotr F.D. properties file   788 does not exist.

 **********************************************************************

            Population analysis using the SCF density.

 **********************************************************************

 Orbital symmetries:
 Alpha Orbitals:
       Occupied  (A) (A) (A) (A) (A) (A) (A) (A) (A) (A) (A) (A)
                 (A) (A) (A) (A) (A) (A) (A) (A) (A) (A) (A) (A)
                 (A) (A) (A) (A) (A) (A) (A) (A) (A) (A) (A) (A)
                 (A) (A) (A) (A) (A) (A) (A) (A) (A) (A) (A) (A)
                 (A) (A) (A) (A) (A) (A) (A) (A) (A) (A) (A) (A)
                 (A) (A) (A) (A) (A) (A) (A) (A) (A) (A) (A) (A)
                 (A) (A) (A) (A) (A) (A) (A)
       Virtual   (A) (A) (A) (A) (A) (A) (A) (A) (A) (A) (A) (A)
                 (A) (A) (A) (A) (A) (A) (A) (A) (A) (A) (A) (A)
                 (A) (A) (A) (A) (A) (A) (A) (A) (A) (A) (A) (A)
                 (A) (A) (A) (A) (A) (A) (A) (A) (A) (A) (A) (A)
                 (A) (A) (A) (A) (A) (A) (A) (A) (A) (A) (A) (A)
                 (A) (A) (A) (A) (A) (A) (A) (A) (A) (A) (A) (A)
                 (A) (A) (A) (A) (A) (A) (A) (A) (A) (A) (A) (A)
                 (A) (A) (A) (A) (A) (A) (A) (A) (A) (A) (A) (A)
                 (A) (A) (A) (A) (A) (A) (A) (A) (A) (A) (A) (A)
                 (A) (A) (A) (A) (A) (A) (A) (A) (A) (A) (A) (A)
                 (A) (A) (A) (A) (A) (A) (A) (A) (A) (A) (A) (A)
                 (A) (A) (A) (A) (A) (A) (A) (A) (A) (A) (A) (A)
                 (A) (A) (A) (A) (A) (A) (A) (A) (A) (A) (A) (A)
                 (A) (A) (A) (A) (A) (A) (A) (A) (A) (A) (A) (A)
                 (A) (A) (A) (A) (A) (A) (A) (A) (A) (A) (A) (A)
                 (A) (A) (A) (A) (A) (A) (A) (A) (A) (A) (A) (A)
                 (A) (A) (A) (A) (A) (A) (A) (A) (A) (A) (A) (A)
                 (A) (A) (A) (A) (A) (A) (A) (A) (A) (A) (A) (A)
                 (A) (A) (A) (A) (A) (A) (A) (A) (A) (A) (A) (A)
                 (A) (A) (A) (A) (A) (A) (A) (A) (A) (A) (A) (A)
                 (A) (A) (A) (A) (A) (A) (A) (A) (A) (A) (A) (A)
                 (A) (A) (A) (A) (A) (A) (A) (A) (A) (A) (A) (A)
                 (A) (A) (A) (A) (A) (A) (A) (A) (A) (A) (A) (A)
                 (A) (A) (A) (A) (A) (A) (A) (A) (A) (A) (A) (A)
                 (A) (A) (A) (A) (A) (A) (A) (A) (A) (A) (A) (A)
                 (A) (A) (A) (A) (A) (A) (A) (A) (A) (A) (A) (A)
                 (A) (A) (A) (A) (A) (A) (A) (A) (A) (A) (A) (A)
                 (A) (A) (A) (A) (A) (A) (A) (A) (A) (A) (A) (A)
                 (A) (A) (A) (A) (A) (A) (A) (A) (A) (A) (A) (A)
                 (A) (A) (A) (A) (A) (A) (A) (A) (A) (A) (A) (A)
                 (A) (A) (A) (A) (A) (A) (A) (A) (A) (A) (A) (A)
                 (A) (A) (A) (A) (A) (A) (A) (A) (A) (A) (A) (A)
                 (A) (A) (A) (A) (A) (A) (A) (A) (A) (A) (A) (A)
                 (A) (A) (A) (A) (A) (A) (A) (A) (A) (A) (A) (A)
                 (A) (A) (A) (A) (A) (A) (A) (A) (A) (A) (A) (A)
                 (A) (A) (A) (A) (A) (A) (A) (A) (A) (A) (A) (A)
                 (A) (A) (A) (A) (A) (A) (A) (A) (A) (A) (A) (A)
                 (A) (A) (A) (A) (A) (A) (A) (A) (A) (A) (A) (A)
                 (A) (A) (A) (A) (A) (A) (A) (A) (A) (A) (A) (A)
                 (A) (A) (A) (A) (A) (A) (A) (A) (A) (A) (A) (A)
                 (A) (A) (A) (A) (A) (A) (A) (A) (A) (A) (A) (A)
                 (A) (A) (A) (A) (A) (A) (A) (A) (A) (A) (A) (A)
                 (A) (A) (A) (A) (A) (A) (A)
 Beta  Orbitals:
       Occupied  (A) (A) (A) (A) (A) (A) (A) (A) (A) (A) (A) (A)
                 (A) (A) (A) (A) (A) (A) (A) (A) (A) (A) (A) (A)
                 (A) (A) (A) (A) (A) (A) (A) (A) (A) (A) (A) (A)
                 (A) (A) (A) (A) (A) (A) (A) (A) (A) (A) (A) (A)
                 (A) (A) (A) (A) (A) (A) (A) (A) (A) (A) (A) (A)
                 (A) (A) (A) (A) (A) (A) (A) (A) (A) (A) (A) (A)
                 (A) (A) (A) (A) (A) (A)
       Virtual   (A) (A) (A) (A) (A) (A) (A) (A) (A) (A) (A) (A)
                 (A) (A) (A) (A) (A) (A) (A) (A) (A) (A) (A) (A)
                 (A) (A) (A) (A) (A) (A) (A) (A) (A) (A) (A) (A)
                 (A) (A) (A) (A) (A) (A) (A) (A) (A) (A) (A) (A)
                 (A) (A) (A) (A) (A) (A) (A) (A) (A) (A) (A) (A)
                 (A) (A) (A) (A) (A) (A) (A) (A) (A) (A) (A) (A)
                 (A) (A) (A) (A) (A) (A) (A) (A) (A) (A) (A) (A)
                 (A) (A) (A) (A) (A) (A) (A) (A) (A) (A) (A) (A)
                 (A) (A) (A) (A) (A) (A) (A) (A) (A) (A) (A) (A)
                 (A) (A) (A) (A) (A) (A) (A) (A) (A) (A) (A) (A)
                 (A) (A) (A) (A) (A) (A) (A) (A) (A) (A) (A) (A)
                 (A) (A) (A) (A) (A) (A) (A) (A) (A) (A) (A) (A)
                 (A) (A) (A) (A) (A) (A) (A) (A) (A) (A) (A) (A)
                 (A) (A) (A) (A) (A) (A) (A) (A) (A) (A) (A) (A)
                 (A) (A) (A) (A) (A) (A) (A) (A) (A) (A) (A) (A)
                 (A) (A) (A) (A) (A) (A) (A) (A) (A) (A) (A) (A)
                 (A) (A) (A) (A) (A) (A) (A) (A) (A) (A) (A) (A)
                 (A) (A) (A) (A) (A) (A) (A) (A) (A) (A) (A) (A)
                 (A) (A) (A) (A) (A) (A) (A) (A) (A) (A) (A) (A)
                 (A) (A) (A) (A) (A) (A) (A) (A) (A) (A) (A) (A)
                 (A) (A) (A) (A) (A) (A) (A) (A) (A) (A) (A) (A)
                 (A) (A) (A) (A) (A) (A) (A) (A) (A) (A) (A) (A)
                 (A) (A) (A) (A) (A) (A) (A) (A) (A) (A) (A) (A)
                 (A) (A) (A) (A) (A) (A) (A) (A) (A) (A) (A) (A)
                 (A) (A) (A) (A) (A) (A) (A) (A) (A) (A) (A) (A)
                 (A) (A) (A) (A) (A) (A) (A) (A) (A) (A) (A) (A)
                 (A) (A) (A) (A) (A) (A) (A) (A) (A) (A) (A) (A)
                 (A) (A) (A) (A) (A) (A) (A) (A) (A) (A) (A) (A)
                 (A) (A) (A) (A) (A) (A) (A) (A) (A) (A) (A) (A)
                 (A) (A) (A) (A) (A) (A) (A) (A) (A) (A) (A) (A)
                 (A) (A) (A) (A) (A) (A) (A) (A) (A) (A) (A) (A)
[...]
 .00339757,0.00591245,0.00001194,-0.00351388,-0.00191337,-0.00100827,0.
 00535742,0.00626164,-0.00038673,-0.02244096,0.00570224,0.00072212,0.03
 891618,-0.01143951,0.00040504,-0.05250639,-0.03163671,0.00001019,0.019
 67751,0.00325571,-0.00094561,-0.00668612,-0.01017174,0.00018923,-0.007
 82578,0.00259965,0.00051601,0.00526103,0.00110253,-0.00040003,-0.00031
 673,-0.00476952,-0.00045249,0.00258384,0.00210422,0.00001099,-0.003237
 36,0.00191267,0.00033964,0.00007426,0.00000243,0.00006409,-0.00004454,
 -0.00008829,-0.00004218,-0.00612400,-0.01069958,-0.00044493,-0.1217452
 9,0.02067737,-0.00119798,-0.37577841,0.05711886,0.00418936,0.00002955,
 0.00036209,-0.00000686,0.00000874,0.00009622,0.00001060,-0.00001850,-0
 .00007455,-0.00003275,-0.00006014,0.00004344,0.00011947,-0.00006774,-0
 .00014037,-0.00000585,0.00021589,-0.00034646,-0.00016719,-0.00042434,0
 .00025700,0.00010075,0.00003103,-0.00002207,-0.00000179,0.00006331,-0.
 00005132,-0.00003027,-0.01469192,0.03880450,0.00073981,0.70341827,-0.0
 0132183,-0.00055414,-0.00003829,0.00015509,-0.00057329,0.00015246,0.00
 091971,-0.00163304,-0.00008529,0.00101611,0.00203695,-0.00002407,-0.00
 510788,-0.00502418,0.00003684,-0.00297853,-0.00270379,-0.00060574,-0.0
 0604247,-0.00424794,0.00039697,0.01562276,-0.00064730,-0.00052307,-0.0
 1886876,-0.04934870,-0.00177032,-0.00968274,0.02493375,0.00091937,-0.0
 1260698,-0.00967906,-0.00002033,0.00326871,0.00808365,0.00004247,0.007
 26948,-0.00189614,-0.00039604,-0.00415067,-0.00170292,0.00030865,0.000
 47724,0.00393780,0.00032436,-0.00298717,-0.00166420,0.00007507,0.00284
 442,-0.00238402,-0.00033765,0.00000222,0.00002227,-0.00002761,0.000012
 22,0.00001811,0.00000919,-0.00047134,0.01227121,-0.00051614,0.04483038
 ,-0.22384542,-0.00557164,0.01223999,-0.12791067,-0.00402842,-0.0003544
 6,-0.00010895,0.00003650,0.00003032,-0.00005513,-0.00000178,-0.0000329
 1,0.00002320,-0.00001942,0.00005070,-0.00002413,-0.00008960,-0.0000222
 8,0.00002509,-0.00000777,-0.00003386,-0.00008561,-0.00001355,0.0000703
 1,0.00001715,0.00004033,-0.00000561,0.00002039,0.00000781,-0.00002197,
 -0.00003592,0.00001049,0.01732126,-0.01046402,0.00057416,0.06019755,0.
 62510656,0.00009476,0.00000366,0.00022900,-0.00012145,0.00016422,-0.00
 025729,0.00005048,-0.00034158,-0.00037588,0.00012704,-0.00013310,-0.00
 084235,0.00004671,-0.00006858,-0.00092781,-0.00076176,0.00050678,0.007
 01234,-0.00028617,-0.00015306,-0.00068357,0.00067255,-0.00008289,-0.00
 213720,-0.00065682,-0.00396642,0.00532658,0.00037068,0.00154936,0.0042
 0595,-0.00038943,-0.00064972,0.00394065,0.00009424,0.00042324,0.000175
 91,0.00033442,-0.00008578,0.00000224,-0.00021190,-0.00004865,-0.000567
 58,0.00000307,0.00014381,0.00015213,-0.00009760,-0.00007881,0.00026346
 ,0.00010236,-0.00005071,-0.00010479,0.00000636,-0.00000036,-0.00001459
 ,0.00000209,-0.00000229,0.00008663,-0.00067113,0.00008279,0.00470213,0
 .00115664,-0.00598821,-0.06062189,0.00081942,-0.00405602,-0.05844395,-
 0.00005398,0.00001318,-0.00015124,-0.00000505,-0.00000086,-0.00000128,
 0.00000684,0.00000429,-0.00001889,-0.00000010,-0.00000066,-0.00002967,
 0.00000247,-0.00000075,0.00005459,-0.00009145,-0.00005239,-0.00012580,
 0.00000689,-0.00003041,0.00002675,0.00002341,0.00000374,0.00000718,0.0
 0000436,-0.00000617,0.00001068,-0.00026853,0.00174116,0.00019891,0.004
 72374,0.02043840,0.13259245,-0.00001581,-0.00028773,0.00001562,0.00005
 537,0.00001144,-0.00000590,-0.00007713,0.00095810,-0.00024705,0.001081
 54,0.00091270,0.00008512,-0.01698600,0.00836362,-0.00189990,-0.0018023
 1,-0.00419324,0.00000988,-0.00040742,-0.00013384,-0.00001121,-0.000203
 55,0.00011772,0.00002999,0.00065304,-0.00052402,0.00012368,0.00000485,
 -0.00007589,-0.00000809,-0.00002949,-0.00000140,0.00000148,-0.00002080
 ,0.00003663,0.00000752,0.00006316,0.00012327,0.00002978,-0.00001142,0.
 00000548,-0.00000388,-0.00000085,0.00001407,-0.00000046,-0.00002637,-0
 .00000805,0.00000586,0.00001584,-0.00001603,0.00000054,-0.00003161,-0.
 00004721,-0.00000284,0.00003499,-0.00092210,0.00012761,-0.31131152,0.0
 7171183,-0.02179072,0.00168508,0.00070246,-0.00053826,0.00005945,0.000
 17882,0.00004178,-0.00000823,0.00000709,0.00000123,-0.00000437,0.00000
 606,0.00000128,0.00002554,-0.00001921,-0.00000721,-0.00000323,-0.00000
 549,-0.00000044,-0.00000853,0.00000364,0.00000063,0.00005652,-0.000053
 04,0.00002912,-0.00006872,-0.00006527,-0.00002030,-0.00003361,-0.00000
 729,0.00000715,0.00001732,0.00001762,0.00001399,-0.00347489,-0.0003935
 9,-0.00053117,-0.00021680,-0.00017995,-0.00005961,0.33006184,0.0004458
 8,-0.00000218,0.00001973,-0.00018702,0.00030282,-0.00004042,-0.0006482
 4,0.00064590,-0.00013677,0.00003317,0.00144321,-0.00022934,-0.02120831
 ,0.01000647,-0.00196488,-0.00333365,-0.00325488,0.00015996,-0.00029561
 ,-0.00015357,0.00002617,-0.00015963,0.00015652,-0.00002712,-0.00028412
 ,-0.00083598,-0.00000609,-0.00008760,-0.00015105,-0.00000350,-0.000026
 35,0.00004275,0.00001439,-0.00002201,0.00000014,-0.00000432,0.00000102
 ,0.00011367,-0.00000212,-0.00000844,0.00002050,0.00000135,0.00000455,0
 .00000765,0.00000683,0.00001157,-0.00000906,-0.00001089,0.00001254,0.0
 0000266,0.00000358,0.00001544,-0.00000717,0.00000437,0.00064915,-0.000
 29021,0.00008603,0.06958473,-0.07743823,0.00655592,0.00018801,-0.00551
 960,0.00026456,0.00015383,-0.00047570,-0.00004432,-0.00000338,-0.00000
 276,0.00000064,-0.00000429,-0.00000115,-0.00000124,0.00000253,-0.00000
 464,0.00000258,-0.00000005,0.00000131,-0.00000249,0.00000227,0.0000010
 5,-0.00000091,0.00005161,-0.00004254,0.00001966,-0.00001166,0.00000838
 ,-0.00000435,-0.00000381,-0.00001318,-0.00000001,0.00000241,-0.0000027
 8,0.00000155,0.03048801,-0.00548389,0.00248509,0.00122053,0.00058737,0
 .00007321,-0.07653094,0.07952447,-0.00027392,-0.00003241,-0.00015059,0
 .00016852,-0.00013017,0.00000650,-0.00014597,0.00010456,0.00057566,0.0
 0045410,-0.00003878,-0.00236283,-0.00167190,-0.00050786,0.00243190,0.0
 0015884,-0.00034066,0.00425241,0.00001078,-0.00003848,0.00032539,0.000
 05114,0.00005136,-0.00061696,0.00018301,0.00034299,-0.00099087,-0.0000
 0462,0.00003759,0.00015579,0.00002040,0.00001084,0.00000704,0.00001290
 ,-0.00000979,-0.00001382,-0.00004889,-0.00000949,-0.00030357,0.0000043
 0,-0.00000305,0.00006236,0.00000658,-0.00000025,-0.00000060,0.00000199
 ,0.00001859,-0.00000346,0.00000036,-0.00000657,0.00001518,-0.00000663,
 0.00000827,0.00010817,-0.00002708,-0.00003453,0.00029658,-0.02164809,0
 .00776219,-0.03661192,-0.00051967,0.00040569,0.00847914,-0.00003364,0.
 00008730,-0.00045954,0.00000129,0.00000012,-0.00000260,0.00000046,-0.0
 0000002,-0.00000461,0.00000554,0.00000293,-0.00000856,-0.00000013,0.00
 000011,-0.00000009,-0.00000097,0.00000059,-0.00000568,0.00004560,0.000
 03571,0.00006873,-0.00001853,0.00000999,-0.00001911,-0.00000702,-0.000
 01040,-0.00000750,0.00000694,0.00000512,-0.00000506,-0.00111757,-0.000
 43772,0.00357415,-0.00016998,-0.00010366,0.00040903,0.02409807,-0.0070
 9478,0.02619693,0.00017561,0.00007326,0.00003517,-0.00011353,0.0001547
 4,-0.00002379,-0.00011601,-0.00021411,0.00003081,0.00032200,-0.0000197
 6,-0.00000402,0.00064874,0.00228325,-0.00066933,0.00008837,0.00089297,
 0.00007675,-0.00055343,0.00016513,0.00002515,0.00005739,-0.00149932,-0
 .00019468,-0.00522787,0.00335560,-0.00029003,0.00010901,-0.00004092,-0
 .00000423,0.00001707,0.00006777,0.00001056,-0.00004117,0.00001633,-0.0
 0000197,0.00010331,-0.00017842,0.00001622,0.00002733,-0.00001302,-0.00
 000396,-0.00003245,0.00000456,0.00000330,-0.00007509,0.00004202,0.0000
 0817,-0.00000168,-0.00003629,-0.00000793,0.00003696,0.00002231,-0.0000
 0005,-0.00000008,-0.00001597,-0.00000984,0.00789357,0.00671846,0.00025
 013,-0.01648364,-0.02127109,-0.00132742,-0.00012488,0.00028020,0.00001
 509,-0.00003709,0.00001214,0.00000389,-0.00000599,0.00000720,0.0000005
 6,-0.00000112,0.00000626,0.00000314,-0.00000897,-0.00000277,-0.0000002
 5,-0.00000522,-0.00000258,0.00000072,0.00003356,-0.00000991,-0.0000056
 8,-0.00004273,-0.00000989,-0.00000848,-0.00000328,0.00000049,0.0000042
 5,0.00000803,0.00000466,0.00000959,-0.21307412,-0.13711924,-0.01001869
 ,0.00156529,-0.00101965,0.00009584,0.00095316,-0.00018572,0.00048053,0
 .22413704,-0.00002480,-0.00050458,0.00007321,0.00020991,-0.00014438,0.
 00001333,0.00001464,0.00018703,-0.00003445,-0.00133035,0.00004241,-0.0
 0012204,0.00297285,-0.00427164,0.00047817,0.00054864,-0.00029311,0.000
 05238,0.00009486,-0.00014137,-0.00000299,0.00044640,0.00053118,0.00001
 638,0.00255482,0.00005896,0.00015154,0.00002269,0.00019713,0.00001602,
 -0.00006964,-0.00003730,0.00000079,0.00003012,0.00005266,0.00000667,0.
 00004584,0.00007996,-0.00000964,-0.00002516,-0.00001167,0.00000009,0.0
 0000122,0.00001944,-0.00000411,-0.00001268,-0.00002713,0.00000798,0.00
 001762,-0.00000152,0.00000040,-0.00012944,-0.00007960,0.00001143,0.000
 04320,-0.00003182,0.00000640,-0.02422496,-0.01703936,-0.00144163,0.008
 07918,0.00993196,0.00053785,-0.00030997,-0.00001906,-0.00000612,0.0000
 0234,0.00000257,-0.00000118,0.00000002,0.00000374,0.00000139,0.0000078
 5,-0.00000461,-0.00000559,0.00000101,-0.00000429,0.00000166,-0.0000058
 2,0.00000334,0.00000092,-0.00000564,0.00003403,0.00000074,-0.00002248,
 -0.00005016,-0.00001276,-0.00001030,0.00000087,0.00000297,0.00000536,0
 .00001318,0.00000824,-0.13495696,-0.17715718,-0.00755568,-0.00015683,0
 .00108044,0.00000988,0.00025690,0.00088063,-0.00008895,0.14651882,0.18
 682021,0.00007519,-0.00011772,-0.00061427,-0.00002364,0.00000377,0.000
 16500,-0.00000318,-0.00005277,-0.00066833,-0.00015956,-0.00002591,0.00
 043707,-0.00061925,0.00039427,0.00860503,0.00020988,-0.00012146,-0.000
 80839,-0.00003199,0.00000711,-0.00000575,-0.00006453,-0.00018414,0.000
 50328,-0.00034342,0.00053795,0.00459230,0.00010068,0.00004400,-0.00008
 461,-0.00004707,-0.00002465,0.00003111,0.00003410,0.00002408,-0.000009
 73,-0.00001786,-0.00002849,-0.00009099,-0.00002095,-0.00000656,-0.0000
 0239,0.00000915,0.00001712,-0.00000794,-0.00002234,0.00001903,-0.00002
 116,-0.00000282,-0.00002006,0.00000909,-0.00000689,-0.00001626,-0.0000
 6573,-0.00000521,0.00002479,0.00016504,0.00047654,0.00130997,0.0032257
 0,-0.00208261,-0.00118798,0.00229253,-0.00010626,-0.00002472,-0.000114
 94,-0.00000094,-0.00000021,0.00001141,-0.00000011,-0.00000047,0.000004
 75,-0.00000701,0.00000449,-0.00000201,0.00000050,0.00000027,0.00000836
 ,0.00000006,-0.00000062,0.00000240,0.00003906,0.00001630,0.00006899,0.
 00001550,0.00003351,0.00001085,0.00000035,-0.00001862,-0.00000003,-0.0
 0000341,-0.00000446,-0.00000131,-0.00964156,-0.00840449,-0.03528761,0.
 00029547,-0.00001183,-0.00217671,0.00049678,-0.00014548,-0.00543343,0.
 01146566,0.00789069,0.02496763,0.00002296,0.00002114,-0.00000304,0.000
 05577,0.00003352,-0.00000074,-0.00016450,0.00014112,0.00000012,-0.0000
 2298,-0.00004583,0.00000213,0.00019917,-0.00000420,0.00001913,0.000599
 79,0.00045910,0.00003258,0.00021470,0.00004750,-0.00000748,-0.00035425
 ,0.00036535,0.00000208,-0.00057710,0.00292428,0.00008344,-0.00442249,0
 .00277367,0.00014694,0.00007337,-0.00139731,-0.00006837,-0.00052766,0.
 00005055,0.00008097,-0.00010706,0.00003670,0.00000764,0.00008693,-0.00
 014251,-0.00001689,-0.00007785,-0.00007561,-0.00000688,0.00007457,0.00
 007257,-0.00000222,-0.00008005,0.00003712,0.00000543,-0.00000029,-0.00
 000627,0.00000096,0.00000275,0.00000634,0.00000027,-0.00004921,-0.0002
 9032,-0.00000301,0.01075053,0.01003901,0.00053798,-0.01586368,-0.02608
 830,-0.00125272,-0.00003535,0.00004509,-0.00000437,0.00000415,0.000011
 93,0.00000205,0.00000300,-0.00000709,-0.00000523,-0.00000439,-0.000004
 62,0.00000390,-0.00001643,-0.00001775,0.00000057,0.00003043,0.00000800
 ,-0.00000798,-0.00005269,-0.00001362,-0.00000524,-0.00000220,0.0000017
 5,0.00000181,0.00001022,0.00000613,0.00000709,0.00118889,-0.00024657,0
 .00005356,-0.15796053,-0.13094983,-0.00659725,0.00000292,-0.00002165,0
 .00000213,-0.00018519,-0.00056018,-0.00000816,0.16632116,0.00001489,-0
 .00004950,0.00000274,-0.00014026,0.00001398,-0.00000836,0.00021417,-0.
 00051559,0.00001449,0.00003991,0.00002214,0.00001764,0.00003996,0.0001
 2674,-0.00001566,-0.00153594,-0.00008055,-0.00016558,-0.00024174,-0.00
 011883,0.00003089,0.00080984,0.00024525,0.00002875,0.00386598,-0.00469
 365,-0.00006489,0.00199761,0.00081477,-0.00044435,-0.00010566,0.000253
 13,-0.00001209,0.00010498,0.00012395,0.00003961,0.00016806,-0.00001649
 ,-0.00001780,-0.00004061,0.00001021,0.00000636,-0.00002472,0.00006087,
 0.00000380,-0.00006778,-0.00004831,0.00000760,0.00005571,-0.00000096,-
 0.00000628,0.00000457,-0.00000915,-0.00000436,0.00001469,-0.00003451,0
 .00000531,0.00026941,-0.00016839,0.00002047,-0.01930823,-0.01699544,-0
 .00122740,0.00507296,0.00660738,0.00013062,-0.00001707,0.00000225,-0.0
 0001041,-0.00000673,0.00000444,0.00000145,0.00001453,-0.00000195,0.000
 00028,-0.00000268,-0.00000541,-0.00000042,-0.00000196,0.00000659,0.000
 00026,0.00000867,-0.00002179,0.00001840,-0.00002105,-0.00005399,-0.000
 01492,-0.00002121,-0.00000325,0.00000666,0.00000783,0.00001286,0.00000
 960,-0.00100611,0.00149644,-0.00000950,-0.13357735,-0.23232998,-0.0091
 1406,0.00003495,-0.00004160,-0.00000023,0.00098077,-0.00012323,0.00007
 413,0.14256763,0.24451077,0.00002659,0.00001029,-0.00001530,-0.0000285
 0,0.00000252,-0.00005169,0.00002737,-0.00001744,-0.00002530,-0.0000182
 3,-0.00003623,0.00004274,0.00002821,0.00008121,-0.00005417,-0.00011561
 ,-0.00007718,0.00029004,0.00003763,0.00004779,-0.00055898,-0.00011594,
 0.00007696,-0.00064489,0.00043808,-0.00005278,0.00386953,0.00000034,-0
 .00033329,0.00951926,0.00007336,-0.00012490,0.00032660,-0.00016894,0.0
 0001642,-0.00099407,-0.00005927,0.00001759,0.00015308,0.00003548,0.000
 00100,-0.00007764,-0.00000785,-0.00004466,0.00009410,0.00004546,0.0000
 2074,0.00006426,-0.00003239,0.00002316,-0.00000174,0.00000088,-0.00000
 150,-0.00000049,0.00000017,-0.00000069,0.00000436,-0.00001228,-0.00009
 869,-0.00014348,-0.00053932,-0.00163077,0.00255024,0.00076447,0.000000
 21,0.00380518,0.00002760,-0.00001310,0.00028497,-0.00000213,0.00000175
 ,-0.00002137,-0.00000120,0.00000281,-0.00000465,-0.00000187,0.00000156
 ,-0.00001610,-0.00000025,-0.00000316,0.00001401,0.00002006,0.00000404,
 0.00001932,-0.00002077,-0.00001410,0.00000077,0.00000035,-0.00000481,-
 0.00000530,0.00000267,0.00000600,0.00000403,0.00002631,0.00019615,-0.0
 0168606,-0.00739815,-0.00874763,-0.03589742,-0.00000532,0.00000178,0.0
 0008194,0.00004047,-0.00000650,0.00017058,0.00697423,0.01035031,0.0248
 5605,0.00007338,-0.00000368,0.00000804,0.00004321,0.00005948,-0.000013
 17,-0.00015392,-0.00029093,0.00002952,0.00002377,-0.00007702,0.0000137
 8,-0.00013290,-0.00004071,-0.00000032,0.00021626,-0.00010356,-0.000010
 26,0.00062159,-0.00059467,-0.00008283,-0.00298034,-0.00313972,0.000093
 96,-0.00057126,-0.00037419,-0.00001526,0.01041000,-0.01950402,-0.00114
 335,0.00148877,-0.00007444,-0.00016924,0.00002716,0.00034978,-0.000010
 04,0.00027973,-0.00003799,0.00000142,-0.00008149,-0.00002436,0.0000024
 6,0.00002538,0.00007220,0.00000665,-0.00007465,0.00002199,0.00000163,0
 .00003086,-0.00007150,-0.00000606,0.00001443,0.00000230,0.00000272,-0.
 00000568,-0.00000219,-0.00000250,-0.00048605,0.00009503,-0.00004996,-0
 .00555792,-0.00061742,-0.00001511,-0.08991742,0.08795728,0.00480420,-0
 .00022063,0.00066856,0.00007438,-0.00002334,-0.00000309,0.00000308,-0.
 00000629,0.00001409,0.00000425,-0.00000169,0.00000501,-0.00000112,0.00
 000356,0.00000282,-0.00000064,-0.00000668,-0.00001028,-0.00001438,0.00
 003393,0.00001807,0.00001115,0.00000561,0.00000332,0.00000006,-0.00000
 650,-0.00000690,-0.00000111,0.00051641,0.00131351,0.00008943,-0.008078
 01,0.03051040,0.00152787,-0.00002796,0.00015523,-0.00001887,-0.0000428
 9,-0.00002909,-0.00000014,0.00086259,-0.00016804,-0.00004170,0.0936990
 0,0.00006847,-0.00001264,0.00000895,0.00004174,0.00008705,0.00000088,-
 0.00015132,-0.00043381,0.00003240,0.00000473,-0.00006784,0.00000894,-0
 .00010290,0.00003086,-0.00000273,0.00017301,-0.00016128,-0.00000299,0.
 00101880,-0.00009382,-0.00017153,-0.00427401,-0.00202886,0.00002527,-0
 .00049632,0.00054044,0.00008253,0.01017014,-0.01796987,-0.00123892,0.0
 0108072,0.00116688,0.00001314,-0.00041269,0.00004869,0.00000154,0.0000
 4735,0.00006836,0.00002277,0.00008937,-0.00007913,-0.00000482,-0.00002
 025,-0.00006199,-0.00001144,-0.00004282,0.00010739,0.00001149,-0.00007
 589,-0.00005011,0.00000332,0.00001601,-0.00001256,-0.00000160,0.000006
 73,-0.00000659,0.00000068,0.00014187,0.00009069,0.00003098,0.00016917,
 0.00162075,-0.00036959,0.09018545,-0.29983973,-0.01278704,-0.00098508,
 0.00007234,0.00010761,-0.00002226,0.00001765,0.00000403,0.00000993,-0.
 00000431,-0.00000367,-0.00000856,0.00000019,0.00000292,-0.00001474,-0.
 00000539,0.00000060,0.00003850,-0.00000607,-0.00000866,-0.00005187,-0.
 00002526,-0.00000880,-0.00001070,0.00000265,0.00000597,0.00001265,0.00
 000708,0.00001207,-0.00009097,-0.00014098,-0.00003720,-0.00069586,-0.0
 0124538,-0.00024624,0.00000191,-0.00001532,0.00000386,0.00003175,0.000
 00223,-0.00000457,0.00022320,0.00100078,0.00034514,-0.09607527,0.31739
 690,-0.00000008,0.00000381,-0.00002542,0.00000441,-0.00003719,-0.00026
 920,-0.00002071,-0.00001335,0.00029193,0.00000180,-0.00000043,0.000013
 99,-0.00003733,0.00000401,0.00015228,0.00005764,-0.00006637,-0.0005615
 0,0.00014065,-0.00002248,0.00055566,-0.00017215,-0.00008600,0.00345659
 ,0.00013141,0.00023863,-0.00091792,-0.00017370,-0.00104045,0.00223790,
 0.00004200,0.00024576,-0.00191668,-0.00008549,-0.00013500,-0.00015779,
 -0.00006268,0.00004378,-0.00000149,0.00005654,0.00001032,0.00000416,-0
 .00000610,-0.00004885,0.00000630,0.00001946,0.00002734,0.00004281,-0.0
 0003314,0.00001974,-0.00002031,-0.00000467,0.00001105,0.00008143,-0.00
 000198,0.00000050,-0.00000154,0.00009165,0.00001599,-0.00059464,0.0000
 2156,-0.00035270,0.00908358,0.00552189,-0.01269638,-0.03510884,-0.0000
 0695,-0.00003991,0.00029845,0.00000158,-0.00000023,0.00002307,0.000007
 04,-0.00001151,-0.00000096,-0.00000078,-0.00000099,0.00000569,-0.00000
 136,-0.00000137,-0.00000122,0.00002112,0.00000770,-0.00000336,-0.00002
 918,0.00000804,0.00000015,0.00000026,-0.00000075,-0.00000198,0.0000100
 2,0.00000443,-0.00000263,-0.00001949,-0.00016973,0.00043259,-0.0004188
 5,-0.00043321,0.00398129,0.00000525,-0.00000837,-0.00004610,-0.0000056
 6,0.00000251,0.00012420,0.00002458,0.00034698,-0.00595243,-0.00507854,
 0.01417470,0.02479193\\-0.00000220,-0.00000327,-0.00000279,-0.00000112
 ,0.00000015,-0.00000130,0.00000071,0.00000027,-0.00000059,0.00000386,0
 .00000216,-0.00000335,-0.00000401,0.00000177,-0.00000426,0.00000183,0.
 00000304,-0.00000016,0.00000046,0.00000015,0.00000028,0.00000313,0.000
 00174,-0.00000020,0.00000063,-0.00000070,-0.00000183,-0.00000152,-0.00
 000133,0.00000084,0.00000110,0.00000060,0.00000254,-0.00000084,-0.0000
 0132,0.00000259,-0.00000175,0.00000036,0.00000209,0.00000102,0.0000019
 6,0.00000425,-0.00000179,-0.00000165,0.00000509,-0.00000189,-0.0000001
 7,0.00000205,-0.00000115,0.00000178,0.00000368,0.00000033,-0.00000007,
 -0.00000266,0.00000046,0.00000028,-0.00000448,0.00000258,-0.00000401,-
 0.00000313,-0.00000387,-0.00000275,-0.00000184,-0.00000399,0.00000198,
 -0.00000011,0.00000005,0.00000011,0.00000281,0.00000044,-0.00000012,0.
 00000407,-0.00000560,0.00000411,0.00000465,0.00000017,-0.00000010,0.00
 000388,0.00000021,-0.00000005,0.00000546,0.00000013,-0.00000197,0.0000
 0136,0.00000967,-0.00000520,-0.00000513,0.00000122,-0.00000070,-0.0000
 0024,-0.00000254,-0.00000074,0.00000065,-0.00000059,0.00000416,-0.0000
 0357,0.00000502,-0.00000085,-0.00000102,0.00000015,-0.00000008,-0.0000
 0483,-0.00000007,0.00000039,-0.00000386,-0.00000001,0.00000003,-0.0000
 0162,-0.00000023,0.00000004,0.00000068\\\@


 FORGIVE MY NONSENSE AS I ALSO FORGIVE THOSE WHO THINK THEY TALK SENSE

                                                       -- ROBERT FROST
 Job cpu time:       2 days 10 hours 15 minutes 55.9 seconds.
 File lengths (MBytes):  RWF=   7839 Int=      0 D2E=      0 Chk=     39 Scr=      1
 Normal termination of Gaussian 09 at Sun Feb  2 01:43:16 2020.
