 Entering Gaussian System, Link 0=g09
 Initial command:
 /usr/local/Cluster-Apps/gaussian/g09/l1.exe "/rds/user/am2145/hpc-work/scratch/19184574/Gau-67737.inp" -scrdir="/rds/user/am2145/hpc-work/scratch/19184574/"
 Entering Link 1 = /usr/local/Cluster-Apps/gaussian/g09/l1.exe PID=     67738.
  
 Copyright (c) 1988,1990,1992,1993,1995,1998,2003,2009,2013,
            Gaussian, Inc.  All Rights Reserved.
  
 This is part of the Gaussian(R) 09 program.  It is based on
 the Gaussian(R) 03 system (copyright 2003, Gaussian, Inc.),
 the Gaussian(R) 98 system (copyright 1998, Gaussian, Inc.),
 the Gaussian(R) 94 system (copyright 1995, Gaussian, Inc.),
 the Gaussian 92(TM) system (copyright 1992, Gaussian, Inc.),
 the Gaussian 90(TM) system (copyright 1990, Gaussian, Inc.),
 the Gaussian 88(TM) system (copyright 1988, Gaussian, Inc.),
 the Gaussian 86(TM) system (copyright 1986, Carnegie Mellon
 University), and the Gaussian 82(TM) system (copyright 1983,
 Carnegie Mellon University). Gaussian is a federally registered
 trademark of Gaussian, Inc.
  
 This software contains proprietary and confidential information,
 including trade secrets, belonging to Gaussian, Inc.
  
 This software is provided under written license and may be
 used, copied, transmitted, or stored only in accord with that
 written license.
  
 The following legend is applicable only to US Government
 contracts under FAR:
  
                    RESTRICTED RIGHTS LEGEND
  
 Use, reproduction and disclosure by the US Government is
 subject to restrictions as set forth in subparagraphs (a)
 and (c) of the Commercial Computer Software - Restricted
 Rights clause in FAR 52.227-19.
  
 Gaussian, Inc.
 340 Quinnipiac St., Bldg. 40, Wallingford CT 06492
  
  
 ---------------------------------------------------------------
 Warning -- This program may not be used in any manner that
 competes with the business of Gaussian, Inc. or will provide
 assistance to any competitor of Gaussian, Inc.  The licensee
 of this program is prohibited from giving any competitor of
 Gaussian, Inc. access to this program.  By using this program,
 the user acknowledges that Gaussian, Inc. is engaged in the
 business of creating and licensing software in the field of
 computational chemistry and represents and warrants to the
 licensee that it is not a competitor of Gaussian, Inc. and that
 it will not use this program in any manner prohibited above.
 ---------------------------------------------------------------
  

 Cite this work as:
 Gaussian 09, Revision D.01,
 M. J. Frisch, G. W. Trucks, H. B. Schlegel, G. E. Scuseria, 
 M. A. Robb, J. R. Cheeseman, G. Scalmani, V. Barone, B. Mennucci, 
 G. A. Petersson, H. Nakatsuji, M. Caricato, X. Li, H. P. Hratchian, 
 A. F. Izmaylov, J. Bloino, G. Zheng, J. L. Sonnenberg, M. Hada, 
 M. Ehara, K. Toyota, R. Fukuda, J. Hasegawa, M. Ishida, T. Nakajima, 
 Y. Honda, O. Kitao, H. Nakai, T. Vreven, J. A. Montgomery, Jr., 
 J. E. Peralta, F. Ogliaro, M. Bearpark, J. J. Heyd, E. Brothers, 
 K. N. Kudin, V. N. Staroverov, T. Keith, R. Kobayashi, J. Normand, 
 K. Raghavachari, A. Rendell, J. C. Burant, S. S. Iyengar, J. Tomasi, 
 M. Cossi, N. Rega, J. M. Millam, M. Klene, J. E. Knox, J. B. Cross, 
 V. Bakken, C. Adamo, J. Jaramillo, R. Gomperts, R. E. Stratmann, 
 O. Yazyev, A. J. Austin, R. Cammi, C. Pomelli, J. W. Ochterski, 
 R. L. Martin, K. Morokuma, V. G. Zakrzewski, G. A. Voth, 
 P. Salvador, J. J. Dannenberg, S. Dapprich, A. D. Daniels, 
 O. Farkas, J. B. Foresman, J. V. Ortiz, J. Cioslowski, 
 and D. J. Fox, Gaussian, Inc., Wallingford CT, 2013.
 
 ******************************************
 Gaussian 09:  ES64L-G09RevD.01 24-Apr-2013
                 1-Feb-2020 
 ******************************************
 %NProcShared=20
 Will use up to   20 processors via shared memory.
 %mem=64GB
 %Chk=AS2b_Hloss_guess.chk
 --------------------------------------------------
 #n opt=(ts,calcfc,noeigen) freq b3lyp/6-311+g(d,p)
 --------------------------------------------------
 1/5=1,10=4,11=1,14=-1,18=20,26=3,38=1/1,3;
 2/9=110,12=2,17=6,18=5,40=1/2;
 3/5=4,6=6,7=111,11=2,16=1,25=1,30=1,71=2,74=-5,140=1/1,2,3;
 4//1;
 5/5=2,38=5/2;
 8/6=4,10=90,11=11/1;
 11/6=1,8=1,9=11,15=111,16=1/1,2,10;
 10/6=1,13=1/2;
 6/7=2,8=2,9=2,10=2,28=1/1;
 7/10=1,18=20,25=1/1,2,3,16;
 1/5=1,10=4,11=1,14=-1,18=20,26=3/3(2);
 2/9=110/2;
 99//99;
 2/9=110/2;
 3/5=4,6=6,7=111,11=2,16=1,25=1,30=1,71=1,74=-5/1,2,3;
 4/5=5,16=3,69=1/1;
 5/5=2,38=5/2;
 7//1,2,3,16;
 1/5=1,11=1,14=-1,18=20,26=3/3(-5);
 2/9=110/2;
 6/7=2,8=2,9=2,10=2,19=2,28=1/1;
 99/9=1/99;
 ----------------
 AS2b_Hloss_guess
 ----------------
 Symbolic Z-matrix:
 Charge =  0 Multiplicity = 2
 C                     2.00904   3.0461    0.02872 
 C                     0.67436   2.50642   0.03053 
 C                     0.51637   1.11881   0.01553 
 C                     3.15999   2.28389   0.01312 
 C                     3.05084   0.86878  -0.00015 
 C                     1.7446    0.39044   0.0001 
 C                    -0.57359   0.06889   0.01013 
 C                     0.09888  -1.16563  -0.00045 
 C                     1.48858  -0.97751  -0.00745 
 C                    -0.43745  -2.46131  -0.00601 
 C                    -1.83149  -2.52062  -0.00151 
 C                    -2.59654  -1.33141   0.003 
 C                    -1.98909  -0.00069   0.00585 
 C                    -4.02082  -1.42351   0.00264 
 C                    -4.81428  -0.30973   0.00078 
 C                    -2.85975   1.12458  -0.00018 
 C                    -4.2221    0.97799  -0.00244 
 H                     2.09332   4.12583   0.04169 
 H                     4.12766   2.7739    0.01253 
 C                     4.08102  -0.1396   -0.01154 
 C                     2.43968  -1.97288  -0.01691 
 C                     0.53663  -3.5375   -0.01587 
 H                    -2.35384  -3.47228  -0.00295 
 H                    -4.46744  -2.41234   0.0028 
 H                    -2.42641   2.11316  -0.00471 
 H                    -4.85675   1.85735  -0.00652 
 H                    -5.89392  -0.40709   0.00042 
 C                    -0.38766   3.47833   0.04225 
 C                    -1.08752   4.42291  -0.27707 
 H                    -0.94567   3.12765   1.80778 
 H                    -1.78298   5.21846  -0.39688 
 C                     3.79666  -1.49371  -0.01979 
 C                     1.89478  -3.31506  -0.02089 
 H                     5.1191    0.17643  -0.01338 
 H                     4.61827  -2.20248  -0.02783 
 H                     2.56777  -4.1662   -0.02789 
 H                     0.17407  -4.56035  -0.01935 
 
 Add virtual bond connecting atoms H30        and C28        Dist= 3.56D+00.

 GradGradGradGradGradGradGradGradGradGradGradGradGradGradGradGradGradGrad
 Berny optimization.
 Initialization pass.
                           ----------------------------
                           !    Initial Parameters    !
                           ! (Angstroms and Degrees)  !
 --------------------------                            --------------------------
 ! Name  Definition              Value          Derivative Info.                !
 --------------------------------------------------------------------------------
 ! R1    R(1,2)                  1.4397         calculate D2E/DX2 analytically  !
 ! R2    R(1,4)                  1.3805         calculate D2E/DX2 analytically  !
 ! R3    R(1,18)                 1.0831         calculate D2E/DX2 analytically  !
 ! R4    R(2,3)                  1.3967         calculate D2E/DX2 analytically  !
 ! R5    R(2,28)                 1.4397         calculate D2E/DX2 analytically  !
 ! R6    R(3,6)                  1.428          calculate D2E/DX2 analytically  !
 ! R7    R(3,7)                  1.5134         calculate D2E/DX2 analytically  !
 ! R8    R(4,5)                  1.4194         calculate D2E/DX2 analytically  !
 ! R9    R(4,19)                 1.0847         calculate D2E/DX2 analytically  !
 ! R10   R(5,6)                  1.3911         calculate D2E/DX2 analytically  !
 ! R11   R(5,20)                 1.4416         calculate D2E/DX2 analytically  !
 ! R12   R(6,9)                  1.3917         calculate D2E/DX2 analytically  !
 ! R13   R(7,8)                  1.4058         calculate D2E/DX2 analytically  !
 ! R14   R(7,13)                 1.4172         calculate D2E/DX2 analytically  !
 ! R15   R(8,9)                  1.4024         calculate D2E/DX2 analytically  !
 ! R16   R(8,10)                 1.4023         calculate D2E/DX2 analytically  !
 ! R17   R(9,21)                 1.3768         calculate D2E/DX2 analytically  !
 ! R18   R(10,11)                1.3953         calculate D2E/DX2 analytically  !
 ! R19   R(10,22)                1.4516         calculate D2E/DX2 analytically  !
 ! R20   R(11,12)                1.4141         calculate D2E/DX2 analytically  !
 ! R21   R(11,23)                1.0856         calculate D2E/DX2 analytically  !
 ! R22   R(12,13)                1.4628         calculate D2E/DX2 analytically  !
 ! R23   R(12,14)                1.4273         calculate D2E/DX2 analytically  !
 ! R24   R(13,16)                1.4228         calculate D2E/DX2 analytically  !
 ! R25   R(14,15)                1.3675         calculate D2E/DX2 analytically  !
 ! R26   R(14,24)                1.085          calculate D2E/DX2 analytically  !
 ! R27   R(15,17)                1.4174         calculate D2E/DX2 analytically  !
 ! R28   R(15,27)                1.084          calculate D2E/DX2 analytically  !
 ! R29   R(16,17)                1.3702         calculate D2E/DX2 analytically  !
 ! R30   R(16,25)                1.0794         calculate D2E/DX2 analytically  !
 ! R31   R(17,26)                1.0845         calculate D2E/DX2 analytically  !
 ! R32   R(20,32)                1.3837         calculate D2E/DX2 analytically  !
 ! R33   R(20,34)                1.0851         calculate D2E/DX2 analytically  !
 ! R34   R(21,32)                1.4391         calculate D2E/DX2 analytically  !
 ! R35   R(21,33)                1.4486         calculate D2E/DX2 analytically  !
 ! R36   R(22,33)                1.3763         calculate D2E/DX2 analytically  !
 ! R37   R(22,37)                1.0852         calculate D2E/DX2 analytically  !
 ! R38   R(28,29)                1.2182         calculate D2E/DX2 analytically  !
 ! R39   R(28,30)                1.8845         calculate D2E/DX2 analytically  !
 ! R40   R(29,31)                1.0634         calculate D2E/DX2 analytically  !
 ! R41   R(32,35)                1.0851         calculate D2E/DX2 analytically  !
 ! R42   R(33,36)                1.0851         calculate D2E/DX2 analytically  !
 ! A1    A(2,1,4)              124.4681         calculate D2E/DX2 analytically  !
 ! A2    A(2,1,18)             116.4763         calculate D2E/DX2 analytically  !
 ! A3    A(4,1,18)             119.0556         calculate D2E/DX2 analytically  !
 ! A4    A(1,2,3)              118.5089         calculate D2E/DX2 analytically  !
 ! A5    A(1,2,28)             115.5204         calculate D2E/DX2 analytically  !
 ! A6    A(3,2,28)             125.9701         calculate D2E/DX2 analytically  !
 ! A7    A(2,3,6)              114.1777         calculate D2E/DX2 analytically  !
 ! A8    A(2,3,7)              140.4226         calculate D2E/DX2 analytically  !
 ! A9    A(6,3,7)              105.3997         calculate D2E/DX2 analytically  !
 ! A10   A(1,4,5)              119.1072         calculate D2E/DX2 analytically  !
 ! A11   A(1,4,19)             119.6272         calculate D2E/DX2 analytically  !
 ! A12   A(5,4,19)             121.2655         calculate D2E/DX2 analytically  !
 ! A13   A(4,5,6)              114.5219         calculate D2E/DX2 analytically  !
 ! A14   A(4,5,20)             129.9786         calculate D2E/DX2 analytically  !
 ! A15   A(6,5,20)             115.4994         calculate D2E/DX2 analytically  !
 ! A16   A(3,6,5)              129.2159         calculate D2E/DX2 analytically  !
 ! A17   A(3,6,9)              110.0704         calculate D2E/DX2 analytically  !
 ! A18   A(5,6,9)              120.7126         calculate D2E/DX2 analytically  !
 ! A19   A(3,7,8)              105.351          calculate D2E/DX2 analytically  !
 ! A20   A(3,7,13)             138.8863         calculate D2E/DX2 analytically  !
 ! A21   A(8,7,13)             115.7616         calculate D2E/DX2 analytically  !
 ! A22   A(7,8,9)              110.8704         calculate D2E/DX2 analytically  !
 ! A23   A(7,8,10)             128.936          calculate D2E/DX2 analytically  !
 ! A24   A(9,8,10)             120.1936         calculate D2E/DX2 analytically  !
 ! A25   A(6,9,8)              108.3076         calculate D2E/DX2 analytically  !
 ! A26   A(6,9,21)             125.7033         calculate D2E/DX2 analytically  !
 ! A27   A(8,9,21)             125.9889         calculate D2E/DX2 analytically  !
 ! A28   A(8,10,11)            114.9215         calculate D2E/DX2 analytically  !
 ! A29   A(8,10,22)            115.3655         calculate D2E/DX2 analytically  !
 ! A30   A(11,10,22)           129.7129         calculate D2E/DX2 analytically  !
 ! A31   A(10,11,12)           120.3184         calculate D2E/DX2 analytically  !
 ! A32   A(10,11,23)           121.1973         calculate D2E/DX2 analytically  !
 ! A33   A(12,11,23)           118.4842         calculate D2E/DX2 analytically  !
 ! A34   A(11,12,13)           122.7101         calculate D2E/DX2 analytically  !
 ! A35   A(11,12,14)           119.0542         calculate D2E/DX2 analytically  !
 ! A36   A(13,12,14)           118.2357         calculate D2E/DX2 analytically  !
 ! A37   A(7,13,12)            117.3502         calculate D2E/DX2 analytically  !
 ! A38   A(7,13,16)            124.9165         calculate D2E/DX2 analytically  !
 ! A39   A(12,13,16)           117.7329         calculate D2E/DX2 analytically  !
 ! A40   A(12,14,15)           121.7663         calculate D2E/DX2 analytically  !
 ! A41   A(12,14,24)           118.0069         calculate D2E/DX2 analytically  !
 ! A42   A(15,14,24)           120.2268         calculate D2E/DX2 analytically  !
 ! A43   A(14,15,17)           119.8378         calculate D2E/DX2 analytically  !
 ! A44   A(14,15,27)           120.3133         calculate D2E/DX2 analytically  !
 ! A45   A(17,15,27)           119.8489         calculate D2E/DX2 analytically  !
 ! A46   A(13,16,17)           121.589          calculate D2E/DX2 analytically  !
 ! A47   A(13,16,25)           118.6002         calculate D2E/DX2 analytically  !
 ! A48   A(17,16,25)           119.8107         calculate D2E/DX2 analytically  !
 ! A49   A(15,17,16)           120.8372         calculate D2E/DX2 analytically  !
 ! A50   A(15,17,26)           119.4854         calculate D2E/DX2 analytically  !
 ! A51   A(16,17,26)           119.6774         calculate D2E/DX2 analytically  !
 ! A52   A(5,20,32)            122.5291         calculate D2E/DX2 analytically  !
 ! A53   A(5,20,34)            118.6803         calculate D2E/DX2 analytically  !
 ! A54   A(32,20,34)           118.7906         calculate D2E/DX2 analytically  !
 ! A55   A(9,21,32)            114.2484         calculate D2E/DX2 analytically  !
 ! A56   A(9,21,33)            114.2071         calculate D2E/DX2 analytically  !
 ! A57   A(32,21,33)           131.5444         calculate D2E/DX2 analytically  !
 ! A58   A(10,22,33)           122.848          calculate D2E/DX2 analytically  !
 ! A59   A(10,22,37)           118.3343         calculate D2E/DX2 analytically  !
 ! A60   A(33,22,37)           118.8177         calculate D2E/DX2 analytically  !
 ! A61   A(2,28,29)            160.9325         calculate D2E/DX2 analytically  !
 ! A62   A(2,28,30)             95.764          calculate D2E/DX2 analytically  !
 ! A63   A(29,28,30)           102.6944         calculate D2E/DX2 analytically  !
 ! A64   A(20,32,21)           121.3071         calculate D2E/DX2 analytically  !
 ! A65   A(20,32,35)           118.9248         calculate D2E/DX2 analytically  !
 ! A66   A(21,32,35)           119.7681         calculate D2E/DX2 analytically  !
 ! A67   A(21,33,22)           121.3966         calculate D2E/DX2 analytically  !
 ! A68   A(21,33,36)           119.571          calculate D2E/DX2 analytically  !
 ! A69   A(22,33,36)           119.0324         calculate D2E/DX2 analytically  !
 ! A70   L(28,29,31,15,-1)     175.4437         calculate D2E/DX2 analytically  !
 ! A71   L(28,29,31,15,-2)     171.0459         calculate D2E/DX2 analytically  !
 ! D1    D(4,1,2,3)             -0.0035         calculate D2E/DX2 analytically  !
 ! D2    D(4,1,2,28)          -179.7466         calculate D2E/DX2 analytically  !
 ! D3    D(18,1,2,3)          -179.937          calculate D2E/DX2 analytically  !
 ! D4    D(18,1,2,28)            0.3199         calculate D2E/DX2 analytically  !
 ! D5    D(2,1,4,5)             -0.1044         calculate D2E/DX2 analytically  !
 ! D6    D(2,1,4,19)           179.9753         calculate D2E/DX2 analytically  !
 ! D7    D(18,1,4,5)           179.8274         calculate D2E/DX2 analytically  !
 ! D8    D(18,1,4,19)           -0.0929         calculate D2E/DX2 analytically  !
 ! D9    D(1,2,3,6)              0.0139         calculate D2E/DX2 analytically  !
 ! D10   D(1,2,3,7)            179.9927         calculate D2E/DX2 analytically  !
 ! D11   D(28,2,3,6)           179.7274         calculate D2E/DX2 analytically  !
 ! D12   D(28,2,3,7)            -0.2938         calculate D2E/DX2 analytically  !
 ! D13   D(1,2,28,29)           55.8295         calculate D2E/DX2 analytically  !
 ! D14   D(1,2,28,30)         -109.6665         calculate D2E/DX2 analytically  !
 ! D15   D(3,2,28,29)         -123.8915         calculate D2E/DX2 analytically  !
 ! D16   D(3,2,28,30)           70.6125         calculate D2E/DX2 analytically  !
 ! D17   D(2,3,6,5)              0.0953         calculate D2E/DX2 analytically  !
 ! D18   D(2,3,6,9)            179.7081         calculate D2E/DX2 analytically  !
 ! D19   D(7,3,6,5)           -179.8907         calculate D2E/DX2 analytically  !
 ! D20   D(7,3,6,9)             -0.2779         calculate D2E/DX2 analytically  !
 ! D21   D(2,3,7,8)           -179.6725         calculate D2E/DX2 analytically  !
 ! D22   D(2,3,7,13)             0.7474         calculate D2E/DX2 analytically  !
 ! D23   D(6,3,7,8)              0.3074         calculate D2E/DX2 analytically  !
 ! D24   D(6,3,7,13)          -179.2726         calculate D2E/DX2 analytically  !
 ! D25   D(1,4,5,6)              0.1871         calculate D2E/DX2 analytically  !
 ! D26   D(1,4,5,20)          -179.6988         calculate D2E/DX2 analytically  !
 ! D27   D(19,4,5,6)          -179.894          calculate D2E/DX2 analytically  !
 ! D28   D(19,4,5,20)            0.2201         calculate D2E/DX2 analytically  !
 ! D29   D(4,5,6,3)             -0.1972         calculate D2E/DX2 analytically  !
 ! D30   D(4,5,6,9)           -179.7742         calculate D2E/DX2 analytically  !
 ! D31   D(20,5,6,3)           179.706          calculate D2E/DX2 analytically  !
 ! D32   D(20,5,6,9)             0.129          calculate D2E/DX2 analytically  !
 ! D33   D(4,5,20,32)          179.797          calculate D2E/DX2 analytically  !
 ! D34   D(4,5,20,34)           -0.1826         calculate D2E/DX2 analytically  !
 ! D35   D(6,5,20,32)           -0.088          calculate D2E/DX2 analytically  !
 ! D36   D(6,5,20,34)          179.9324         calculate D2E/DX2 analytically  !
 ! D37   D(3,6,9,8)              0.1415         calculate D2E/DX2 analytically  !
 ! D38   D(3,6,9,21)          -179.7159         calculate D2E/DX2 analytically  !
 ! D39   D(5,6,9,8)            179.7925         calculate D2E/DX2 analytically  !
 ! D40   D(5,6,9,21)            -0.0648         calculate D2E/DX2 analytically  !
 ! D41   D(3,7,8,9)             -0.2353         calculate D2E/DX2 analytically  !
 ! D42   D(3,7,8,10)           179.85           calculate D2E/DX2 analytically  !
 ! D43   D(13,7,8,9)           179.4581         calculate D2E/DX2 analytically  !
 ! D44   D(13,7,8,10)           -0.4566         calculate D2E/DX2 analytically  !
 ! D45   D(3,7,13,12)         -179.9235         calculate D2E/DX2 analytically  !
 ! D46   D(3,7,13,16)            0.288          calculate D2E/DX2 analytically  !
 ! D47   D(8,7,13,12)            0.5261         calculate D2E/DX2 analytically  !
 ! D48   D(8,7,13,16)         -179.2623         calculate D2E/DX2 analytically  !
 ! D49   D(7,8,9,6)              0.0696         calculate D2E/DX2 analytically  !
 ! D50   D(7,8,9,21)           179.9264         calculate D2E/DX2 analytically  !
 ! D51   D(10,8,9,6)           179.9928         calculate D2E/DX2 analytically  !
 ! D52   D(10,8,9,21)           -0.1504         calculate D2E/DX2 analytically  !
 ! D53   D(7,8,10,11)            0.0615         calculate D2E/DX2 analytically  !
 ! D54   D(7,8,10,22)         -179.9522         calculate D2E/DX2 analytically  !
 ! D55   D(9,8,10,11)         -179.8462         calculate D2E/DX2 analytically  !
 ! D56   D(9,8,10,22)            0.1401         calculate D2E/DX2 analytically  !
 ! D57   D(6,9,21,32)           -0.0483         calculate D2E/DX2 analytically  !
 ! D58   D(6,9,21,33)          179.8958         calculate D2E/DX2 analytically  !
 ! D59   D(8,9,21,32)         -179.8809         calculate D2E/DX2 analytically  !
 ! D60   D(8,9,21,33)            0.0631         calculate D2E/DX2 analytically  !
 ! D61   D(8,10,11,12)           0.2327         calculate D2E/DX2 analytically  !
 ! D62   D(8,10,11,23)        -179.8644         calculate D2E/DX2 analytically  !
 ! D63   D(22,10,11,12)       -179.7512         calculate D2E/DX2 analytically  !
 ! D64   D(22,10,11,23)          0.1517         calculate D2E/DX2 analytically  !
 ! D65   D(8,10,22,33)          -0.0644         calculate D2E/DX2 analytically  !
 ! D66   D(8,10,22,37)         179.932          calculate D2E/DX2 analytically  !
 ! D67   D(11,10,22,33)        179.9195         calculate D2E/DX2 analytically  !
 ! D68   D(11,10,22,37)         -0.0842         calculate D2E/DX2 analytically  !
 ! D69   D(10,11,12,13)         -0.1225         calculate D2E/DX2 analytically  !
 ! D70   D(10,11,12,14)        179.7747         calculate D2E/DX2 analytically  !
 ! D71   D(23,11,12,13)        179.972          calculate D2E/DX2 analytically  !
 ! D72   D(23,11,12,14)         -0.1307         calculate D2E/DX2 analytically  !
 ! D73   D(11,12,13,7)          -0.2826         calculate D2E/DX2 analytically  !
 ! D74   D(11,12,13,16)        179.5215         calculate D2E/DX2 analytically  !
 ! D75   D(14,12,13,7)         179.8194         calculate D2E/DX2 analytically  !
 ! D76   D(14,12,13,16)         -0.3766         calculate D2E/DX2 analytically  !
 ! D77   D(11,12,14,15)       -179.7002         calculate D2E/DX2 analytically  !
 ! D78   D(11,12,14,24)          0.2343         calculate D2E/DX2 analytically  !
 ! D79   D(13,12,14,15)          0.2017         calculate D2E/DX2 analytically  !
 ! D80   D(13,12,14,24)       -179.8638         calculate D2E/DX2 analytically  !
 ! D81   D(7,13,16,17)        -179.9201         calculate D2E/DX2 analytically  !
 ! D82   D(7,13,16,25)           0.183          calculate D2E/DX2 analytically  !
 ! D83   D(12,13,16,17)          0.2922         calculate D2E/DX2 analytically  !
 ! D84   D(12,13,16,25)       -179.6047         calculate D2E/DX2 analytically  !
 ! D85   D(12,14,15,17)          0.0741         calculate D2E/DX2 analytically  !
 ! D86   D(12,14,15,27)        179.9923         calculate D2E/DX2 analytically  !
 ! D87   D(24,14,15,17)       -179.859          calculate D2E/DX2 analytically  !
 ! D88   D(24,14,15,27)          0.0591         calculate D2E/DX2 analytically  !
 ! D89   D(14,15,17,16)         -0.1726         calculate D2E/DX2 analytically  !
 ! D90   D(14,15,17,26)        179.8411         calculate D2E/DX2 analytically  !
 ! D91   D(27,15,17,16)        179.9089         calculate D2E/DX2 analytically  !
 ! D92   D(27,15,17,26)         -0.0774         calculate D2E/DX2 analytically  !
 ! D93   D(13,16,17,15)         -0.0189         calculate D2E/DX2 analytically  !
 ! D94   D(13,16,17,26)        179.9673         calculate D2E/DX2 analytically  !
 ! D95   D(25,16,17,15)        179.8767         calculate D2E/DX2 analytically  !
 ! D96   D(25,16,17,26)         -0.137          calculate D2E/DX2 analytically  !
 ! D97   D(5,20,32,21)          -0.0229         calculate D2E/DX2 analytically  !
 ! D98   D(5,20,32,35)        -179.9772         calculate D2E/DX2 analytically  !
 ! D99   D(34,20,32,21)        179.9566         calculate D2E/DX2 analytically  !
 ! D100  D(34,20,32,35)          0.0023         calculate D2E/DX2 analytically  !
 ! D101  D(9,21,32,20)           0.0894         calculate D2E/DX2 analytically  !
 ! D102  D(9,21,32,35)        -179.9567         calculate D2E/DX2 analytically  !
 ! D103  D(33,21,32,20)       -179.8424         calculate D2E/DX2 analytically  !
 ! D104  D(33,21,32,35)          0.1115         calculate D2E/DX2 analytically  !
 ! D105  D(9,21,33,22)           0.02           calculate D2E/DX2 analytically  !
 ! D106  D(9,21,33,36)        -179.9748         calculate D2E/DX2 analytically  !
 ! D107  D(32,21,33,22)        179.9518         calculate D2E/DX2 analytically  !
 ! D108  D(32,21,33,36)         -0.043          calculate D2E/DX2 analytically  !
 ! D109  D(10,22,33,21)         -0.0163         calculate D2E/DX2 analytically  !
 ! D110  D(10,22,33,36)        179.9784         calculate D2E/DX2 analytically  !
 ! D111  D(37,22,33,21)        179.9873         calculate D2E/DX2 analytically  !
 ! D112  D(37,22,33,36)         -0.0179         calculate D2E/DX2 analytically  !
 --------------------------------------------------------------------------------
 Trust Radius=3.00D-01 FncErr=1.00D-07 GrdErr=1.00D-06
 Number of steps in this run=    222 maximum allowed number of steps=    222.
 Search for a saddle point of order  1.
 GradGradGradGradGradGradGradGradGradGradGradGradGradGradGradGradGradGrad

                          Input orientation:                          
 ---------------------------------------------------------------------
 Center     Atomic      Atomic             Coordinates (Angstroms)
 Number     Number       Type             X           Y           Z
 ---------------------------------------------------------------------
      1          6           0        2.009040    3.046100    0.028720
      2          6           0        0.674360    2.506420    0.030530
      3          6           0        0.516370    1.118810    0.015530
      4          6           0        3.159990    2.283890    0.013120
      5          6           0        3.050840    0.868780   -0.000150
      6          6           0        1.744600    0.390440    0.000100
      7          6           0       -0.573590    0.068890    0.010130
      8          6           0        0.098880   -1.165630   -0.000450
      9          6           0        1.488580   -0.977510   -0.007450
     10          6           0       -0.437450   -2.461310   -0.006010
     11          6           0       -1.831490   -2.520620   -0.001510
     12          6           0       -2.596540   -1.331410    0.003000
     13          6           0       -1.989090   -0.000690    0.005850
     14          6           0       -4.020820   -1.423510    0.002640
     15          6           0       -4.814280   -0.309730    0.000780
     16          6           0       -2.859750    1.124580   -0.000180
     17          6           0       -4.222100    0.977990   -0.002440
     18          1           0        2.093320    4.125830    0.041690
     19          1           0        4.127660    2.773900    0.012530
     20          6           0        4.081020   -0.139600   -0.011540
     21          6           0        2.439680   -1.972880   -0.016910
     22          6           0        0.536630   -3.537500   -0.015870
     23          1           0       -2.353840   -3.472280   -0.002950
     24          1           0       -4.467440   -2.412340    0.002800
     25          1           0       -2.426410    2.113160   -0.004710
     26          1           0       -4.856750    1.857350   -0.006520
     27          1           0       -5.893920   -0.407090    0.000420
     28          6           0       -0.387660    3.478330    0.042250
     29          6           0       -1.087520    4.422910   -0.277070
     30          1           0       -0.945670    3.127650    1.807780
     31          1           0       -1.782980    5.218460   -0.396880
     32          6           0        3.796660   -1.493710   -0.019790
     33          6           0        1.894780   -3.315060   -0.020890
     34          1           0        5.119100    0.176430   -0.013380
     35          1           0        4.618270   -2.202480   -0.027830
     36          1           0        2.567770   -4.166200   -0.027890
     37          1           0        0.174070   -4.560350   -0.019350
 ---------------------------------------------------------------------
                    Distance matrix (angstroms):
                    1          2          3          4          5
     1  C    0.000000
     2  C    1.439663   0.000000
     3  C    2.437762   1.396656   0.000000
     4  C    1.380541   2.495632   2.888969   0.000000
     5  C    2.413898   2.886254   2.546821   1.419375   0.000000
     6  C    2.668947   2.371436   1.428044   2.364033   1.391069
     7  C    3.941333   2.738494   1.513398   4.341181   3.711660
     8  C    4.624741   3.717000   2.322331   4.611916   3.585093
     9  C    4.057293   3.578011   2.310904   3.664801   2.418573
    10  C    6.026449   5.090756   3.705064   5.954735   4.822624
    11  C    6.763058   5.617067   4.331072   6.928088   5.943499
    12  C    6.354103   5.042666   3.961558   6.797657   6.060837
    13  C    5.026778   3.657892   2.744213   5.633150   5.114383
    14  C    7.505818   6.122895   5.200928   8.081396   7.433907
    15  C    7.603951   6.169016   5.518766   8.385464   7.952924
    16  C    5.234328   3.794780   3.376161   6.130371   5.916123
    17  C    6.565452   5.129572   4.740596   7.496724   7.273760
    18  H    1.083092   2.153151   3.395530   2.128695   3.395139
    19  H    2.136096   3.463690   3.972499   1.084664   2.188421
    20  C    3.800448   4.313760   3.780352   2.592722   1.441607
    21  C    5.037628   4.814845   3.641253   4.317388   2.906687
    22  C    6.746389   6.045667   4.656460   6.385252   5.073145
    23  H    7.843788   6.701938   5.414476   7.970952   6.932198
    24  H    8.469949   7.115692   6.107990   8.957252   8.203066
    25  H    4.532627   3.125807   3.106299   5.589037   5.616829
    26  H    6.968030   5.569187   5.423684   8.028103   7.969146
    27  H    8.624506   7.185524   6.589417   9.445360   9.035296
    28  C    2.435401   1.439664   2.526919   3.743442   4.316808
    29  C    3.402616   2.621407   3.684448   4.764552   5.462101
    30  H    3.449930   2.483756   3.063521   4.559515   4.933883
    31  H    4.390865   3.684611   4.718498   5.763051   6.514824
    32  C    4.879325   5.074675   4.193663   3.831017   2.477497
    33  C    6.362380   5.948252   4.643333   5.740222   4.340671
    34  H    4.231932   5.018615   4.698302   2.877534   2.181106
    35  H    5.861644   6.142603   5.278109   4.717602   3.448223
    36  H    7.234131   6.936301   5.669344   6.477350   5.058177
    37  H    7.824801   7.084632   5.689573   7.467288   6.144235
                    6          7          8          9         10
     6  C    0.000000
     7  C    2.340406   0.000000
     8  C    2.264895   1.405833   0.000000
     9  C    1.391722   2.312533   1.402392   0.000000
    10  C    3.590802   2.533911   1.402308   2.431307   0.000000
    11  C    4.611149   2.878890   2.358459   3.661159   1.395308
    12  C    4.670147   2.460329   2.700515   4.100434   2.436888
    13  C    3.754125   1.417216   2.390971   3.612277   2.909017
    14  C    6.044046   3.756422   4.127764   5.527432   3.730636
    15  C    6.596146   4.257569   4.987154   6.338142   4.877088
    16  C    4.662510   2.518157   3.741464   4.829784   4.327375
    17  C    5.995559   3.760086   4.823482   6.036213   5.113939
    18  H    3.751863   4.855118   5.655008   5.139281   7.056733
    19  H    3.370462   5.423913   5.634814   4.586744   6.946078
    20  C    2.395816   4.659327   4.112213   2.724492   5.080053
    21  C    2.463475   3.639966   2.476140   1.376751   2.918315
    22  C    4.109521   3.773501   2.411976   2.731269   1.451590
    23  H    5.631858   3.963502   3.366968   4.581276   2.166707
    24  H    6.815059   4.617210   4.733453   6.126420   4.030297
    25  H    4.512772   2.759022   4.138547   4.987925   4.988160
    26  H    6.762373   4.641587   5.804887   6.949795   6.179081
    27  H    7.680042   5.341588   6.040615   7.404509   5.830345
    28  C    3.752782   3.414657   4.669573   4.835003   5.940045
    29  C    4.935437   4.393643   5.719776   5.989451   6.920155
    30  H    4.242355   3.567352   4.774205   5.106170   5.897847
    31  H    5.992595   5.305314   6.667470   7.017464   7.806542
    32  C    2.785923   4.641304   3.712356   2.365132   4.343285
    33  C    3.708601   4.188667   2.801022   2.372619   2.483628
    34  H    3.381306   5.693754   5.196528   3.809500   6.150852
    35  H    3.870658   5.667096   4.636884   3.360941   5.062388
    36  H    4.630482   5.273099   3.885819   3.366424   3.455210
    37  H    5.193964   4.689321   3.395605   3.816388   2.186345
                   11         12         13         14         15
    11  C    0.000000
    12  C    1.414052   0.000000
    13  C    2.524864   1.462812   0.000000
    14  C    2.448843   1.427255   2.480394   0.000000
    15  C    3.712826   2.441763   2.842047   1.367512   0.000000
    16  C    3.787453   2.470056   1.422785   2.800153   2.424342
    17  C    4.237368   2.824146   2.438076   2.409926   1.417360
    18  H    7.718892   7.195676   5.804785   8.257082   8.209190
    19  H    7.971424   7.878358   6.716623   9.166028   9.458710
    20  C    6.373942   6.783099   6.071724   8.202953   8.896935
    21  C    4.306176   5.076947   4.848098   6.483845   7.442198
    22  C    2.577255   3.831963   4.346120   5.023908   6.249081
    23  H    1.085591   2.154591   3.490710   2.641271   4.006932
    24  H    2.638177   2.160712   3.458075   1.085013   2.131026
    25  H    4.671815   3.448777   2.158639   3.879463   3.401816
    26  H    5.321545   3.908559   3.417007   3.385691   2.167508
    27  H    4.579340   3.424484   3.925925   2.131107   1.084021
    28  C    6.170410   5.292853   3.830076   6.101595   5.826327
    29  C    6.988708   5.955483   4.523396   6.546993   6.030242
    30  H    5.996763   5.085845   3.757950   5.781707   5.481512
    31  H    7.749324   6.612305   5.238721   7.020207   6.317262
    32  C    5.721097   6.395300   5.975338   7.817827   8.691980
    33  C    3.810065   4.909928   5.105899   6.210704   7.351460
    34  H    7.455530   7.861612   7.110422   9.278912   9.945280
    35  H    6.457655   7.267269   6.964641   8.674192   9.620620
    36  H    4.697033   5.891272   6.173944   7.136722   8.328736
    37  H    2.860610   4.254742   5.046820   5.238067   6.553763
                   16         17         18         19         20
    16  C    0.000000
    17  C    1.370216   0.000000
    18  H    5.791559   7.056584   0.000000
    19  H    7.179437   8.540726   2.442766   0.000000
    20  C    7.054968   8.378000   4.706132   2.913973   0.000000
    21  C    6.138281   7.286093   6.108818   5.038061   2.460679
    22  C    5.768070   6.560133   7.820053   7.261548   4.910035
    23  H    4.624616   4.826520   8.804005   9.001380   7.246672
    24  H    3.885161   3.399199   9.262438  10.038572   8.845435
    25  H    1.079395   2.124410   4.947823   6.587314   6.886336
    26  H    2.127205   1.084468   7.311074   9.031060   9.158142
    27  H    3.398853   2.171045   9.183957  10.514319   9.978533
    28  C    3.413674   4.577841   2.564082   4.570035   5.749905
    29  C    3.754524   4.665671   3.210546   5.477336   6.899334
    30  H    3.308279   4.316588   3.653888   5.393212   6.265178
    31  H    4.251665   4.907797   4.051159   6.409302   7.952596
    32  C    7.152875   8.391073   5.872340   4.280549   1.383670
    33  C    6.505105   7.473074   7.443801   6.485546   3.855292
    34  H    8.034999   9.375534   4.975554   2.780373   1.085121
    35  H    8.184795   9.395114   6.813788   5.000668   2.131754
    36  H    7.579650   8.518549   8.305884   7.113359   4.301593
    37  H    6.443823   7.071054   8.895896   8.332053   5.899775
                   21         22         23         24         25
    21  C    0.000000
    22  C    2.463663   0.000000
    23  H    5.022572   2.891235   0.000000
    24  H    6.921114   5.129040   2.364490   0.000000
    25  H    6.354109   6.380414   5.585912   4.964475   0.000000
    26  H    8.240671   7.628436   5.888083   4.287412   2.443766
    27  H    8.479439   7.152042   4.682688   2.460869   4.286643
    28  C    6.141095   7.076691   7.223495   7.165623   2.454057
    29  C    7.308553   8.128605   8.000796   7.630389   2.683608
    30  H    6.387918   7.067329   6.987186   6.808253   2.550863
    31  H    8.348090   9.066013   8.718373   8.099085   3.195417
    32  C    1.439099   3.847712   6.460934   8.315031   7.192798
    33  C    1.448578   1.376254   4.251566   6.425987   6.938193
    34  H    3.434944   5.898501   8.316130   9.929942   7.790104
    35  H    2.190682   4.294439   7.086842   9.088185   8.261525
    36  H    2.197084   2.126250   4.970351   7.250596   8.023262
    37  H    3.439185   1.085211   2.752180   5.114494   7.162293
                   26         27         28         29         30
    26  H    0.000000
    27  H    2.490674   0.000000
    28  C    4.754232   6.739224   0.000000
    29  C    4.567537   6.819632   1.218196   0.000000
    30  H    4.494652   6.343983   1.884529   2.458540   0.000000
    31  H    4.571379   6.978860   2.273281   1.063447   3.151682
    32  C    9.279617   9.751333   6.498736   7.676444   6.869256
    33  C    8.505127   8.313879   7.166845   8.296742   7.274662
    34  H   10.116478  11.028477   6.421063   7.524909   6.986255
    35  H   10.308185  10.664444   7.572044   8.747225   7.920680
    36  H    9.560706   9.259153   8.196238   9.337882   8.301457
    37  H    8.154519   7.353262   8.058518   9.075075   7.981075
                   31         32         33         34         35
    31  H    0.000000
    32  C    8.736579   0.000000
    33  C    9.299906   2.633337   0.000000
    34  H    8.556158   2.130318   4.752557   0.000000
    35  H    9.807270   1.085109   2.941986   2.431101   0.000000
    36  H   10.350702   2.941503   1.085082   5.036659   2.839145
    37  H    9.979865   4.746308   2.124051   6.847660   5.030958
                   36         37
    36  H    0.000000
    37  H    2.425949   0.000000
 Stoichiometry    C24H13(2)
 Framework group  C1[X(C24H13)]
 Deg. of freedom   105
 Full point group                 C1      NOp   1
 Largest Abelian subgroup         C1      NOp   1
 Largest concise Abelian subgroup C1      NOp   1
                         Standard orientation:                         
 ---------------------------------------------------------------------
 Center     Atomic      Atomic             Coordinates (Angstroms)
 Number     Number       Type             X           Y           Z
 ---------------------------------------------------------------------
      1          6           0        2.009039    3.046101    0.028720
      2          6           0        0.674359    2.506421    0.030530
      3          6           0        0.516370    1.118811    0.015530
      4          6           0        3.159989    2.283891    0.013120
      5          6           0        3.050840    0.868781   -0.000150
      6          6           0        1.744600    0.390441    0.000100
      7          6           0       -0.573590    0.068890    0.010130
      8          6           0        0.098880   -1.165629   -0.000450
      9          6           0        1.488580   -0.977509   -0.007450
     10          6           0       -0.437449   -2.461310   -0.006010
     11          6           0       -1.831489   -2.520620   -0.001510
     12          6           0       -2.596540   -1.331410    0.003000
     13          6           0       -1.989090   -0.000690    0.005850
     14          6           0       -4.020820   -1.423511    0.002640
     15          6           0       -4.814280   -0.309731    0.000780
     16          6           0       -2.859750    1.124580   -0.000180
     17          6           0       -4.222100    0.977989   -0.002440
     18          1           0        2.093319    4.125831    0.041690
     19          1           0        4.127659    2.773902    0.012530
     20          6           0        4.081020   -0.139598   -0.011540
     21          6           0        2.439680   -1.972879   -0.016910
     22          6           0        0.536631   -3.537499   -0.015870
     23          1           0       -2.353839   -3.472280   -0.002950
     24          1           0       -4.467439   -2.412341    0.002800
     25          1           0       -2.426411    2.113160   -0.004710
     26          1           0       -4.856751    1.857349   -0.006520
     27          1           0       -5.893920   -0.407091    0.000420
     28          6           0       -0.387661    3.478330    0.042250
     29          6           0       -1.087521    4.422910   -0.277070
     30          1           0       -0.945671    3.127650    1.807780
     31          1           0       -1.782982    5.218460   -0.396880
     32          6           0        3.796660   -1.493708   -0.019790
     33          6           0        1.894781   -3.315059   -0.020890
     34          1           0        5.119100    0.176432   -0.013380
     35          1           0        4.618271   -2.202478   -0.027830
     36          1           0        2.567771   -4.166199   -0.027890
     37          1           0        0.174071   -4.560349   -0.019350
 ---------------------------------------------------------------------
 Rotational constants (GHZ):      0.3617093      0.2536009      0.1494695
 Standard basis: 6-311+G(d,p) (5D, 7F)
 There are   630 symmetry adapted cartesian basis functions of A   symmetry.
 There are   606 symmetry adapted basis functions of A   symmetry.
   606 basis functions,   968 primitive gaussians,   630 cartesian basis functions
    79 alpha electrons       78 beta electrons
       nuclear repulsion energy      1798.5082158400 Hartrees.
 NAtoms=   37 NActive=   37 NUniq=   37 SFac= 1.00D+00 NAtFMM=   60 NAOKFM=F Big=F
 Integral buffers will be    131072 words long.
 Raffenetti 2 integral format.
 Two-electron integral symmetry is turned on.
 One-electron integrals computed using PRISM.
 NBasis=   606 RedAO= T EigKep=  1.30D-06  NBF=   606
 NBsUse=   589 1.00D-06 EigRej=  8.06D-07 NBFU=   589
 ExpMin= 4.38D-02 ExpMax= 4.56D+03 ExpMxC= 6.82D+02 IAcc=2 IRadAn=         4 AccDes= 0.00D+00
 Harris functional with IExCor=  402 and IRadAn=       4 diagonalized for initial guess.
 HarFok:  IExCor=  402 AccDes= 0.00D+00 IRadAn=         4 IDoV= 1 UseB2=F ITyADJ=14
 ICtDFT=  3500011 ScaDFX=  1.000000  1.000000  1.000000  1.000000
 FoFCou: FMM=F IPFlag=           0 FMFlag=      100000 FMFlg1=           0
         NFxFlg=           0 DoJE=T BraDBF=F KetDBF=T FulRan=T
         wScrn=  0.000000 ICntrl=     500 IOpCl=  0 I1Cent=   200000004 NGrid=           0
         NMat0=    1 NMatS0=      1 NMatT0=    0 NMatD0=    1 NMtDS0=    0 NMtDT0=    0
 Petite list used in FoFCou.
 Initial guess <Sx>= 0.0000 <Sy>= 0.0000 <Sz>= 0.5000 <S**2>= 0.7500 S= 0.5000
 Requested convergence on RMS density matrix=1.00D-08 within 128 cycles.
 Requested convergence on MAX density matrix=1.00D-06.
 Requested convergence on             energy=1.00D-06.
 No special actions if energy rises.
 Restarting incremental Fock formation.
 SCF Done:  E(UB3LYP) =  -922.448868125     A.U. after   28 cycles
            NFock= 28  Conv=0.19D-08     -V/T= 2.0044
 <Sx>= 0.0000 <Sy>= 0.0000 <Sz>= 0.5000 <S**2>= 0.7679 S= 0.5089
 <L.S>= 0.000000000000E+00
 Annihilation of the first spin contaminant:
 S**2 before annihilation     0.7679,   after     0.7501
 DoSCS=F DFT=T ScalE2(SS,OS)=  1.000000  1.000000
 Range of M.O.s used for correlation:     1   589
 NBasis=   606 NAE=    79 NBE=    78 NFC=     0 NFV=     0
 NROrb=    589 NOA=    79 NOB=    78 NVA=   510 NVB=   511

 **** Warning!!: The largest alpha MO coefficient is  0.13244939D+03


 **** Warning!!: The largest beta MO coefficient is  0.13535401D+03

 Symmetrizing basis deriv contribution to polar:
 IMax=3 JMax=2 DiffMx= 0.00D+00
 G2DrvN: will do    38 centers at a time, making    1 passes.
 Calling FoFCou, ICntrl=  3107 FMM=F I1Cent=   0 AccDes= 0.00D+00.
 End of G2Drv F.D. properties file   721 does not exist.
 End of G2Drv F.D. properties file   722 does not exist.
 End of G2Drv F.D. properties file   788 does not exist.
          IDoAtm=1111111111111111111111111111111111111
          Differentiating once with respect to nuclear coordinates.
          There are   114 degrees of freedom in the 1st order CPHF.  IDoFFX=6 NUNeed=     0.
    109 vectors produced by pass  0 Test12= 8.01D-14 1.00D-09 XBig12= 5.30D-01 1.49D-01.
 AX will form   109 AO Fock derivatives at one time.
    108 vectors produced by pass  1 Test12= 8.01D-14 1.00D-09 XBig12= 1.52D-01 5.16D-02.
    108 vectors produced by pass  2 Test12= 8.01D-14 1.00D-09 XBig12= 2.18D-03 6.37D-03.
    108 vectors produced by pass  3 Test12= 8.01D-14 1.00D-09 XBig12= 1.67D-05 6.24D-04.
    108 vectors produced by pass  4 Test12= 8.01D-14 1.00D-09 XBig12= 1.62D-07 3.79D-05.
    108 vectors produced by pass  5 Test12= 8.01D-14 1.00D-09 XBig12= 9.07D-10 2.06D-06.
    108 vectors produced by pass  6 Test12= 8.01D-14 1.00D-09 XBig12= 4.37D-11 4.04D-07.
    106 vectors produced by pass  7 Test12= 8.01D-14 1.00D-09 XBig12= 6.27D-12 1.34D-07.
     96 vectors produced by pass  8 Test12= 8.01D-14 1.00D-09 XBig12= 5.76D-13 5.07D-08.
     28 vectors produced by pass  9 Test12= 8.01D-14 1.00D-09 XBig12= 3.16D-15 3.01D-09.
     28 vectors produced by pass 10 Test12= 8.01D-14 1.00D-09 XBig12= 1.17D-13 2.26D-08.
     28 vectors produced by pass 11 Test12= 8.01D-14 1.00D-09 XBig12= 1.71D-12 6.77D-08.
     28 vectors produced by pass 12 Test12= 8.01D-14 1.00D-09 XBig12= 2.51D-13 3.25D-08.
     28 vectors produced by pass 13 Test12= 8.01D-14 1.00D-09 XBig12= 4.46D-13 3.44D-08.
     28 vectors produced by pass 14 Test12= 8.01D-14 1.00D-09 XBig12= 1.12D-13 1.81D-08.
     28 vectors produced by pass 15 Test12= 8.01D-14 1.00D-09 XBig12= 4.23D-13 2.74D-08.
     27 vectors produced by pass 16 Test12= 8.01D-14 1.00D-09 XBig12= 1.27D-13 1.65D-08.
     25 vectors produced by pass 17 Test12= 8.01D-14 1.00D-09 XBig12= 9.44D-14 1.37D-08.
     25 vectors produced by pass 18 Test12= 8.01D-14 1.00D-09 XBig12= 3.10D-13 3.08D-08.
     24 vectors produced by pass 19 Test12= 8.01D-14 1.00D-09 XBig12= 1.01D-13 1.52D-08.
     23 vectors produced by pass 20 Test12= 8.01D-14 1.00D-09 XBig12= 1.01D-13 1.43D-08.
     23 vectors produced by pass 21 Test12= 8.01D-14 1.00D-09 XBig12= 1.59D-13 2.06D-08.
     23 vectors produced by pass 22 Test12= 8.01D-14 1.00D-09 XBig12= 1.64D-13 1.60D-08.
     23 vectors produced by pass 23 Test12= 8.01D-14 1.00D-09 XBig12= 1.49D-13 1.76D-08.
     23 vectors produced by pass 24 Test12= 8.01D-14 1.00D-09 XBig12= 1.11D-13 1.35D-08.
     21 vectors produced by pass 25 Test12= 8.01D-14 1.00D-09 XBig12= 8.48D-14 1.23D-08.
     21 vectors produced by pass 26 Test12= 8.01D-14 1.00D-09 XBig12= 1.02D-13 1.49D-08.
     21 vectors produced by pass 27 Test12= 8.01D-14 1.00D-09 XBig12= 1.64D-13 1.79D-08.
     21 vectors produced by pass 28 Test12= 8.01D-14 1.00D-09 XBig12= 1.05D-13 1.36D-08.
     20 vectors produced by pass 29 Test12= 8.01D-14 1.00D-09 XBig12= 7.17D-14 9.97D-09.
     20 vectors produced by pass 30 Test12= 8.01D-14 1.00D-09 XBig12= 8.92D-14 1.07D-08.
     18 vectors produced by pass 31 Test12= 8.01D-14 1.00D-09 XBig12= 6.78D-14 1.01D-08.
     18 vectors produced by pass 32 Test12= 8.01D-14 1.00D-09 XBig12= 1.38D-13 1.70D-08.
     15 vectors produced by pass 33 Test12= 8.01D-14 1.00D-09 XBig12= 6.71D-14 1.03D-08.
     15 vectors produced by pass 34 Test12= 8.01D-14 1.00D-09 XBig12= 1.08D-13 1.40D-08.
     11 vectors produced by pass 35 Test12= 8.01D-14 1.00D-09 XBig12= 5.14D-14 8.31D-09.
     11 vectors produced by pass 36 Test12= 8.01D-14 1.00D-09 XBig12= 7.08D-14 1.02D-08.
      9 vectors produced by pass 37 Test12= 8.01D-14 1.00D-09 XBig12= 4.49D-14 1.10D-08.
      9 vectors produced by pass 38 Test12= 8.01D-14 1.00D-09 XBig12= 4.14D-14 9.20D-09.
      9 vectors produced by pass 39 Test12= 8.01D-14 1.00D-09 XBig12= 7.00D-14 1.06D-08.
      9 vectors produced by pass 40 Test12= 8.01D-14 1.00D-09 XBig12= 1.08D-13 1.22D-08.
      9 vectors produced by pass 41 Test12= 8.01D-14 1.00D-09 XBig12= 8.35D-14 1.16D-08.
      9 vectors produced by pass 42 Test12= 8.01D-14 1.00D-09 XBig12= 7.12D-14 1.06D-08.
      9 vectors produced by pass 43 Test12= 8.01D-14 1.00D-09 XBig12= 9.25D-14 1.30D-08.
      9 vectors produced by pass 44 Test12= 8.01D-14 1.00D-09 XBig12= 6.42D-14 9.55D-09.
      9 vectors produced by pass 45 Test12= 8.01D-14 1.00D-09 XBig12= 6.72D-14 9.14D-09.
      9 vectors produced by pass 46 Test12= 8.01D-14 1.00D-09 XBig12= 6.70D-14 9.93D-09.
      9 vectors produced by pass 47 Test12= 8.01D-14 1.00D-09 XBig12= 3.87D-14 7.15D-09.
      9 vectors produced by pass 48 Test12= 8.01D-14 1.00D-09 XBig12= 1.01D-13 1.48D-08.
      9 vectors produced by pass 49 Test12= 8.01D-14 1.00D-09 XBig12= 6.42D-14 1.10D-08.
      9 vectors produced by pass 50 Test12= 8.01D-14 1.00D-09 XBig12= 6.52D-14 8.86D-09.
      9 vectors produced by pass 51 Test12= 8.01D-14 1.00D-09 XBig12= 3.97D-14 7.97D-09.
      9 vectors produced by pass 52 Test12= 8.01D-14 1.00D-09 XBig12= 6.21D-14 1.00D-08.
      9 vectors produced by pass 53 Test12= 8.01D-14 1.00D-09 XBig12= 4.30D-14 7.85D-09.
      9 vectors produced by pass 54 Test12= 8.01D-14 1.00D-09 XBig12= 5.30D-14 9.33D-09.
      9 vectors produced by pass 55 Test12= 8.01D-14 1.00D-09 XBig12= 3.54D-14 8.48D-09.
      8 vectors produced by pass 56 Test12= 8.01D-14 1.00D-09 XBig12= 3.07D-14 7.26D-09.
      7 vectors produced by pass 57 Test12= 8.01D-14 1.00D-09 XBig12= 1.27D-14 4.20D-09.
      7 vectors produced by pass 58 Test12= 8.01D-14 1.00D-09 XBig12= 3.67D-14 6.87D-09.
      7 vectors produced by pass 59 Test12= 8.01D-14 1.00D-09 XBig12= 7.96D-14 9.83D-09.
      7 vectors produced by pass 60 Test12= 8.01D-14 1.00D-09 XBig12= 6.69D-14 1.12D-08.
      7 vectors produced by pass 61 Test12= 8.01D-14 1.00D-09 XBig12= 5.19D-14 8.20D-09.
      7 vectors produced by pass 62 Test12= 8.01D-14 1.00D-09 XBig12= 4.00D-14 7.79D-09.
      7 vectors produced by pass 63 Test12= 8.01D-14 1.00D-09 XBig12= 3.32D-14 6.72D-09.
      7 vectors produced by pass 64 Test12= 8.01D-14 1.00D-09 XBig12= 2.95D-14 6.69D-09.
      7 vectors produced by pass 65 Test12= 8.01D-14 1.00D-09 XBig12= 4.99D-14 8.38D-09.
      7 vectors produced by pass 66 Test12= 8.01D-14 1.00D-09 XBig12= 3.74D-14 6.92D-09.
      7 vectors produced by pass 67 Test12= 8.01D-14 1.00D-09 XBig12= 2.36D-14 5.58D-09.
      7 vectors produced by pass 68 Test12= 8.01D-14 1.00D-09 XBig12= 6.30D-14 9.73D-09.
      7 vectors produced by pass 69 Test12= 8.01D-14 1.00D-09 XBig12= 3.15D-14 7.69D-09.
      7 vectors produced by pass 70 Test12= 8.01D-14 1.00D-09 XBig12= 8.71D-14 1.10D-08.
      7 vectors produced by pass 71 Test12= 8.01D-14 1.00D-09 XBig12= 2.49D-14 5.66D-09.
      7 vectors produced by pass 72 Test12= 8.01D-14 1.00D-09 XBig12= 4.59D-14 7.25D-09.
      7 vectors produced by pass 73 Test12= 8.01D-14 1.00D-09 XBig12= 5.36D-14 8.93D-09.
      7 vectors produced by pass 74 Test12= 8.01D-14 1.00D-09 XBig12= 1.54D-14 4.58D-09.
      7 vectors produced by pass 75 Test12= 8.01D-14 1.00D-09 XBig12= 5.07D-14 8.79D-09.
      7 vectors produced by pass 76 Test12= 8.01D-14 1.00D-09 XBig12= 2.24D-14 6.58D-09.
      7 vectors produced by pass 77 Test12= 8.01D-14 1.00D-09 XBig12= 6.71D-14 9.32D-09.
      7 vectors produced by pass 78 Test12= 8.01D-14 1.00D-09 XBig12= 1.25D-14 4.22D-09.
      7 vectors produced by pass 79 Test12= 8.01D-14 1.00D-09 XBig12= 2.86D-14 6.58D-09.
      7 vectors produced by pass 80 Test12= 8.01D-14 1.00D-09 XBig12= 6.37D-14 1.07D-08.
      7 vectors produced by pass 81 Test12= 8.01D-14 1.00D-09 XBig12= 2.66D-14 6.00D-09.
      7 vectors produced by pass 82 Test12= 8.01D-14 1.00D-09 XBig12= 2.66D-14 6.15D-09.
      7 vectors produced by pass 83 Test12= 8.01D-14 1.00D-09 XBig12= 4.30D-14 8.08D-09.
      7 vectors produced by pass 84 Test12= 8.01D-14 1.00D-09 XBig12= 3.59D-14 7.42D-09.
      7 vectors produced by pass 85 Test12= 8.01D-14 1.00D-09 XBig12= 3.54D-14 6.32D-09.
      7 vectors produced by pass 86 Test12= 8.01D-14 1.00D-09 XBig12= 2.10D-14 5.04D-09.
      7 vectors produced by pass 87 Test12= 8.01D-14 1.00D-09 XBig12= 5.19D-14 8.41D-09.
      7 vectors produced by pass 88 Test12= 8.01D-14 1.00D-09 XBig12= 2.17D-14 5.56D-09.
      7 vectors produced by pass 89 Test12= 8.01D-14 1.00D-09 XBig12= 3.74D-14 7.44D-09.
      7 vectors produced by pass 90 Test12= 8.01D-14 1.00D-09 XBig12= 3.27D-14 6.22D-09.
      6 vectors produced by pass 91 Test12= 8.01D-14 1.00D-09 XBig12= 8.35D-15 3.34D-09.
      6 vectors produced by pass 92 Test12= 8.01D-14 1.00D-09 XBig12= 4.16D-14 8.64D-09.
      6 vectors produced by pass 93 Test12= 8.01D-14 1.00D-09 XBig12= 6.09D-14 1.09D-08.
      6 vectors produced by pass 94 Test12= 8.01D-14 1.00D-09 XBig12= 1.51D-14 5.25D-09.
      6 vectors produced by pass 95 Test12= 8.01D-14 1.00D-09 XBig12= 2.68D-14 6.98D-09.
      6 vectors produced by pass 96 Test12= 8.01D-14 1.00D-09 XBig12= 5.87D-14 9.19D-09.
      6 vectors produced by pass 97 Test12= 8.01D-14 1.00D-09 XBig12= 2.80D-14 5.64D-09.
      6 vectors produced by pass 98 Test12= 8.01D-14 1.00D-09 XBig12= 3.91D-14 8.35D-09.
      6 vectors produced by pass 99 Test12= 8.01D-14 1.00D-09 XBig12= 2.67D-14 5.39D-09.
      6 vectors produced by pass100 Test12= 8.01D-14 1.00D-09 XBig12= 3.66D-14 7.22D-09.
      6 vectors produced by pass101 Test12= 8.01D-14 1.00D-09 XBig12= 1.67D-14 5.22D-09.
      4 vectors produced by pass102 Test12= 8.01D-14 1.00D-09 XBig12= 1.42D-14 3.75D-09.
      4 vectors produced by pass103 Test12= 8.01D-14 1.00D-09 XBig12= 2.89D-14 6.44D-09.
      4 vectors produced by pass104 Test12= 8.01D-14 1.00D-09 XBig12= 2.60D-14 6.54D-09.
      2 vectors produced by pass105 Test12= 8.01D-14 1.00D-09 XBig12= 5.01D-15 2.36D-09.
 InvSVY:  IOpt=1 It=  1 EMax= 1.44D-15
 Solved reduced A of dimension  2080 with   114 vectors.
 End of Minotr F.D. properties file   721 does not exist.
 End of Minotr F.D. properties file   722 does not exist.
 End of Minotr F.D. properties file   788 does not exist.

 **********************************************************************

            Population analysis using the SCF density.

 **********************************************************************

 Orbital symmetries:
 Alpha Orbitals:
       Occupied  (A) (A) (A) (A) (A) (A) (A) (A) (A) (A) (A) (A)
                 (A) (A) (A) (A) (A) (A) (A) (A) (A) (A) (A) (A)
                 (A) (A) (A) (A) (A) (A) (A) (A) (A) (A) (A) (A)
                 (A) (A) (A) (A) (A) (A) (A) (A) (A) (A) (A) (A)
                 (A) (A) (A) (A) (A) (A) (A) (A) (A) (A) (A) (A)
                 (A) (A) (A) (A) (A) (A) (A) (A) (A) (A) (A) (A)
                 (A) (A) (A) (A) (A) (A) (A)
       Virtual   (A) (A) (A) (A) (A) (A) (A) (A) (A) (A) (A) (A)
                 (A) (A) (A) (A) (A) (A) (A) (A) (A) (A) (A) (A)
                 (A) (A) (A) (A) (A) (A) (A) (A) (A) (A) (A) (A)
                 (A) (A) (A) (A) (A) (A) (A) (A) (A) (A) (A) (A)
                 (A) (A) (A) (A) (A) (A) (A) (A) (A) (A) (A) (A)
                 (A) (A) (A) (A) (A) (A) (A) (A) (A) (A) (A) (A)
                 (A) (A) (A) (A) (A) (A) (A) (A) (A) (A) (A) (A)
                 (A) (A) (A) (A) (A) (A) (A) (A) (A) (A) (A) (A)
                 (A) (A) (A) (A) (A) (A) (A) (A) (A) (A) (A) (A)
                 (A) (A) (A) (A) (A) (A) (A) (A) (A) (A) (A) (A)
                 (A) (A) (A) (A) (A) (A) (A) (A) (A) (A) (A) (A)
                 (A) (A) (A) (A) (A) (A) (A) (A) (A) (A) (A) (A)
                 (A) (A) (A) (A) (A) (A) (A) (A) (A) (A) (A) (A)
                 (A) (A) (A) (A) (A) (A) (A) (A) (A) (A) (A) (A)
                 (A) (A) (A) (A) (A) (A) (A) (A) (A) (A) (A) (A)
                 (A) (A) (A) (A) (A) (A) (A) (A) (A) (A) (A) (A)
                 (A) (A) (A) (A) (A) (A) (A) (A) (A) (A) (A) (A)
                 (A) (A) (A) (A) (A) (A) (A) (A) (A) (A) (A) (A)
                 (A) (A) (A) (A) (A) (A) (A) (A) (A) (A) (A) (A)
                 (A) (A) (A) (A) (A) (A) (A) (A) (A) (A) (A) (A)
                 (A) (A) (A) (A) (A) (A) (A) (A) (A) (A) (A) (A)
                 (A) (A) (A) (A) (A) (A) (A) (A) (A) (A) (A) (A)
                 (A) (A) (A) (A) (A) (A) (A) (A) (A) (A) (A) (A)
                 (A) (A) (A) (A) (A) (A) (A) (A) (A) (A) (A) (A)
                 (A) (A) (A) (A) (A) (A) (A) (A) (A) (A) (A) (A)
                 (A) (A) (A) (A) (A) (A) (A) (A) (A) (A) (A) (A)
                 (A) (A) (A) (A) (A) (A) (A) (A) (A) (A) (A) (A)
                 (A) (A) (A) (A) (A) (A) (A) (A) (A) (A) (A) (A)
                 (A) (A) (A) (A) (A) (A) (A) (A) (A) (A) (A) (A)
                 (A) (A) (A) (A) (A) (A) (A) (A) (A) (A) (A) (A)
                 (A) (A) (A) (A) (A) (A) (A) (A) (A) (A) (A) (A)
                 (A) (A) (A) (A) (A) (A) (A) (A) (A) (A) (A) (A)
                 (A) (A) (A) (A) (A) (A) (A) (A) (A) (A) (A) (A)
                 (A) (A) (A) (A) (A) (A) (A) (A) (A) (A) (A) (A)
                 (A) (A) (A) (A) (A) (A) (A) (A) (A) (A) (A) (A)
                 (A) (A) (A) (A) (A) (A) (A) (A) (A) (A) (A) (A)
                 (A) (A) (A) (A) (A) (A) (A) (A) (A) (A) (A) (A)
                 (A) (A) (A) (A) (A) (A) (A) (A) (A) (A) (A) (A)
                 (A) (A) (A) (A) (A) (A) (A) (A) (A) (A) (A) (A)
                 (A) (A) (A) (A) (A) (A) (A) (A) (A) (A) (A) (A)
                 (A) (A) (A) (A) (A) (A) (A) (A) (A) (A) (A) (A)
                 (A) (A) (A) (A) (A) (A) (A) (A) (A) (A) (A) (A)
                 (A) (A) (A) (A) (A) (A)
 Beta  Orbitals:
       Occupied  (A) (A) (A) (A) (A) (A) (A) (A) (A) (A) (A) (A)
                 (A) (A) (A) (A) (A) (A) (A) (A) (A) (A) (A) (A)
                 (A) (A) (A) (A) (A) (A) (A) (A) (A) (A) (A) (A)
                 (A) (A) (A) (A) (A) (A) (A) (A) (A) (A) (A) (A)
                 (A) (A) (A) (A) (A) (A) (A) (A) (A) (A) (A) (A)
                 (A) (A) (A) (A) (A) (A) (A) (A) (A) (A) (A) (A)
                 (A) (A) (A) (A) (A) (A)
       Virtual   (A) (A) (A) (A) (A) (A) (A) (A) (A) (A) (A) (A)
                 (A) (A) (A) (A) (A) (A) (A) (A) (A) (A) (A) (A)
                 (A) (A) (A) (A) (A) (A) (A) (A) (A) (A) (A) (A)
                 (A) (A) (A) (A) (A) (A) (A) (A) (A) (A) (A) (A)
                 (A) (A) (A) (A) (A) (A) (A) (A) (A) (A) (A) (A)
                 (A) (A) (A) (A) (A) (A) (A) (A) (A) (A) (A) (A)
                 (A) (A) (A) (A) (A) (A) (A) (A) (A) (A) (A) (A)
                 (A) (A) (A) (A) (A) (A) (A) (A) (A) (A) (A) (A)
                 (A) (A) (A) (A) (A) (A) (A) (A) (A) (A) (A) (A)
                 (A) (A) (A) (A) (A) (A) (A) (A) (A) (A) (A) (A)
                 (A) (A) (A) (A) (A) (A) (A) (A) (A) (A) (A) (A)
                 (A) (A) (A) (A) (A) (A) (A) (A) (A) (A) (A) (A)
                 (A) (A) (A) (A) (A) (A) (A) (A) (A) (A) (A) (A)
                 (A) (A) (A) (A) (A) (A) (A) (A) (A) (A) (A) (A)
                 (A) (A) (A) (A) (A) (A) (A) (A) (A) (A) (A) (A)
                 (A) (A) (A) (A) (A) (A) (A) (A) (A) (A) (A) (A)
                 (A) (A) (A) (A) (A) (A) (A) (A) (A) (A) (A) (A)
                 (A) (A) (A) (A) (A) (A) (A) (A) (A) (A) (A) (A)
                 (A) (A) (A) (A) (A) (A) (A) (A) (A) (A) (A) (A)
                 (A) (A) (A) (A) (A) (A) (A) (A) (A) (A) (A) (A)
                 (A) (A) (A) (A) (A) (A) (A) (A) (A) (A) (A) (A)
                 (A) (A) (A) (A) (A) (A) (A) (A) (A) (A) (A) (A)
                 (A) (A) (A) (A) (A) (A) (A) (A) (A) (A) (A) (A)
                 (A) (A) (A) (A) (A) (A) (A) (A) (A) (A) (A) (A)
                 (A) (A) (A) (A) (A) (A) (A) (A) (A) (A) (A) (A)
                 (A) (A) (A) (A) (A) (A) (A) (A) (A) (A) (A) (A)
                 (A) (A) (A) (A) (A) (A) (A) (A) (A) (A) (A) (A)
                 (A) (A) (A) (A) (A) (A) (A) (A) (A) (A) (A) (A)
                 (A) (A) (A) (A) (A) (A) (A) (A) (A) (A) (A) (A)
                 (A) (A) (A) (A) (A) (A) (A) (A) (A) (A) (A) (A)
                 (A) (A) (A) (A) (A) (A) (A) (A) (A) (A) (A) (A)
                 (A) (A) (A) (A) (A) (A) (A) (A) (A) (A) (A) (A)
                 (A) (A) (A) (A) (A) (A) (A) (A) (A) (A) (A) (A)
                 (A) (A) (A) (A) (A) (A) (A) (A) (A) (A) (A) (A)
                 (A) (A) (A) (A) (A) (A) (A) (A) (A) (A) (A) (A)
                 (A) (A) (A) (A) (A) (A) (A) (A) (A) (A) (A) (A)
                 (A) (A) (A) (A) (A) (A) (A) (A) (A) (A) (A) (A)
                 (A) (A) (A) (A) (A) (A) (A) (A) (A) (A) (A) (A)
                 (A) (A) (A) (A) (A) (A) (A) (A) (A) (A) (A) (A)
                 (A) (A) (A) (A) (A) (A) (A) (A) (A) (A) (A) (A)
                 (A) (A) (A) (A) (A) (A) (A) (A) (A) (A) (A) (A)
                 (A) (A) (A) (A) (A) (A) (A) (A) (A) (A) (A) (A)
                 (A) (A) (A) (A) (A) (A) (A)
 The electronic state is 2-A.
 Alpha  occ. eigenvalues --  -10.22352 -10.20643 -10.20521 -10.20156 -10.19795
 Alpha  occ. eigenvalues --  -10.19723 -10.19704 -10.19571 -10.19367 -10.19350
 Alpha  occ. eigenvalues --  -10.19302 -10.19291 -10.19288 -10.19229 -10.19226
 Alpha  occ. eigenvalues --  -10.19223 -10.19190 -10.18229 -10.18100 -10.17944
 Alpha  occ. eigenvalues --  -10.17533 -10.17384 -10.17348 -10.16962  -0.92225
 Alpha  occ. eigenvalues --   -0.88068  -0.86435  -0.84177  -0.82325  -0.80821
 Alpha  occ. eigenvalues --   -0.78651  -0.77129  -0.75639  -0.73672  -0.73041
 Alpha  occ. eigenvalues --   -0.71606  -0.67049  -0.64894  -0.63695  -0.62554
 Alpha  occ. eigenvalues --   -0.60532  -0.58691  -0.57967  -0.56126  -0.53422
 Alpha  occ. eigenvalues --   -0.53259  -0.51929  -0.50300  -0.49189  -0.48506
 Alpha  occ. eigenvalues --   -0.47257  -0.45237  -0.44818  -0.44273  -0.43756
 Alpha  occ. eigenvalues --   -0.43445  -0.43109  -0.42254  -0.41046  -0.40710
 Alpha  occ. eigenvalues --   -0.40068  -0.39593  -0.38946  -0.37613  -0.36133
 Alpha  occ. eigenvalues --   -0.35791  -0.34944  -0.34237  -0.34070  -0.33554
 Alpha  occ. eigenvalues --   -0.32299  -0.30499  -0.29478  -0.27902  -0.26589
 Alpha  occ. eigenvalues --   -0.23680  -0.23408  -0.22909  -0.21047
 Alpha virt. eigenvalues --   -0.09926  -0.06025  -0.03446  -0.02605  -0.00104
 Alpha virt. eigenvalues --    0.00252   0.00448   0.00837   0.00923   0.01408
 Alpha virt. eigenvalues --    0.01796   0.02163   0.02392   0.03119   0.03316
 Alpha virt. eigenvalues --    0.03859   0.04008   0.04885   0.05121   0.05751
 Alpha virt. eigenvalues --    0.06011   0.06167   0.06561   0.07014   0.07406
 Alpha virt. eigenvalues --    0.08131   0.08285   0.08436   0.08653   0.09506
 Alpha virt. eigenvalues --    0.09698   0.09895   0.10654   0.10801   0.11088
 Alpha virt. eigenvalues --    0.11577   0.11720   0.12259   0.12805   0.12985
 Alpha virt. eigenvalues --    0.13565   0.13786   0.13977   0.14587   0.14855
 Alpha virt. eigenvalues --    0.15145   0.15443   0.15640   0.16019   0.16345
 Alpha virt. eigenvalues --    0.16618   0.16740   0.17058   0.17124   0.17461
 Alpha virt. eigenvalues --    0.17998   0.18071   0.18551   0.18624   0.18739
 Alpha virt. eigenvalues --    0.19153   0.19436   0.19716   0.19931   0.20173
 Alpha virt. eigenvalues --    0.20369   0.20907   0.21089   0.21246   0.21520
 Alpha virt. eigenvalues --    0.21940   0.22041   0.22354   0.22659   0.22948
 Alpha virt. eigenvalues --    0.23157   0.23508   0.23748   0.24037   0.24322
 Alpha virt. eigenvalues --    0.24782   0.24807   0.25357   0.25520   0.25707
 Alpha virt. eigenvalues --    0.25847   0.26903   0.27036   0.27291   0.27633
 Alpha virt. eigenvalues --    0.27881   0.28177   0.29034   0.29128   0.29660
 Alpha virt. eigenvalues --    0.29706   0.29963   0.30481   0.30782   0.31168
 Alpha virt. eigenvalues --    0.31731   0.32523   0.32636   0.33022   0.33317
 Alpha virt. eigenvalues --    0.33580   0.34216   0.34661   0.35360   0.35564
 Alpha virt. eigenvalues --    0.36154   0.36734   0.37594   0.39110   0.39496
 Alpha virt. eigenvalues --    0.40081   0.40719   0.41509   0.42002   0.43022
 Alpha virt. eigenvalues --    0.43503   0.44295   0.45395   0.45641   0.46555
 Alpha virt. eigenvalues --    0.46769   0.48308   0.48988   0.49763   0.50148
 Alpha virt. eigenvalues --    0.50757   0.52008   0.52270   0.52460   0.52779
 Alpha virt. eigenvalues --    0.53558   0.53988   0.54144   0.54720   0.54912
 Alpha virt. eigenvalues --    0.55790   0.56336   0.56488   0.56697   0.57086
 Alpha virt. eigenvalues --    0.57363   0.58064   0.58468   0.59233   0.59800
 Alpha virt. eigenvalues --    0.60184   0.60274   0.61274   0.61783   0.62506
 Alpha virt. eigenvalues --    0.62780   0.62896   0.63791   0.63911   0.64381
 Alpha virt. eigenvalues --    0.64465   0.64626   0.65591   0.65915   0.66346
 Alpha virt. eigenvalues --    0.66381   0.66942   0.67423   0.67664   0.68869
 Alpha virt. eigenvalues --    0.69422   0.69495   0.70243   0.71001   0.71211
 Alpha virt. eigenvalues --    0.71775   0.72039   0.72233   0.72730   0.73537
 Alpha virt. eigenvalues --    0.73872   0.73951   0.74704   0.75351   0.76115
 Alpha virt. eigenvalues --    0.76674   0.77076   0.77398   0.79274   0.79795
 Alpha virt. eigenvalues --    0.80700   0.81611   0.82603   0.83316   0.84268
 Alpha virt. eigenvalues --    0.84650   0.85436   0.85820   0.86617   0.87113
 Alpha virt. eigenvalues --    0.88724   0.88805   0.89979   0.90426   0.91369
 Alpha virt. eigenvalues --    0.92670   0.92876   0.93562   0.94481   0.94769
 Alpha virt. eigenvalues --    0.95228   0.95354   0.95710   0.95850   0.96106
 Alpha virt. eigenvalues --    0.97000   0.97553   0.98039   0.98463   0.99324
 Alpha virt. eigenvalues --    0.99472   1.00208   1.01268   1.01937   1.02836
 Alpha virt. eigenvalues --    1.03607   1.03888   1.04803   1.05135   1.05605
 Alpha virt. eigenvalues --    1.06116   1.06334   1.07055   1.07975   1.09151
 Alpha virt. eigenvalues --    1.09612   1.10979   1.12746   1.12966   1.13835
 Alpha virt. eigenvalues --    1.14284   1.15019   1.15358   1.15478   1.15797
 Alpha virt. eigenvalues --    1.16572   1.18393   1.19098   1.21357   1.22979
 Alpha virt. eigenvalues --    1.24808   1.28259   1.29302   1.30234   1.32031
 Alpha virt. eigenvalues --    1.32344   1.34436   1.36163   1.38024   1.38305
 Alpha virt. eigenvalues --    1.40554   1.40596   1.41339   1.43458   1.43939
 Alpha virt. eigenvalues --    1.45908   1.46108   1.46915   1.47460   1.47639
 Alpha virt. eigenvalues --    1.48629   1.48725   1.49289   1.49694   1.50840
 Alpha virt. eigenvalues --    1.51192   1.51964   1.53152   1.54330   1.55206
 Alpha virt. eigenvalues --    1.56174   1.56721   1.56971   1.57167   1.58609
 Alpha virt. eigenvalues --    1.58864   1.59186   1.61283   1.63084   1.63844
 Alpha virt. eigenvalues --    1.65288   1.66165   1.67319   1.68031   1.69060
 Alpha virt. eigenvalues --    1.69080   1.70344   1.70628   1.72679   1.73026
 Alpha virt. eigenvalues --    1.73533   1.73903   1.74632   1.75362   1.76012
 Alpha virt. eigenvalues --    1.77774   1.78903   1.79916   1.80957   1.81292
 Alpha virt. eigenvalues --    1.81821   1.82556   1.83377   1.83956   1.85180
 Alpha virt. eigenvalues --    1.85720   1.86154   1.87174   1.88196   1.89031
 Alpha virt. eigenvalues --    1.89388   1.90013   1.90705   1.91241   1.91926
 Alpha virt. eigenvalues --    1.93130   1.93681   1.94050   1.95381   1.96147
 Alpha virt. eigenvalues --    1.96609   1.97085   1.98120   1.98453   1.99686
 Alpha virt. eigenvalues --    2.00722   2.02068   2.02801   2.03142   2.03928
 Alpha virt. eigenvalues --    2.04889   2.06276   2.07456   2.08372   2.08786
 Alpha virt. eigenvalues --    2.10809   2.11609   2.13387   2.13755   2.14183
 Alpha virt. eigenvalues --    2.16145   2.17636   2.17845   2.20428   2.21940
 Alpha virt. eigenvalues --    2.23038   2.23329   2.25962   2.26471   2.27582
 Alpha virt. eigenvalues --    2.29697   2.32146   2.34656   2.36682   2.38501
 Alpha virt. eigenvalues --    2.40058   2.42002   2.42385   2.43452   2.44300
 Alpha virt. eigenvalues --    2.45170   2.46709   2.47042   2.47827   2.49222
 Alpha virt. eigenvalues --    2.55064   2.56106   2.57267   2.58022   2.59073
 Alpha virt. eigenvalues --    2.60216   2.62419   2.63164   2.64898   2.65226
 Alpha virt. eigenvalues --    2.65819   2.66502   2.69220   2.69920   2.70329
 Alpha virt. eigenvalues --    2.71685   2.72006   2.73164   2.73523   2.73799
 Alpha virt. eigenvalues --    2.74574   2.74705   2.75047   2.75561   2.75742
 Alpha virt. eigenvalues --    2.76058   2.76702   2.77060   2.77865   2.78474
 Alpha virt. eigenvalues --    2.79828   2.80570   2.81235   2.81963   2.82936
 Alpha virt. eigenvalues --    2.84517   2.84792   2.85077   2.85579   2.87288
 Alpha virt. eigenvalues --    2.87431   2.90089   2.90151   2.91444   2.92131
 Alpha virt. eigenvalues --    2.93261   2.93696   2.94505   2.97346   2.99850
 Alpha virt. eigenvalues --    3.01343   3.02357   3.04767   3.05085   3.07910
 Alpha virt. eigenvalues --    3.09577   3.12740   3.13182   3.14182   3.17505
 Alpha virt. eigenvalues --    3.18058   3.20115   3.21644   3.22164   3.23933
 Alpha virt. eigenvalues --    3.25038   3.28656   3.32798   3.33729   3.35654
 Alpha virt. eigenvalues --    3.38011   3.40166   3.41872   3.43225   3.45174
 Alpha virt. eigenvalues --    3.45451   3.45727   3.45965   3.47093   3.49235
 Alpha virt. eigenvalues --    3.50790   3.52072   3.55424   3.56151   3.59608
 Alpha virt. eigenvalues --    3.61648   3.64079   3.65166   3.70097   3.79687
 Alpha virt. eigenvalues --    3.81843   3.84369   3.85027   4.03536   4.04585
 Alpha virt. eigenvalues --    4.06276   4.06822   4.07168   4.07882   4.18249
 Alpha virt. eigenvalues --    4.21911   4.24112   4.29598   4.41196   4.54649
 Alpha virt. eigenvalues --    4.77231   4.77958   4.78504   4.82046   4.86110
 Alpha virt. eigenvalues --    4.87955  23.39111  23.57036  23.66089  23.76729
 Alpha virt. eigenvalues --   23.82224  23.84700  23.86653  23.87922  23.93403
 Alpha virt. eigenvalues --   23.95604  23.98532  23.99235  24.00643  24.06379
 Alpha virt. eigenvalues --   24.07544  24.09632  24.12220  24.13695  24.14344
 Alpha virt. eigenvalues --   24.14444  24.15271  24.20728  24.20881  24.98484
  Beta  occ. eigenvalues --  -10.22268 -10.20680 -10.20678 -10.20160 -10.19793
  Beta  occ. eigenvalues --  -10.19716 -10.19702 -10.19586 -10.19365 -10.19353
  Beta  occ. eigenvalues --  -10.19301 -10.19294 -10.19291 -10.19229 -10.19226
  Beta  occ. eigenvalues --  -10.19199 -10.18726 -10.18230 -10.18101 -10.17943
  Beta  occ. eigenvalues --  -10.17528 -10.17374 -10.17352 -10.16966  -0.92233
  Beta  occ. eigenvalues --   -0.88069  -0.86426  -0.84179  -0.82298  -0.80769
  Beta  occ. eigenvalues --   -0.78500  -0.77118  -0.75377  -0.73546  -0.72996
  Beta  occ. eigenvalues --   -0.71600  -0.66948  -0.64867  -0.63667  -0.62559
  Beta  occ. eigenvalues --   -0.60488  -0.58690  -0.57827  -0.56068  -0.53385
  Beta  occ. eigenvalues --   -0.53050  -0.51918  -0.50254  -0.49191  -0.48505
  Beta  occ. eigenvalues --   -0.47244  -0.45198  -0.44818  -0.44274  -0.43708
  Beta  occ. eigenvalues --   -0.43444  -0.43103  -0.42257  -0.41041  -0.40655
  Beta  occ. eigenvalues --   -0.39752  -0.39583  -0.38312  -0.37610  -0.35891
  Beta  occ. eigenvalues --   -0.35404  -0.34940  -0.34088  -0.33566  -0.33543
  Beta  occ. eigenvalues --   -0.32145  -0.29961  -0.29212  -0.27901  -0.26166
  Beta  occ. eigenvalues --   -0.23656  -0.23038  -0.20988
  Beta virt. eigenvalues --   -0.09852  -0.08231  -0.05677  -0.03248  -0.02604
  Beta virt. eigenvalues --    0.00099   0.00274   0.00455   0.00909   0.00982
  Beta virt. eigenvalues --    0.01412   0.01843   0.02198   0.02560   0.03138
  Beta virt. eigenvalues --    0.03405   0.03894   0.04000   0.04881   0.05155
  Beta virt. eigenvalues --    0.05793   0.06021   0.06238   0.06638   0.07095
  Beta virt. eigenvalues --    0.07497   0.08211   0.08297   0.08503   0.08670
  Beta virt. eigenvalues --    0.09611   0.09936   0.10003   0.10693   0.10918
  Beta virt. eigenvalues --    0.11148   0.11633   0.11929   0.12324   0.12853
  Beta virt. eigenvalues --    0.13008   0.13695   0.13815   0.14063   0.14657
  Beta virt. eigenvalues --    0.14884   0.15303   0.15510   0.15782   0.16223
  Beta virt. eigenvalues --    0.16377   0.16680   0.16877   0.17099   0.17192
  Beta virt. eigenvalues --    0.17473   0.18005   0.18265   0.18592   0.18680
  Beta virt. eigenvalues --    0.18866   0.19196   0.19635   0.19714   0.19970
  Beta virt. eigenvalues --    0.20180   0.20483   0.21015   0.21095   0.21303
  Beta virt. eigenvalues --    0.21579   0.21969   0.22165   0.22407   0.22757
  Beta virt. eigenvalues --    0.22958   0.23327   0.23525   0.23780   0.24120
  Beta virt. eigenvalues --    0.24320   0.24786   0.24804   0.25369   0.25593
  Beta virt. eigenvalues --    0.25738   0.25950   0.26931   0.27052   0.27289
  Beta virt. eigenvalues --    0.27692   0.27895   0.28198   0.29042   0.29160
  Beta virt. eigenvalues --    0.29663   0.29764   0.29979   0.30571   0.30841
  Beta virt. eigenvalues --    0.31212   0.31768   0.32610   0.32793   0.33047
  Beta virt. eigenvalues --    0.33367   0.33685   0.34308   0.34700   0.35359
  Beta virt. eigenvalues --    0.35604   0.36284   0.36742   0.37604   0.39115
  Beta virt. eigenvalues --    0.39575   0.40113   0.40812   0.41528   0.42046
  Beta virt. eigenvalues --    0.43064   0.43515   0.44518   0.45557   0.46232
  Beta virt. eigenvalues --    0.46767   0.47592   0.48377   0.49287   0.50401
  Beta virt. eigenvalues --    0.50926   0.51295   0.52047   0.52276   0.52569
  Beta virt. eigenvalues --    0.52869   0.53555   0.54054   0.54161   0.54759
  Beta virt. eigenvalues --    0.54954   0.55775   0.56412   0.56522   0.56744
  Beta virt. eigenvalues --    0.57202   0.57392   0.58099   0.58593   0.59415
  Beta virt. eigenvalues --    0.59828   0.60238   0.60294   0.61445   0.61840
  Beta virt. eigenvalues --    0.62528   0.62912   0.62936   0.63798   0.63994
  Beta virt. eigenvalues --    0.64406   0.64518   0.64703   0.65830   0.66018
  Beta virt. eigenvalues --    0.66422   0.66558   0.66993   0.67504   0.67787
  Beta virt. eigenvalues --    0.68916   0.69469   0.69545   0.70228   0.71146
  Beta virt. eigenvalues --    0.71226   0.71784   0.72057   0.72265   0.72835
  Beta virt. eigenvalues --    0.73543   0.73911   0.74260   0.74720   0.75365
  Beta virt. eigenvalues --    0.76168   0.76724   0.77199   0.77467   0.79474
  Beta virt. eigenvalues --    0.79878   0.80724   0.81640   0.82829   0.83379
  Beta virt. eigenvalues --    0.84285   0.84835   0.85456   0.85870   0.86869
  Beta virt. eigenvalues --    0.87174   0.88734   0.88859   0.90056   0.90441
  Beta virt. eigenvalues --    0.91428   0.92709   0.92969   0.93571   0.94496
  Beta virt. eigenvalues --    0.94811   0.95257   0.95404   0.95723   0.95870
  Beta virt. eigenvalues --    0.96221   0.97001   0.97588   0.98046   0.98474
  Beta virt. eigenvalues --    0.99361   0.99482   1.00203   1.01302   1.02027
  Beta virt. eigenvalues --    1.02965   1.03652   1.03917   1.04867   1.05147
  Beta virt. eigenvalues --    1.05640   1.06120   1.06431   1.07059   1.08229
  Beta virt. eigenvalues --    1.09155   1.09690   1.11012   1.12811   1.13079
  Beta virt. eigenvalues --    1.13962   1.14314   1.15049   1.15526   1.15712
  Beta virt. eigenvalues --    1.15946   1.16830   1.18409   1.19172   1.21511
  Beta virt. eigenvalues --    1.23097   1.25112   1.28925   1.29562   1.30481
  Beta virt. eigenvalues --    1.32227   1.32827   1.34448   1.36767   1.38218
  Beta virt. eigenvalues --    1.39547   1.40586   1.41354   1.42877   1.44554
  Beta virt. eigenvalues --    1.45329   1.46354   1.46510   1.47030   1.47727
  Beta virt. eigenvalues --    1.48100   1.48630   1.49292   1.49382   1.50369
  Beta virt. eigenvalues --    1.51079   1.51407   1.52491   1.53919   1.54371
  Beta virt. eigenvalues --    1.56255   1.56322   1.56844   1.57139   1.58345
  Beta virt. eigenvalues --    1.58797   1.59668   1.60310   1.61889   1.63108
  Beta virt. eigenvalues --    1.63908   1.66094   1.66236   1.67374   1.68343
  Beta virt. eigenvalues --    1.69092   1.69316   1.70369   1.70768   1.72741
  Beta virt. eigenvalues --    1.73196   1.73901   1.74266   1.74825   1.75476
  Beta virt. eigenvalues --    1.76042   1.77806   1.79901   1.80375   1.81316
  Beta virt. eigenvalues --    1.81756   1.82496   1.82965   1.83572   1.84156
  Beta virt. eigenvalues --    1.85254   1.85854   1.86304   1.87658   1.88301
  Beta virt. eigenvalues --    1.89165   1.90005   1.90229   1.90812   1.91885
  Beta virt. eigenvalues --    1.92008   1.93298   1.93736   1.94194   1.95657
  Beta virt. eigenvalues --    1.96247   1.97041   1.97583   1.98258   1.99010
  Beta virt. eigenvalues --    2.00702   2.00906   2.02162   2.02899   2.03270
  Beta virt. eigenvalues --    2.03991   2.04945   2.06348   2.07541   2.08547
  Beta virt. eigenvalues --    2.08900   2.10888   2.11707   2.13442   2.13790
  Beta virt. eigenvalues --    2.14191   2.16213   2.17687   2.17867   2.20432
  Beta virt. eigenvalues --    2.21953   2.23063   2.23372   2.25977   2.26480
  Beta virt. eigenvalues --    2.27618   2.29737   2.32213   2.34666   2.36683
  Beta virt. eigenvalues --    2.38632   2.40156   2.42078   2.42424   2.43490
  Beta virt. eigenvalues --    2.44297   2.45302   2.46728   2.47038   2.48260
  Beta virt. eigenvalues --    2.50166   2.55069   2.56438   2.57416   2.59080
  Beta virt. eigenvalues --    2.60224   2.61439   2.62498   2.64430   2.65156
  Beta virt. eigenvalues --    2.65453   2.66210   2.67780   2.69804   2.70251
  Beta virt. eigenvalues --    2.71411   2.71920   2.72047   2.73263   2.73655
  Beta virt. eigenvalues --    2.73938   2.74669   2.74867   2.75069   2.75576
  Beta virt. eigenvalues --    2.75751   2.76077   2.76855   2.77202   2.77948
  Beta virt. eigenvalues --    2.78534   2.80207   2.80731   2.81319   2.82062
  Beta virt. eigenvalues --    2.82977   2.84513   2.84829   2.85403   2.85596
  Beta virt. eigenvalues --    2.87392   2.87470   2.90158   2.90183   2.91460
  Beta virt. eigenvalues --    2.92146   2.93281   2.93749   2.94562   2.97635
  Beta virt. eigenvalues --    2.99856   3.01558   3.02952   3.04915   3.05557
  Beta virt. eigenvalues --    3.07996   3.09583   3.12743   3.13184   3.14168
  Beta virt. eigenvalues --    3.17360   3.18247   3.20151   3.21763   3.22233
  Beta virt. eigenvalues --    3.23930   3.25052   3.28660   3.32827   3.33748
  Beta virt. eigenvalues --    3.35666   3.38032   3.40244   3.42064   3.43234
  Beta virt. eigenvalues --    3.45231   3.45554   3.45749   3.46101   3.47096
  Beta virt. eigenvalues --    3.49285   3.50852   3.52087   3.55444   3.56166
  Beta virt. eigenvalues --    3.59633   3.61648   3.64081   3.65175   3.70091
  Beta virt. eigenvalues --    3.79686   3.81841   3.84373   3.85021   4.03537
  Beta virt. eigenvalues --    4.04586   4.06271   4.06821   4.07165   4.07883
[...]
 645,-0.00002599,-0.00206260,-0.00229417,-0.00001304,0.00112870,0.00204
 974,0.00002139,-0.00090717,0.00407801,0.00005426,0.00301284,-0.0064577
 4,-0.00006090,-0.00282475,0.00225593,-0.00003715,0.00486692,-0.0066787
 5,-0.00008302,-0.02303903,-0.00636335,0.00005636,0.03877111,0.01252759
 ,-0.00005832,-0.05364192,0.03114712,0.00033971,0.01987180,-0.00298834,
 -0.00001678,-0.00662958,0.01034568,0.00006227,-0.00814395,-0.00282921,
 -0.00000653,0.00546012,-0.00122162,-0.00001663,-0.00029243,0.00512360,
 -0.00000628,0.00267513,-0.00172458,0.00001487,-0.00343010,-0.00233255,
 -0.00000042,0.00009340,0.00000916,-0.00000832,-0.00006204,0.00009087,0
 .00000066,-0.00623284,0.01053297,0.00011226,-0.12099462,-0.01851252,0.
 00017213,-0.37092587,-0.06107271,0.00089282,0.00004309,-0.00038433,-0.
 00001020,0.00000356,-0.00012223,-0.00000089,-0.00011417,0.00006096,-0.
 00000241,-0.00008996,-0.00001278,0.00000307,-0.00009469,0.00010833,0.0
 0000088,-0.00047656,0.00048063,0.00004266,0.00044056,-0.00023017,0.000
 04849,0.00005895,-0.00001263,0.00001067,-0.00006682,-0.00001697,-0.000
 05194,-0.01404737,-0.03905446,-0.00016560,0.70247101,0.00198515,-0.000
 64962,-0.00002014,-0.00055096,-0.00118717,0.00003231,-0.00027407,-0.00
 107144,-0.00004046,-0.00123226,0.00251776,0.00003641,0.00514998,-0.005
 52747,-0.00006178,0.00314603,-0.00223151,-0.00005727,0.00599927,-0.005
 05147,0.00002241,-0.01702499,-0.00129342,0.00002977,0.02111816,-0.0491
 1634,-0.00035276,0.00827605,0.02576173,0.00005915,0.01318887,-0.009508
 66,-0.00009385,-0.00330521,0.00845819,0.00004947,-0.00760364,-0.001978
 16,-0.00002562,0.00429120,-0.00175144,-0.00000192,-0.00042917,0.004149
 55,-0.00000484,0.00306911,-0.00178893,-0.00000166,-0.00303954,-0.00248
 101,-0.00000004,0.00000673,0.00002176,-0.00000200,-0.00002175,0.000018
 00,-0.00000083,0.00030952,0.01258436,0.00006412,-0.04389929,-0.2255102
 0,-0.00065975,-0.01535777,-0.12948340,-0.00028964,0.00035407,-0.000116
 27,-0.00000976,-0.00003379,-0.00006434,-0.00000131,0.00001335,0.000021
 92,0.00000229,-0.00006735,-0.00002698,0.00000285,0.00001807,0.00003099
 ,0.00000072,-0.00020811,0.00001540,-0.00007666,0.00010292,-0.00007189,
 0.00003945,-0.00001018,0.00001381,0.00002625,0.00000164,-0.00000418,0.
 00000071,-0.01737880,-0.01120476,-0.00002257,-0.05953176,0.62526414,-0
 .00000018,0.00000432,0.00021819,0.00000038,0.00000661,-0.00021655,0.00
 000325,-0.00002279,-0.00048549,-0.00000160,0.00000883,-0.00074975,0.00
 001927,-0.00000522,-0.00105457,0.00005164,-0.00009814,0.00720647,-0.00
 000969,0.00001600,-0.00078745,-0.00000953,0.00001208,-0.00198160,-0.00
 003887,-0.00028151,0.00521515,0.00025399,0.00000820,0.00427888,0.00000
 620,-0.00006156,0.00413038,0.00000003,-0.00000372,0.00007755,-0.000005
 11,-0.00000127,0.00012404,-0.00000119,-0.00000231,-0.00060913,-0.00000
 187,0.00000047,0.00014402,0.00000589,0.00000725,0.00015093,-0.00000182
 ,-0.00000811,-0.00004322,0.00000313,0.00000090,-0.00004384,-0.00000016
 ,0.00000424,0.00008655,0.00002735,0.00001981,0.00465979,0.00006037,-0.
 00074026,-0.06002198,0.00111755,-0.00012529,-0.05843120,0.00000434,0.0
 0000038,-0.00015991,-0.00000009,0.00000024,-0.00000188,0.00000020,0.00
 000386,-0.00000279,0.00000220,0.00000130,-0.00002756,0.00000054,-0.000
 00117,0.00005594,0.00002370,-0.00001934,-0.00007978,-0.00000186,0.0000
 1739,0.00002912,-0.00000732,-0.00000466,-0.00001441,-0.00000975,-0.000
 00443,0.00000140,-0.00007141,0.00004996,0.00007543,-0.00238873,0.00265
 740,0.13100662,-0.00002185,0.00027233,0.00000317,0.00007335,-0.0000028
 5,0.00001130,-0.00006117,-0.00095247,-0.00000713,0.00113382,-0.0009129
 6,-0.00002129,-0.01750524,-0.00871382,-0.00001244,-0.00176411,0.004198
 75,0.00005622,-0.00043320,0.00011101,0.00000423,-0.00019500,-0.0001266
 6,-0.00000064,0.00063184,0.00048870,-0.00000057,-0.00000486,0.00007630
 ,-0.00000105,-0.00002044,-0.00000448,0.00000018,-0.00002984,-0.0000351
 4,-0.00000154,0.00010296,-0.00012457,-0.00000038,-0.00000480,-0.000005
 98,0.00000120,0.00000369,-0.00001430,-0.00000090,-0.00004023,0.0000241
 8,-0.00000015,0.00001622,0.00003315,0.00000082,-0.00003299,0.00004322,
 0.00000145,0.00004890,0.00091746,0.00000922,-0.31047412,-0.07659331,0.
 00028626,0.00163860,-0.00062073,0.00001558,0.00007085,-0.00018258,-0.0
 0000236,-0.00000820,-0.00000600,0.00000017,-0.00000497,-0.00000563,-0.
 00000002,0.00000848,0.00000215,-0.00000048,-0.00000365,0.00000436,0.00
 000016,-0.00000756,-0.00000088,-0.00000008,0.00010045,0.00001963,-0.00
 003017,-0.00007171,0.00006697,-0.00000325,-0.00001568,0.00001314,0.000
 00570,0.00000080,-0.00001509,0.00001452,-0.00299628,0.00043712,0.00002
 235,-0.00022003,0.00016940,0.00000208,0.32913865,-0.00046124,0.0000287
 8,0.00000470,0.00018251,0.00031042,0.00000362,0.00065154,0.00056412,0.
 00000066,0.00001489,0.00145841,0.00002579,0.02104894,0.01002692,0.0000
 0128,0.00322350,-0.00316271,-0.00006603,0.00031855,-0.00011334,-0.0000
 0638,0.00018020,0.00016072,0.00000430,0.00030941,-0.00082050,-0.000000
 31,0.00006822,-0.00014818,-0.00000073,0.00004826,0.00003426,-0.0000007
 8,0.00001928,0.00002434,0.00000263,-0.00004146,0.00010721,0.00000196,0
 .00001326,0.00001994,-0.00000175,-0.00000605,0.00001628,0.00000034,0.0
 0000140,-0.00001643,-0.00000085,-0.00001786,-0.00000507,-0.00000044,-0
 .00001542,-0.00000779,-0.00000070,-0.00064851,-0.00032011,-0.00000291,
 -0.07458501,-0.08035736,-0.00011861,-0.00005557,-0.00557717,-0.0000956
 5,-0.00013657,-0.00048813,0.00000349,0.00000348,-0.00000344,-0.0000001
 5,0.00000369,-0.00000184,0.00000006,-0.00000537,0.00000332,0.00000095,
 -0.00000081,0.00000207,-0.00000009,-0.00000287,0.00000078,0.00000020,-
 0.00005894,-0.00001787,0.00000102,0.00000553,-0.00000903,0.00000226,0.
 00000241,-0.00000050,-0.00000553,0.00000440,0.00000009,0.00000104,-0.0
 3061547,-0.00593348,0.00002161,-0.00124379,0.00058547,0.00000206,0.081
 72093,0.08280395,-0.00001207,0.00000157,-0.00013482,0.00000284,0.00000
 676,-0.00002614,-0.00000613,-0.00000480,0.00066238,0.00000019,0.000030
 49,-0.00236551,0.00017374,0.00011693,0.00233532,0.00005984,-0.00006008
 ,0.00402112,0.00001522,0.00000675,0.00031895,0.00001159,0.00000581,-0.
 00054659,-0.00001222,-0.00000943,-0.00104414,-0.00000464,-0.00000659,0
 .00015325,0.00000772,-0.00000275,0.00000629,-0.00000030,0.00000587,-0.
 00001172,-0.00000734,0.00000217,-0.00031599,0.00000115,-0.00000040,0.0
 0005764,0.00000033,0.00000191,-0.00000213,0.00000194,-0.00000300,0.000
 00467,-0.00000196,-0.00000096,0.00000360,0.00000077,-0.00000166,0.0001
 0236,-0.00000243,-0.00000492,0.00028320,0.00029992,-0.00014688,-0.0344
 5033,0.00003158,-0.00010207,0.00858098,-0.00000307,-0.00000363,-0.0004
 7962,0.00000017,-0.00000010,-0.00000304,0.00000008,0.00000002,-0.00000
 208,-0.00000013,0.00000083,-0.00000182,0.00000002,-0.00000002,0.000002
 52,-0.00000002,0.00000002,-0.00000410,-0.00000659,0.00001091,0.0000485
 9,0.00000742,-0.00000802,-0.00001549,0.00000046,-0.00000408,0.00000688
 ,0.00000073,-0.00000057,0.00000303,-0.00019610,-0.00005476,0.00360514,
 -0.00001156,0.00000379,0.00044593,-0.00033286,0.00017808,0.02425605,0.
 00018453,-0.00004723,-0.00000198,-0.00009926,-0.00018373,0.00001227,-0
 .00017358,0.00021875,-0.00000618,0.00029199,0.00002464,0.00000013,0.00
 064883,-0.00225074,0.00000320,0.00016958,-0.00090613,-0.00001276,-0.00
 054294,-0.00017380,0.00000667,0.00001473,0.00154019,-0.00000282,-0.005
 13220,-0.00347140,0.00003205,0.00012391,0.00003934,0.00000416,0.000004
 91,-0.00006406,-0.00000103,-0.00001656,-0.00001000,0.00000110,0.000056
 83,0.00017220,0.00000070,0.00001638,0.00001411,-0.00000059,-0.00003265
 ,-0.00000512,-0.00000010,-0.00008070,-0.00002723,-0.00000033,0.0000018
 4,0.00002053,-0.00000028,0.00003515,-0.00002086,-0.00000154,-0.0000008
 4,0.00001478,0.00000062,0.00775026,-0.00642648,-0.00005089,-0.01662731
 ,0.02102184,0.00018419,-0.00012516,-0.00027688,-0.00000657,-0.00003631
 ,-0.00001321,0.00000014,-0.00000683,-0.00000800,0.00000008,-0.00000198
 ,-0.00000254,-0.00000031,-0.00001179,0.00000541,0.00000021,-0.00000680
 ,0.00000022,-0.00000002,0.00000969,0.00002081,-0.00000429,0.00000024,0
 .00001382,-0.00000268,0.00000219,0.00000025,0.00000245,-0.00000160,-0.
 00000820,0.,-0.21719634,0.13690129,0.00148262,0.00156929,0.00101765,-0
 .00000369,0.00097137,0.00020756,-0.00001697,0.22845080,0.00001688,-0.0
 0052430,-0.00000082,-0.00017089,-0.00011872,-0.00000795,-0.00003231,0.
 00018854,0.00000353,0.00133955,0.00004248,-0.00000445,-0.00291694,-0.0
 0434045,-0.00008628,-0.00050120,-0.00033330,0.00000510,-0.00010387,-0.
 00015019,0.00000201,-0.00046501,0.00053479,-0.00000080,-0.00263317,-0.
 00000505,-0.00001512,-0.00000276,0.00020842,0.00000386,0.00004743,-0.0
 0003090,-0.00000149,-0.00001937,0.00003813,0.00000155,-0.00005759,0.00
 008497,-0.00000085,0.00001831,-0.00001259,-0.00000012,-0.00000434,0.00
 001650,0.00000037,0.00001139,-0.00001873,0.00000102,-0.00001340,-0.000
 01565,-0.00000025,0.00012996,-0.00007351,-0.00000237,-0.00004116,-0.00
 003054,-0.00000062,0.02461972,-0.01666179,-0.00020522,-0.00835417,0.01
 009811,0.00007209,0.00030814,-0.00002349,-0.00000224,-0.00000291,0.000
 00199,0.00000002,0.00000043,0.00000353,-0.00000003,-0.00000536,-0.0000
 0325,-0.00000026,-0.00000093,-0.00000307,-0.00000003,0.00000504,0.0000
 0079,-0.00000013,-0.00002736,0.00002468,0.00001084,0.00004652,-0.00003
 483,0.00000304,0.00000591,-0.00000513,0.00000062,-0.00000625,0.0000082
 7,-0.00000758,0.13464207,-0.17394753,-0.00135733,0.00015964,0.00109852
 ,0.00002008,-0.00024466,0.00089691,0.00004327,-0.14633299,0.18321599,-
 0.00000779,0.00000309,-0.00070016,0.00000287,0.00000324,0.00016342,-0.
 00000843,0.00000560,-0.00068572,0.00000681,-0.00000424,0.00036959,-0.0
 0000138,-0.00009244,0.00889814,0.00000535,0.00001200,-0.00082770,-0.00
 000209,-0.00000113,0.00001040,-0.00000081,-0.00000410,0.00043047,0.000
 01161,-0.00000632,0.00455969,0.00000133,-0.00000082,-0.00008190,-0.000
 00063,0.,0.00003803,0.00000156,-0.00000021,-0.00002413,-0.00000063,0.0
 0000182,-0.00007993,-0.00000039,0.00000040,-0.00000219,0.00000042,-0.0
 0000028,-0.00000492,-0.00000268,0.00000174,-0.00001485,-0.00000081,-0.
 00000033,0.00001214,0.00000089,-0.00000023,-0.00005203,0.00000007,-0.0
 0000093,0.00017745,0.00015279,-0.00014111,0.00339062,0.00000395,-0.000
 03252,0.00263326,-0.00000344,0.00000280,-0.00011441,0.00000015,-0.0000
 0004,0.00000684,0.00000006,0.00000004,0.00000355,0.00000043,-0.0000009
 7,-0.00000222,0.00000015,-0.00000021,0.00000483,0.00000004,-0.00000005
 ,0.00000208,-0.00000398,0.00000069,0.00011430,0.00000341,0.00000235,-0
 .00001582,0.00000350,-0.00000615,-0.00000446,0.00000023,-0.00000186,-0
 .00000265,0.00147690,-0.00133731,-0.03526387,-0.00000944,0.00001882,-0
 .00213085,-0.00001958,0.00004538,-0.00552985,-0.00161545,0.00153126,0.
 02444871,0.00004035,-0.00001909,0.00000127,0.00005158,-0.00002824,-0.0
 0000293,-0.00017723,-0.00014770,0.00000237,-0.00002854,0.00006508,0.00
 000065,0.00019010,-0.00001368,0.00000085,0.00059478,-0.00044878,-0.000
 00480,0.00023093,-0.00002403,-0.00000181,-0.00033960,-0.00039610,-0.00
 001002,-0.00046889,-0.00285356,0.00001017,-0.00434481,-0.00287960,0.00
 004044,0.00005324,0.00139677,0.00000924,-0.00051708,-0.00004869,-0.000
 00294,-0.00014937,-0.00005905,0.00000158,0.00008787,0.00014128,-0.0000
 0066,-0.00008162,0.00008221,-0.00000024,0.00008125,-0.00004319,0.00000
 062,-0.00008043,-0.00006069,-0.00000039,0.00000012,0.00000463,-0.00000
 005,0.00000186,-0.00000555,-0.00000017,-0.00004146,0.00029305,0.,0.010
 54368,-0.00973892,-0.00007689,-0.01621742,0.02577373,0.00019735,-0.000
 03318,-0.00004692,0.00000088,0.00000215,-0.00001365,-0.00000013,-0.000
 00732,0.00000457,0.00000019,-0.00000685,0.00000708,-0.00000004,-0.0000
 1789,0.00001612,0.00000022,0.00000758,-0.00002131,-0.00000959,0.000000
 27,0.00001204,-0.00000055,-0.00000197,0.00000315,0.00000220,0.00000123
 ,-0.00000714,0.00000539,0.00118050,0.00023354,-0.00000933,-0.16207823,
 0.13233630,0.00109304,0.00000261,0.00002312,0.00000054,-0.00016782,0.0
 0055791,0.00000420,0.17081852,-0.00001983,-0.00006198,-0.00000143,0.00
 015145,0.00005881,-0.00001690,-0.00018591,-0.00051533,0.00000090,-0.00
 004191,0.00002398,-0.00000020,-0.00004306,0.00012532,0.00000576,0.0015
 1952,-0.00002503,-0.00000300,0.00022967,-0.00008622,-0.00000422,-0.000
 78750,0.00021416,0.00001627,-0.00378931,-0.00481298,-0.00003317,-0.002
 06506,0.00073734,-0.00003590,0.00009388,0.00026189,-0.00000049,-0.0001
 0730,0.00012040,0.00000503,-0.00017578,-0.00002512,-0.00000073,0.00004
 544,0.00000466,0.00000092,0.00001891,0.00007038,-0.00000060,0.00007488
 ,-0.00003013,0.00000042,-0.00005704,-0.00002901,0.00000005,-0.00000441
 ,-0.00000709,-0.00000011,-0.00001382,-0.00003458,0.00000014,-0.0002668
 1,-0.00017013,-0.00000374,0.01964851,-0.01708318,-0.00016068,-0.005442
 82,0.00692352,0.00004183,0.00001616,0.00000015,-0.00000155,0.00000735,
 0.00000373,0.00000004,-0.00000926,0.00000088,0.00000033,0.00000316,-0.
 00000378,-0.00000014,0.00000098,0.00000369,-0.00000003,-0.00003982,-0.
 00004308,0.00001429,0.00005022,-0.00004204,0.00000323,0.00000689,-0.00
 000621,-0.00000203,-0.00000309,0.00000996,-0.00000569,0.00103039,0.001
 52311,0.00001483,0.13486060,-0.22869222,-0.00143027,-0.00003428,-0.000
 04304,-0.00000046,-0.00097290,-0.00013201,0.00000237,-0.14386890,0.240
 74572,0.00000120,-0.00000058,-0.00000370,0.00000024,0.00000255,-0.0000
 6690,0.00000232,-0.00000036,-0.00001180,-0.00000030,-0.00000011,0.0000
 3192,-0.00000197,-0.00000037,-0.00004839,0.00000656,-0.00000075,0.0003
 8428,-0.00000075,-0.00000352,-0.00055354,-0.00001094,0.00001353,-0.000
 63203,0.00002194,-0.00003818,0.00386304,0.00001961,-0.00003875,0.00938
 252,0.00001482,-0.00000865,0.00039107,-0.00000451,0.00000833,-0.000995
 18,-0.00000553,-0.00000332,0.00016133,0.00000445,0.00000048,-0.0000875
 5,-0.00000078,0.00000357,0.00008948,0.00000186,-0.00000129,0.00008152,
 -0.00000224,-0.00000145,-0.00001055,0.00000001,-0.00000007,-0.00000175
 ,-0.00000007,-0.00000009,0.00000519,-0.00000129,-0.00000140,-0.0001321
 4,0.00006863,-0.00003744,0.00245615,0.00006068,-0.00008306,0.00363633,
 0.00000118,-0.00000083,0.00028099,0.00000002,-0.00000005,-0.00001999,-
 0.00000023,0.00000029,-0.00000146,-0.00000002,0.00000005,-0.00001612,-
 0.00000007,0.00000012,0.00001831,-0.00000426,-0.00000154,-0.00001406,0
 .00000292,0.00000056,-0.00000141,0.00000048,-0.00000044,0.00000127,-0.
 00000118,0.00000011,0.00000390,-0.00000428,0.00001398,-0.00174278,0.00
 108391,-0.00141707,-0.03504377,0.00000010,-0.00000093,0.00008070,-0.00
 000261,-0.00000370,0.00015294,-0.00122672,0.00156356,0.02428272,0.0000
 6343,0.00000519,-0.00000043,0.00007496,-0.00005619,-0.00000445,-0.0001
 6939,0.00031674,0.00000104,0.00002517,0.00007113,0.00000016,-0.0001475
 2,0.00004758,0.00000216,0.00022572,0.00010317,-0.00000138,0.00060836,0
 .00061714,0.00000410,-0.00304750,0.00316805,0.00004403,-0.00061126,0.0
 0035740,-0.00000166,0.01038921,0.01990565,0.00006824,0.00150149,0.0000
 3753,-0.00001350,0.00001167,-0.00035843,-0.00000332,0.00030346,0.00004
 481,0.00000136,-0.00008393,0.00002357,0.00000015,0.00002206,-0.0000749
 2,0.00000060,-0.00008640,-0.00001792,0.00000071,0.00003590,0.00006815,
 -0.00000102,0.00001413,-0.00000038,-0.00000005,-0.00000509,0.00000241,
 0.00000022,-0.00048270,-0.00011364,-0.00000150,-0.00555074,0.00046138,
 0.00006172,-0.08719285,-0.08451705,-0.00023726,-0.00023840,-0.00066668
 ,-0.00000056,-0.00002252,0.00000375,0.00000017,0.00000187,-0.00001206,
 0.00000005,-0.00000173,-0.00000446,0.,0.00000320,-0.00000399,0.,-0.000
 01665,0.00000079,0.00001110,0.00001848,-0.00001419,-0.00000055,0.00000
 494,-0.00000322,-0.00000127,-0.00000231,0.00000366,-0.00000448,0.00052
 242,-0.00130371,-0.00000599,-0.00754483,-0.03058482,-0.00012228,-0.000
 02666,-0.00015614,-0.00000187,-0.00004187,0.00002776,0.00000082,0.0008
 7110,0.00017082,-0.00002318,0.09057477,-0.00007762,-0.00002098,-0.0000
 0225,-0.00005729,0.00009806,-0.00000358,0.00015747,-0.00044295,-0.0000
 0556,0.00000532,-0.00007859,-0.00000008,0.00011281,0.00004249,-0.00000
 103,-0.00018393,-0.00017428,0.00000712,-0.00099582,-0.00011481,-0.0000
 0372,0.00426655,-0.00196552,-0.00003589,0.00048608,0.00057836,0.000001
 74,-0.00976169,-0.01783758,-0.00007053,-0.00106457,0.00118480,0.000017
 25,0.00041214,0.00003228,0.00000156,-0.00004977,0.00008340,-0.00000028
 ,-0.00009781,-0.00007145,0.00000004,0.00002203,-0.00007151,-0.00000034
 ,0.00006011,0.00007997,-0.00000138,0.00007284,-0.00003551,0.00000185,-
 0.00001499,-0.00001167,-0.00000022,-0.00000592,-0.00000699,0.00000018,
 -0.00015644,0.00008310,0.00000402,-0.00028166,0.00161424,-0.00003816,-
 0.08680836,-0.30322492,-0.00106582,0.00098406,0.00007170,-0.00000401,0
 .00002264,0.00001882,-0.00000025,-0.00000771,0.00000453,0.00000009,0.0
 0001147,-0.00000205,-0.00000029,0.00001585,-0.00000480,-0.00000005,-0.
 00001742,0.00000472,0.00001337,0.00001611,-0.00002515,0.00000069,0.000
 00384,-0.00000541,-0.00000331,-0.00000159,0.00001008,-0.00000590,0.000
 11195,-0.00016688,-0.00000336,0.00063028,-0.00173070,-0.00003131,-0.00
 000240,-0.00001803,-0.00000003,-0.00003187,0.00000243,-0.00000036,-0.0
 0022581,0.00101547,0.00003683,0.09245111,0.32108536,-0.00000181,-0.000
 00002,-0.00003559,-0.00000074,0.00000044,-0.00029902,0.00000763,-0.000
 00053,0.00028166,0.00000119,-0.00000114,0.00002594,-0.00000484,0.00000
 234,0.00014557,-0.00000096,0.00000799,-0.00055561,-0.00000225,-0.00001
 058,0.00058685,0.00005887,-0.00002735,0.00355650,-0.00001210,-0.000000
 31,-0.00094873,-0.00006713,-0.00020641,0.00238446,-0.00001749,0.000018
 31,-0.00195777,0.00000221,0.00000275,-0.00015728,-0.00000254,0.0000001
 5,-0.00001321,-0.00000082,-0.00000008,0.00000722,-0.00000039,-0.000000
 35,0.00001669,0.00000053,-0.00000029,0.00003443,-0.00000012,-0.0000001
 4,-0.00002446,-0.00000007,-0.00000086,0.00008061,0.,0.,0.00000065,0.00
 000017,-0.00000189,-0.00059669,0.00004181,-0.00004549,0.00909462,-0.00
 027610,-0.00106657,-0.03473527,0.00000641,0.00000290,0.00029031,0.0000
 0015,0.00000004,0.00002033,-0.00000024,0.00000053,0.00001041,0.0000002
 1,0.00000005,0.00000088,0.00000005,-0.00000002,-0.00000143,-0.00000282
 ,0.00000198,0.00000628,0.00000065,0.00000293,-0.00000902,0.00000125,-0
 .00000291,0.00000024,-0.00000048,-0.00000063,0.00000368,0.00000726,0.0
 0000739,0.00042618,0.00005773,0.00009400,0.00397933,0.00000017,0.00000
 042,-0.00004522,0.00000050,-0.00000099,0.00012118,-0.00002398,0.000031
 37,-0.00592056,0.00022811,0.00119297,0.02422583\\-0.00000025,0.0000001
 7,-0.00000142,0.,0.00000009,-0.00000086,-0.00000006,0.,-0.00000048,0.0
 0000002,0.00000002,-0.00000170,-0.00000009,0.00000014,-0.00000133,0.00
 000001,0.00000006,-0.00000075,-0.00000002,0.00000005,0.00000018,0.0000
 0002,0.,0.00000022,0.00000009,0.00000007,-0.00000036,0.00000009,-0.000
 00005,0.00000069,0.00000007,-0.00000014,0.00000123,0.00000004,-0.00000
 009,0.00000123,0.,-0.00000008,0.00000070,0.00000009,-0.00000032,0.0000
 0177,-0.00000009,-0.00000012,0.00000180,0.00000010,-0.00000010,0.00000
 082,-0.00000014,-0.00000018,0.00000130,-0.00000018,0.00000011,-0.00000
 174,-0.00000014,0.00000019,-0.00000216,0.00000007,0.00000032,-0.000001
 47,0.00000004,0.00000011,-0.00000045,0.,0.,0.00000061,0.00000015,-0.00
 000012,0.00000163,0.00000010,-0.00000021,0.00000216,0.,-0.00000006,0.0
 0000045,-0.00000009,-0.00000022,0.00000133,0.00000002,-0.00000027,0.00
 000222,-0.00000012,-0.00000022,-0.00000048,-0.00000037,0.00000016,-0.0
 0000082,0.00000035,0.00000018,-0.00000058,-0.00000041,-0.00000014,-0.0
 0000052,0.00000002,0.00000006,-0.00000107,0.00000032,0.00000011,0.0000
 0004,-0.00000005,0.00000020,-0.00000193,0.00000007,0.00000019,-0.00000
 120,0.00000016,0.00000010,0.,0.00000018,-0.00000001,0.00000096\\\@


 Experience is what you get when you don't get what you want.
 -- Dan Stanford
 Job cpu time:       2 days 14 hours 51 minutes 22.0 seconds.
 File lengths (MBytes):  RWF=   7823 Int=      0 D2E=      0 Chk=     39 Scr=      1
 Normal termination of Gaussian 09 at Sat Feb  1 23:55:43 2020.
