 Entering Gaussian System, Link 0=g09
 Initial command:
 /usr/local/Cluster-Apps/gaussian/g09/l1.exe "/rds/user/am2145/hpc-work/scratch/19184611/Gau-178121.inp" -scrdir="/rds/user/am2145/hpc-work/scratch/19184611/"
 Entering Link 1 = /usr/local/Cluster-Apps/gaussian/g09/l1.exe PID=    178122.
  
 Copyright (c) 1988,1990,1992,1993,1995,1998,2003,2009,2013,
            Gaussian, Inc.  All Rights Reserved.
  
 This is part of the Gaussian(R) 09 program.  It is based on
 the Gaussian(R) 03 system (copyright 2003, Gaussian, Inc.),
 the Gaussian(R) 98 system (copyright 1998, Gaussian, Inc.),
 the Gaussian(R) 94 system (copyright 1995, Gaussian, Inc.),
 the Gaussian 92(TM) system (copyright 1992, Gaussian, Inc.),
 the Gaussian 90(TM) system (copyright 1990, Gaussian, Inc.),
 the Gaussian 88(TM) system (copyright 1988, Gaussian, Inc.),
 the Gaussian 86(TM) system (copyright 1986, Carnegie Mellon
 University), and the Gaussian 82(TM) system (copyright 1983,
 Carnegie Mellon University). Gaussian is a federally registered
 trademark of Gaussian, Inc.
  
 This software contains proprietary and confidential information,
 including trade secrets, belonging to Gaussian, Inc.
  
 This software is provided under written license and may be
 used, copied, transmitted, or stored only in accord with that
 written license.
  
 The following legend is applicable only to US Government
 contracts under FAR:
  
                    RESTRICTED RIGHTS LEGEND
  
 Use, reproduction and disclosure by the US Government is
 subject to restrictions as set forth in subparagraphs (a)
 and (c) of the Commercial Computer Software - Restricted
 Rights clause in FAR 52.227-19.
  
 Gaussian, Inc.
 340 Quinnipiac St., Bldg. 40, Wallingford CT 06492
  
  
 ---------------------------------------------------------------
 Warning -- This program may not be used in any manner that
 competes with the business of Gaussian, Inc. or will provide
 assistance to any competitor of Gaussian, Inc.  The licensee
 of this program is prohibited from giving any competitor of
 Gaussian, Inc. access to this program.  By using this program,
 the user acknowledges that Gaussian, Inc. is engaged in the
 business of creating and licensing software in the field of
 computational chemistry and represents and warrants to the
 licensee that it is not a competitor of Gaussian, Inc. and that
 it will not use this program in any manner prohibited above.
 ---------------------------------------------------------------
  

 Cite this work as:
 Gaussian 09, Revision D.01,
 M. J. Frisch, G. W. Trucks, H. B. Schlegel, G. E. Scuseria, 
 M. A. Robb, J. R. Cheeseman, G. Scalmani, V. Barone, B. Mennucci, 
 G. A. Petersson, H. Nakatsuji, M. Caricato, X. Li, H. P. Hratchian, 
 A. F. Izmaylov, J. Bloino, G. Zheng, J. L. Sonnenberg, M. Hada, 
 M. Ehara, K. Toyota, R. Fukuda, J. Hasegawa, M. Ishida, T. Nakajima, 
 Y. Honda, O. Kitao, H. Nakai, T. Vreven, J. A. Montgomery, Jr., 
 J. E. Peralta, F. Ogliaro, M. Bearpark, J. J. Heyd, E. Brothers, 
 K. N. Kudin, V. N. Staroverov, T. Keith, R. Kobayashi, J. Normand, 
 K. Raghavachari, A. Rendell, J. C. Burant, S. S. Iyengar, J. Tomasi, 
 M. Cossi, N. Rega, J. M. Millam, M. Klene, J. E. Knox, J. B. Cross, 
 V. Bakken, C. Adamo, J. Jaramillo, R. Gomperts, R. E. Stratmann, 
 O. Yazyev, A. J. Austin, R. Cammi, C. Pomelli, J. W. Ochterski, 
 R. L. Martin, K. Morokuma, V. G. Zakrzewski, G. A. Voth, 
 P. Salvador, J. J. Dannenberg, S. Dapprich, A. D. Daniels, 
 O. Farkas, J. B. Foresman, J. V. Ortiz, J. Cioslowski, 
 and D. J. Fox, Gaussian, Inc., Wallingford CT, 2013.
 
 ******************************************
 Gaussian 09:  ES64L-G09RevD.01 24-Apr-2013
                 1-Feb-2020 
 ******************************************
 %NProcShared=20
 Will use up to   20 processors via shared memory.
 %mem=64GB
 %Chk=AS2a_Hmig_guess.chk
 --------------------------------------------------
 #n opt=(ts,calcfc,noeigen) freq b3lyp/6-311+g(d,p)
 --------------------------------------------------
 1/5=1,10=4,11=1,14=-1,18=20,26=3,38=1/1,3;
 2/9=110,12=2,17=6,18=5,40=1/2;
 3/5=4,6=6,7=111,11=2,16=1,25=1,30=1,71=2,74=-5,140=1/1,2,3;
 4//1;
 5/5=2,38=5/2;
 8/6=4,10=90,11=11/1;
 11/6=1,8=1,9=11,15=111,16=1/1,2,10;
 10/6=1,13=1/2;
 6/7=2,8=2,9=2,10=2,28=1/1;
 7/10=1,18=20,25=1/1,2,3,16;
 1/5=1,10=4,11=1,14=-1,18=20,26=3/3(2);
 2/9=110/2;
 99//99;
 2/9=110/2;
 3/5=4,6=6,7=111,11=2,16=1,25=1,30=1,71=1,74=-5/1,2,3;
 4/5=5,16=3,69=1/1;
 5/5=2,38=5/2;
 7//1,2,3,16;
 1/5=1,11=1,14=-1,18=20,26=3/3(-5);
 2/9=110/2;
 6/7=2,8=2,9=2,10=2,19=2,28=1/1;
 99/9=1/99;
 ---------------
 AS2a_Hmig_guess
 ---------------
 Symbolic Z-matrix:
 Charge =  0 Multiplicity = 2
 C                     2.02791   3.22611   0.06044 
 C                     0.75035   2.62137   0.03224 
 C                     0.57369   1.25382  -0.05519 
 C                     3.20011   2.48135   0.01101 
 C                     3.1133    1.06555  -0.05061 
 C                     1.81914   0.54984  -0.08717 
 C                    -0.50751   0.17106  -0.04682 
 C                     0.20346  -1.04385  -0.03342 
 C                     1.58999  -0.82265  -0.06879 
 C                    -0.29318  -2.3553    0.0364 
 C                    -1.68173  -2.45921   0.0943 
 C                    -2.48831  -1.29858   0.05052 
 C                    -1.9295    0.04825  -0.04493 
 C                    -3.90781  -1.44458   0.09072 
 C                    -4.74517  -0.36739   0.00772 
 C                    -2.85501   1.14587  -0.16949 
 C                    -4.21047   0.93563  -0.14397 
 H                    -0.38286   3.42046   0.2429 
 H                     2.09068   4.3069    0.12972 
 H                     4.16157   2.98372   0.03905 
 C                     4.16549   0.07893  -0.03829 
 C                     2.56748  -1.79276  -0.02973 
 C                     0.70903  -3.40505   0.06026 
 H                    -2.1701   -3.42597   0.16717 
 H                    -4.31386  -2.44647   0.18148 
 H                    -4.87816   1.78356  -0.24708 
 H                    -5.81985  -0.50547   0.03905 
 C                    -2.19326   2.45166  -0.39724 
 C                    -1.57622   3.10779   0.57533 
 H                    -1.63935   2.85828   1.6308 
 H                    -1.94355   2.68179  -1.43339 
 C                     3.91196  -1.28118  -0.02943 
 C                     2.05978  -3.14798   0.02901 
 H                     5.19642   0.41746  -0.0242 
 H                     4.74947  -1.97082  -0.00965 
 H                     2.75579  -3.98      0.05609 
 H                     0.37263  -4.43554   0.1108 
 

 GradGradGradGradGradGradGradGradGradGradGradGradGradGradGradGradGradGrad
 Berny optimization.
 Initialization pass.
                           ----------------------------
                           !    Initial Parameters    !
                           ! (Angstroms and Degrees)  !
 --------------------------                            --------------------------
 ! Name  Definition              Value          Derivative Info.                !
 --------------------------------------------------------------------------------
 ! R1    R(1,2)                  1.4137         calculate D2E/DX2 analytically  !
 ! R2    R(1,4)                  1.3897         calculate D2E/DX2 analytically  !
 ! R3    R(1,19)                 1.0848         calculate D2E/DX2 analytically  !
 ! R4    R(2,3)                  1.3817         calculate D2E/DX2 analytically  !
 ! R5    R(3,6)                  1.431          calculate D2E/DX2 analytically  !
 ! R6    R(3,7)                  1.5302         calculate D2E/DX2 analytically  !
 ! R7    R(4,5)                  1.4198         calculate D2E/DX2 analytically  !
 ! R8    R(4,20)                 1.0852         calculate D2E/DX2 analytically  !
 ! R9    R(5,6)                  1.3936         calculate D2E/DX2 analytically  !
 ! R10   R(5,21)                 1.4425         calculate D2E/DX2 analytically  !
 ! R11   R(6,9)                  1.3916         calculate D2E/DX2 analytically  !
 ! R12   R(7,8)                  1.4077         calculate D2E/DX2 analytically  !
 ! R13   R(7,13)                 1.4273         calculate D2E/DX2 analytically  !
 ! R14   R(8,9)                  1.4045         calculate D2E/DX2 analytically  !
 ! R15   R(8,10)                 1.4041         calculate D2E/DX2 analytically  !
 ! R16   R(9,22)                 1.3777         calculate D2E/DX2 analytically  !
 ! R17   R(10,11)                1.3936         calculate D2E/DX2 analytically  !
 ! R18   R(10,23)                1.4515         calculate D2E/DX2 analytically  !
 ! R19   R(11,12)                1.4141         calculate D2E/DX2 analytically  !
 ! R20   R(11,24)                1.0856         calculate D2E/DX2 analytically  !
 ! R21   R(12,13)                1.4613         calculate D2E/DX2 analytically  !
 ! R22   R(12,14)                1.4276         calculate D2E/DX2 analytically  !
 ! R23   R(13,16)                1.4411         calculate D2E/DX2 analytically  !
 ! R24   R(14,15)                1.3669         calculate D2E/DX2 analytically  !
 ! R25   R(14,25)                1.0848         calculate D2E/DX2 analytically  !
 ! R26   R(15,17)                1.4166         calculate D2E/DX2 analytically  !
 ! R27   R(15,27)                1.084          calculate D2E/DX2 analytically  !
 ! R28   R(16,17)                1.3719         calculate D2E/DX2 analytically  !
 ! R29   R(16,28)                1.4815         calculate D2E/DX2 analytically  !
 ! R30   R(17,26)                1.0842         calculate D2E/DX2 analytically  !
 ! R31   R(18,29)                1.2776         calculate D2E/DX2 analytically  !
 ! R32   R(21,32)                1.3836         calculate D2E/DX2 analytically  !
 ! R33   R(21,34)                1.0852         calculate D2E/DX2 analytically  !
 ! R34   R(22,32)                1.4385         calculate D2E/DX2 analytically  !
 ! R35   R(22,33)                1.4484         calculate D2E/DX2 analytically  !
 ! R36   R(23,33)                1.3753         calculate D2E/DX2 analytically  !
 ! R37   R(23,37)                1.0852         calculate D2E/DX2 analytically  !
 ! R38   R(28,29)                1.3256         calculate D2E/DX2 analytically  !
 ! R39   R(28,31)                1.0904         calculate D2E/DX2 analytically  !
 ! R40   R(29,30)                1.0864         calculate D2E/DX2 analytically  !
 ! R41   R(32,35)                1.0851         calculate D2E/DX2 analytically  !
 ! R42   R(33,36)                1.0851         calculate D2E/DX2 analytically  !
 ! A1    A(2,1,4)              122.1612         calculate D2E/DX2 analytically  !
 ! A2    A(2,1,19)             118.6677         calculate D2E/DX2 analytically  !
 ! A3    A(4,1,19)             119.1698         calculate D2E/DX2 analytically  !
 ! A4    A(1,2,3)              122.6964         calculate D2E/DX2 analytically  !
 ! A5    A(2,3,6)              112.1512         calculate D2E/DX2 analytically  !
 ! A6    A(2,3,7)              142.2197         calculate D2E/DX2 analytically  !
 ! A7    A(6,3,7)              105.4848         calculate D2E/DX2 analytically  !
 ! A8    A(1,4,5)              118.9724         calculate D2E/DX2 analytically  !
 ! A9    A(1,4,20)             119.89           calculate D2E/DX2 analytically  !
 ! A10   A(5,4,20)             121.1271         calculate D2E/DX2 analytically  !
 ! A11   A(4,5,6)              115.2729         calculate D2E/DX2 analytically  !
 ! A12   A(4,5,21)             129.5752         calculate D2E/DX2 analytically  !
 ! A13   A(6,5,21)             115.1192         calculate D2E/DX2 analytically  !
 ! A14   A(3,6,5)              128.7259         calculate D2E/DX2 analytically  !
 ! A15   A(3,6,9)              109.9733         calculate D2E/DX2 analytically  !
 ! A16   A(5,6,9)              121.1673         calculate D2E/DX2 analytically  !
 ! A17   A(3,7,8)              104.7071         calculate D2E/DX2 analytically  !
 ! A18   A(3,7,13)             139.8944         calculate D2E/DX2 analytically  !
 ! A19   A(8,7,13)             115.3982         calculate D2E/DX2 analytically  !
 ! A20   A(7,8,9)              111.2492         calculate D2E/DX2 analytically  !
 ! A21   A(7,8,10)             128.8978         calculate D2E/DX2 analytically  !
 ! A22   A(9,8,10)             119.8374         calculate D2E/DX2 analytically  !
 ! A23   A(6,9,8)              108.5553         calculate D2E/DX2 analytically  !
 ! A24   A(6,9,22)             125.3107         calculate D2E/DX2 analytically  !
 ! A25   A(8,9,22)             126.0721         calculate D2E/DX2 analytically  !
 ! A26   A(8,10,11)            115.0956         calculate D2E/DX2 analytically  !
 ! A27   A(8,10,23)            115.6            calculate D2E/DX2 analytically  !
 ! A28   A(11,10,23)           129.2956         calculate D2E/DX2 analytically  !
 ! A29   A(10,11,12)           120.3869         calculate D2E/DX2 analytically  !
 ! A30   A(10,11,24)           121.1598         calculate D2E/DX2 analytically  !
 ! A31   A(12,11,24)           118.4522         calculate D2E/DX2 analytically  !
 ! A32   A(11,12,13)           122.7103         calculate D2E/DX2 analytically  !
 ! A33   A(11,12,14)           118.8402         calculate D2E/DX2 analytically  !
 ! A34   A(13,12,14)           118.4477         calculate D2E/DX2 analytically  !
 ! A35   A(7,13,12)            117.412          calculate D2E/DX2 analytically  !
 ! A36   A(7,13,16)            125.0422         calculate D2E/DX2 analytically  !
 ! A37   A(12,13,16)           117.5191         calculate D2E/DX2 analytically  !
 ! A38   A(12,14,15)           121.792          calculate D2E/DX2 analytically  !
 ! A39   A(12,14,25)           117.9686         calculate D2E/DX2 analytically  !
 ! A40   A(15,14,25)           120.2373         calculate D2E/DX2 analytically  !
 ! A41   A(14,15,17)           120.0095         calculate D2E/DX2 analytically  !
 ! A42   A(14,15,27)           120.3454         calculate D2E/DX2 analytically  !
 ! A43   A(17,15,27)           119.6356         calculate D2E/DX2 analytically  !
 ! A44   A(13,16,17)           121.0768         calculate D2E/DX2 analytically  !
 ! A45   A(13,16,28)           113.4364         calculate D2E/DX2 analytically  !
 ! A46   A(17,16,28)           125.3977         calculate D2E/DX2 analytically  !
 ! A47   A(15,17,16)           121.0561         calculate D2E/DX2 analytically  !
 ! A48   A(15,17,26)           119.8095         calculate D2E/DX2 analytically  !
 ! A49   A(16,17,26)           119.1336         calculate D2E/DX2 analytically  !
 ! A50   A(5,21,32)            122.6006         calculate D2E/DX2 analytically  !
 ! A51   A(5,21,34)            118.6667         calculate D2E/DX2 analytically  !
 ! A52   A(32,21,34)           118.7291         calculate D2E/DX2 analytically  !
 ! A53   A(9,22,32)            114.375          calculate D2E/DX2 analytically  !
 ! A54   A(9,22,33)            114.2863         calculate D2E/DX2 analytically  !
 ! A55   A(32,22,33)           131.3271         calculate D2E/DX2 analytically  !
 ! A56   A(10,23,33)           122.8573         calculate D2E/DX2 analytically  !
 ! A57   A(10,23,37)           118.2603         calculate D2E/DX2 analytically  !
 ! A58   A(33,23,37)           118.8814         calculate D2E/DX2 analytically  !
 ! A59   A(16,28,29)           122.1002         calculate D2E/DX2 analytically  !
 ! A60   A(16,28,31)           115.7471         calculate D2E/DX2 analytically  !
 ! A61   A(29,28,31)           119.0872         calculate D2E/DX2 analytically  !
 ! A62   A(18,29,28)           111.4084         calculate D2E/DX2 analytically  !
 ! A63   A(18,29,30)           111.3008         calculate D2E/DX2 analytically  !
 ! A64   A(28,29,30)           124.8956         calculate D2E/DX2 analytically  !
 ! A65   A(21,32,22)           121.3902         calculate D2E/DX2 analytically  !
 ! A66   A(21,32,35)           118.9122         calculate D2E/DX2 analytically  !
 ! A67   A(22,32,35)           119.6934         calculate D2E/DX2 analytically  !
 ! A68   A(22,33,23)           121.3368         calculate D2E/DX2 analytically  !
 ! A69   A(22,33,36)           119.5791         calculate D2E/DX2 analytically  !
 ! A70   A(23,33,36)           119.0827         calculate D2E/DX2 analytically  !
 ! D1    D(4,1,2,3)             -0.4494         calculate D2E/DX2 analytically  !
 ! D2    D(19,1,2,3)           179.9707         calculate D2E/DX2 analytically  !
 ! D3    D(2,1,4,5)             -0.9188         calculate D2E/DX2 analytically  !
 ! D4    D(2,1,4,20)          -179.752          calculate D2E/DX2 analytically  !
 ! D5    D(19,1,4,5)           178.659          calculate D2E/DX2 analytically  !
 ! D6    D(19,1,4,20)           -0.1742         calculate D2E/DX2 analytically  !
 ! D7    D(1,2,3,6)              1.0648         calculate D2E/DX2 analytically  !
 ! D8    D(1,2,3,7)            175.7647         calculate D2E/DX2 analytically  !
 ! D9    D(2,3,6,5)             -0.4405         calculate D2E/DX2 analytically  !
 ! D10   D(2,3,6,9)            175.333          calculate D2E/DX2 analytically  !
 ! D11   D(7,3,6,5)           -177.074          calculate D2E/DX2 analytically  !
 ! D12   D(7,3,6,9)             -1.3005         calculate D2E/DX2 analytically  !
 ! D13   D(2,3,7,8)           -173.1831         calculate D2E/DX2 analytically  !
 ! D14   D(2,3,7,13)             6.5896         calculate D2E/DX2 analytically  !
 ! D15   D(6,3,7,8)              1.7236         calculate D2E/DX2 analytically  !
 ! D16   D(6,3,7,13)          -178.5037         calculate D2E/DX2 analytically  !
 ! D17   D(1,4,5,6)              1.4423         calculate D2E/DX2 analytically  !
 ! D18   D(1,4,5,21)          -176.3526         calculate D2E/DX2 analytically  !
 ! D19   D(20,4,5,6)          -179.7394         calculate D2E/DX2 analytically  !
 ! D20   D(20,4,5,21)            2.4657         calculate D2E/DX2 analytically  !
 ! D21   D(4,5,6,3)             -0.8074         calculate D2E/DX2 analytically  !
 ! D22   D(4,5,6,9)           -176.1642         calculate D2E/DX2 analytically  !
 ! D23   D(21,5,6,3)           177.3155         calculate D2E/DX2 analytically  !
 ! D24   D(21,5,6,9)             1.9587         calculate D2E/DX2 analytically  !
 ! D25   D(4,5,21,32)          176.2443         calculate D2E/DX2 analytically  !
 ! D26   D(4,5,21,34)           -3.0528         calculate D2E/DX2 analytically  !
 ! D27   D(6,5,21,32)           -1.5534         calculate D2E/DX2 analytically  !
 ! D28   D(6,5,21,34)          179.1495         calculate D2E/DX2 analytically  !
 ! D29   D(3,6,9,8)              0.3696         calculate D2E/DX2 analytically  !
 ! D30   D(3,6,9,22)          -176.9073         calculate D2E/DX2 analytically  !
 ! D31   D(5,6,9,8)            176.5167         calculate D2E/DX2 analytically  !
 ! D32   D(5,6,9,22)            -0.7602         calculate D2E/DX2 analytically  !
 ! D33   D(3,7,8,9)             -1.5797         calculate D2E/DX2 analytically  !
 ! D34   D(3,7,8,10)           176.9582         calculate D2E/DX2 analytically  !
 ! D35   D(13,7,8,9)           178.5824         calculate D2E/DX2 analytically  !
 ! D36   D(13,7,8,10)           -2.8797         calculate D2E/DX2 analytically  !
 ! D37   D(3,7,13,12)         -176.2162         calculate D2E/DX2 analytically  !
 ! D38   D(3,7,13,16)            5.717          calculate D2E/DX2 analytically  !
 ! D39   D(8,7,13,12)            3.5405         calculate D2E/DX2 analytically  !
 ! D40   D(8,7,13,16)         -174.5263         calculate D2E/DX2 analytically  !
 ! D41   D(7,8,9,6)              0.8327         calculate D2E/DX2 analytically  !
 ! D42   D(7,8,9,22)           178.0835         calculate D2E/DX2 analytically  !
 ! D43   D(10,8,9,6)          -177.8556         calculate D2E/DX2 analytically  !
 ! D44   D(10,8,9,22)           -0.6048         calculate D2E/DX2 analytically  !
 ! D45   D(7,8,10,11)            0.3043         calculate D2E/DX2 analytically  !
 ! D46   D(7,8,10,23)         -178.721          calculate D2E/DX2 analytically  !
 ! D47   D(9,8,10,11)          178.7333         calculate D2E/DX2 analytically  !
 ! D48   D(9,8,10,23)           -0.2919         calculate D2E/DX2 analytically  !
 ! D49   D(6,9,22,32)           -0.9465         calculate D2E/DX2 analytically  !
 ! D50   D(6,9,22,33)          177.9594         calculate D2E/DX2 analytically  !
 ! D51   D(8,9,22,32)         -177.7522         calculate D2E/DX2 analytically  !
 ! D52   D(8,9,22,33)            1.1537         calculate D2E/DX2 analytically  !
 ! D53   D(8,10,11,12)           1.4239         calculate D2E/DX2 analytically  !
 ! D54   D(8,10,11,24)        -178.9742         calculate D2E/DX2 analytically  !
 ! D55   D(23,10,11,12)       -179.712          calculate D2E/DX2 analytically  !
 ! D56   D(23,10,11,24)         -0.1101         calculate D2E/DX2 analytically  !
 ! D57   D(8,10,23,33)           0.5505         calculate D2E/DX2 analytically  !
 ! D58   D(8,10,23,37)        -179.815          calculate D2E/DX2 analytically  !
 ! D59   D(11,10,23,33)       -178.3088         calculate D2E/DX2 analytically  !
 ! D60   D(11,10,23,37)          1.3257         calculate D2E/DX2 analytically  !
 ! D61   D(10,11,12,13)         -0.4922         calculate D2E/DX2 analytically  !
 ! D62   D(10,11,12,14)        179.0169         calculate D2E/DX2 analytically  !
 ! D63   D(24,11,12,13)        179.8952         calculate D2E/DX2 analytically  !
 ! D64   D(24,11,12,14)         -0.5956         calculate D2E/DX2 analytically  !
 ! D65   D(11,12,13,7)          -2.1558         calculate D2E/DX2 analytically  !
 ! D66   D(11,12,13,16)        176.0596         calculate D2E/DX2 analytically  !
 ! D67   D(14,12,13,7)         178.3332         calculate D2E/DX2 analytically  !
 ! D68   D(14,12,13,16)         -3.4514         calculate D2E/DX2 analytically  !
 ! D69   D(11,12,14,15)       -177.8139         calculate D2E/DX2 analytically  !
 ! D70   D(11,12,14,25)          1.6613         calculate D2E/DX2 analytically  !
 ! D71   D(13,12,14,15)          1.7164         calculate D2E/DX2 analytically  !
 ! D72   D(13,12,14,25)       -178.8084         calculate D2E/DX2 analytically  !
 ! D73   D(7,13,16,17)        -179.3326         calculate D2E/DX2 analytically  !
 ! D74   D(7,13,16,28)           3.9212         calculate D2E/DX2 analytically  !
 ! D75   D(12,13,16,17)          2.6025         calculate D2E/DX2 analytically  !
 ! D76   D(12,13,16,28)       -174.1437         calculate D2E/DX2 analytically  !
 ! D77   D(12,14,15,17)          1.0261         calculate D2E/DX2 analytically  !
 ! D78   D(12,14,15,27)        179.9005         calculate D2E/DX2 analytically  !
 ! D79   D(25,14,15,17)       -178.4375         calculate D2E/DX2 analytically  !
 ! D80   D(25,14,15,27)          0.437          calculate D2E/DX2 analytically  !
 ! D81   D(14,15,17,16)         -1.9885         calculate D2E/DX2 analytically  !
 ! D82   D(14,15,17,26)        177.6948         calculate D2E/DX2 analytically  !
 ! D83   D(27,15,17,16)        179.1291         calculate D2E/DX2 analytically  !
 ! D84   D(27,15,17,26)         -1.1877         calculate D2E/DX2 analytically  !
 ! D85   D(13,16,17,15)          0.0962         calculate D2E/DX2 analytically  !
 ! D86   D(13,16,17,26)       -179.5892         calculate D2E/DX2 analytically  !
 ! D87   D(28,16,17,15)        176.4333         calculate D2E/DX2 analytically  !
 ! D88   D(28,16,17,26)         -3.2521         calculate D2E/DX2 analytically  !
 ! D89   D(13,16,28,29)        -75.339          calculate D2E/DX2 analytically  !
 ! D90   D(13,16,28,31)         84.6561         calculate D2E/DX2 analytically  !
 ! D91   D(17,16,28,29)        108.08           calculate D2E/DX2 analytically  !
 ! D92   D(17,16,28,31)        -91.9249         calculate D2E/DX2 analytically  !
 ! D93   D(5,21,32,22)          -0.1084         calculate D2E/DX2 analytically  !
 ! D94   D(5,21,32,35)        -179.3557         calculate D2E/DX2 analytically  !
 ! D95   D(34,21,32,22)        179.1883         calculate D2E/DX2 analytically  !
 ! D96   D(34,21,32,35)         -0.059          calculate D2E/DX2 analytically  !
 ! D97   D(9,22,32,21)           1.3411         calculate D2E/DX2 analytically  !
 ! D98   D(9,22,32,35)        -179.4174         calculate D2E/DX2 analytically  !
 ! D99   D(33,22,32,21)       -177.3308         calculate D2E/DX2 analytically  !
 ! D100  D(33,22,32,35)          1.9107         calculate D2E/DX2 analytically  !
 ! D101  D(9,22,33,23)          -0.8437         calculate D2E/DX2 analytically  !
 ! D102  D(9,22,33,36)         179.5913         calculate D2E/DX2 analytically  !
 ! D103  D(32,22,33,23)        177.8292         calculate D2E/DX2 analytically  !
 ! D104  D(32,22,33,36)         -1.7358         calculate D2E/DX2 analytically  !
 ! D105  D(10,23,33,22)          0.0342         calculate D2E/DX2 analytically  !
 ! D106  D(10,23,33,36)        179.6013         calculate D2E/DX2 analytically  !
 ! D107  D(37,23,33,22)       -179.5981         calculate D2E/DX2 analytically  !
 ! D108  D(37,23,33,36)         -0.031          calculate D2E/DX2 analytically  !
 ! D109  D(16,28,29,18)        127.392          calculate D2E/DX2 analytically  !
 ! D110  D(16,28,29,30)        -11.1279         calculate D2E/DX2 analytically  !
 ! D111  D(31,28,29,18)        -31.9611         calculate D2E/DX2 analytically  !
 ! D112  D(31,28,29,30)       -170.481          calculate D2E/DX2 analytically  !
 --------------------------------------------------------------------------------
 Trust Radius=3.00D-01 FncErr=1.00D-07 GrdErr=1.00D-06
 Number of steps in this run=    222 maximum allowed number of steps=    222.
 Search for a saddle point of order  1.
 GradGradGradGradGradGradGradGradGradGradGradGradGradGradGradGradGradGrad

                          Input orientation:                          
 ---------------------------------------------------------------------
 Center     Atomic      Atomic             Coordinates (Angstroms)
 Number     Number       Type             X           Y           Z
 ---------------------------------------------------------------------
      1          6           0        2.027910    3.226110    0.060440
      2          6           0        0.750350    2.621370    0.032240
      3          6           0        0.573690    1.253820   -0.055190
      4          6           0        3.200110    2.481350    0.011010
      5          6           0        3.113300    1.065550   -0.050610
      6          6           0        1.819140    0.549840   -0.087170
      7          6           0       -0.507510    0.171060   -0.046820
      8          6           0        0.203460   -1.043850   -0.033420
      9          6           0        1.589990   -0.822650   -0.068790
     10          6           0       -0.293180   -2.355300    0.036400
     11          6           0       -1.681730   -2.459210    0.094300
     12          6           0       -2.488310   -1.298580    0.050520
     13          6           0       -1.929500    0.048250   -0.044930
     14          6           0       -3.907810   -1.444580    0.090720
     15          6           0       -4.745170   -0.367390    0.007720
     16          6           0       -2.855010    1.145870   -0.169490
     17          6           0       -4.210470    0.935630   -0.143970
     18          1           0       -0.382860    3.420460    0.242900
     19          1           0        2.090680    4.306900    0.129720
     20          1           0        4.161570    2.983720    0.039050
     21          6           0        4.165490    0.078930   -0.038290
     22          6           0        2.567480   -1.792760   -0.029730
     23          6           0        0.709030   -3.405050    0.060260
     24          1           0       -2.170100   -3.425970    0.167170
     25          1           0       -4.313860   -2.446470    0.181480
     26          1           0       -4.878160    1.783560   -0.247080
     27          1           0       -5.819850   -0.505470    0.039050
     28          6           0       -2.193260    2.451660   -0.397240
     29          6           0       -1.576220    3.107790    0.575330
     30          1           0       -1.639350    2.858280    1.630800
     31          1           0       -1.943550    2.681790   -1.433390
     32          6           0        3.911960   -1.281180   -0.029430
     33          6           0        2.059780   -3.147980    0.029010
     34          1           0        5.196420    0.417460   -0.024200
     35          1           0        4.749470   -1.970820   -0.009650
     36          1           0        2.755790   -3.980000    0.056090
     37          1           0        0.372630   -4.435540    0.110800
 ---------------------------------------------------------------------
                    Distance matrix (angstroms):
                    1          2          3          4          5
     1  C    0.000000
     2  C    1.413742   0.000000
     3  C    2.453172   1.381682   0.000000
     4  C    1.389663   2.453850   2.899878   0.000000
     5  C    2.420418   2.830366   2.546583   1.419797   0.000000
     6  C    2.688456   2.334054   1.430998   2.376436   1.393608
     7  C    3.971548   2.755446   1.530174   4.368893   3.729664
     8  C    4.644350   3.706378   2.327409   4.626977   3.594027
     9  C    4.074424   3.546333   2.311878   3.676312   2.426129
    10  C    6.044847   5.084901   3.712896   5.966314   4.828446
    11  C    6.788626   5.633042   4.346937   6.946109   5.952919
    12  C    6.392899   5.084807   3.987702   6.829901   6.080902
    13  C    5.076514   3.715979   2.778392   5.677676   5.144391
    14  C    7.553081   6.183351   5.233211   8.120456   7.457661
    15  C    7.667505   6.255720   5.560805   8.440545   7.988258
    16  C    5.312549   3.900822   3.432303   6.203271   5.970034
    17  C    6.648719   5.242376   4.795551   7.571655   7.325517
    18  H    2.425464   1.402529   2.387085   3.711250   4.225504
    19  H    1.084826   2.155690   3.414198   2.139523   3.403619
    20  H    2.147490   3.430418   3.984259   1.085158   2.187758
    21  C    3.805751   4.258187   3.779111   2.589597   1.442454
    22  C    5.048596   4.773923   3.641085   4.320868   2.910033
    23  C    6.761045   6.026627   4.662265   6.391996   5.077309
    24  H    7.866692   6.716960   5.429389   7.984984   6.937975
    25  H    8.509457   7.165996   6.134843   8.987336   8.218933
    26  H    7.061821   5.697374   5.480886   8.112458   8.026056
    27  H    8.689792   7.276311   6.631843   9.501661   9.070684
    28  C    4.315961   2.979613   3.034441   5.408881   5.495547
    29  C    3.642645   2.438130   2.908070   4.850177   5.153071
    30  H    4.006261   2.884820   3.211604   5.117242   5.350580
    31  H    4.277886   3.067380   3.205469   5.346373   5.485986
    32  C    4.886040   5.022895   4.191770   3.829491   2.479001
    33  C    6.374247   5.916081   4.646654   5.743695   4.343970
    34  H    4.234989   4.962655   4.697882   2.871608   2.181767
    35  H    5.866846   6.089575   5.276127   4.714102   3.449387
    36  H    7.242779   6.899308   5.671580   6.476766   5.059325
    37  H    7.838582   7.067448   5.695331   7.473150   6.148115
                    6          7          8          9         10
     6  C    0.000000
     7  C    2.357626   0.000000
     8  C    2.270057   1.407716   0.000000
     9  C    1.391609   2.321088   1.404509   0.000000
    10  C    3.594023   2.536801   1.404075   2.430311   0.000000
    11  C    4.619892   2.883926   2.360826   3.661841   1.393636
    12  C    4.689322   2.468377   2.705099   4.107709   2.436278
    13  C    3.782285   1.427285   2.396317   3.625720   2.908816
    14  C    6.066903   3.767128   4.132619   5.535164   3.727990
    15  C    6.628762   4.272080   4.994820   6.351958   4.875738
    16  C    4.712718   2.544810   3.763991   4.862431   4.343219
    17  C    6.042206   3.782317   4.838733   6.061562   5.119367
    18  H    3.632934   3.264671   4.511118   4.689698   5.780146
    19  H    3.773099   4.887426   5.676155   5.157749   7.076468
    20  H    3.380338   5.451490   5.647407   4.594900   6.953412
    21  C    2.393638   4.673916   4.118051   2.728915   5.080432
    22  C    2.459896   3.648622   2.479813   1.377725   2.916196
    23  C    4.110381   3.778889   2.416535   2.731581   1.451540
    24  H    5.637889   3.968453   3.368756   4.579435   2.164778
    25  H    6.831086   4.625136   4.734945   6.128203   4.024329
    26  H    6.811862   4.662922   5.819172   6.975750   6.183249
    27  H    7.712573   5.355933   6.047757   7.417409   5.828032
    28  C    4.451114   2.857566   4.253848   5.014176   5.187023
    29  C    4.302381   3.186471   4.557845   5.088038   5.637552
    30  H    4.499052   3.364019   4.625170   5.183289   5.615666
    31  H    4.529388   3.207577   4.522163   5.160343   5.500571
    32  C    2.781342   4.651991   3.716088   2.367138   4.340653
    33  C    3.707462   4.196755   2.806632   2.374327   2.482905
    34  H    3.380460   5.709294   5.202419   3.813948   6.150413
    35  H    3.866079   5.676695   4.639617   3.362158   5.057496
    36  H    4.627881   5.281195   3.891449   3.368018   3.454889
    37  H    5.194766   4.692574   3.398967   3.816699   2.185460
                   11         12         13         14         15
    11  C    0.000000
    12  C    1.414054   0.000000
    13  C    2.523516   1.461277   0.000000
    14  C    2.446409   1.427555   2.482066   0.000000
    15  C    3.710508   2.441795   2.846669   1.366894   0.000000
    16  C    3.800365   2.481574   1.441129   2.808296   2.427769
    17  C    4.239839   2.827606   2.449505   2.410826   1.416607
    18  H    6.023260   5.171003   3.721121   6.009746   5.782116
    19  H    7.746778   7.238427   5.859049   8.310411   8.282072
    20  H    7.985781   7.909433   6.762039   9.204749   9.516351
    21  C    6.375713   6.795475   6.095071   8.216806   8.921949
    22  C    4.302944   5.080518   4.859257   6.485763   7.450365
    23  C    2.571285   3.828876   4.347204   5.015933   6.243271
    24  H    1.085560   2.154218   3.488994   2.636548   4.001415
    25  H    2.633604   2.160425   3.458332   1.084849   2.130445
    26  H    5.323044   3.911462   3.427355   3.387710   2.170068
    27  H    4.576482   3.424663   3.930456   2.130844   1.083967
    28  C    4.961846   3.788383   2.443373   4.284679   3.824040
    29  C    5.588740   4.530279   3.141706   5.137629   4.737225
    30  H    5.535190   4.527417   3.284589   5.102192   4.762925
    31  H    5.369569   4.282768   2.977172   4.817485   4.384447
    32  C    5.717730   6.400793   5.990850   7.822400   8.705303
    33  C    3.804939   4.909772   5.112309   6.206248   7.351155
    34  H    7.456421   7.874354   7.135509   9.293406   9.972573
    35  H    6.450555   7.269181   6.977573   8.673840   9.629095
    36  H    4.691039   5.889875   6.179721   7.129735   8.325725
    37  H    2.850710   4.246072   5.042661   5.221916   6.538528
                   16         17         18         19         20
    16  C    0.000000
    17  C    1.371905   0.000000
    18  H    3.384575   4.579809   0.000000
    19  H    5.877201   7.151563   2.630016   0.000000
    20  H    7.256278   8.620860   4.569917   2.459189   0.000000
    21  C    7.102323   8.420321   5.650874   4.712621   2.905822
    22  C    6.169155   7.307378   5.996374   6.120344   5.035932
    23  C    5.784984   6.563893   6.914707   7.835047   7.262015
    24  H    4.635101   4.825295   7.076268   8.829095   9.010582
    25  H    3.893113   3.399295   7.062393   9.307460  10.066785
    26  H    2.122688   1.084171   4.809079   7.421183   9.123539
    27  H    3.400101   2.168034   6.709347   9.259785  10.573703
    28  C    1.481510   2.536066   2.150791   4.698057   6.391972
    29  C    2.457477   3.489261   1.277646   3.883631   5.764133
    30  H    2.766084   3.668385   1.954758   4.273741   6.016650
    31  H    2.187979   3.138567   2.406519   4.621613   6.287426
    32  C    7.190415   8.420287   6.373779   5.879543   4.272747
    33  C    6.529296   7.484773   7.011180   7.455624   6.481926
    34  H    8.085618   9.421912   6.341744   4.979664   2.767780
    35  H    8.219940   9.420511   7.447852   6.818970   4.989536
    36  H    7.603059   8.528319   8.040698   8.313874   7.104217
    37  H    6.453554   7.065351   7.893349   8.909675   8.331064
                   21         22         23         24         25
    21  C    0.000000
    22  C    2.461084   0.000000
    23  C    4.908660   2.461994   0.000000
    24  H    7.243358   5.015058   2.881190   0.000000
    25  H    8.850159   6.915547   5.114977   2.356975   0.000000
    26  H    9.205268   8.262860   7.631043   5.885949   4.288969
    27  H   10.002726   8.485821   7.143829   4.676153   2.460848
    28  C    6.796499   6.388647   6.552377   5.904712   5.368756
    29  C    6.520564   6.446064   6.921326   6.573379   6.204804
    30  H    6.648821   6.487446   6.871011   6.474234   6.115056
    31  H    6.785393   6.507016   6.805644   6.318057   5.875817
    32  C    1.383566   1.438520   3.844168   6.452149   8.310626
    33  C    3.853763   1.448389   1.375350   4.241256   6.413942
    34  H    1.085181   3.434593   5.895370   8.311089   9.934275
    35  H    2.131508   2.189335   4.288013   7.073131   9.077815
    36  H    4.297799   2.197008   2.125985   4.958193   7.235149
    37  H    5.898174   3.438226   1.085186   2.736400   5.091619
                   26         27         28         29         30
    26  H    0.000000
    27  H    2.491648   0.000000
    28  C    2.770847   4.699694   0.000000
    29  C    3.651404   5.599253   1.325571   0.000000
    30  H    3.895041   5.596880   2.141285   1.086397   0.000000
    31  H    3.290302   5.229953   1.090377   2.085992   3.084307
    32  C    9.311617   9.762917   7.165409   7.053291   7.120993
    33  C    8.516532   8.310928   7.044573   7.256281   7.233564
    34  H   10.169222  11.055044   7.673624   7.312042   7.444755
    35  H   10.336489  10.670527   8.240756   8.133193   8.174858
    36  H    9.570148   9.252797   8.128029   8.323022   8.280039
    37  H    8.147152   7.334672   7.367185   7.804847   7.717401
                   31         32         33         34         35
    31  H    0.000000
    32  C    7.208553   0.000000
    33  C    7.221598   2.630386   0.000000
    34  H    7.621823   2.129611   4.749074   0.000000
    35  H    8.274680   1.085089   2.936262   2.429785   0.000000
    36  H    8.287448   2.937290   1.085090   5.029988   2.831234
    37  H    7.642356   4.743048   2.123906   6.843887   5.024548
                   36         37
    36  H    0.000000
    37  H    2.426924   0.000000
 Stoichiometry    C24H13(2)
 Framework group  C1[X(C24H13)]
 Deg. of freedom   105
 Full point group                 C1      NOp   1
 Largest Abelian subgroup         C1      NOp   1
 Largest concise Abelian subgroup C1      NOp   1
                         Standard orientation:                         
 ---------------------------------------------------------------------
 Center     Atomic      Atomic             Coordinates (Angstroms)
 Number     Number       Type             X           Y           Z
 ---------------------------------------------------------------------
      1          6           0        2.027909    3.226110    0.060440
      2          6           0        0.750349    2.621370    0.032240
      3          6           0        0.573690    1.253820   -0.055190
      4          6           0        3.200109    2.481351    0.011010
      5          6           0        3.113300    1.065551   -0.050610
      6          6           0        1.819140    0.549840   -0.087170
      7          6           0       -0.507510    0.171059   -0.046820
      8          6           0        0.203461   -1.043851   -0.033420
      9          6           0        1.589991   -0.822650   -0.068790
     10          6           0       -0.293179   -2.355301    0.036400
     11          6           0       -1.681729   -2.459211    0.094300
     12          6           0       -2.488309   -1.298582    0.050520
     13          6           0       -1.929500    0.048249   -0.044930
     14          6           0       -3.907809   -1.444582    0.090720
     15          6           0       -4.745170   -0.367393    0.007720
     16          6           0       -2.855010    1.145868   -0.169490
     17          6           0       -4.210470    0.935628   -0.143970
     18          1           0       -0.382861    3.420459    0.242900
     19          1           0        2.090679    4.306900    0.129720
     20          1           0        4.161569    2.983721    0.039050
     21          6           0        4.165490    0.078931   -0.038290
     22          6           0        2.567481   -1.792760   -0.029730
     23          6           0        0.709032   -3.405050    0.060260
     24          1           0       -2.170098   -3.425972    0.167170
     25          1           0       -4.313859   -2.446472    0.181480
     26          1           0       -4.878160    1.783557   -0.247080
     27          1           0       -5.819849   -0.505473    0.039050
     28          6           0       -2.193261    2.451658   -0.397240
     29          6           0       -1.576221    3.107789    0.575330
     30          1           0       -1.639351    2.858279    1.630800
     31          1           0       -1.943551    2.681789   -1.433390
     32          6           0        3.911961   -1.281179   -0.029430
     33          6           0        2.059782   -3.147980    0.029010
     34          1           0        5.196420    0.417462   -0.024200
     35          1           0        4.749471   -1.970819   -0.009650
     36          1           0        2.755792   -3.979999    0.056090
     37          1           0        0.372632   -4.435540    0.110800
 ---------------------------------------------------------------------
 Rotational constants (GHZ):      0.4268814      0.2422405      0.1556957
 Standard basis: 6-311+G(d,p) (5D, 7F)
 There are   630 symmetry adapted cartesian basis functions of A   symmetry.
 There are   606 symmetry adapted basis functions of A   symmetry.
   606 basis functions,   968 primitive gaussians,   630 cartesian basis functions
    79 alpha electrons       78 beta electrons
       nuclear repulsion energy      1823.2281774062 Hartrees.
 NAtoms=   37 NActive=   37 NUniq=   37 SFac= 1.00D+00 NAtFMM=   60 NAOKFM=F Big=F
 Integral buffers will be    131072 words long.
 Raffenetti 2 integral format.
 Two-electron integral symmetry is turned on.
 One-electron integrals computed using PRISM.
 NBasis=   606 RedAO= T EigKep=  1.38D-06  NBF=   606
 NBsUse=   590 1.00D-06 EigRej=  8.02D-07 NBFU=   590
 ExpMin= 4.38D-02 ExpMax= 4.56D+03 ExpMxC= 6.82D+02 IAcc=2 IRadAn=         4 AccDes= 0.00D+00
 Harris functional with IExCor=  402 and IRadAn=       4 diagonalized for initial guess.
 HarFok:  IExCor=  402 AccDes= 0.00D+00 IRadAn=         4 IDoV= 1 UseB2=F ITyADJ=14
 ICtDFT=  3500011 ScaDFX=  1.000000  1.000000  1.000000  1.000000
 FoFCou: FMM=F IPFlag=           0 FMFlag=      100000 FMFlg1=           0
         NFxFlg=           0 DoJE=T BraDBF=F KetDBF=T FulRan=T
         wScrn=  0.000000 ICntrl=     500 IOpCl=  0 I1Cent=   200000004 NGrid=           0
         NMat0=    1 NMatS0=      1 NMatT0=    0 NMatD0=    1 NMtDS0=    0 NMtDT0=    0
 Petite list used in FoFCou.
 Initial guess <Sx>= 0.0000 <Sy>= 0.0000 <Sz>= 0.5000 <S**2>= 0.7500 S= 0.5000
 Requested convergence on RMS density matrix=1.00D-08 within 128 cycles.
 Requested convergence on MAX density matrix=1.00D-06.
 Requested convergence on             energy=1.00D-06.
 No special actions if energy rises.
 Restarting incremental Fock formation.
 SCF Done:  E(UB3LYP) =  -922.465081528     A.U. after   23 cycles
            NFock= 23  Conv=0.77D-08     -V/T= 2.0044
 <Sx>= 0.0000 <Sy>= 0.0000 <Sz>= 0.5000 <S**2>= 0.7615 S= 0.5057
 <L.S>= 0.000000000000E+00
 Annihilation of the first spin contaminant:
 S**2 before annihilation     0.7615,   after     0.7501
 DoSCS=F DFT=T ScalE2(SS,OS)=  1.000000  1.000000
 Range of M.O.s used for correlation:     1   590
 NBasis=   606 NAE=    79 NBE=    78 NFC=     0 NFV=     0
 NROrb=    590 NOA=    79 NOB=    78 NVA=   511 NVB=   512

 **** Warning!!: The largest alpha MO coefficient is  0.14356732D+03


 **** Warning!!: The largest beta MO coefficient is  0.14624215D+03

 Symmetrizing basis deriv contribution to polar:
 IMax=3 JMax=2 DiffMx= 0.00D+00
 G2DrvN: will do    38 centers at a time, making    1 passes.
 Calling FoFCou, ICntrl=  3107 FMM=F I1Cent=   0 AccDes= 0.00D+00.
 End of G2Drv F.D. properties file   721 does not exist.
 End of G2Drv F.D. properties file   722 does not exist.
 End of G2Drv F.D. properties file   788 does not exist.
          IDoAtm=1111111111111111111111111111111111111
          Differentiating once with respect to nuclear coordinates.
          There are   114 degrees of freedom in the 1st order CPHF.  IDoFFX=6 NUNeed=     0.
    108 vectors produced by pass  0 Test12= 8.03D-14 1.00D-09 XBig12= 5.21D-01 1.23D-01.
 AX will form   108 AO Fock derivatives at one time.
    108 vectors produced by pass  1 Test12= 8.03D-14 1.00D-09 XBig12= 1.40D-01 6.17D-02.
    108 vectors produced by pass  2 Test12= 8.03D-14 1.00D-09 XBig12= 2.45D-03 5.70D-03.
    108 vectors produced by pass  3 Test12= 8.03D-14 1.00D-09 XBig12= 3.17D-05 8.62D-04.
    108 vectors produced by pass  4 Test12= 8.03D-14 1.00D-09 XBig12= 5.17D-07 6.17D-05.
    108 vectors produced by pass  5 Test12= 8.03D-14 1.00D-09 XBig12= 2.89D-09 3.71D-06.
    108 vectors produced by pass  6 Test12= 8.03D-14 1.00D-09 XBig12= 6.57D-11 6.41D-07.
    108 vectors produced by pass  7 Test12= 8.03D-14 1.00D-09 XBig12= 9.17D-12 1.88D-07.
    107 vectors produced by pass  8 Test12= 8.03D-14 1.00D-09 XBig12= 1.13D-12 6.07D-08.
     49 vectors produced by pass  9 Test12= 8.03D-14 1.00D-09 XBig12= 1.25D-14 6.78D-09.
     24 vectors produced by pass 10 Test12= 8.03D-14 1.00D-09 XBig12= 6.68D-16 1.45D-09.
     24 vectors produced by pass 11 Test12= 8.03D-14 1.00D-09 XBig12= 1.61D-13 2.27D-08.
     24 vectors produced by pass 12 Test12= 8.03D-14 1.00D-09 XBig12= 1.78D-12 7.96D-08.
     24 vectors produced by pass 13 Test12= 8.03D-14 1.00D-09 XBig12= 5.07D-13 3.57D-08.
     24 vectors produced by pass 14 Test12= 8.03D-14 1.00D-09 XBig12= 2.33D-13 2.63D-08.
     24 vectors produced by pass 15 Test12= 8.03D-14 1.00D-09 XBig12= 1.85D-13 2.33D-08.
     24 vectors produced by pass 16 Test12= 8.03D-14 1.00D-09 XBig12= 1.88D-13 2.16D-08.
     24 vectors produced by pass 17 Test12= 8.03D-14 1.00D-09 XBig12= 2.81D-13 2.71D-08.
     24 vectors produced by pass 18 Test12= 8.03D-14 1.00D-09 XBig12= 1.62D-13 1.62D-08.
     24 vectors produced by pass 19 Test12= 8.03D-14 1.00D-09 XBig12= 7.41D-14 1.29D-08.
     24 vectors produced by pass 20 Test12= 8.03D-14 1.00D-09 XBig12= 2.96D-13 2.57D-08.
     19 vectors produced by pass 21 Test12= 8.03D-14 1.00D-09 XBig12= 4.52D-14 1.03D-08.
     19 vectors produced by pass 22 Test12= 8.03D-14 1.00D-09 XBig12= 1.20D-13 1.64D-08.
     19 vectors produced by pass 23 Test12= 8.03D-14 1.00D-09 XBig12= 1.34D-13 1.84D-08.
     19 vectors produced by pass 24 Test12= 8.03D-14 1.00D-09 XBig12= 2.09D-13 2.06D-08.
     18 vectors produced by pass 25 Test12= 8.03D-14 1.00D-09 XBig12= 6.06D-14 1.07D-08.
     18 vectors produced by pass 26 Test12= 8.03D-14 1.00D-09 XBig12= 9.66D-14 1.45D-08.
     18 vectors produced by pass 27 Test12= 8.03D-14 1.00D-09 XBig12= 2.19D-13 1.82D-08.
     18 vectors produced by pass 28 Test12= 8.03D-14 1.00D-09 XBig12= 1.36D-13 1.48D-08.
     18 vectors produced by pass 29 Test12= 8.03D-14 1.00D-09 XBig12= 1.37D-13 1.32D-08.
     18 vectors produced by pass 30 Test12= 8.03D-14 1.00D-09 XBig12= 1.42D-13 2.11D-08.
     18 vectors produced by pass 31 Test12= 8.03D-14 1.00D-09 XBig12= 1.35D-13 1.56D-08.
     14 vectors produced by pass 32 Test12= 8.03D-14 1.00D-09 XBig12= 6.28D-14 1.24D-08.
     14 vectors produced by pass 33 Test12= 8.03D-14 1.00D-09 XBig12= 8.41D-14 1.20D-08.
     14 vectors produced by pass 34 Test12= 8.03D-14 1.00D-09 XBig12= 1.46D-13 1.88D-08.
     14 vectors produced by pass 35 Test12= 8.03D-14 1.00D-09 XBig12= 6.53D-14 9.72D-09.
     14 vectors produced by pass 36 Test12= 8.03D-14 1.00D-09 XBig12= 8.18D-14 1.04D-08.
     14 vectors produced by pass 37 Test12= 8.03D-14 1.00D-09 XBig12= 1.26D-13 1.48D-08.
     14 vectors produced by pass 38 Test12= 8.03D-14 1.00D-09 XBig12= 8.10D-14 1.43D-08.
     14 vectors produced by pass 39 Test12= 8.03D-14 1.00D-09 XBig12= 7.94D-14 1.33D-08.
     14 vectors produced by pass 40 Test12= 8.03D-14 1.00D-09 XBig12= 1.11D-13 1.90D-08.
     14 vectors produced by pass 41 Test12= 8.03D-14 1.00D-09 XBig12= 6.56D-14 1.04D-08.
     12 vectors produced by pass 42 Test12= 8.03D-14 1.00D-09 XBig12= 4.25D-14 8.88D-09.
     12 vectors produced by pass 43 Test12= 8.03D-14 1.00D-09 XBig12= 8.15D-14 1.12D-08.
     12 vectors produced by pass 44 Test12= 8.03D-14 1.00D-09 XBig12= 4.43D-14 7.97D-09.
     12 vectors produced by pass 45 Test12= 8.03D-14 1.00D-09 XBig12= 7.72D-14 1.13D-08.
     12 vectors produced by pass 46 Test12= 8.03D-14 1.00D-09 XBig12= 6.20D-14 1.16D-08.
     12 vectors produced by pass 47 Test12= 8.03D-14 1.00D-09 XBig12= 7.23D-14 1.07D-08.
     12 vectors produced by pass 48 Test12= 8.03D-14 1.00D-09 XBig12= 1.12D-13 1.37D-08.
     12 vectors produced by pass 49 Test12= 8.03D-14 1.00D-09 XBig12= 8.48D-14 1.04D-08.
     12 vectors produced by pass 50 Test12= 8.03D-14 1.00D-09 XBig12= 7.44D-14 9.58D-09.
     12 vectors produced by pass 51 Test12= 8.03D-14 1.00D-09 XBig12= 7.11D-14 1.13D-08.
     12 vectors produced by pass 52 Test12= 8.03D-14 1.00D-09 XBig12= 3.31D-14 6.72D-09.
     12 vectors produced by pass 53 Test12= 8.03D-14 1.00D-09 XBig12= 8.04D-14 1.18D-08.
     12 vectors produced by pass 54 Test12= 8.03D-14 1.00D-09 XBig12= 5.57D-14 1.03D-08.
     12 vectors produced by pass 55 Test12= 8.03D-14 1.00D-09 XBig12= 6.74D-14 9.30D-09.
     12 vectors produced by pass 56 Test12= 8.03D-14 1.00D-09 XBig12= 5.21D-14 9.37D-09.
     12 vectors produced by pass 57 Test12= 8.03D-14 1.00D-09 XBig12= 4.99D-14 9.40D-09.
     12 vectors produced by pass 58 Test12= 8.03D-14 1.00D-09 XBig12= 4.04D-14 6.96D-09.
     12 vectors produced by pass 59 Test12= 8.03D-14 1.00D-09 XBig12= 7.48D-14 1.28D-08.
     10 vectors produced by pass 60 Test12= 8.03D-14 1.00D-09 XBig12= 2.61D-14 7.73D-09.
     10 vectors produced by pass 61 Test12= 8.03D-14 1.00D-09 XBig12= 3.32D-14 7.45D-09.
     10 vectors produced by pass 62 Test12= 8.03D-14 1.00D-09 XBig12= 6.85D-14 9.05D-09.
     10 vectors produced by pass 63 Test12= 8.03D-14 1.00D-09 XBig12= 7.21D-14 9.99D-09.
     10 vectors produced by pass 64 Test12= 8.03D-14 1.00D-09 XBig12= 4.44D-14 7.78D-09.
     10 vectors produced by pass 65 Test12= 8.03D-14 1.00D-09 XBig12= 5.75D-14 7.75D-09.
     10 vectors produced by pass 66 Test12= 8.03D-14 1.00D-09 XBig12= 7.75D-14 1.06D-08.
     10 vectors produced by pass 67 Test12= 8.03D-14 1.00D-09 XBig12= 7.22D-14 9.99D-09.
     10 vectors produced by pass 68 Test12= 8.03D-14 1.00D-09 XBig12= 3.29D-14 6.79D-09.
     10 vectors produced by pass 69 Test12= 8.03D-14 1.00D-09 XBig12= 5.84D-14 1.09D-08.
     10 vectors produced by pass 70 Test12= 8.03D-14 1.00D-09 XBig12= 4.90D-14 9.00D-09.
     10 vectors produced by pass 71 Test12= 8.03D-14 1.00D-09 XBig12= 5.49D-14 7.99D-09.
      9 vectors produced by pass 72 Test12= 8.03D-14 1.00D-09 XBig12= 2.02D-14 5.97D-09.
      9 vectors produced by pass 73 Test12= 8.03D-14 1.00D-09 XBig12= 3.67D-14 7.36D-09.
      8 vectors produced by pass 74 Test12= 8.03D-14 1.00D-09 XBig12= 2.28D-14 4.90D-09.
      8 vectors produced by pass 75 Test12= 8.03D-14 1.00D-09 XBig12= 4.15D-14 7.11D-09.
      8 vectors produced by pass 76 Test12= 8.03D-14 1.00D-09 XBig12= 7.21D-14 9.46D-09.
      8 vectors produced by pass 77 Test12= 8.03D-14 1.00D-09 XBig12= 4.56D-14 9.96D-09.
      8 vectors produced by pass 78 Test12= 8.03D-14 1.00D-09 XBig12= 3.15D-14 6.43D-09.
      8 vectors produced by pass 79 Test12= 8.03D-14 1.00D-09 XBig12= 5.29D-14 9.27D-09.
      8 vectors produced by pass 80 Test12= 8.03D-14 1.00D-09 XBig12= 3.50D-14 7.27D-09.
      8 vectors produced by pass 81 Test12= 8.03D-14 1.00D-09 XBig12= 3.83D-14 7.18D-09.
      8 vectors produced by pass 82 Test12= 8.03D-14 1.00D-09 XBig12= 4.94D-14 7.54D-09.
      8 vectors produced by pass 83 Test12= 8.03D-14 1.00D-09 XBig12= 3.36D-14 7.04D-09.
      8 vectors produced by pass 84 Test12= 8.03D-14 1.00D-09 XBig12= 5.33D-14 8.03D-09.
      8 vectors produced by pass 85 Test12= 8.03D-14 1.00D-09 XBig12= 1.90D-14 4.65D-09.
      8 vectors produced by pass 86 Test12= 8.03D-14 1.00D-09 XBig12= 3.79D-14 6.86D-09.
      6 vectors produced by pass 87 Test12= 8.03D-14 1.00D-09 XBig12= 2.17D-14 5.81D-09.
      6 vectors produced by pass 88 Test12= 8.03D-14 1.00D-09 XBig12= 3.44D-14 6.22D-09.
      6 vectors produced by pass 89 Test12= 8.03D-14 1.00D-09 XBig12= 4.75D-14 8.45D-09.
      6 vectors produced by pass 90 Test12= 8.03D-14 1.00D-09 XBig12= 2.50D-14 5.87D-09.
      6 vectors produced by pass 91 Test12= 8.03D-14 1.00D-09 XBig12= 5.06D-14 8.44D-09.
      6 vectors produced by pass 92 Test12= 8.03D-14 1.00D-09 XBig12= 3.14D-14 6.61D-09.
      6 vectors produced by pass 93 Test12= 8.03D-14 1.00D-09 XBig12= 4.66D-14 9.31D-09.
      6 vectors produced by pass 94 Test12= 8.03D-14 1.00D-09 XBig12= 2.27D-14 5.14D-09.
      6 vectors produced by pass 95 Test12= 8.03D-14 1.00D-09 XBig12= 1.66D-14 4.72D-09.
      6 vectors produced by pass 96 Test12= 8.03D-14 1.00D-09 XBig12= 3.82D-14 6.98D-09.
      6 vectors produced by pass 97 Test12= 8.03D-14 1.00D-09 XBig12= 1.80D-14 4.54D-09.
      6 vectors produced by pass 98 Test12= 8.03D-14 1.00D-09 XBig12= 2.27D-14 5.28D-09.
      6 vectors produced by pass 99 Test12= 8.03D-14 1.00D-09 XBig12= 3.16D-14 5.77D-09.
      6 vectors produced by pass100 Test12= 8.03D-14 1.00D-09 XBig12= 1.73D-14 4.85D-09.
      6 vectors produced by pass101 Test12= 8.03D-14 1.00D-09 XBig12= 2.04D-14 4.76D-09.
      6 vectors produced by pass102 Test12= 8.03D-14 1.00D-09 XBig12= 2.89D-14 6.45D-09.
      6 vectors produced by pass103 Test12= 8.03D-14 1.00D-09 XBig12= 3.58D-14 7.52D-09.
      6 vectors produced by pass104 Test12= 8.03D-14 1.00D-09 XBig12= 1.61D-14 4.50D-09.
      6 vectors produced by pass105 Test12= 8.03D-14 1.00D-09 XBig12= 2.39D-14 5.97D-09.
      6 vectors produced by pass106 Test12= 8.03D-14 1.00D-09 XBig12= 2.24D-14 5.48D-09.
      6 vectors produced by pass107 Test12= 8.03D-14 1.00D-09 XBig12= 2.12D-14 5.32D-09.
      6 vectors produced by pass108 Test12= 8.03D-14 1.00D-09 XBig12= 2.13D-14 4.78D-09.
      6 vectors produced by pass109 Test12= 8.03D-14 1.00D-09 XBig12= 2.95D-14 5.84D-09.
      6 vectors produced by pass110 Test12= 8.03D-14 1.00D-09 XBig12= 3.05D-14 6.90D-09.
      6 vectors produced by pass111 Test12= 8.03D-14 1.00D-09 XBig12= 1.17D-14 3.48D-09.
      6 vectors produced by pass112 Test12= 8.03D-14 1.00D-09 XBig12= 9.81D-15 4.24D-09.
      6 vectors produced by pass113 Test12= 8.03D-14 1.00D-09 XBig12= 2.34D-14 6.04D-09.
      6 vectors produced by pass114 Test12= 8.03D-14 1.00D-09 XBig12= 2.02D-14 4.95D-09.
      6 vectors produced by pass115 Test12= 8.03D-14 1.00D-09 XBig12= 1.98D-14 4.97D-09.
      6 vectors produced by pass116 Test12= 8.03D-14 1.00D-09 XBig12= 3.39D-14 8.42D-09.
      6 vectors produced by pass117 Test12= 8.03D-14 1.00D-09 XBig12= 2.62D-14 5.63D-09.
      6 vectors produced by pass118 Test12= 8.03D-14 1.00D-09 XBig12= 1.44D-14 4.45D-09.
      6 vectors produced by pass119 Test12= 8.03D-14 1.00D-09 XBig12= 2.65D-14 7.98D-09.
      6 vectors produced by pass120 Test12= 8.03D-14 1.00D-09 XBig12= 1.93D-14 5.46D-09.
      6 vectors produced by pass121 Test12= 8.03D-14 1.00D-09 XBig12= 3.92D-14 6.95D-09.
      6 vectors produced by pass122 Test12= 8.03D-14 1.00D-09 XBig12= 1.96D-14 4.59D-09.
      6 vectors produced by pass123 Test12= 8.03D-14 1.00D-09 XBig12= 1.10D-14 4.59D-09.
      6 vectors produced by pass124 Test12= 8.03D-14 1.00D-09 XBig12= 3.04D-14 5.79D-09.
      6 vectors produced by pass125 Test12= 8.03D-14 1.00D-09 XBig12= 1.81D-14 4.42D-09.
      6 vectors produced by pass126 Test12= 8.03D-14 1.00D-09 XBig12= 2.59D-14 5.57D-09.
      6 vectors produced by pass127 Test12= 8.03D-14 1.00D-09 XBig12= 1.45D-14 4.14D-09.
      6 vectors produced by pass128 Test12= 8.03D-14 1.00D-09 XBig12= 2.19D-14 5.50D-09.
      6 vectors produced by pass129 Test12= 8.03D-14 1.00D-09 XBig12= 2.13D-14 6.23D-09.
      6 vectors produced by pass130 Test12= 8.03D-14 1.00D-09 XBig12= 3.39D-14 6.46D-09.
      6 vectors produced by pass131 Test12= 8.03D-14 1.00D-09 XBig12= 2.25D-14 5.40D-09.
      6 vectors produced by pass132 Test12= 8.03D-14 1.00D-09 XBig12= 1.78D-14 5.25D-09.
      6 vectors produced by pass133 Test12= 8.03D-14 1.00D-09 XBig12= 1.11D-14 3.56D-09.
      6 vectors produced by pass134 Test12= 8.03D-14 1.00D-09 XBig12= 2.38D-14 5.66D-09.
      6 vectors produced by pass135 Test12= 8.03D-14 1.00D-09 XBig12= 2.13D-14 4.95D-09.
      6 vectors produced by pass136 Test12= 8.03D-14 1.00D-09 XBig12= 1.88D-14 4.57D-09.
      6 vectors produced by pass137 Test12= 8.03D-14 1.00D-09 XBig12= 1.71D-14 4.98D-09.
      5 vectors produced by pass138 Test12= 8.03D-14 1.00D-09 XBig12= 1.19D-14 3.99D-09.
      5 vectors produced by pass139 Test12= 8.03D-14 1.00D-09 XBig12= 2.94D-14 6.82D-09.
      5 vectors produced by pass140 Test12= 8.03D-14 1.00D-09 XBig12= 1.77D-14 5.47D-09.
      5 vectors produced by pass141 Test12= 8.03D-14 1.00D-09 XBig12= 1.93D-14 4.92D-09.
      5 vectors produced by pass142 Test12= 8.03D-14 1.00D-09 XBig12= 1.98D-14 4.71D-09.
      5 vectors produced by pass143 Test12= 8.03D-14 1.00D-09 XBig12= 1.49D-14 3.80D-09.
      5 vectors produced by pass144 Test12= 8.03D-14 1.00D-09 XBig12= 1.77D-14 4.95D-09.
      5 vectors produced by pass145 Test12= 8.03D-14 1.00D-09 XBig12= 2.56D-14 5.84D-09.
      5 vectors produced by pass146 Test12= 8.03D-14 1.00D-09 XBig12= 1.56D-14 4.92D-09.
      5 vectors produced by pass147 Test12= 8.03D-14 1.00D-09 XBig12= 2.48D-14 5.98D-09.
      5 vectors produced by pass148 Test12= 8.03D-14 1.00D-09 XBig12= 1.71D-14 5.11D-09.
      5 vectors produced by pass149 Test12= 8.03D-14 1.00D-09 XBig12= 2.46D-14 5.20D-09.
      5 vectors produced by pass150 Test12= 8.03D-14 1.00D-09 XBig12= 1.43D-14 4.76D-09.
      5 vectors produced by pass151 Test12= 8.03D-14 1.00D-09 XBig12= 1.56D-14 4.94D-09.
      5 vectors produced by pass152 Test12= 8.03D-14 1.00D-09 XBig12= 1.98D-14 4.89D-09.
      5 vectors produced by pass153 Test12= 8.03D-14 1.00D-09 XBig12= 1.35D-14 3.75D-09.
      5 vectors produced by pass154 Test12= 8.03D-14 1.00D-09 XBig12= 1.71D-14 4.45D-09.
      5 vectors produced by pass155 Test12= 8.03D-14 1.00D-09 XBig12= 1.35D-14 3.88D-09.
      5 vectors produced by pass156 Test12= 8.03D-14 1.00D-09 XBig12= 1.07D-14 4.84D-09.
      5 vectors produced by pass157 Test12= 8.03D-14 1.00D-09 XBig12= 1.69D-14 4.31D-09.
      5 vectors produced by pass158 Test12= 8.03D-14 1.00D-09 XBig12= 9.80D-15 3.54D-09.
      5 vectors produced by pass159 Test12= 8.03D-14 1.00D-09 XBig12= 1.49D-14 4.54D-09.
      5 vectors produced by pass160 Test12= 8.03D-14 1.00D-09 XBig12= 2.27D-14 7.42D-09.
      5 vectors produced by pass161 Test12= 8.03D-14 1.00D-09 XBig12= 1.06D-14 4.48D-09.
      5 vectors produced by pass162 Test12= 8.03D-14 1.00D-09 XBig12= 2.03D-14 4.89D-09.
      5 vectors produced by pass163 Test12= 8.03D-14 1.00D-09 XBig12= 1.67D-14 4.36D-09.
      5 vectors produced by pass164 Test12= 8.03D-14 1.00D-09 XBig12= 1.36D-14 3.96D-09.
      5 vectors produced by pass165 Test12= 8.03D-14 1.00D-09 XBig12= 1.46D-14 4.39D-09.
      5 vectors produced by pass166 Test12= 8.03D-14 1.00D-09 XBig12= 1.27D-14 4.11D-09.
      5 vectors produced by pass167 Test12= 8.03D-14 1.00D-09 XBig12= 1.48D-14 4.36D-09.
      5 vectors produced by pass168 Test12= 8.03D-14 1.00D-09 XBig12= 1.75D-14 4.75D-09.
      5 vectors produced by pass169 Test12= 8.03D-14 1.00D-09 XBig12= 1.11D-14 4.25D-09.
      5 vectors produced by pass170 Test12= 8.03D-14 1.00D-09 XBig12= 1.03D-14 3.42D-09.
      5 vectors produced by pass171 Test12= 8.03D-14 1.00D-09 XBig12= 1.26D-14 4.28D-09.
      5 vectors produced by pass172 Test12= 8.03D-14 1.00D-09 XBig12= 1.31D-14 3.87D-09.
      5 vectors produced by pass173 Test12= 8.03D-14 1.00D-09 XBig12= 1.00D-14 3.28D-09.
      5 vectors produced by pass174 Test12= 8.03D-14 1.00D-09 XBig12= 1.78D-14 4.72D-09.
      5 vectors produced by pass175 Test12= 8.03D-14 1.00D-09 XBig12= 1.08D-14 3.64D-09.
      5 vectors produced by pass176 Test12= 8.03D-14 1.00D-09 XBig12= 2.14D-14 4.86D-09.
      5 vectors produced by pass177 Test12= 8.03D-14 1.00D-09 XBig12= 1.21D-14 3.84D-09.
      5 vectors produced by pass178 Test12= 8.03D-14 1.00D-09 XBig12= 1.71D-14 5.07D-09.
      5 vectors produced by pass179 Test12= 8.03D-14 1.00D-09 XBig12= 1.01D-14 3.32D-09.
      5 vectors produced by pass180 Test12= 8.03D-14 1.00D-09 XBig12= 7.74D-15 2.91D-09.
      5 vectors produced by pass181 Test12= 8.03D-14 1.00D-09 XBig12= 1.98D-14 4.39D-09.
      4 vectors produced by pass182 Test12= 8.03D-14 1.00D-09 XBig12= 9.85D-15 3.19D-09.
      4 vectors produced by pass183 Test12= 8.03D-14 1.00D-09 XBig12= 8.58D-15 2.93D-09.
      4 vectors produced by pass184 Test12= 8.03D-14 1.00D-09 XBig12= 1.62D-14 4.36D-09.
      4 vectors produced by pass185 Test12= 8.03D-14 1.00D-09 XBig12= 8.59D-15 3.13D-09.
      4 vectors produced by pass186 Test12= 8.03D-14 1.00D-09 XBig12= 1.02D-14 3.77D-09.
      4 vectors produced by pass187 Test12= 8.03D-14 1.00D-09 XBig12= 7.49D-15 3.06D-09.
      4 vectors produced by pass188 Test12= 8.03D-14 1.00D-09 XBig12= 1.66D-14 4.45D-09.
      4 vectors produced by pass189 Test12= 8.03D-14 1.00D-09 XBig12= 1.37D-14 4.59D-09.
      4 vectors produced by pass190 Test12= 8.03D-14 1.00D-09 XBig12= 1.38D-14 3.75D-09.
      4 vectors produced by pass191 Test12= 8.03D-14 1.00D-09 XBig12= 9.05D-15 3.43D-09.
      4 vectors produced by pass192 Test12= 8.03D-14 1.00D-09 XBig12= 1.66D-14 4.70D-09.
      4 vectors produced by pass193 Test12= 8.03D-14 1.00D-09 XBig12= 7.91D-15 3.07D-09.
      4 vectors produced by pass194 Test12= 8.03D-14 1.00D-09 XBig12= 1.05D-14 3.40D-09.
      4 vectors produced by pass195 Test12= 8.03D-14 1.00D-09 XBig12= 9.20D-15 3.46D-09.
      4 vectors produced by pass196 Test12= 8.03D-14 1.00D-09 XBig12= 9.82D-15 3.62D-09.
      4 vectors produced by pass197 Test12= 8.03D-14 1.00D-09 XBig12= 1.42D-14 3.68D-09.
      4 vectors produced by pass198 Test12= 8.03D-14 1.00D-09 XBig12= 1.31D-14 4.09D-09.
      4 vectors produced by pass199 Test12= 8.03D-14 1.00D-09 XBig12= 1.19D-14 4.15D-09.
      4 vectors produced by pass200 Test12= 8.03D-14 1.00D-09 XBig12= 1.75D-14 4.47D-09.
      4 vectors produced by pass201 Test12= 8.03D-14 1.00D-09 XBig12= 8.41D-15 3.61D-09.
      4 vectors produced by pass202 Test12= 8.03D-14 1.00D-09 XBig12= 7.78D-15 3.24D-09.
      4 vectors produced by pass203 Test12= 8.03D-14 1.00D-09 XBig12= 8.95D-15 3.36D-09.
      4 vectors produced by pass204 Test12= 8.03D-14 1.00D-09 XBig12= 7.34D-15 2.78D-09.
      4 vectors produced by pass205 Test12= 8.03D-14 1.00D-09 XBig12= 1.00D-14 3.20D-09.
      4 vectors produced by pass206 Test12= 8.03D-14 1.00D-09 XBig12= 1.45D-14 4.23D-09.
      4 vectors produced by pass207 Test12= 8.03D-14 1.00D-09 XBig12= 7.28D-15 3.35D-09.
      4 vectors produced by pass208 Test12= 8.03D-14 1.00D-09 XBig12= 1.14D-14 3.59D-09.
      4 vectors produced by pass209 Test12= 8.03D-14 1.00D-09 XBig12= 7.74D-15 3.00D-09.
      4 vectors produced by pass210 Test12= 8.03D-14 1.00D-09 XBig12= 1.15D-14 3.28D-09.
      4 vectors produced by pass211 Test12= 8.03D-14 1.00D-09 XBig12= 1.17D-14 3.28D-09.
      4 vectors produced by pass212 Test12= 8.03D-14 1.00D-09 XBig12= 7.25D-15 2.47D-09.
      4 vectors produced by pass213 Test12= 8.03D-14 1.00D-09 XBig12= 1.22D-14 3.42D-09.
      4 vectors produced by pass214 Test12= 8.03D-14 1.00D-09 XBig12= 1.03D-14 3.28D-09.
      4 vectors produced by pass215 Test12= 8.03D-14 1.00D-09 XBig12= 6.09D-15 2.84D-09.
      4 vectors produced by pass216 Test12= 8.03D-14 1.00D-09 XBig12= 8.56D-15 3.07D-09.
      4 vectors produced by pass217 Test12= 8.03D-14 1.00D-09 XBig12= 1.12D-14 3.92D-09.
      4 vectors produced by pass218 Test12= 8.03D-14 1.00D-09 XBig12= 1.78D-14 4.57D-09.
      4 vectors produced by pass219 Test12= 8.03D-14 1.00D-09 XBig12= 5.73D-15 2.34D-09.
      4 vectors produced by pass220 Test12= 8.03D-14 1.00D-09 XBig12= 6.95D-15 2.74D-09.
      4 vectors produced by pass221 Test12= 8.03D-14 1.00D-09 XBig12= 1.00D-14 3.35D-09.
      4 vectors produced by pass222 Test12= 8.03D-14 1.00D-09 XBig12= 8.94D-15 2.77D-09.
      4 vectors produced by pass223 Test12= 8.03D-14 1.00D-09 XBig12= 8.76D-15 3.51D-09.
      4 vectors produced by pass224 Test12= 8.03D-14 1.00D-09 XBig12= 6.24D-15 2.62D-09.
      4 vectors produced by pass225 Test12= 8.03D-14 1.00D-09 XBig12= 1.31D-14 4.45D-09.
      4 vectors produced by pass226 Test12= 8.03D-14 1.00D-09 XBig12= 7.85D-15 2.66D-09.
      3 vectors produced by pass227 Test12= 8.03D-14 1.00D-09 XBig12= 4.61D-15 2.90D-09.
      3 vectors produced by pass228 Test12= 8.03D-14 1.00D-09 XBig12= 1.16D-14 3.29D-09.
      3 vectors produced by pass229 Test12= 8.03D-14 1.00D-09 XBig12= 6.64D-15 2.95D-09.
      3 vectors produced by pass230 Test12= 8.03D-14 1.00D-09 XBig12= 9.70D-15 3.42D-09.
      3 vectors produced by pass231 Test12= 8.03D-14 1.00D-09 XBig12= 8.23D-15 3.48D-09.
      3 vectors produced by pass232 Test12= 8.03D-14 1.00D-09 XBig12= 7.76D-15 2.92D-09.
      3 vectors produced by pass233 Test12= 8.03D-14 1.00D-09 XBig12= 9.32D-15 3.03D-09.
      3 vectors produced by pass234 Test12= 8.03D-14 1.00D-09 XBig12= 4.40D-15 2.21D-09.
      3 vectors produced by pass235 Test12= 8.03D-14 1.00D-09 XBig12= 6.92D-15 2.84D-09.
      3 vectors produced by pass236 Test12= 8.03D-14 1.00D-09 XBig12= 4.66D-15 2.15D-09.
      3 vectors produced by pass237 Test12= 8.03D-14 1.00D-09 XBig12= 9.51D-15 3.34D-09.
      3 vectors produced by pass238 Test12= 8.03D-14 1.00D-09 XBig12= 5.58D-15 2.89D-09.
      3 vectors produced by pass239 Test12= 8.03D-14 1.00D-09 XBig12= 8.46D-15 3.13D-09.
      3 vectors produced by pass240 Test12= 8.03D-14 1.00D-09 XBig12= 8.13D-15 3.12D-09.
      3 vectors produced by pass241 Test12= 8.03D-14 1.00D-09 XBig12= 1.38D-14 4.00D-09.
      3 vectors produced by pass242 Test12= 8.03D-14 1.00D-09 XBig12= 7.77D-15 3.36D-09.
      3 vectors produced by pass243 Test12= 8.03D-14 1.00D-09 XBig12= 5.06D-15 2.40D-09.
      3 vectors produced by pass244 Test12= 8.03D-14 1.00D-09 XBig12= 8.10D-15 3.53D-09.
      3 vectors produced by pass245 Test12= 8.03D-14 1.00D-09 XBig12= 9.51D-15 3.21D-09.
      3 vectors produced by pass246 Test12= 8.03D-14 1.00D-09 XBig12= 1.24D-14 3.86D-09.
      3 vectors produced by pass247 Test12= 8.03D-14 1.00D-09 XBig12= 5.45D-15 2.38D-09.
      3 vectors produced by pass248 Test12= 8.03D-14 1.00D-09 XBig12= 9.93D-15 4.06D-09.
      3 vectors produced by pass249 Test12= 8.03D-14 1.00D-09 XBig12= 8.14D-15 2.83D-09.
      3 vectors produced by pass250 Test12= 8.03D-14 1.00D-09 XBig12= 8.57D-15 2.88D-09.
      3 vectors produced by pass251 Test12= 8.03D-14 1.00D-09 XBig12= 9.12D-15 2.86D-09.
      3 vectors produced by pass252 Test12= 8.03D-14 1.00D-09 XBig12= 6.82D-15 2.94D-09.
      3 vectors produced by pass253 Test12= 8.03D-14 1.00D-09 XBig12= 1.03D-14 3.32D-09.
      3 vectors produced by pass254 Test12= 8.03D-14 1.00D-09 XBig12= 9.75D-15 3.46D-09.
      3 vectors produced by pass255 Test12= 8.03D-14 1.00D-09 XBig12= 1.18D-14 3.66D-09.
      3 vectors produced by pass256 Test12= 8.03D-14 1.00D-09 XBig12= 7.54D-15 3.04D-09.
      3 vectors produced by pass257 Test12= 8.03D-14 1.00D-09 XBig12= 7.45D-15 2.76D-09.
      3 vectors produced by pass258 Test12= 8.03D-14 1.00D-09 XBig12= 1.24D-14 3.66D-09.
      3 vectors produced by pass259 Test12= 8.03D-14 1.00D-09 XBig12= 8.08D-15 3.12D-09.
      3 vectors produced by pass260 Test12= 8.03D-14 1.00D-09 XBig12= 7.27D-15 2.64D-09.
      3 vectors produced by pass261 Test12= 8.03D-14 1.00D-09 XBig12= 8.43D-15 2.90D-09.
      3 vectors produced by pass262 Test12= 8.03D-14 1.00D-09 XBig12= 5.34D-15 2.57D-09.
      3 vectors produced by pass263 Test12= 8.03D-14 1.00D-09 XBig12= 8.44D-15 2.74D-09.
      3 vectors produced by pass264 Test12= 8.03D-14 1.00D-09 XBig12= 8.09D-15 3.28D-09.
      3 vectors produced by pass265 Test12= 8.03D-14 1.00D-09 XBig12= 7.85D-15 3.14D-09.
      3 vectors produced by pass266 Test12= 8.03D-14 1.00D-09 XBig12= 9.87D-15 3.06D-09.
      3 vectors produced by pass267 Test12= 8.03D-14 1.00D-09 XBig12= 5.69D-15 2.73D-09.
      3 vectors produced by pass268 Test12= 8.03D-14 1.00D-09 XBig12= 6.22D-15 2.53D-09.
      3 vectors produced by pass269 Test12= 8.03D-14 1.00D-09 XBig12= 8.99D-15 2.66D-09.
      3 vectors produced by pass270 Test12= 8.03D-14 1.00D-09 XBig12= 6.56D-15 2.81D-09.
      3 vectors produced by pass271 Test12= 8.03D-14 1.00D-09 XBig12= 9.35D-15 3.33D-09.
      3 vectors produced by pass272 Test12= 8.03D-14 1.00D-09 XBig12= 7.79D-15 2.97D-09.
      3 vectors produced by pass273 Test12= 8.03D-14 1.00D-09 XBig12= 1.03D-14 3.46D-09.
      3 vectors produced by pass274 Test12= 8.03D-14 1.00D-09 XBig12= 6.82D-15 3.21D-09.
      3 vectors produced by pass275 Test12= 8.03D-14 1.00D-09 XBig12= 9.58D-15 2.92D-09.
      3 vectors produced by pass276 Test12= 8.03D-14 1.00D-09 XBig12= 7.96D-15 3.01D-09.
      3 vectors produced by pass277 Test12= 8.03D-14 1.00D-09 XBig12= 5.59D-15 2.41D-09.
      3 vectors produced by pass278 Test12= 8.03D-14 1.00D-09 XBig12= 1.22D-14 3.94D-09.
      3 vectors produced by pass279 Test12= 8.03D-14 1.00D-09 XBig12= 5.08D-15 2.53D-09.
      3 vectors produced by pass280 Test12= 8.03D-14 1.00D-09 XBig12= 8.23D-15 2.95D-09.
      3 vectors produced by pass281 Test12= 8.03D-14 1.00D-09 XBig12= 7.15D-15 2.57D-09.
      3 vectors produced by pass282 Test12= 8.03D-14 1.00D-09 XBig12= 1.01D-14 3.00D-09.
      3 vectors produced by pass283 Test12= 8.03D-14 1.00D-09 XBig12= 7.97D-15 2.79D-09.
      3 vectors produced by pass284 Test12= 8.03D-14 1.00D-09 XBig12= 9.71D-15 3.15D-09.
      3 vectors produced by pass285 Test12= 8.03D-14 1.00D-09 XBig12= 5.73D-15 2.14D-09.
      3 vectors produced by pass286 Test12= 8.03D-14 1.00D-09 XBig12= 8.80D-15 4.13D-09.
      3 vectors produced by pass287 Test12= 8.03D-14 1.00D-09 XBig12= 7.32D-15 2.53D-09.
      3 vectors produced by pass288 Test12= 8.03D-14 1.00D-09 XBig12= 5.11D-15 2.51D-09.
      3 vectors produced by pass289 Test12= 8.03D-14 1.00D-09 XBig12= 9.64D-15 2.94D-09.
      3 vectors produced by pass290 Test12= 8.03D-14 1.00D-09 XBig12= 5.57D-15 2.61D-09.
      3 vectors produced by pass291 Test12= 8.03D-14 1.00D-09 XBig12= 1.06D-14 3.65D-09.
      3 vectors produced by pass292 Test12= 8.03D-14 1.00D-09 XBig12= 3.86D-15 1.96D-09.
      3 vectors produced by pass293 Test12= 8.03D-14 1.00D-09 XBig12= 8.74D-15 2.87D-09.
      3 vectors produced by pass294 Test12= 8.03D-14 1.00D-09 XBig12= 5.12D-15 2.40D-09.
      3 vectors produced by pass295 Test12= 8.03D-14 1.00D-09 XBig12= 8.11D-15 2.93D-09.
      3 vectors produced by pass296 Test12= 8.03D-14 1.00D-09 XBig12= 7.04D-15 2.72D-09.
      3 vectors produced by pass297 Test12= 8.03D-14 1.00D-09 XBig12= 7.74D-15 2.48D-09.
      3 vectors produced by pass298 Test12= 8.03D-14 1.00D-09 XBig12= 8.37D-15 3.27D-09.
      3 vectors produced by pass299 Test12= 8.03D-14 1.00D-09 XBig12= 5.21D-15 2.14D-09.
      3 vectors produced by pass300 Test12= 8.03D-14 1.00D-09 XBig12= 8.78D-15 3.19D-09.
      3 vectors produced by pass301 Test12= 8.03D-14 1.00D-09 XBig12= 6.76D-15 2.99D-09.
      3 vectors produced by pass302 Test12= 8.03D-14 1.00D-09 XBig12= 7.82D-15 3.27D-09.
      3 vectors produced by pass303 Test12= 8.03D-14 1.00D-09 XBig12= 9.21D-15 3.64D-09.
      3 vectors produced by pass304 Test12= 8.03D-14 1.00D-09 XBig12= 6.33D-15 2.36D-09.
      3 vectors produced by pass305 Test12= 8.03D-14 1.00D-09 XBig12= 7.71D-15 2.87D-09.
      3 vectors produced by pass306 Test12= 8.03D-14 1.00D-09 XBig12= 1.25D-14 3.64D-09.
      3 vectors produced by pass307 Test12= 8.03D-14 1.00D-09 XBig12= 6.94D-15 2.68D-09.
      3 vectors produced by pass308 Test12= 8.03D-14 1.00D-09 XBig12= 5.18D-15 1.91D-09.
      3 vectors produced by pass309 Test12= 8.03D-14 1.00D-09 XBig12= 9.22D-15 2.83D-09.
      3 vectors produced by pass310 Test12= 8.03D-14 1.00D-09 XBig12= 5.46D-15 3.18D-09.
      3 vectors produced by pass311 Test12= 8.03D-14 1.00D-09 XBig12= 7.27D-15 3.09D-09.
      3 vectors produced by pass312 Test12= 8.03D-14 1.00D-09 XBig12= 7.27D-15 2.70D-09.
      3 vectors produced by pass313 Test12= 8.03D-14 1.00D-09 XBig12= 9.96D-15 2.83D-09.
      2 vectors produced by pass314 Test12= 8.03D-14 1.00D-09 XBig12= 2.81D-15 1.73D-09.
 InvSVY:  IOpt=1 It=  1 EMax= 1.33D-15
 Solved reduced A of dimension  3053 with   114 vectors.
 End of Minotr F.D. properties file   721 does not exist.
 End of Minotr F.D. properties file   722 does not exist.
 End of Minotr F.D. properties file   788 does not exist.

 **********************************************************************

            Population analysis using the SCF density.

 **********************************************************************

 Orbital symmetries:
 Alpha Orbitals:
       Occupied  (A) (A) (A) (A) (A) (A) (A) (A) (A) (A) (A) (A)
                 (A) (A) (A) (A) (A) (A) (A) (A) (A) (A) (A) (A)
                 (A) (A) (A) (A) (A) (A) (A) (A) (A) (A) (A) (A)
                 (A) (A) (A) (A) (A) (A) (A) (A) (A) (A) (A) (A)
                 (A) (A) (A) (A) (A) (A) (A) (A) (A) (A) (A) (A)
                 (A) (A) (A) (A) (A) (A) (A) (A) (A) (A) (A) (A)
                 (A) (A) (A) (A) (A) (A) (A)
       Virtual   (A) (A) (A) (A) (A) (A) (A) (A) (A) (A) (A) (A)
                 (A) (A) (A) (A) (A) (A) (A) (A) (A) (A) (A) (A)
                 (A) (A) (A) (A) (A) (A) (A) (A) (A) (A) (A) (A)
                 (A) (A) (A) (A) (A) (A) (A) (A) (A) (A) (A) (A)
                 (A) (A) (A) (A) (A) (A) (A) (A) (A) (A) (A) (A)
                 (A) (A) (A) (A) (A) (A) (A) (A) (A) (A) (A) (A)
                 (A) (A) (A) (A) (A) (A) (A) (A) (A) (A) (A) (A)
                 (A) (A) (A) (A) (A) (A) (A) (A) (A) (A) (A) (A)
                 (A) (A) (A) (A) (A) (A) (A) (A) (A) (A) (A) (A)
                 (A) (A) (A) (A) (A) (A) (A) (A) (A) (A) (A) (A)
                 (A) (A) (A) (A) (A) (A) (A) (A) (A) (A) (A) (A)
                 (A) (A) (A) (A) (A) (A) (A) (A) (A) (A) (A) (A)
                 (A) (A) (A) (A) (A) (A) (A) (A) (A) (A) (A) (A)
                 (A) (A) (A) (A) (A) (A) (A) (A) (A) (A) (A) (A)
                 (A) (A) (A) (A) (A) (A) (A) (A) (A) (A) (A) (A)
                 (A) (A) (A) (A) (A) (A) (A) (A) (A) (A) (A) (A)
                 (A) (A) (A) (A) (A) (A) (A) (A) (A) (A) (A) (A)
                 (A) (A) (A) (A) (A) (A) (A) (A) (A) (A) (A) (A)
                 (A) (A) (A) (A) (A) (A) (A) (A) (A) (A) (A) (A)
                 (A) (A) (A) (A) (A) (A) (A) (A) (A) (A) (A) (A)
                 (A) (A) (A) (A) (A) (A) (A) (A) (A) (A) (A) (A)
                 (A) (A) (A) (A) (A) (A) (A) (A) (A) (A) (A) (A)
                 (A) (A) (A) (A) (A) (A) (A) (A) (A) (A) (A) (A)
                 (A) (A) (A) (A) (A) (A) (A) (A) (A) (A) (A) (A)
                 (A) (A) (A) (A) (A) (A) (A) (A) (A) (A) (A) (A)
                 (A) (A) (A) (A) (A) (A) (A) (A) (A) (A) (A) (A)
                 (A) (A) (A) (A) (A) (A) (A) (A) (A) (A) (A) (A)
                 (A) (A) (A) (A) (A) (A) (A) (A) (A) (A) (A) (A)
                 (A) (A) (A) (A) (A) (A) (A) (A) (A) (A) (A) (A)
                 (A) (A) (A) (A) (A) (A) (A) (A) (A) (A) (A) (A)
                 (A) (A) (A) (A) (A) (A) (A) (A) (A) (A) (A) (A)
                 (A) (A) (A) (A) (A) (A) (A) (A) (A) (A) (A) (A)
                 (A) (A) (A) (A) (A) (A) (A) (A) (A) (A) (A) (A)
                 (A) (A) (A) (A) (A) (A) (A) (A) (A) (A) (A) (A)
                 (A) (A) (A) (A) (A) (A) (A) (A) (A) (A) (A) (A)
                 (A) (A) (A) (A) (A) (A) (A) (A) (A) (A) (A) (A)
                 (A) (A) (A) (A) (A) (A) (A) (A) (A) (A) (A) (A)
                 (A) (A) (A) (A) (A) (A) (A) (A) (A) (A) (A) (A)
                 (A) (A) (A) (A) (A) (A) (A) (A) (A) (A) (A) (A)
                 (A) (A) (A) (A) (A) (A) (A) (A) (A) (A) (A) (A)
                 (A) (A) (A) (A) (A) (A) (A) (A) (A) (A) (A) (A)
                 (A) (A) (A) (A) (A) (A) (A) (A) (A) (A) (A) (A)
                 (A) (A) (A) (A) (A) (A) (A)
 Beta  Orbitals:
       Occupied  (A) (A) (A) (A) (A) (A) (A) (A) (A) (A) (A) (A)
                 (A) (A) (A) (A) (A) (A) (A) (A) (A) (A) (A) (A)
                 (A) (A) (A) (A) (A) (A) (A) (A) (A) (A) (A) (A)
                 (A) (A) (A) (A) (A) (A) (A) (A) (A) (A) (A) (A)
                 (A) (A) (A) (A) (A) (A) (A) (A) (A) (A) (A) (A)
                 (A) (A) (A) (A) (A) (A) (A) (A) (A) (A) (A) (A)
                 (A) (A) (A) (A) (A) (A)
       Virtual   (A) (A) (A) (A) (A) (A) (A) (A) (A) (A) (A) (A)
                 (A) (A) (A) (A) (A) (A) (A) (A) (A) (A) (A) (A)
                 (A) (A) (A) (A) (A) (A) (A) (A) (A) (A) (A) (A)
                 (A) (A) (A) (A) (A) (A) (A) (A) (A) (A) (A) (A)
                 (A) (A) (A) (A) (A) (A) (A) (A) (A) (A) (A) (A)
                 (A) (A) (A) (A) (A) (A) (A) (A) (A) (A) (A) (A)
                 (A) (A) (A) (A) (A) (A) (A) (A) (A) (A) (A) (A)
                 (A) (A) (A) (A) (A) (A) (A) (A) (A) (A) (A) (A)
                 (A) (A) (A) (A) (A) (A) (A) (A) (A) (A) (A) (A)
                 (A) (A) (A) (A) (A) (A) (A) (A) (A) (A) (A) (A)
                 (A) (A) (A) (A) (A) (A) (A) (A) (A) (A) (A) (A)
                 (A) (A) (A) (A) (A) (A) (A) (A) (A) (A) (A) (A)
                 (A) (A) (A) (A) (A) (A) (A) (A) (A) (A) (A) (A)
                 (A) (A) (A) (A) (A) (A) (A) (A) (A) (A) (A) (A)
                 (A) (A) (A) (A) (A) (A) (A) (A) (A) (A) (A) (A)
                 (A) (A) (A) (A) (A) (A) (A) (A) (A) (A) (A) (A)
                 (A) (A) (A) (A) (A) (A) (A) (A) (A) (A) (A) (A)
                 (A) (A) (A) (A) (A) (A) (A) (A) (A) (A) (A) (A)
                 (A) (A) (A) (A) (A) (A) (A) (A) (A) (A) (A) (A)
                 (A) (A) (A) (A) (A) (A) (A) (A) (A) (A) (A) (A)
                 (A) (A) (A) (A) (A) (A) (A) (A) (A) (A) (A) (A)
                 (A) (A) (A) (A) (A) (A) (A) (A) (A) (A) (A) (A)
                 (A) (A) (A) (A) (A) (A) (A) (A) (A) (A) (A) (A)
                 (A) (A) (A) (A) (A) (A) (A) (A) (A) (A) (A) (A)
                 (A) (A) (A) (A) (A) (A) (A) (A) (A) (A) (A) (A)
                 (A) (A) (A) (A) (A) (A) (A) (A) (A) (A) (A) (A)
                 (A) (A) (A) (A) (A) (A) (A) (A) (A) (A) (A) (A)
                 (A) (A) (A) (A) (A) (A) (A) (A) (A) (A) (A) (A)
                 (A) (A) (A) (A) (A) (A) (A) (A) (A) (A) (A) (A)
                 (A) (A) (A) (A) (A) (A) (A) (A) (A) (A) (A) (A)
                 (A) (A) (A) (A) (A) (A) (A) (A) (A) (A) (A) (A)
                 (A) (A) (A) (A) (A) (A) (A) (A) (A) (A) (A) (A)
                 (A) (A) (A) (A) (A) (A) (A) (A) (A) (A) (A) (A)
                 (A) (A) (A) (A) (A) (A) (A) (A) (A) (A) (A) (A)
                 (A) (A) (A) (A) (A) (A) (A) (A) (A) (A) (A) (A)
                 (A) (A) (A) (A) (A) (A) (A) (A) (A) (A) (A) (A)
                 (A) (A) (A) (A) (A) (A) (A) (A) (A) (A) (A) (A)
                 (A) (A) (A) (A) (A) (A) (A) (A) (A) (A) (A) (A)
[...]
 15,0.00990068,-0.00036328,-0.00774668,-0.00297453,0.00038559,0.0052186
 8,-0.00090848,-0.00008737,-0.00047897,0.00481387,-0.00051172,0.0022933
 6,-0.00178972,0.00029814,-0.00311995,-0.00225707,0.00017538,-0.0000567
 6,-0.00000731,-0.00000694,0.00008762,0.00001144,0.00003606,-0.00002891
 ,0.00006672,-0.00002853,-0.00650037,0.01008802,-0.00019947,-0.11940537
 ,-0.01584525,0.00068446,-0.37113232,-0.06746855,0.00816027,0.00004327,
 -0.00037088,-0.00002686,0.00000826,-0.00011078,-0.00000036,-0.00008245
 ,-0.00002669,0.00004359,-0.00008802,0.00011295,0.00000608,0.00022324,0
 .00004199,0.00008698,-0.00041160,0.00002455,-0.00002745,0.00002920,0.0
 0001401,0.00002192,-0.00004489,0.00015137,-0.00003524,-0.01270940,-0.0
 3926338,0.00143179,0.70835790,0.00195103,-0.00064045,0.00002298,-0.000
 66895,-0.00108144,-0.00021905,-0.00040916,-0.00119960,0.00024467,-0.00
 124373,0.00260715,-0.00000724,0.00513917,-0.00555970,-0.00005897,0.003
 07357,-0.00216515,0.00042948,0.00652488,-0.00461048,-0.00001948,-0.016
 99329,-0.00180567,0.00025644,0.02292557,-0.04806676,0.00178192,0.00598
 670,0.02654668,-0.00104037,0.01407633,-0.00916997,0.00033785,-0.003783
 34,0.00863794,-0.00028530,-0.00770787,-0.00242053,0.00015534,0.0044265
 3,-0.00160519,-0.00002358,-0.00057858,0.00418446,-0.00042067,0.0030854
 2,-0.00180486,0.00012555,-0.00297222,-0.00259515,0.00021433,0.00002352
 ,-0.00004968,-0.00002584,0.00002061,0.00002257,0.00003886,-0.00001943,
 0.00002405,-0.00002014,-0.00015589,0.01280915,0.00010356,-0.04118607,-
 0.22735217,0.00711267,-0.02199196,-0.13173153,0.00409361,0.00036512,-0
 .00011223,-0.00006213,-0.00002977,-0.00006692,-0.00001212,-0.00006565,
 -0.00002897,0.00004014,0.00001521,0.00003615,0.00000918,0.00005835,0.0
 0007147,0.00005133,-0.00000903,0.00004874,0.00000216,0.00000613,-0.000
 00223,0.00000399,-0.00003338,0.00006962,-0.00000171,-0.01754669,-0.012
 82110,0.00028676,-0.05667240,0.62178943,-0.00003144,0.00001483,0.00028
 288,-0.00000157,0.00002750,-0.00032813,-0.00001137,0.00019466,-0.00050
 151,0.00009061,-0.00005692,-0.00072191,-0.00014214,0.00020908,-0.00110
 115,-0.00024359,-0.00015890,0.00715637,-0.00041202,0.00024439,-0.00067
 461,0.00106159,0.00013187,-0.00202551,-0.00148438,0.00291703,0.0052565
 9,0.00079662,-0.00154261,0.00424232,-0.00079062,0.00062065,0.00389572,
 0.00024882,-0.00055451,0.00032320,0.00045653,0.00014298,-0.00002621,-0
 .00026947,0.00004259,-0.00057697,0.00001836,-0.00023478,0.00015589,-0.
 00014753,0.00012562,0.00019594,0.00017420,0.00011428,-0.00008506,-0.00
 004420,-0.00000458,-0.00004129,-0.00000025,-0.00000074,-0.00004306,0.0
 0000413,-0.00000143,0.00006046,-0.00011911,-0.00035976,0.00470664,0.00
 251651,0.00698525,-0.06058856,0.00539237,0.00458540,-0.05848498,-0.000
 04421,-0.00000996,-0.00016023,-0.00000235,0.00000407,0.00000052,0.0000
 0425,0.00000025,-0.00003750,0.00000298,0.00000276,0.00005112,0.0000132
 4,-0.00001674,-0.00002426,0.00000486,0.00003065,0.00002496,-0.00001461
 ,-0.00001216,0.00000589,-0.00000165,-0.00000266,0.00000804,0.00043490,
 0.00008897,0.00031975,-0.00453468,-0.02023406,0.13191721,-0.00005276,0
 .00029599,0.00001639,0.00013102,-0.00006819,-0.00000538,-0.00018341,-0
 .00087552,-0.00010291,0.00113940,-0.00102993,-0.00003163,-0.01764020,-
 0.00928157,-0.00045120,-0.00187166,0.00422821,0.00007996,-0.00040487,0
 .00009672,0.00000553,-0.00019445,-0.00014026,0.00001471,0.00058424,0.0
 0053557,0.00001119,-0.00000404,0.00007946,-0.00000570,-0.00002538,-0.0
 0000355,0.00000207,-0.00002285,-0.00003697,-0.00000200,0.00008743,-0.0
 0011243,0.00001298,-0.00000874,-0.00000649,0.00000100,0.00000592,-0.00
 001657,0.00000163,-0.00000754,0.00001263,-0.00001462,0.00001685,0.0000
 3332,-0.00000238,-0.00002265,0.00001279,0.00000889,-0.00003108,0.00004
 182,0.00000434,0.00006728,0.00093805,0.00005219,-0.30696237,-0.0815581
 8,-0.00419786,0.00166425,-0.00047005,-0.00012901,0.00007462,-0.0001668
 9,0.00001627,-0.00000779,-0.00000648,0.00000186,-0.00000447,-0.0000058
 5,0.00000066,-0.00000230,0.00000417,-0.00000153,-0.00000763,-0.0000016
 6,0.00000062,-0.00004535,-0.00000656,0.00002781,0.00003201,0.00009556,
 -0.00001265,-0.00001619,-0.00002159,-0.00000411,0.00000278,0.00000096,
 0.00000059,-0.00233511,0.00053500,-0.00012560,-0.00019597,0.00015739,-
 0.00002149,0.32528296,-0.00045085,0.00002547,-0.00000121,0.00017695,0.
 00034609,0.00002425,0.00069923,0.00046820,0.00005428,0.00005876,0.0014
 3865,0.00005358,0.02034025,0.01027641,0.00044595,0.00314788,-0.0029677
 0,-0.00002967,0.00026553,-0.00010392,-0.00001433,0.00016070,0.00016402
 ,-0.00000308,0.00035163,-0.00080552,-0.00000618,0.00007898,-0.00014170
 ,0.00000733,0.00003675,0.00003696,-0.00000728,0.00001708,0.00001210,0.
 00000624,-0.00002557,0.00009351,-0.00000298,0.00001014,0.00002099,-0.0
 0000280,-0.00000655,0.00001123,-0.00000146,-0.00001161,-0.00001113,0.0
 0000037,-0.00001312,-0.00000049,-0.00000077,-0.00000979,-0.00000581,0.
 00000357,-0.00001621,-0.00000606,0.00000207,-0.00062619,-0.00028097,-0
 .00003037,-0.07951132,-0.08376691,-0.00133676,0.00009411,-0.00558051,0
 .00013623,-0.00012425,-0.00049384,0.00002618,0.00000346,-0.00000316,0.
 00000034,0.00000350,-0.00000175,0.00000002,-0.00000111,0.00000143,-0.0
 0000025,-0.00000292,0.00000082,-0.00000016,-0.00000859,-0.00003414,-0.
 00001314,0.00004360,0.00001308,0.00000441,-0.00000198,-0.00000771,-0.0
 0000144,-0.00000053,0.00000360,-0.00000085,-0.03050165,-0.00659580,-0.
 00047669,-0.00126315,0.00055251,-0.00001332,0.08701634,0.08651699,-0.0
 0013633,0.00001570,-0.00012235,0.00007471,0.00006215,0.00003381,-0.000
 07437,-0.00008952,0.00058988,0.00017538,-0.00001014,-0.00236377,-0.000
 95847,0.00025945,0.00242853,0.00013916,0.00030130,0.00401468,0.0000331
 1,0.00005325,0.00035272,0.00005849,-0.00003245,-0.00056656,0.00002755,
 -0.00024231,-0.00103233,-0.00000671,-0.00002935,0.00014388,0.00001796,
 -0.00000904,0.00000651,0.00001351,0.00001377,-0.00001640,-0.00002763,-
 0.00001766,-0.00031423,-0.00000395,0.00000421,0.00006259,0.00000482,-0
 .00000200,-0.00000133,0.00000031,-0.00000600,0.00000388,0.00000220,0.0
 0000545,0.00002227,0.00001352,-0.00000066,0.00002190,0.00000148,-0.000
 00698,0.00010361,0.00000308,0.00001182,0.00029368,-0.00412162,-0.00194
 822,-0.03473140,-0.00014773,0.00006174,0.00862538,-0.00003058,-0.00004
 310,-0.00047113,0.00000112,-0.00000017,-0.00000339,0.00000017,0.,-0.00
 000357,0.00000003,0.00000035,0.00000124,-0.00000046,-0.00000125,-0.000
 00769,-0.00001124,-0.00000267,-0.00002305,0.00001045,0.00000027,-0.000
 00185,0.00000281,0.00000367,-0.00000296,0.00000795,-0.00000073,0.00000
 047,0.00015618,0.00044141,0.00369004,-0.00004730,0.00005628,0.00041048
 ,0.00471111,0.00121873,0.02435741,0.00021111,-0.00004179,0.00000369,-0
 .00008267,-0.00018776,-0.00001263,-0.00016566,0.00021691,-0.00000468,0
 .00026130,0.00004795,0.00000698,0.00077513,-0.00211987,-0.00015265,0.0
 0017763,-0.00088488,0.00004676,-0.00052923,-0.00018544,0.00002800,-0.0
 0000149,0.00151313,-0.00012267,-0.00498644,-0.00357146,0.00013442,0.00
 012481,0.00003577,0.00000146,0.00000916,-0.00006675,0.00000547,-0.0000
 2241,-0.00001238,-0.00000239,0.00007105,0.00017376,0.00000124,0.000019
 34,0.00001451,-0.00000317,-0.00003263,-0.00000461,0.00000006,-0.000082
 59,-0.00002894,0.00000450,0.00000169,0.00002288,-0.00000241,-0.0000123
 2,0.00000221,0.00000470,0.00003095,-0.00001835,-0.00000513,0.00000167,
 0.00001219,-0.00000201,0.00730754,-0.00588092,0.00015451,-0.01703921,0
 .02033502,-0.00071918,-0.00012992,-0.00028290,0.00000801,-0.00003580,-
 0.00001400,0.00000326,-0.00000626,-0.00000796,0.00000141,-0.00001070,0
 .00000348,0.00000045,-0.00000623,0.00000054,-0.00000005,-0.00001314,-0
 .00002006,0.00000534,-0.00000544,0.00003606,0.00000098,-0.00000112,-0.
 00001281,-0.00000286,0.00000875,0.00000208,-0.00000126,-0.22331578,0.1
 3568379,-0.00437059,0.00154668,0.00105811,-0.00004872,0.00097807,0.000
 20225,0.00011631,0.23514112,0.00010961,-0.00053722,-0.00005158,-0.0002
 3025,-0.00010007,-0.00000111,-0.00000223,0.00018693,0.00000213,0.00133
 148,0.00010420,0.00005215,-0.00283840,-0.00438790,0.00007640,-0.000535
 76,-0.00037885,-0.00003048,-0.00010899,-0.00015007,0.00001095,-0.00046
 862,0.00056515,-0.00000697,-0.00272500,-0.00017228,0.00008005,-0.00001
 204,0.00020028,-0.00000991,0.00005849,-0.00003307,-0.00000053,-0.00002
 681,0.00004465,-0.00000438,-0.00005297,0.00008637,-0.00000334,0.000024
 42,-0.00001036,0.00000149,-0.00000775,0.00002030,-0.00000335,-0.000006
 41,-0.00002152,0.00001343,-0.00001602,-0.00001486,0.00000201,0.0000350
 5,-0.00000766,-0.00001158,0.00012610,-0.00007499,-0.00001558,-0.000039
 48,-0.00003967,0.00000245,0.02519858,-0.01637513,0.00065418,-0.0090740
 7,0.01030522,-0.00028241,0.00030128,-0.00001889,-0.00000323,-0.0000039
 8,0.00000174,0.00000004,0.00000008,0.00000351,-0.00000002,-0.00000205,
 -0.00000316,0.00000178,0.00000522,0.00000162,-0.00000048,0.00004682,0.
 00002012,-0.00000945,-0.00007019,-0.00006768,0.00000876,0.00001143,0.0
 0001861,0.00000364,-0.00000165,0.00000045,-0.00000148,0.13348524,-0.16
 754115,0.00380296,0.00016779,0.00113580,-0.00008104,-0.00024034,0.0008
 9047,-0.00006851,-0.14502006,0.17648824,-0.00000610,0.00005767,-0.0006
 3544,-0.00001023,0.00001449,0.00014125,-0.00002417,0.00001570,-0.00062
 917,-0.00009980,0.00001475,0.00041936,-0.00011081,0.00006050,0.0088248
 0,0.00013872,0.00006294,-0.00079924,0.00000201,-0.00001506,-0.00000901
 ,-0.00002244,0.00006917,0.00047114,0.00005010,-0.00004941,0.00457986,0
 .00004462,-0.00003426,-0.00008119,-0.00001960,0.00001241,0.00002808,0.
 00001573,-0.00001131,-0.00001441,-0.00003170,0.00002354,-0.00007435,-0
 .00000728,0.00000197,-0.00000329,0.00000606,-0.00000356,-0.00000600,-0
 .00000194,-0.00002685,-0.00001073,-0.00000111,0.00000903,0.00000580,0.
 00002596,-0.00001396,0.00002282,-0.00000377,0.00000922,-0.00006309,0.0
 0000100,-0.00000842,0.00017457,-0.00032720,-0.00014439,0.00323099,-0.0
 0044468,0.00000467,0.00240756,-0.00006624,0.00001586,-0.00011492,0.000
 00069,0.00000060,0.00001105,0.00000015,0.00000020,0.00000363,-0.000001
 38,0.00000155,0.00000611,-0.00000053,0.00000009,0.00000234,0.00000899,
 0.00000462,-0.00000548,-0.00000286,-0.00000883,0.00003115,-0.00000508,
 0.00000165,-0.00000170,-0.00000120,0.00000065,-0.00000163,-0.00417102,
 0.00418499,-0.03505880,0.00006543,-0.00007268,-0.00213400,0.00013748,-
 0.00004611,-0.00553890,0.00486464,-0.00413208,0.02454441,0.00003185,-0
 .00001851,0.00000084,0.00001883,-0.00000087,-0.00000881,-0.00011955,-0
 .00013191,0.00000811,-0.00002737,0.00005379,0.00000168,0.00019341,-0.0
 0000569,0.00000700,0.00052636,-0.00044215,0.00001754,0.00021673,-0.000
 02142,-0.00000592,-0.00030784,-0.00040236,-0.00001345,-0.00027632,-0.0
 0272219,0.00017829,-0.00420081,-0.00300489,0.00034697,0.00001115,0.001
 38645,-0.00006084,-0.00051724,-0.00006317,0.00002486,-0.00012371,-0.00
 005610,0.00001199,0.00008395,0.00014625,-0.00001879,-0.00008605,0.0000
 7625,-0.00000778,0.00005582,-0.00005241,0.00000693,-0.00007254,-0.0000
 5582,0.00000357,0.00001988,-0.00001596,-0.00000288,0.00000098,0.000006
 69,0.00000017,0.00000260,-0.00000422,0.00000015,-0.00004209,0.00029668
 ,-0.00000935,0.01022629,-0.00896353,0.00030858,-0.01672640,0.02512369,
 -0.00087966,-0.00003232,-0.00004731,0.00000486,0.00000273,-0.00001305,
 0.00000155,-0.00000659,0.00000533,0.00000105,-0.00001757,0.00001626,-0
 .00000059,-0.00000942,-0.00001199,-0.00000157,-0.00000352,0.00002110,0
 .00000040,0.00000375,-0.00001028,-0.00000306,0.00000719,0.00000672,-0.
 00000018,0.00115112,0.00019462,-0.00002529,-0.16948311,0.13389543,-0.0
 0444748,0.00000344,0.00002435,0.00000222,-0.00014525,0.00055430,-0.000
 00365,0.17876217,-0.00001967,-0.00006837,-0.00000702,0.00009449,0.0000
 8388,-0.00000683,-0.00008590,-0.00052827,0.00000380,-0.00005222,0.0000
 2700,-0.00000617,-0.00003616,0.00012072,0.00001577,0.00149292,-0.00004
 253,0.00006754,0.00022316,-0.00009777,-0.00003515,-0.00082040,0.000182
 25,-0.00001889,-0.00362364,-0.00492773,0.00031126,-0.00219726,0.000617
 29,0.00043741,0.00009317,0.00030518,0.00000994,-0.00012801,0.00011548,
 -0.00004480,-0.00016629,-0.00002491,0.00001741,0.00004942,0.00001682,-
 0.00000646,0.00001043,0.00007182,-0.00000659,0.00003758,-0.00003507,0.
 00002506,-0.00005744,-0.00002688,-0.00000014,0.00003958,-0.00002488,-0
 .00001379,-0.00000393,-0.00000586,0.00000133,-0.00001384,-0.00003498,-
 0.00000100,-0.00026830,-0.00016427,-0.00001751,0.02036630,-0.01674378,
 0.00071808,-0.00605059,0.00745785,-0.00008090,0.00001490,0.00000039,0.
 00001059,0.00000699,0.00000378,-0.00000069,0.00000139,-0.00000398,0.00
 000117,0.00000090,0.00000523,0.00000049,0.00005114,0.00001914,-0.00001
 883,-0.00005505,-0.00008471,0.00000598,0.00001779,0.00002034,0.0000031
 9,-0.00000283,0.00000231,-0.00000018,0.00102947,0.00154662,-0.00008692
 ,0.13641696,-0.22116324,0.00651611,-0.00003272,-0.00004296,0.00000377,
 -0.00096721,-0.00014181,-0.00000446,-0.14553243,0.23257071,0.00001512,
 0.00000266,-0.00004122,-0.00000528,-0.00003805,-0.00000229,0.00000872,
 0.00004719,-0.00005671,-0.00000833,0.00001613,0.00006538,0.00000708,-0
 .00004095,-0.00005913,-0.00007733,0.00005286,0.00031942,0.00001427,-0.
 00007148,-0.00053326,-0.00004859,0.00000503,-0.00063725,0.00037989,0.0
 0026864,0.00385954,0.00019618,0.00038955,0.00940595,0.00004747,0.00004
 505,0.00036904,-0.00006555,-0.00006705,-0.00097935,-0.00003117,0.00000
 151,0.00015335,0.00002241,-0.00000215,-0.00008808,-0.00001170,0.000035
 56,0.00008944,0.00005020,0.00000602,0.00008036,-0.00003350,-0.00002296
 ,-0.00001363,-0.00000252,-0.00000057,0.00000557,0.00000056,0.00000168,
 -0.00001629,0.00000047,0.00000114,0.00001111,-0.00000071,0.00003113,-0
 .00014619,-0.00089090,0.00136866,0.00249544,0.00076360,-0.00045454,0.0
 0370724,0.00001383,0.00001522,0.00028002,-0.00000109,-0.00000225,-0.00
 001787,-0.00000045,-0.00000130,-0.00001419,-0.00000067,0.00000273,0.00
 001597,-0.00000868,-0.00000866,-0.00001741,-0.00000535,-0.00000228,0.0
 0000981,0.00000102,0.00000049,0.00000012,-0.00000150,0.00000597,-0.000
 00331,-0.00004609,-0.00017433,-0.00171888,-0.00485863,0.00637224,-0.03
 545831,-0.00000091,0.00000081,0.00008081,0.00005697,0.00000445,0.00015
 533,0.00463406,-0.00747119,0.02460683,0.00007843,-0.00000042,-0.000000
 44,0.00004974,-0.00005748,-0.00000557,-0.00013188,0.00032261,0.0000069
 9,0.00002168,0.00008139,0.00000755,-0.00013871,0.00004081,0.00000253,0
 .00020112,0.00010976,-0.00000968,0.00062028,0.00060146,-0.00004715,-0.
 00326052,0.00310265,0.00003954,-0.00061311,0.00032659,-0.00002725,0.01
 001900,0.02060438,-0.00115871,0.00153274,0.00009036,-0.00011896,0.0000
 1918,-0.00036046,-0.00000639,0.00029530,0.00005830,0.00000974,-0.00008
 249,0.00002296,0.00000007,0.00002401,-0.00007215,0.00000728,-0.0000789
 3,-0.00002184,0.00000457,0.00003246,0.00007212,-0.00000668,0.00000711,
 -0.00000555,-0.00000482,0.00001364,-0.00000057,0.00000021,-0.00000445,
 0.00000179,-0.00000066,-0.00047985,-0.00012036,-0.00002046,-0.00557082
 ,0.00029283,0.00018991,-0.08294262,-0.07879206,0.00447483,-0.00027258,
 -0.00067309,0.00007606,-0.00002362,0.00000252,0.00000188,-0.00000203,-
 0.00000464,0.00000050,0.00000338,-0.00000332,0.00000010,0.00001616,0.0
 0001674,0.00000407,-0.00003626,-0.00002143,-0.00000335,0.00000620,0.00
 000578,0.00000026,-0.00000148,-0.00000456,0.00000081,0.00055774,-0.001
 28261,0.00006948,-0.00675554,-0.03072166,0.00159295,-0.00002348,-0.000
 15610,-0.00000724,-0.00004172,0.00002717,0.00000122,0.00087947,0.00016
 727,-0.00011289,0.08608248,-0.00007813,-0.00001910,-0.00000877,-0.0000
 3943,0.00010273,-0.00000394,0.00014704,-0.00043770,-0.00000299,0.00000
 166,-0.00007149,-0.00000384,0.00009742,0.00003909,0.00000247,-0.000159
 93,-0.00017250,0.00000035,-0.00098148,-0.00010883,0.00008542,0.0042204
 9,-0.00171948,0.00011539,0.00046201,0.00058907,-0.00009199,-0.00903521
 ,-0.01759628,0.00111556,-0.00108472,0.00113595,-0.00010163,0.00041008,
 0.00004513,0.00001412,-0.00005460,0.00007307,-0.00002788,-0.00009115,-
 0.00007709,0.00000480,0.00002434,-0.00006645,0.00001080,0.00005183,0.0
 0007803,-0.00000456,0.00006908,-0.00003756,0.00000270,0.00000244,0.000
 00662,-0.00000006,-0.00001382,-0.00001214,0.00000361,-0.00000672,-0.00
 000695,0.00000016,-0.00016819,0.00007497,-0.00002594,-0.00046738,0.001
 62460,0.00036176,-0.08101583,-0.30678906,0.01360357,0.00095475,0.00009
 570,-0.00003538,0.00002153,0.00001877,-0.00000259,0.00000996,-0.000000
 27,-0.00000141,0.00001499,-0.00000487,-0.00000034,0.00002524,0.0000206
 2,-0.00001127,-0.00000305,-0.00004942,0.00000538,0.00000196,0.00001722
 ,0.00000453,-0.00000799,-0.00000237,-0.00000100,0.00012869,-0.00019441
 ,0.00002730,0.00047964,-0.00248271,0.00028524,-0.00000220,-0.00002244,
 -0.00000257,-0.00003249,0.00000266,0.00000509,-0.00023165,0.00099517,-
 0.00031697,0.08635081,0.32495168,0.00002103,-0.00000021,-0.00002686,-0
 .00002420,0.00000875,-0.00030383,0.00001461,0.00002785,0.00032040,-0.0
 0000751,0.00002057,0.00001135,-0.00003287,-0.00001386,0.00014864,0.000
 02802,0.00005707,-0.00055865,0.00010279,-0.00001640,0.00054917,-0.0000
 8332,0.00019511,0.00352224,0.00001796,-0.00019582,-0.00092173,0.000066
 14,0.00059117,0.00233554,0.00001148,-0.00018847,-0.00196867,-0.0000468
 9,0.00005950,-0.00014788,-0.00003444,-0.00002318,-0.00000559,0.0000258
 6,-0.00000168,0.00001028,-0.00000494,0.00002449,0.00001430,0.00000594,
 -0.00000783,0.00003679,-0.00001599,-0.00001084,-0.00001875,0.00000350,
 0.00000128,0.00000064,0.00000122,-0.00000607,0.00008295,-0.00000132,0.
 00000014,0.00000146,0.00004061,-0.00002370,-0.00059031,0.00020044,0.00
 034033,0.00906538,0.00482184,0.01356552,-0.03541495,-0.00002117,0.0000
 4145,0.00028657,0.00000043,0.00000003,0.00002076,-0.00000081,0.0000005
 1,-0.00000005,-0.00000117,0.00000031,-0.00000323,-0.00000377,0.0000053
 0,0.00000298,-0.00000290,-0.00000593,-0.00000348,0.00000162,-0.0000005
 4,-0.00000240,0.00000315,0.00000391,-0.00000197,-0.00000590,0.00010864
 ,0.00041004,-0.00005060,0.00076400,0.00399928,0.00000170,0.00000445,-0
 .00004286,0.00000123,0.00000062,0.00012111,-0.00007151,-0.00032136,-0.
 00590734,-0.00496029,-0.01500513,0.02497864\\0.00000111,-0.00000101,0.
 00000009,-0.00000113,0.00000094,0.00000027,-0.00000060,-0.00000004,0.0
 0000027,-0.00000293,0.00000241,-0.00000032,0.00000076,0.00000070,-0.00
 000030,-0.00000079,0.00000170,-0.00000025,-0.00000010,-0.00000057,-0.0
 0000058,-0.00000007,0.00000050,-0.00000001,0.00000001,0.00000042,-0.00
 000020,0.00000046,-0.00000078,-0.00000032,0.00000088,0.00000019,-0.000
 00003,0.00000068,-0.00000150,-0.00000006,0.00000001,-0.00000051,0.0000
 0068,-0.00000039,0.00000046,0.00000034,0.00000142,-0.00000234,0.000001
 01,-0.00000151,-0.00000097,0.00000116,0.00000050,-0.00000138,0.0000008
 7,0.00000018,-0.00000088,0.00000026,-0.00000125,0.00000056,0.00000025,
 -0.00000096,0.00000119,-0.00000044,-0.00000126,-0.00000104,-0.00000073
 ,0.00000171,0.00000045,-0.00000106,0.00000331,0.00000092,-0.00000054,0
 .00000082,-0.00000061,-0.00000005,0.00000085,-0.00000126,0.00000057,-0
 .00000050,-0.00000138,0.00000118,0.00000019,-0.00000173,0.00000093,0.0
 0000072,0.00000025,0.00000222,-0.00000202,-0.00000125,-0.00000108,-0.0
 0000078,-0.00000115,0.00000064,-0.00000110,-0.00000026,0.00000057,0.00
 000051,0.00000332,-0.00000086,-0.00000178,0.00000039,-0.00000076,-0.00
 000016,0.00000159,-0.00000091,0.00000056,0.00000158,-0.00000113,0.0000
 0126,0.00000090,-0.00000104,0.00000140,0.00000017,-0.00000066\\\@


 OLD HORSE! OLD HORSE! WHAT BROUGHT YOU HERE?
 FROM SACARAP' TO PORTLAND PIER
 I'VE CARTED STONE THIS MANY A YEAR;
 TILL, KILLED BY BLOWS AND SORE ABUSE,
 THEY SALTED ME DOWN FOR SAILORS' USE.
 THE SAILORS THEY DO ME DESPISE;
 THEY TURN ME OVER AND DAMN MY EYES;
 CUT OFF MY MEAT, AND SCRAPE MY BONES,
 AND PITCH ME OVER TO DAVY JONES.

    SAILORS' COMPLAINT ABOUT THE BEEF
    SERVED ON SHIPBOARD, CIRCA 1835.
 Job cpu time:       2 days 19 hours 57 minutes 27.0 seconds.
 File lengths (MBytes):  RWF=   7950 Int=      0 D2E=      0 Chk=     39 Scr=      1
 Normal termination of Gaussian 09 at Sun Feb  2 02:03:27 2020.
