 Entering Gaussian System, Link 0=g09
 Initial command:
 /usr/local/Cluster-Apps/gaussian/g09/l1.exe "/rds/user/am2145/hpc-work/scratch/19184561/Gau-85247.inp" -scrdir="/rds/user/am2145/hpc-work/scratch/19184561/"
 Entering Link 1 = /usr/local/Cluster-Apps/gaussian/g09/l1.exe PID=     85248.
  
 Copyright (c) 1988,1990,1992,1993,1995,1998,2003,2009,2013,
            Gaussian, Inc.  All Rights Reserved.
  
 This is part of the Gaussian(R) 09 program.  It is based on
 the Gaussian(R) 03 system (copyright 2003, Gaussian, Inc.),
 the Gaussian(R) 98 system (copyright 1998, Gaussian, Inc.),
 the Gaussian(R) 94 system (copyright 1995, Gaussian, Inc.),
 the Gaussian 92(TM) system (copyright 1992, Gaussian, Inc.),
 the Gaussian 90(TM) system (copyright 1990, Gaussian, Inc.),
 the Gaussian 88(TM) system (copyright 1988, Gaussian, Inc.),
 the Gaussian 86(TM) system (copyright 1986, Carnegie Mellon
 University), and the Gaussian 82(TM) system (copyright 1983,
 Carnegie Mellon University). Gaussian is a federally registered
 trademark of Gaussian, Inc.
  
 This software contains proprietary and confidential information,
 including trade secrets, belonging to Gaussian, Inc.
  
 This software is provided under written license and may be
 used, copied, transmitted, or stored only in accord with that
 written license.
  
 The following legend is applicable only to US Government
 contracts under FAR:
  
                    RESTRICTED RIGHTS LEGEND
  
 Use, reproduction and disclosure by the US Government is
 subject to restrictions as set forth in subparagraphs (a)
 and (c) of the Commercial Computer Software - Restricted
 Rights clause in FAR 52.227-19.
  
 Gaussian, Inc.
 340 Quinnipiac St., Bldg. 40, Wallingford CT 06492
  
  
 ---------------------------------------------------------------
 Warning -- This program may not be used in any manner that
 competes with the business of Gaussian, Inc. or will provide
 assistance to any competitor of Gaussian, Inc.  The licensee
 of this program is prohibited from giving any competitor of
 Gaussian, Inc. access to this program.  By using this program,
 the user acknowledges that Gaussian, Inc. is engaged in the
 business of creating and licensing software in the field of
 computational chemistry and represents and warrants to the
 licensee that it is not a competitor of Gaussian, Inc. and that
 it will not use this program in any manner prohibited above.
 ---------------------------------------------------------------
  

 Cite this work as:
 Gaussian 09, Revision D.01,
 M. J. Frisch, G. W. Trucks, H. B. Schlegel, G. E. Scuseria, 
 M. A. Robb, J. R. Cheeseman, G. Scalmani, V. Barone, B. Mennucci, 
 G. A. Petersson, H. Nakatsuji, M. Caricato, X. Li, H. P. Hratchian, 
 A. F. Izmaylov, J. Bloino, G. Zheng, J. L. Sonnenberg, M. Hada, 
 M. Ehara, K. Toyota, R. Fukuda, J. Hasegawa, M. Ishida, T. Nakajima, 
 Y. Honda, O. Kitao, H. Nakai, T. Vreven, J. A. Montgomery, Jr., 
 J. E. Peralta, F. Ogliaro, M. Bearpark, J. J. Heyd, E. Brothers, 
 K. N. Kudin, V. N. Staroverov, T. Keith, R. Kobayashi, J. Normand, 
 K. Raghavachari, A. Rendell, J. C. Burant, S. S. Iyengar, J. Tomasi, 
 M. Cossi, N. Rega, J. M. Millam, M. Klene, J. E. Knox, J. B. Cross, 
 V. Bakken, C. Adamo, J. Jaramillo, R. Gomperts, R. E. Stratmann, 
 O. Yazyev, A. J. Austin, R. Cammi, C. Pomelli, J. W. Ochterski, 
 R. L. Martin, K. Morokuma, V. G. Zakrzewski, G. A. Voth, 
 P. Salvador, J. J. Dannenberg, S. Dapprich, A. D. Daniels, 
 O. Farkas, J. B. Foresman, J. V. Ortiz, J. Cioslowski, 
 and D. J. Fox, Gaussian, Inc., Wallingford CT, 2013.
 
 ******************************************
 Gaussian 09:  ES64L-G09RevD.01 24-Apr-2013
                 1-Feb-2020 
 ******************************************
 %NProcShared=20
 Will use up to   20 processors via shared memory.
 %mem=64GB
 %Chk=AS2a_Hloss_guess.chk
 --------------------------------------------------
 #n opt=(ts,calcfc,noeigen) freq b3lyp/6-311+g(d,p)
 --------------------------------------------------
 1/5=1,10=4,11=1,14=-1,18=20,26=3,38=1/1,3;
 2/9=110,12=2,17=6,18=5,40=1/2;
 3/5=4,6=6,7=111,11=2,16=1,25=1,30=1,71=2,74=-5,140=1/1,2,3;
 4//1;
 5/5=2,38=5/2;
 8/6=4,10=90,11=11/1;
 11/6=1,8=1,9=11,15=111,16=1/1,2,10;
 10/6=1,13=1/2;
 6/7=2,8=2,9=2,10=2,28=1/1;
 7/10=1,18=20,25=1/1,2,3,16;
 1/5=1,10=4,11=1,14=-1,18=20,26=3/3(2);
 2/9=110/2;
 99//99;
 2/9=110/2;
 3/5=4,6=6,7=111,11=2,16=1,25=1,30=1,71=1,74=-5/1,2,3;
 4/5=5,16=3,69=1/1;
 5/5=2,38=5/2;
 7//1,2,3,16;
 1/5=1,11=1,14=-1,18=20,26=3/3(-5);
 2/9=110/2;
 6/7=2,8=2,9=2,10=2,19=2,28=1/1;
 99/9=1/99;
 ----------------
 AS2a_Hloss_guess
 ----------------
 Symbolic Z-matrix:
 Charge =  0 Multiplicity = 2
 C                    -1.7987    3.33407  -0.13557 
 C                    -0.54926   2.64875  -0.10595 
 C                    -0.53163   1.26681  -0.01761 
 C                    -3.03093   2.70298  -0.0931 
 C                    -3.07132   1.2859   -0.02104 
 C                    -1.82387   0.66776   0.01635 
 C                     0.4579    0.11161   0.01097 
 C                    -0.34754  -1.04795   0.03493 
 C                    -1.71144  -0.71703   0.04731 
 C                     0.03456  -2.39691   0.01801 
 C                     1.40723  -2.6101   -0.03407 
 C                     2.30258  -1.51541  -0.04587 
 C                     1.86201  -0.11568  -0.00004 
 C                     3.69368  -1.81465  -0.10744 
 C                     4.64278  -0.83206  -0.11499 
 C                     2.90644   0.88022   0.03365 
 C                     4.24074   0.51384  -0.03303 
 H                     0.35602   3.23092  -0.15942 
 H                    -1.77213   4.41661  -0.19916 
 H                    -3.94397   3.28809  -0.12365 
 C                    -4.20141   0.39191  -0.00307 
 C                    -2.76528  -1.60478   0.04714 
 C                    -1.04706  -3.36509   0.03132 
 H                     1.82095  -3.6127   -0.07087 
 H                     3.98603  -2.85835  -0.14766 
 H                     4.98857   1.29624  -0.00323 
 H                     5.69703  -1.0765   -0.16656 
 C                     2.68045   2.2942    0.17671 
 C                     2.80034   3.49685   0.02646 
 H                     2.80601   4.55987   0.05174 
 H                     1.84353   2.18804   1.8916 
 C                    -4.06231  -0.98503   0.02945 
 C                    -2.37153  -2.99886   0.0463 
 H                    -5.20089   0.81454  -0.02272 
 H                    -4.954    -1.60338   0.03433 
 H                    -3.13335  -3.77159   0.05081 
 H                    -0.79237  -4.41988   0.0238 
 
 Add virtual bond connecting atoms H31        and C28        Dist= 3.61D+00.

 GradGradGradGradGradGradGradGradGradGradGradGradGradGradGradGradGradGrad
 Berny optimization.
 Initialization pass.
                           ----------------------------
                           !    Initial Parameters    !
                           ! (Angstroms and Degrees)  !
 --------------------------                            --------------------------
 ! Name  Definition              Value          Derivative Info.                !
 --------------------------------------------------------------------------------
 ! R1    R(1,2)                  1.4254         calculate D2E/DX2 analytically  !
 ! R2    R(1,4)                  1.3851         calculate D2E/DX2 analytically  !
 ! R3    R(1,19)                 1.0847         calculate D2E/DX2 analytically  !
 ! R4    R(2,3)                  1.3849         calculate D2E/DX2 analytically  !
 ! R5    R(2,18)                 1.0776         calculate D2E/DX2 analytically  !
 ! R6    R(3,6)                  1.4247         calculate D2E/DX2 analytically  !
 ! R7    R(3,7)                  1.5213         calculate D2E/DX2 analytically  !
 ! R8    R(4,5)                  1.4195         calculate D2E/DX2 analytically  !
 ! R9    R(4,20)                 1.0849         calculate D2E/DX2 analytically  !
 ! R10   R(5,6)                  1.3927         calculate D2E/DX2 analytically  !
 ! R11   R(5,21)                 1.4411         calculate D2E/DX2 analytically  !
 ! R12   R(6,9)                  1.3897         calculate D2E/DX2 analytically  !
 ! R13   R(7,8)                  1.4121         calculate D2E/DX2 analytically  !
 ! R14   R(7,13)                 1.4224         calculate D2E/DX2 analytically  !
 ! R15   R(8,9)                  1.4035         calculate D2E/DX2 analytically  !
 ! R16   R(8,10)                 1.4021         calculate D2E/DX2 analytically  !
 ! R17   R(9,22)                 1.3779         calculate D2E/DX2 analytically  !
 ! R18   R(10,11)                1.3901         calculate D2E/DX2 analytically  !
 ! R19   R(10,23)                1.4517         calculate D2E/DX2 analytically  !
 ! R20   R(11,12)                1.4143         calculate D2E/DX2 analytically  !
 ! R21   R(11,24)                1.0852         calculate D2E/DX2 analytically  !
 ! R22   R(12,13)                1.4681         calculate D2E/DX2 analytically  !
 ! R23   R(12,14)                1.4243         calculate D2E/DX2 analytically  !
 ! R24   R(13,16)                1.4435         calculate D2E/DX2 analytically  !
 ! R25   R(14,15)                1.3661         calculate D2E/DX2 analytically  !
 ! R26   R(14,25)                1.0846         calculate D2E/DX2 analytically  !
 ! R27   R(15,17)                1.4071         calculate D2E/DX2 analytically  !
 ! R28   R(15,27)                1.0834         calculate D2E/DX2 analytically  !
 ! R29   R(16,17)                1.3853         calculate D2E/DX2 analytically  !
 ! R30   R(16,28)                1.4391         calculate D2E/DX2 analytically  !
 ! R31   R(17,26)                1.0827         calculate D2E/DX2 analytically  !
 ! R32   R(21,32)                1.3843         calculate D2E/DX2 analytically  !
 ! R33   R(21,34)                1.0853         calculate D2E/DX2 analytically  !
 ! R34   R(22,32)                1.4376         calculate D2E/DX2 analytically  !
 ! R35   R(22,33)                1.4486         calculate D2E/DX2 analytically  !
 ! R36   R(23,33)                1.3743         calculate D2E/DX2 analytically  !
 ! R37   R(23,37)                1.0851         calculate D2E/DX2 analytically  !
 ! R38   R(28,29)                1.2179         calculate D2E/DX2 analytically  !
 ! R39   R(28,31)                1.9112         calculate D2E/DX2 analytically  !
 ! R40   R(29,30)                1.0633         calculate D2E/DX2 analytically  !
 ! R41   R(32,35)                1.0851         calculate D2E/DX2 analytically  !
 ! R42   R(33,36)                1.0851         calculate D2E/DX2 analytically  !
 ! A1    A(2,1,4)              124.065          calculate D2E/DX2 analytically  !
 ! A2    A(2,1,19)             117.3601         calculate D2E/DX2 analytically  !
 ! A3    A(4,1,19)             118.5744         calculate D2E/DX2 analytically  !
 ! A4    A(1,2,3)              119.4901         calculate D2E/DX2 analytically  !
 ! A5    A(1,2,18)             118.3986         calculate D2E/DX2 analytically  !
 ! A6    A(3,2,18)             122.1104         calculate D2E/DX2 analytically  !
 ! A7    A(2,3,6)              114.1762         calculate D2E/DX2 analytically  !
 ! A8    A(2,3,7)              140.1032         calculate D2E/DX2 analytically  !
 ! A9    A(6,3,7)              105.6776         calculate D2E/DX2 analytically  !
 ! A10   A(1,4,5)              118.7984         calculate D2E/DX2 analytically  !
 ! A11   A(1,4,20)             120.1412         calculate D2E/DX2 analytically  !
 ! A12   A(5,4,20)             121.0582         calculate D2E/DX2 analytically  !
 ! A13   A(4,5,6)              114.7693         calculate D2E/DX2 analytically  !
 ! A14   A(4,5,21)             129.961          calculate D2E/DX2 analytically  !
 ! A15   A(6,5,21)             115.2607         calculate D2E/DX2 analytically  !
 ! A16   A(3,6,5)              128.6926         calculate D2E/DX2 analytically  !
 ! A17   A(3,6,9)              110.2508         calculate D2E/DX2 analytically  !
 ! A18   A(5,6,9)              121.0201         calculate D2E/DX2 analytically  !
 ! A19   A(3,7,8)              104.647          calculate D2E/DX2 analytically  !
 ! A20   A(3,7,13)             139.7511         calculate D2E/DX2 analytically  !
 ! A21   A(8,7,13)             115.5928         calculate D2E/DX2 analytically  !
 ! A22   A(7,8,9)              111.1513         calculate D2E/DX2 analytically  !
 ! A23   A(7,8,10)             129.3754         calculate D2E/DX2 analytically  !
 ! A24   A(9,8,10)             119.4564         calculate D2E/DX2 analytically  !
 ! A25   A(6,9,8)              108.2623         calculate D2E/DX2 analytically  !
 ! A26   A(6,9,22)             125.4587         calculate D2E/DX2 analytically  !
 ! A27   A(8,9,22)             126.2496         calculate D2E/DX2 analytically  !
 ! A28   A(8,10,11)            114.6513         calculate D2E/DX2 analytically  !
 ! A29   A(8,10,23)            116.0071         calculate D2E/DX2 analytically  !
 ! A30   A(11,10,23)           129.33           calculate D2E/DX2 analytically  !
 ! A31   A(10,11,12)           120.4477         calculate D2E/DX2 analytically  !
 ! A32   A(10,11,24)           121.2922         calculate D2E/DX2 analytically  !
 ! A33   A(12,11,24)           118.2596         calculate D2E/DX2 analytically  !
 ! A34   A(11,12,13)           123.2111         calculate D2E/DX2 analytically  !
 ! A35   A(11,12,14)           117.1347         calculate D2E/DX2 analytically  !
 ! A36   A(13,12,14)           119.6542         calculate D2E/DX2 analytically  !
 ! A37   A(7,13,12)            116.6672         calculate D2E/DX2 analytically  !
 ! A38   A(7,13,16)            127.1414         calculate D2E/DX2 analytically  !
 ! A39   A(12,13,16)           116.191          calculate D2E/DX2 analytically  !
 ! A40   A(12,14,15)           121.8491         calculate D2E/DX2 analytically  !
 ! A41   A(12,14,25)           117.8428         calculate D2E/DX2 analytically  !
 ! A42   A(15,14,25)           120.308          calculate D2E/DX2 analytically  !
 ! A43   A(14,15,17)           119.2852         calculate D2E/DX2 analytically  !
 ! A44   A(14,15,27)           120.9308         calculate D2E/DX2 analytically  !
 ! A45   A(17,15,27)           119.7762         calculate D2E/DX2 analytically  !
 ! A46   A(13,16,17)           120.884          calculate D2E/DX2 analytically  !
 ! A47   A(13,16,28)           124.5122         calculate D2E/DX2 analytically  !
 ! A48   A(17,16,28)           114.577          calculate D2E/DX2 analytically  !
 ! A49   A(15,17,16)           122.0731         calculate D2E/DX2 analytically  !
 ! A50   A(15,17,26)           119.7005         calculate D2E/DX2 analytically  !
 ! A51   A(16,17,26)           118.2179         calculate D2E/DX2 analytically  !
 ! A52   A(5,21,32)            122.5852         calculate D2E/DX2 analytically  !
 ! A53   A(5,21,34)            118.7098         calculate D2E/DX2 analytically  !
 ! A54   A(32,21,34)           118.7036         calculate D2E/DX2 analytically  !
 ! A55   A(9,22,32)            114.348          calculate D2E/DX2 analytically  !
 ! A56   A(9,22,33)            114.3386         calculate D2E/DX2 analytically  !
 ! A57   A(32,22,33)           131.3072         calculate D2E/DX2 analytically  !
 ! A58   A(10,23,33)           122.714          calculate D2E/DX2 analytically  !
 ! A59   A(10,23,37)           118.2514         calculate D2E/DX2 analytically  !
 ! A60   A(33,23,37)           119.0338         calculate D2E/DX2 analytically  !
 ! A61   A(16,28,29)           160.4822         calculate D2E/DX2 analytically  !
 ! A62   A(16,28,31)            95.9346         calculate D2E/DX2 analytically  !
 ! A63   A(29,28,31)           102.0436         calculate D2E/DX2 analytically  !
 ! A64   A(21,32,22)           121.3152         calculate D2E/DX2 analytically  !
 ! A65   A(21,32,35)           118.969          calculate D2E/DX2 analytically  !
 ! A66   A(22,32,35)           119.7143         calculate D2E/DX2 analytically  !
 ! A67   A(22,33,23)           121.2271         calculate D2E/DX2 analytically  !
 ! A68   A(22,33,36)           119.6349         calculate D2E/DX2 analytically  !
 ! A69   A(23,33,36)           119.1368         calculate D2E/DX2 analytically  !
 ! A70   L(28,29,30,1,-1)      174.9735         calculate D2E/DX2 analytically  !
 ! A71   L(28,29,30,1,-2)      171.3044         calculate D2E/DX2 analytically  !
 ! D1    D(4,1,2,3)             -0.6008         calculate D2E/DX2 analytically  !
 ! D2    D(4,1,2,18)           179.0484         calculate D2E/DX2 analytically  !
 ! D3    D(19,1,2,3)           179.6396         calculate D2E/DX2 analytically  !
 ! D4    D(19,1,2,18)           -0.7113         calculate D2E/DX2 analytically  !
 ! D5    D(2,1,4,5)             -0.2722         calculate D2E/DX2 analytically  !
 ! D6    D(2,1,4,20)          -179.7389         calculate D2E/DX2 analytically  !
 ! D7    D(19,1,4,5)           179.4847         calculate D2E/DX2 analytically  !
 ! D8    D(19,1,4,20)            0.018          calculate D2E/DX2 analytically  !
 ! D9    D(1,2,3,6)              0.8446         calculate D2E/DX2 analytically  !
 ! D10   D(1,2,3,7)            178.0005         calculate D2E/DX2 analytically  !
 ! D11   D(18,2,3,6)          -178.791          calculate D2E/DX2 analytically  !
 ! D12   D(18,2,3,7)            -1.6351         calculate D2E/DX2 analytically  !
 ! D13   D(2,3,6,5)             -0.3291         calculate D2E/DX2 analytically  !
 ! D14   D(2,3,6,9)            177.4609         calculate D2E/DX2 analytically  !
 ! D15   D(7,3,6,5)           -178.4349         calculate D2E/DX2 analytically  !
 ! D16   D(7,3,6,9)             -0.6449         calculate D2E/DX2 analytically  !
 ! D17   D(2,3,7,8)           -176.3078         calculate D2E/DX2 analytically  !
 ! D18   D(2,3,7,13)             2.4573         calculate D2E/DX2 analytically  !
 ! D19   D(6,3,7,8)              0.9974         calculate D2E/DX2 analytically  !
 ! D20   D(6,3,7,13)           179.7625         calculate D2E/DX2 analytically  !
 ! D21   D(1,4,5,6)              0.7588         calculate D2E/DX2 analytically  !
 ! D22   D(1,4,5,21)          -178.0864         calculate D2E/DX2 analytically  !
 ! D23   D(20,4,5,6)          -179.7795         calculate D2E/DX2 analytically  !
 ! D24   D(20,4,5,21)            1.3753         calculate D2E/DX2 analytically  !
 ! D25   D(4,5,6,3)             -0.489          calculate D2E/DX2 analytically  !
 ! D26   D(4,5,6,9)           -178.0694         calculate D2E/DX2 analytically  !
 ! D27   D(21,5,6,3)           178.5324         calculate D2E/DX2 analytically  !
 ! D28   D(21,5,6,9)             0.9519         calculate D2E/DX2 analytically  !
 ! D29   D(4,5,21,32)          177.9429         calculate D2E/DX2 analytically  !
 ! D30   D(4,5,21,34)           -1.6236         calculate D2E/DX2 analytically  !
 ! D31   D(6,5,21,32)           -0.8977         calculate D2E/DX2 analytically  !
 ! D32   D(6,5,21,34)          179.5358         calculate D2E/DX2 analytically  !
 ! D33   D(3,6,9,8)              0.0313         calculate D2E/DX2 analytically  !
 ! D34   D(3,6,9,22)          -178.0969         calculate D2E/DX2 analytically  !
 ! D35   D(5,6,9,8)            178.0187         calculate D2E/DX2 analytically  !
 ! D36   D(5,6,9,22)            -0.1096         calculate D2E/DX2 analytically  !
 ! D37   D(3,7,8,9)             -1.0244         calculate D2E/DX2 analytically  !
 ! D38   D(3,7,8,10)           177.4486         calculate D2E/DX2 analytically  !
 ! D39   D(13,7,8,9)           179.8603         calculate D2E/DX2 analytically  !
 ! D40   D(13,7,8,10)           -1.6667         calculate D2E/DX2 analytically  !
 ! D41   D(3,7,13,12)         -176.0305         calculate D2E/DX2 analytically  !
 ! D42   D(3,7,13,16)            4.2043         calculate D2E/DX2 analytically  !
 ! D43   D(8,7,13,12)            2.6447         calculate D2E/DX2 analytically  !
 ! D44   D(8,7,13,16)         -177.1205         calculate D2E/DX2 analytically  !
 ! D45   D(7,8,9,6)              0.6642         calculate D2E/DX2 analytically  !
 ! D46   D(7,8,9,22)           178.7737         calculate D2E/DX2 analytically  !
 ! D47   D(10,8,9,6)          -177.9802         calculate D2E/DX2 analytically  !
 ! D48   D(10,8,9,22)            0.1293         calculate D2E/DX2 analytically  !
 ! D49   D(7,8,10,11)           -0.2195         calculate D2E/DX2 analytically  !
 ! D50   D(7,8,10,23)         -179.0964         calculate D2E/DX2 analytically  !
 ! D51   D(9,8,10,11)          178.1448         calculate D2E/DX2 analytically  !
 ! D52   D(9,8,10,23)           -0.732          calculate D2E/DX2 analytically  !
 ! D53   D(6,9,22,32)           -0.8016         calculate D2E/DX2 analytically  !
 ! D54   D(6,9,22,33)          178.3944         calculate D2E/DX2 analytically  !
 ! D55   D(8,9,22,32)         -178.5974         calculate D2E/DX2 analytically  !
 ! D56   D(8,9,22,33)            0.5986         calculate D2E/DX2 analytically  !
 ! D57   D(8,10,11,12)           0.9323         calculate D2E/DX2 analytically  !
 ! D58   D(8,10,11,24)        -178.8058         calculate D2E/DX2 analytically  !
 ! D59   D(23,10,11,12)        179.6273         calculate D2E/DX2 analytically  !
 ! D60   D(23,10,11,24)         -0.1109         calculate D2E/DX2 analytically  !
 ! D61   D(8,10,23,33)           0.6208         calculate D2E/DX2 analytically  !
 ! D62   D(8,10,23,37)        -179.7074         calculate D2E/DX2 analytically  !
 ! D63   D(11,10,23,33)       -178.0594         calculate D2E/DX2 analytically  !
 ! D64   D(11,10,23,37)          1.6124         calculate D2E/DX2 analytically  !
 ! D65   D(10,11,12,13)          0.242          calculate D2E/DX2 analytically  !
 ! D66   D(10,11,12,14)       -179.6705         calculate D2E/DX2 analytically  !
 ! D67   D(24,11,12,13)        179.9879         calculate D2E/DX2 analytically  !
 ! D68   D(24,11,12,14)          0.0755         calculate D2E/DX2 analytically  !
 ! D69   D(11,12,13,7)          -2.1456         calculate D2E/DX2 analytically  !
 ! D70   D(11,12,13,16)        177.6458         calculate D2E/DX2 analytically  !
 ! D71   D(14,12,13,7)         177.7647         calculate D2E/DX2 analytically  !
 ! D72   D(14,12,13,16)         -2.4439         calculate D2E/DX2 analytically  !
 ! D73   D(11,12,14,15)       -179.5658         calculate D2E/DX2 analytically  !
 ! D74   D(11,12,14,25)          0.3627         calculate D2E/DX2 analytically  !
 ! D75   D(13,12,14,15)          0.5185         calculate D2E/DX2 analytically  !
 ! D76   D(13,12,14,25)       -179.5529         calculate D2E/DX2 analytically  !
 ! D77   D(7,13,16,17)        -177.5521         calculate D2E/DX2 analytically  !
 ! D78   D(7,13,16,28)           4.4358         calculate D2E/DX2 analytically  !
 ! D79   D(12,13,16,17)          2.6818         calculate D2E/DX2 analytically  !
 ! D80   D(12,13,16,28)       -175.3303         calculate D2E/DX2 analytically  !
 ! D81   D(12,14,15,17)          1.2871         calculate D2E/DX2 analytically  !
 ! D82   D(12,14,15,27)       -179.7293         calculate D2E/DX2 analytically  !
 ! D83   D(25,14,15,17)       -178.6397         calculate D2E/DX2 analytically  !
 ! D84   D(25,14,15,27)          0.3439         calculate D2E/DX2 analytically  !
 ! D85   D(14,15,17,16)         -1.0739         calculate D2E/DX2 analytically  !
 ! D86   D(14,15,17,26)        177.8492         calculate D2E/DX2 analytically  !
 ! D87   D(27,15,17,16)        179.9306         calculate D2E/DX2 analytically  !
 ! D88   D(27,15,17,26)         -1.1463         calculate D2E/DX2 analytically  !
 ! D89   D(13,16,17,15)         -0.9996         calculate D2E/DX2 analytically  !
 ! D90   D(13,16,17,26)       -179.9379         calculate D2E/DX2 analytically  !
 ! D91   D(28,16,17,15)        177.1992         calculate D2E/DX2 analytically  !
 ! D92   D(28,16,17,26)         -1.7391         calculate D2E/DX2 analytically  !
 ! D93   D(13,16,28,29)       -141.542          calculate D2E/DX2 analytically  !
 ! D94   D(13,16,28,31)         61.3626         calculate D2E/DX2 analytically  !
 ! D95   D(17,16,28,29)         40.334          calculate D2E/DX2 analytically  !
 ! D96   D(17,16,28,31)       -116.7614         calculate D2E/DX2 analytically  !
 ! D97   D(5,21,32,22)          -0.0059         calculate D2E/DX2 analytically  !
 ! D98   D(5,21,32,35)        -179.5616         calculate D2E/DX2 analytically  !
 ! D99   D(34,21,32,22)        179.5606         calculate D2E/DX2 analytically  !
 ! D100  D(34,21,32,35)          0.0049         calculate D2E/DX2 analytically  !
 ! D101  D(9,22,32,21)           0.8354         calculate D2E/DX2 analytically  !
 ! D102  D(9,22,32,35)        -179.6122         calculate D2E/DX2 analytically  !
 ! D103  D(33,22,32,21)       -178.1894         calculate D2E/DX2 analytically  !
 ! D104  D(33,22,32,35)          1.363          calculate D2E/DX2 analytically  !
 ! D105  D(9,22,33,23)          -0.703          calculate D2E/DX2 analytically  !
 ! D106  D(9,22,33,36)         179.7144         calculate D2E/DX2 analytically  !
 ! D107  D(32,22,33,23)        178.3219         calculate D2E/DX2 analytically  !
 ! D108  D(32,22,33,36)         -1.2607         calculate D2E/DX2 analytically  !
 ! D109  D(10,23,33,22)          0.1166         calculate D2E/DX2 analytically  !
 ! D110  D(10,23,33,36)        179.7013         calculate D2E/DX2 analytically  !
 ! D111  D(37,23,33,22)       -179.5527         calculate D2E/DX2 analytically  !
 ! D112  D(37,23,33,36)          0.0319         calculate D2E/DX2 analytically  !
 --------------------------------------------------------------------------------
 Trust Radius=3.00D-01 FncErr=1.00D-07 GrdErr=1.00D-06
 Number of steps in this run=    222 maximum allowed number of steps=    222.
 Search for a saddle point of order  1.
 GradGradGradGradGradGradGradGradGradGradGradGradGradGradGradGradGradGrad

                          Input orientation:                          
 ---------------------------------------------------------------------
 Center     Atomic      Atomic             Coordinates (Angstroms)
 Number     Number       Type             X           Y           Z
 ---------------------------------------------------------------------
      1          6           0       -1.798700    3.334070   -0.135570
      2          6           0       -0.549260    2.648750   -0.105950
      3          6           0       -0.531630    1.266810   -0.017610
      4          6           0       -3.030930    2.702980   -0.093100
      5          6           0       -3.071320    1.285900   -0.021040
      6          6           0       -1.823870    0.667760    0.016350
      7          6           0        0.457900    0.111610    0.010970
      8          6           0       -0.347540   -1.047950    0.034930
      9          6           0       -1.711440   -0.717030    0.047310
     10          6           0        0.034560   -2.396910    0.018010
     11          6           0        1.407230   -2.610100   -0.034070
     12          6           0        2.302580   -1.515410   -0.045870
     13          6           0        1.862010   -0.115680   -0.000040
     14          6           0        3.693680   -1.814650   -0.107440
     15          6           0        4.642780   -0.832060   -0.114990
     16          6           0        2.906440    0.880220    0.033650
     17          6           0        4.240740    0.513840   -0.033030
     18          1           0        0.356020    3.230920   -0.159420
     19          1           0       -1.772130    4.416610   -0.199160
     20          1           0       -3.943970    3.288090   -0.123650
     21          6           0       -4.201410    0.391910   -0.003070
     22          6           0       -2.765280   -1.604780    0.047140
     23          6           0       -1.047060   -3.365090    0.031320
     24          1           0        1.820950   -3.612700   -0.070870
     25          1           0        3.986030   -2.858350   -0.147660
     26          1           0        4.988570    1.296240   -0.003230
     27          1           0        5.697030   -1.076500   -0.166560
     28          6           0        2.680450    2.294200    0.176710
     29          6           0        2.800340    3.496850    0.026460
     30          1           0        2.806010    4.559870    0.051740
     31          1           0        1.843530    2.188040    1.891600
     32          6           0       -4.062310   -0.985030    0.029450
     33          6           0       -2.371530   -2.998860    0.046300
     34          1           0       -5.200890    0.814540   -0.022720
     35          1           0       -4.954000   -1.603380    0.034330
     36          1           0       -3.133350   -3.771590    0.050810
     37          1           0       -0.792370   -4.419880    0.023800
 ---------------------------------------------------------------------
                    Distance matrix (angstroms):
                    1          2          3          4          5
     1  C    0.000000
     2  C    1.425357   0.000000
     3  C    2.427539   1.384873   0.000000
     4  C    1.385088   2.482296   2.883537   0.000000
     5  C    2.414059   2.867988   2.539764   1.419486   0.000000
     6  C    2.670753   2.358794   1.424745   2.368775   1.392705
     7  C    3.936746   2.732237   1.521339   4.347179   3.719593
     8  C    4.619203   3.704879   2.322663   4.613724   3.587334
     9  C    4.056165   3.564074   2.309066   3.668411   2.421915
    10  C    6.019017   5.080836   3.707382   5.951340   4.817790
    11  C    6.754365   5.611464   4.334730   6.923118   5.936025
    12  C    6.351850   5.047458   3.971686   6.800248   6.060260
    13  C    5.031892   3.669811   2.764254   5.647510   5.128607
    14  C    7.528369   6.158286   5.230364   8.101208   7.442184
    15  C    7.671358   6.250872   5.584734   8.448835   8.000120
    16  C    5.309271   3.884463   3.460116   6.212156   5.991759
    17  C    6.666262   5.244736   4.831430   7.594283   7.352717
    18  H    2.157319   1.077642   2.160037   3.428491   3.943211
    19  H    1.084732   2.151611   3.390139   2.128933   3.394255
    20  H    2.145796   3.454436   3.967478   1.084864   2.186507
    21  C    3.800905   4.294428   3.772658   2.592137   1.441057
    22  C    5.035861   4.798614   3.638601   4.318221   2.907635
    23  C    6.743260   6.035969   4.660747   6.385350   5.072680
    24  H    7.833496   6.695139   5.417295   7.964236   6.923371
    25  H    8.474038   7.134336   6.119078   8.953720   8.185171
    26  H    7.087828   5.701526   5.520297   8.142443   8.059916
    27  H    8.697129   7.273053   6.656538   9.511422   9.082184
    28  C    4.608865   3.261385   3.377980   5.732343   5.842827
    29  C    4.604771   3.457835   4.009619   5.886275   6.274309
    30  H    4.768755   3.864593   4.689232   6.126899   6.728089
    31  H    4.323036   3.150858   3.183572   5.288153   5.350495
    32  C    4.879117   5.056106   4.187923   3.831472   2.478252
    33  C    6.361385   5.936274   4.645994   5.741535   4.342051
    34  H    4.235052   5.000891   4.691115   2.877479   2.181112
    35  H    5.862013   6.123889   5.272385   4.717963   3.448984
    36  H    7.232319   6.922634   5.670900   6.476979   5.058381
    37  H    7.820604   7.073999   5.692815   7.467259   6.144229
                    6          7          8          9         10
     6  C    0.000000
     7  C    2.348575   0.000000
     8  C    2.263527   1.412051   0.000000
     9  C    1.389691   2.322499   1.403526   0.000000
    10  C    3.584127   2.544001   1.402134   2.423091   0.000000
    11  C    4.602925   2.882874   2.350381   3.649170   1.390103
    12  C    4.668800   2.460339   2.692245   4.093709   2.434140
    13  C    3.768257   1.422430   2.398429   3.624005   2.922997
    14  C    6.051532   3.767595   4.115769   5.517612   3.707280
    15  C    6.639599   4.291806   4.997237   6.357333   4.868484
    16  C    4.735110   2.566442   3.782357   4.886329   4.357467
    17  C    6.066764   3.804419   4.847280   6.078646   5.115371
    18  H    3.369363   3.125621   4.340679   4.461327   5.639795
    19  H    3.755396   4.852856   5.652050   5.139912   7.052329
    20  H    3.373508   5.429973   5.635663   4.588508   6.940317
    21  C    2.393568   4.667755   4.114238   2.726213   5.071627
    22  C    2.460008   3.651875   2.481063   1.377926   2.909884
    23  C    4.107011   3.788504   2.420430   2.730179   1.451706
    24  H    5.622691   3.966748   3.360281   4.569097   2.162691
    25  H    6.798183   4.614491   4.700076   6.089699   3.981770
    26  H    6.841397   4.683003   5.828443   6.996138   6.179160
    27  H    7.722683   5.375091   6.047995   7.420269   5.817312
    28  C    4.791651   3.119439   4.512072   5.326626   5.388175
    29  C    5.420994   4.116687   5.528510   6.173603   6.510454
    30  H    6.048600   5.030139   6.433724   6.946441   7.488582
    31  H    4.390631   3.125428   4.326620   4.947590   5.272995
    32  C    2.782535   4.651372   3.715307   2.366164   4.333345
    33  C    3.707416   4.204991   2.811177   2.375388   2.480406
    34  H    3.380434   5.702381   5.198769   3.811413   6.142069
    35  H    3.867314   5.677182   4.639825   3.361544   5.051305
    36  H    4.628580   5.289415   3.896050   3.369299   3.453473
    37  H    5.191159   4.700823   3.401163   3.815277   2.185464
                   11         12         13         14         15
    11  C    0.000000
    12  C    1.414262   0.000000
    13  C    2.535767   1.468144   0.000000
    14  C    2.421978   1.424252   2.500610   0.000000
    15  C    3.692798   2.438910   2.873864   1.366137   0.000000
    16  C    3.799283   2.471844   1.443532   2.811046   2.443128
    17  C    4.217556   2.806151   2.460841   2.393048   1.407054
    18  H    5.936183   5.131241   3.673301   6.049831   5.906445
    19  H    7.714288   7.198307   5.812768   8.289276   8.288950
    20  H    7.964422   7.880295   6.731295   9.185419   9.524074
    21  C    6.361593   6.778022   6.084630   8.198308   8.929184
    22  C    4.292680   5.069501   4.861220   6.464217   7.450016
    23  C    2.568623   3.827187   4.361460   4.989763   6.229922
    24  H    1.085231   2.152026   3.497978   2.596428   3.961897
    25  H    2.593210   2.155888   3.472102   1.084618   2.130314
    26  H    5.299664   3.888668   3.430584   3.371237   2.159102
    27  H    4.557616   3.424836   3.957055   2.135830   1.083445
    28  C    5.071260   3.834769   2.551197   4.241465   3.702611
    29  C    6.264125   5.037435   3.732498   5.387766   4.706809
    30  H    7.305643   6.096884   4.770177   6.437997   5.698634
    31  H    5.188517   4.204766   2.980901   4.841564   4.580743
    32  C    5.706203   6.387394   5.987838   7.801435   8.707632
    33  C    3.799555   4.904735   5.122278   6.181647   7.343132
    34  H    7.442818   7.856925   7.123930   9.275408   9.980864
    35  H    6.440762   7.257556   6.976563   8.651422   9.628885
    36  H    4.687551   5.886343   6.190467   7.103731   8.314838
    37  H    2.849016   4.244940   5.056920   5.189325   6.514029
                   16         17         18         19         20
    16  C    0.000000
    17  C    1.385293   0.000000
    18  H    3.473861   4.742315   0.000000
    19  H    5.869350   7.170343   2.436486   0.000000
    20  H    7.262968   8.642578   4.300519   2.448703   0.000000
    21  C    7.124698   8.443084   5.371647   4.705110   2.910099
    22  C    6.192238   7.319788   5.759269   6.107712   5.035738
    23  C    5.801105   6.558282   6.746285   7.818804   7.258161
    24  H    4.623369   4.783842   6.999214   8.797528   8.992107
    25  H    3.895548   3.383738   7.089169   9.278152  10.033155
    26  H    2.123605   1.082722   5.022738   7.448635   9.152718
    27  H    3.414122   2.160507   6.861509   9.271660  10.583023
    28  C    1.439054   2.376589   2.528518   4.946855   6.705294
    29  C    2.618790   3.313101   2.465760   4.669512   6.749210
    30  H    3.681065   4.293716   2.795201   4.587248   6.870984
    31  H    2.508416   3.500537   2.739885   4.734005   6.226275
    32  C    7.214059   8.437485   6.109955   5.871533   4.277499
    33  C    6.550144   7.487821   6.803823   7.443704   6.482838
    34  H    8.107792   9.446423   6.061091   4.976187   2.776416
    35  H    8.243469   9.435592   7.183614   6.813156   4.997159
    36  H    7.623562   8.529311   7.826560   8.304338   7.108208
    37  H    6.463153   7.048193   7.738676   8.893436   8.328693
                   21         22         23         24         25
    21  C    0.000000
    22  C    2.460033   0.000000
    23  C    4.905727   2.459923   0.000000
    24  H    7.232587   5.007911   2.880492   0.000000
    25  H    8.810180   6.869467   5.061701   2.294017   0.000000
    26  H    9.234368   8.278928   7.626141   5.842609   4.276279
    27  H   10.008100   8.481476   7.124574   4.633084   2.470398
    28  C    7.142200   6.698866   6.778129   5.974237   5.325272
    29  C    7.659375   7.550045   7.866939   7.177352   6.467205
    30  H    8.153455   8.309164   8.812012   8.232635   7.514133
    31  H    6.584615   6.247291   6.530957   6.123756   5.849354
    32  C    1.384330   1.437599   3.841409   6.444180   8.265378
    33  C    3.853339   1.448620   1.374252   4.238799   6.362070
    34  H    1.085340   3.433684   5.892922   8.301145   9.894707
    35  H    2.132832   2.188758   4.285768   7.067417   9.029519
    36  H    4.298649   2.197852   2.125612   4.958341   7.180457
    37  H    5.897084   3.437689   1.085129   2.736776   5.029998
                   26         27         28         29         30
    26  H    0.000000
    27  H    2.481630   0.000000
    28  C    2.521055   4.536431   0.000000
    29  C    3.103533   5.416973   1.217914   0.000000
    30  H    3.926560   6.338321   2.272585   1.063336   0.000000
    31  H    3.778487   5.453687   1.911165   2.471278   3.152306
    32  C    9.334007   9.761737   7.499323   8.196537   8.827244
    33  C    8.521820   8.297134   7.318196   8.303185   9.161951
    34  H   10.200858  11.061708   8.021514   8.439010   8.839881
    35  H   10.356829  10.665946   8.572994   9.281282   9.909778
    36  H    9.573474   9.235062   8.402971   9.382936  10.231775
    37  H    8.129823   7.302516   7.560604   8.693802   9.673936
                   31         32         33         34         35
    31  H    0.000000
    32  C    6.958083   0.000000
    33  C    6.933671   2.629550   0.000000
    34  H    7.427986   2.130150   4.748901   0.000000
    35  H    8.001920   1.085123   2.935415   2.431162   0.000000
    36  H    7.979664   2.937404   1.085128   5.031174   2.831285
    37  H    7.355355   4.742440   2.124512   6.843710   5.025132
                   36         37
    36  H    0.000000
    37  H    2.429238   0.000000
 Stoichiometry    C24H13(2)
 Framework group  C1[X(C24H13)]
 Deg. of freedom   105
 Full point group                 C1      NOp   1
 Largest Abelian subgroup         C1      NOp   1
 Largest concise Abelian subgroup C1      NOp   1
                         Standard orientation:                         
 ---------------------------------------------------------------------
 Center     Atomic      Atomic             Coordinates (Angstroms)
 Number     Number       Type             X           Y           Z
 ---------------------------------------------------------------------
      1          6           0       -1.798697    3.334072   -0.135570
      2          6           0       -0.549257    2.648751   -0.105950
      3          6           0       -0.531629    1.266810   -0.017610
      4          6           0       -3.030927    2.702983   -0.093100
      5          6           0       -3.071319    1.285903   -0.021040
      6          6           0       -1.823869    0.667762    0.016350
      7          6           0        0.457900    0.111609    0.010970
      8          6           0       -0.347541   -1.047950    0.034930
      9          6           0       -1.711441   -0.717028    0.047310
     10          6           0        0.034557   -2.396910    0.018010
     11          6           0        1.407227   -2.610102   -0.034070
     12          6           0        2.302578   -1.515412   -0.045870
     13          6           0        1.862010   -0.115682   -0.000040
     14          6           0        3.693678   -1.814654   -0.107440
     15          6           0        4.642779   -0.832065   -0.114990
     16          6           0        2.906441    0.880217    0.033650
     17          6           0        4.240740    0.513835   -0.033030
     18          1           0        0.356023    3.230920   -0.159420
     19          1           0       -1.772125    4.416612   -0.199160
     20          1           0       -3.943967    3.288094   -0.123650
     21          6           0       -4.201410    0.391914   -0.003070
     22          6           0       -2.765282   -1.604777    0.047140
     23          6           0       -1.047064   -3.365089    0.031320
     24          1           0        1.820946   -3.612702   -0.070870
     25          1           0        3.986027   -2.858354   -0.147660
     26          1           0        4.988571    1.296235   -0.003230
     27          1           0        5.697029   -1.076506   -0.166560
     28          6           0        2.680452    2.294197    0.176710
     29          6           0        2.800344    3.496847    0.026460
     30          1           0        2.806015    4.559867    0.051740
     31          1           0        1.843532    2.188038    1.891600
     32          6           0       -4.062311   -0.985026    0.029450
     33          6           0       -2.371533   -2.998858    0.046300
     34          1           0       -5.200889    0.814545   -0.022720
     35          1           0       -4.954002   -1.603375    0.034330
     36          1           0       -3.133354   -3.771587    0.050810
     37          1           0       -0.792375   -4.419879    0.023800
 ---------------------------------------------------------------------
 Rotational constants (GHZ):      0.4077465      0.2345678      0.1493521
 Standard basis: 6-311+G(d,p) (5D, 7F)
 There are   630 symmetry adapted cartesian basis functions of A   symmetry.
 There are   606 symmetry adapted basis functions of A   symmetry.
   606 basis functions,   968 primitive gaussians,   630 cartesian basis functions
    79 alpha electrons       78 beta electrons
       nuclear repulsion energy      1801.5616558160 Hartrees.
 NAtoms=   37 NActive=   37 NUniq=   37 SFac= 1.00D+00 NAtFMM=   60 NAOKFM=F Big=F
 Integral buffers will be    131072 words long.
 Raffenetti 2 integral format.
 Two-electron integral symmetry is turned on.
 One-electron integrals computed using PRISM.
 NBasis=   606 RedAO= T EigKep=  1.36D-06  NBF=   606
 NBsUse=   589 1.00D-06 EigRej=  9.97D-07 NBFU=   589
 ExpMin= 4.38D-02 ExpMax= 4.56D+03 ExpMxC= 6.82D+02 IAcc=2 IRadAn=         4 AccDes= 0.00D+00
 Harris functional with IExCor=  402 and IRadAn=       4 diagonalized for initial guess.
 HarFok:  IExCor=  402 AccDes= 0.00D+00 IRadAn=         4 IDoV= 1 UseB2=F ITyADJ=14
 ICtDFT=  3500011 ScaDFX=  1.000000  1.000000  1.000000  1.000000
 FoFCou: FMM=F IPFlag=           0 FMFlag=      100000 FMFlg1=           0
         NFxFlg=           0 DoJE=T BraDBF=F KetDBF=T FulRan=T
         wScrn=  0.000000 ICntrl=     500 IOpCl=  0 I1Cent=   200000004 NGrid=           0
         NMat0=    1 NMatS0=      1 NMatT0=    0 NMatD0=    1 NMtDS0=    0 NMtDT0=    0
 Petite list used in FoFCou.
 Initial guess <Sx>= 0.0000 <Sy>= 0.0000 <Sz>= 0.5000 <S**2>= 0.7500 S= 0.5000
 Requested convergence on RMS density matrix=1.00D-08 within 128 cycles.
 Requested convergence on MAX density matrix=1.00D-06.
 Requested convergence on             energy=1.00D-06.
 No special actions if energy rises.
 Restarting incremental Fock formation.
 SCF Done:  E(UB3LYP) =  -922.443336843     A.U. after   27 cycles
            NFock= 27  Conv=0.53D-08     -V/T= 2.0044
 <Sx>= 0.0000 <Sy>= 0.0000 <Sz>= 0.5000 <S**2>= 0.7675 S= 0.5087
 <L.S>= 0.000000000000E+00
 Annihilation of the first spin contaminant:
 S**2 before annihilation     0.7675,   after     0.7501
 DoSCS=F DFT=T ScalE2(SS,OS)=  1.000000  1.000000
 Range of M.O.s used for correlation:     1   589
 NBasis=   606 NAE=    79 NBE=    78 NFC=     0 NFV=     0
 NROrb=    589 NOA=    79 NOB=    78 NVA=   510 NVB=   511

 **** Warning!!: The largest alpha MO coefficient is  0.13886920D+03


 **** Warning!!: The largest beta MO coefficient is  0.12902570D+03

 Symmetrizing basis deriv contribution to polar:
 IMax=3 JMax=2 DiffMx= 0.00D+00
 G2DrvN: will do    38 centers at a time, making    1 passes.
 Calling FoFCou, ICntrl=  3107 FMM=F I1Cent=   0 AccDes= 0.00D+00.
 End of G2Drv F.D. properties file   721 does not exist.
 End of G2Drv F.D. properties file   722 does not exist.
 End of G2Drv F.D. properties file   788 does not exist.
          IDoAtm=1111111111111111111111111111111111111
          Differentiating once with respect to nuclear coordinates.
          There are   114 degrees of freedom in the 1st order CPHF.  IDoFFX=6 NUNeed=     0.
    109 vectors produced by pass  0 Test12= 8.01D-14 1.00D-09 XBig12= 5.24D-01 1.45D-01.
 AX will form   109 AO Fock derivatives at one time.
    108 vectors produced by pass  1 Test12= 8.01D-14 1.00D-09 XBig12= 1.35D-01 4.85D-02.
    108 vectors produced by pass  2 Test12= 8.01D-14 1.00D-09 XBig12= 2.08D-03 4.80D-03.
    108 vectors produced by pass  3 Test12= 8.01D-14 1.00D-09 XBig12= 1.07D-05 4.11D-04.
    108 vectors produced by pass  4 Test12= 8.01D-14 1.00D-09 XBig12= 5.63D-08 2.47D-05.
    108 vectors produced by pass  5 Test12= 8.01D-14 1.00D-09 XBig12= 3.48D-10 1.51D-06.
    108 vectors produced by pass  6 Test12= 8.01D-14 1.00D-09 XBig12= 3.51D-11 4.88D-07.
    107 vectors produced by pass  7 Test12= 8.01D-14 1.00D-09 XBig12= 4.07D-12 1.13D-07.
     95 vectors produced by pass  8 Test12= 8.01D-14 1.00D-09 XBig12= 1.65D-13 2.51D-08.
     25 vectors produced by pass  9 Test12= 8.01D-14 1.00D-09 XBig12= 1.15D-15 1.62D-09.
     25 vectors produced by pass 10 Test12= 8.01D-14 1.00D-09 XBig12= 1.65D-14 7.99D-09.
     25 vectors produced by pass 11 Test12= 8.01D-14 1.00D-09 XBig12= 9.11D-13 5.56D-08.
     25 vectors produced by pass 12 Test12= 8.01D-14 1.00D-09 XBig12= 5.17D-13 4.63D-08.
     25 vectors produced by pass 13 Test12= 8.01D-14 1.00D-09 XBig12= 4.63D-13 3.22D-08.
     25 vectors produced by pass 14 Test12= 8.01D-14 1.00D-09 XBig12= 1.21D-13 1.65D-08.
     25 vectors produced by pass 15 Test12= 8.01D-14 1.00D-09 XBig12= 1.23D-13 1.50D-08.
     25 vectors produced by pass 16 Test12= 8.01D-14 1.00D-09 XBig12= 2.63D-13 2.68D-08.
     25 vectors produced by pass 17 Test12= 8.01D-14 1.00D-09 XBig12= 7.53D-14 1.08D-08.
     25 vectors produced by pass 18 Test12= 8.01D-14 1.00D-09 XBig12= 1.04D-13 1.73D-08.
     25 vectors produced by pass 19 Test12= 8.01D-14 1.00D-09 XBig12= 1.68D-13 2.24D-08.
     25 vectors produced by pass 20 Test12= 8.01D-14 1.00D-09 XBig12= 1.61D-13 2.18D-08.
     25 vectors produced by pass 21 Test12= 8.01D-14 1.00D-09 XBig12= 1.50D-13 1.72D-08.
     25 vectors produced by pass 22 Test12= 8.01D-14 1.00D-09 XBig12= 1.12D-13 1.50D-08.
     24 vectors produced by pass 23 Test12= 8.01D-14 1.00D-09 XBig12= 7.50D-14 1.30D-08.
     24 vectors produced by pass 24 Test12= 8.01D-14 1.00D-09 XBig12= 8.90D-14 1.30D-08.
     24 vectors produced by pass 25 Test12= 8.01D-14 1.00D-09 XBig12= 1.41D-13 1.50D-08.
     21 vectors produced by pass 26 Test12= 8.01D-14 1.00D-09 XBig12= 5.73D-14 1.09D-08.
     21 vectors produced by pass 27 Test12= 8.01D-14 1.00D-09 XBig12= 6.98D-14 1.19D-08.
     21 vectors produced by pass 28 Test12= 8.01D-14 1.00D-09 XBig12= 1.95D-13 2.15D-08.
     21 vectors produced by pass 29 Test12= 8.01D-14 1.00D-09 XBig12= 5.43D-14 9.83D-09.
     21 vectors produced by pass 30 Test12= 8.01D-14 1.00D-09 XBig12= 6.44D-14 1.26D-08.
     21 vectors produced by pass 31 Test12= 8.01D-14 1.00D-09 XBig12= 8.04D-14 1.10D-08.
     21 vectors produced by pass 32 Test12= 8.01D-14 1.00D-09 XBig12= 1.02D-13 1.31D-08.
     12 vectors produced by pass 33 Test12= 8.01D-14 1.00D-09 XBig12= 1.96D-14 6.79D-09.
     12 vectors produced by pass 34 Test12= 8.01D-14 1.00D-09 XBig12= 9.49D-14 1.21D-08.
     12 vectors produced by pass 35 Test12= 8.01D-14 1.00D-09 XBig12= 5.42D-14 1.08D-08.
     12 vectors produced by pass 36 Test12= 8.01D-14 1.00D-09 XBig12= 8.96D-14 1.39D-08.
     12 vectors produced by pass 37 Test12= 8.01D-14 1.00D-09 XBig12= 4.99D-14 9.44D-09.
     12 vectors produced by pass 38 Test12= 8.01D-14 1.00D-09 XBig12= 7.85D-14 1.14D-08.
     12 vectors produced by pass 39 Test12= 8.01D-14 1.00D-09 XBig12= 5.93D-14 1.02D-08.
      6 vectors produced by pass 40 Test12= 8.01D-14 1.00D-09 XBig12= 1.59D-14 5.57D-09.
      6 vectors produced by pass 41 Test12= 8.01D-14 1.00D-09 XBig12= 4.65D-14 8.62D-09.
      6 vectors produced by pass 42 Test12= 8.01D-14 1.00D-09 XBig12= 2.63D-14 6.23D-09.
      6 vectors produced by pass 43 Test12= 8.01D-14 1.00D-09 XBig12= 6.63D-14 1.02D-08.
      6 vectors produced by pass 44 Test12= 8.01D-14 1.00D-09 XBig12= 8.63D-14 1.21D-08.
      6 vectors produced by pass 45 Test12= 8.01D-14 1.00D-09 XBig12= 3.91D-14 8.24D-09.
      6 vectors produced by pass 46 Test12= 8.01D-14 1.00D-09 XBig12= 4.84D-14 9.03D-09.
      6 vectors produced by pass 47 Test12= 8.01D-14 1.00D-09 XBig12= 7.79D-14 1.23D-08.
      6 vectors produced by pass 48 Test12= 8.01D-14 1.00D-09 XBig12= 7.20D-14 1.06D-08.
      6 vectors produced by pass 49 Test12= 8.01D-14 1.00D-09 XBig12= 5.23D-14 8.61D-09.
      6 vectors produced by pass 50 Test12= 8.01D-14 1.00D-09 XBig12= 7.54D-14 1.12D-08.
      6 vectors produced by pass 51 Test12= 8.01D-14 1.00D-09 XBig12= 4.74D-14 9.10D-09.
      6 vectors produced by pass 52 Test12= 8.01D-14 1.00D-09 XBig12= 5.37D-14 9.08D-09.
      5 vectors produced by pass 53 Test12= 8.01D-14 1.00D-09 XBig12= 1.40D-14 4.44D-09.
      5 vectors produced by pass 54 Test12= 8.01D-14 1.00D-09 XBig12= 4.76D-14 8.78D-09.
      5 vectors produced by pass 55 Test12= 8.01D-14 1.00D-09 XBig12= 5.32D-14 9.88D-09.
      5 vectors produced by pass 56 Test12= 8.01D-14 1.00D-09 XBig12= 7.43D-14 1.09D-08.
      5 vectors produced by pass 57 Test12= 8.01D-14 1.00D-09 XBig12= 6.08D-14 1.08D-08.
      5 vectors produced by pass 58 Test12= 8.01D-14 1.00D-09 XBig12= 6.68D-14 1.21D-08.
      5 vectors produced by pass 59 Test12= 8.01D-14 1.00D-09 XBig12= 1.98D-14 5.65D-09.
      5 vectors produced by pass 60 Test12= 8.01D-14 1.00D-09 XBig12= 5.09D-14 1.07D-08.
      5 vectors produced by pass 61 Test12= 8.01D-14 1.00D-09 XBig12= 5.17D-14 9.11D-09.
      5 vectors produced by pass 62 Test12= 8.01D-14 1.00D-09 XBig12= 7.18D-14 9.97D-09.
      5 vectors produced by pass 63 Test12= 8.01D-14 1.00D-09 XBig12= 4.02D-14 9.39D-09.
      5 vectors produced by pass 64 Test12= 8.01D-14 1.00D-09 XBig12= 4.35D-14 8.14D-09.
      5 vectors produced by pass 65 Test12= 8.01D-14 1.00D-09 XBig12= 1.55D-14 4.67D-09.
      5 vectors produced by pass 66 Test12= 8.01D-14 1.00D-09 XBig12= 3.78D-14 7.16D-09.
      5 vectors produced by pass 67 Test12= 8.01D-14 1.00D-09 XBig12= 2.26D-14 5.55D-09.
      5 vectors produced by pass 68 Test12= 8.01D-14 1.00D-09 XBig12= 2.17D-14 6.10D-09.
      5 vectors produced by pass 69 Test12= 8.01D-14 1.00D-09 XBig12= 2.72D-14 6.24D-09.
      5 vectors produced by pass 70 Test12= 8.01D-14 1.00D-09 XBig12= 5.71D-14 1.08D-08.
      5 vectors produced by pass 71 Test12= 8.01D-14 1.00D-09 XBig12= 3.72D-14 6.75D-09.
      5 vectors produced by pass 72 Test12= 8.01D-14 1.00D-09 XBig12= 7.70D-14 9.58D-09.
      1 vectors produced by pass 73 Test12= 8.01D-14 1.00D-09 XBig12= 9.12D-15 3.59D-09.
 InvSVY:  IOpt=1 It=  1 EMax= 1.67D-15
 Solved reduced A of dimension  1791 with   114 vectors.
 End of Minotr F.D. properties file   721 does not exist.
 End of Minotr F.D. properties file   722 does not exist.
 End of Minotr F.D. properties file   788 does not exist.

 **********************************************************************

            Population analysis using the SCF density.

 **********************************************************************

 Orbital symmetries:
 Alpha Orbitals:
       Occupied  (A) (A) (A) (A) (A) (A) (A) (A) (A) (A) (A) (A)
                 (A) (A) (A) (A) (A) (A) (A) (A) (A) (A) (A) (A)
                 (A) (A) (A) (A) (A) (A) (A) (A) (A) (A) (A) (A)
                 (A) (A) (A) (A) (A) (A) (A) (A) (A) (A) (A) (A)
                 (A) (A) (A) (A) (A) (A) (A) (A) (A) (A) (A) (A)
                 (A) (A) (A) (A) (A) (A) (A) (A) (A) (A) (A) (A)
                 (A) (A) (A) (A) (A) (A) (A)
       Virtual   (A) (A) (A) (A) (A) (A) (A) (A) (A) (A) (A) (A)
                 (A) (A) (A) (A) (A) (A) (A) (A) (A) (A) (A) (A)
                 (A) (A) (A) (A) (A) (A) (A) (A) (A) (A) (A) (A)
                 (A) (A) (A) (A) (A) (A) (A) (A) (A) (A) (A) (A)
                 (A) (A) (A) (A) (A) (A) (A) (A) (A) (A) (A) (A)
                 (A) (A) (A) (A) (A) (A) (A) (A) (A) (A) (A) (A)
                 (A) (A) (A) (A) (A) (A) (A) (A) (A) (A) (A) (A)
                 (A) (A) (A) (A) (A) (A) (A) (A) (A) (A) (A) (A)
                 (A) (A) (A) (A) (A) (A) (A) (A) (A) (A) (A) (A)
                 (A) (A) (A) (A) (A) (A) (A) (A) (A) (A) (A) (A)
                 (A) (A) (A) (A) (A) (A) (A) (A) (A) (A) (A) (A)
                 (A) (A) (A) (A) (A) (A) (A) (A) (A) (A) (A) (A)
                 (A) (A) (A) (A) (A) (A) (A) (A) (A) (A) (A) (A)
                 (A) (A) (A) (A) (A) (A) (A) (A) (A) (A) (A) (A)
                 (A) (A) (A) (A) (A) (A) (A) (A) (A) (A) (A) (A)
                 (A) (A) (A) (A) (A) (A) (A) (A) (A) (A) (A) (A)
                 (A) (A) (A) (A) (A) (A) (A) (A) (A) (A) (A) (A)
                 (A) (A) (A) (A) (A) (A) (A) (A) (A) (A) (A) (A)
                 (A) (A) (A) (A) (A) (A) (A) (A) (A) (A) (A) (A)
                 (A) (A) (A) (A) (A) (A) (A) (A) (A) (A) (A) (A)
                 (A) (A) (A) (A) (A) (A) (A) (A) (A) (A) (A) (A)
                 (A) (A) (A) (A) (A) (A) (A) (A) (A) (A) (A) (A)
                 (A) (A) (A) (A) (A) (A) (A) (A) (A) (A) (A) (A)
                 (A) (A) (A) (A) (A) (A) (A) (A) (A) (A) (A) (A)
                 (A) (A) (A) (A) (A) (A) (A) (A) (A) (A) (A) (A)
                 (A) (A) (A) (A) (A) (A) (A) (A) (A) (A) (A) (A)
                 (A) (A) (A) (A) (A) (A) (A) (A) (A) (A) (A) (A)
                 (A) (A) (A) (A) (A) (A) (A) (A) (A) (A) (A) (A)
                 (A) (A) (A) (A) (A) (A) (A) (A) (A) (A) (A) (A)
                 (A) (A) (A) (A) (A) (A) (A) (A) (A) (A) (A) (A)
                 (A) (A) (A) (A) (A) (A) (A) (A) (A) (A) (A) (A)
                 (A) (A) (A) (A) (A) (A) (A) (A) (A) (A) (A) (A)
                 (A) (A) (A) (A) (A) (A) (A) (A) (A) (A) (A) (A)
                 (A) (A) (A) (A) (A) (A) (A) (A) (A) (A) (A) (A)
                 (A) (A) (A) (A) (A) (A) (A) (A) (A) (A) (A) (A)
                 (A) (A) (A) (A) (A) (A) (A) (A) (A) (A) (A) (A)
                 (A) (A) (A) (A) (A) (A) (A) (A) (A) (A) (A) (A)
                 (A) (A) (A) (A) (A) (A) (A) (A) (A) (A) (A) (A)
                 (A) (A) (A) (A) (A) (A) (A) (A) (A) (A) (A) (A)
                 (A) (A) (A) (A) (A) (A) (A) (A) (A) (A) (A) (A)
                 (A) (A) (A) (A) (A) (A) (A) (A) (A) (A) (A) (A)
                 (A) (A) (A) (A) (A) (A) (A) (A) (A) (A) (A) (A)
                 (A) (A) (A) (A) (A) (A)
 Beta  Orbitals:
       Occupied  (A) (A) (A) (A) (A) (A) (A) (A) (A) (A) (A) (A)
                 (A) (A) (A) (A) (A) (A) (A) (A) (A) (A) (A) (A)
                 (A) (A) (A) (A) (A) (A) (A) (A) (A) (A) (A) (A)
                 (A) (A) (A) (A) (A) (A) (A) (A) (A) (A) (A) (A)
                 (A) (A) (A) (A) (A) (A) (A) (A) (A) (A) (A) (A)
                 (A) (A) (A) (A) (A) (A) (A) (A) (A) (A) (A) (A)
                 (A) (A) (A) (A) (A) (A)
       Virtual   (A) (A) (A) (A) (A) (A) (A) (A) (A) (A) (A) (A)
                 (A) (A) (A) (A) (A) (A) (A) (A) (A) (A) (A) (A)
                 (A) (A) (A) (A) (A) (A) (A) (A) (A) (A) (A) (A)
                 (A) (A) (A) (A) (A) (A) (A) (A) (A) (A) (A) (A)
                 (A) (A) (A) (A) (A) (A) (A) (A) (A) (A) (A) (A)
                 (A) (A) (A) (A) (A) (A) (A) (A) (A) (A) (A) (A)
                 (A) (A) (A) (A) (A) (A) (A) (A) (A) (A) (A) (A)
                 (A) (A) (A) (A) (A) (A) (A) (A) (A) (A) (A) (A)
                 (A) (A) (A) (A) (A) (A) (A) (A) (A) (A) (A) (A)
                 (A) (A) (A) (A) (A) (A) (A) (A) (A) (A) (A) (A)
                 (A) (A) (A) (A) (A) (A) (A) (A) (A) (A) (A) (A)
                 (A) (A) (A) (A) (A) (A) (A) (A) (A) (A) (A) (A)
                 (A) (A) (A) (A) (A) (A) (A) (A) (A) (A) (A) (A)
                 (A) (A) (A) (A) (A) (A) (A) (A) (A) (A) (A) (A)
                 (A) (A) (A) (A) (A) (A) (A) (A) (A) (A) (A) (A)
                 (A) (A) (A) (A) (A) (A) (A) (A) (A) (A) (A) (A)
                 (A) (A) (A) (A) (A) (A) (A) (A) (A) (A) (A) (A)
                 (A) (A) (A) (A) (A) (A) (A) (A) (A) (A) (A) (A)
                 (A) (A) (A) (A) (A) (A) (A) (A) (A) (A) (A) (A)
                 (A) (A) (A) (A) (A) (A) (A) (A) (A) (A) (A) (A)
                 (A) (A) (A) (A) (A) (A) (A) (A) (A) (A) (A) (A)
                 (A) (A) (A) (A) (A) (A) (A) (A) (A) (A) (A) (A)
                 (A) (A) (A) (A) (A) (A) (A) (A) (A) (A) (A) (A)
                 (A) (A) (A) (A) (A) (A) (A) (A) (A) (A) (A) (A)
                 (A) (A) (A) (A) (A) (A) (A) (A) (A) (A) (A) (A)
                 (A) (A) (A) (A) (A) (A) (A) (A) (A) (A) (A) (A)
                 (A) (A) (A) (A) (A) (A) (A) (A) (A) (A) (A) (A)
                 (A) (A) (A) (A) (A) (A) (A) (A) (A) (A) (A) (A)
                 (A) (A) (A) (A) (A) (A) (A) (A) (A) (A) (A) (A)
                 (A) (A) (A) (A) (A) (A) (A) (A) (A) (A) (A) (A)
                 (A) (A) (A) (A) (A) (A) (A) (A) (A) (A) (A) (A)
                 (A) (A) (A) (A) (A) (A) (A) (A) (A) (A) (A) (A)
                 (A) (A) (A) (A) (A) (A) (A) (A) (A) (A) (A) (A)
                 (A) (A) (A) (A) (A) (A) (A) (A) (A) (A) (A) (A)
                 (A) (A) (A) (A) (A) (A) (A) (A) (A) (A) (A) (A)
                 (A) (A) (A) (A) (A) (A) (A) (A) (A) (A) (A) (A)
                 (A) (A) (A) (A) (A) (A) (A) (A) (A) (A) (A) (A)
                 (A) (A) (A) (A) (A) (A) (A) (A) (A) (A) (A) (A)
                 (A) (A) (A) (A) (A) (A) (A) (A) (A) (A) (A) (A)
                 (A) (A) (A) (A) (A) (A) (A) (A) (A) (A) (A) (A)
                 (A) (A) (A) (A) (A) (A) (A) (A) (A) (A) (A) (A)
                 (A) (A) (A) (A) (A) (A) (A) (A) (A) (A) (A) (A)
                 (A) (A) (A) (A) (A) (A) (A)
 The electronic state is 2-A.
 Alpha  occ. eigenvalues --  -10.21425 -10.21358 -10.20290 -10.20111 -10.20075
 Alpha  occ. eigenvalues --  -10.19594 -10.19464 -10.19425 -10.19320 -10.19256
 Alpha  occ. eigenvalues --  -10.19232 -10.19189 -10.19040 -10.19036 -10.18951
 Alpha  occ. eigenvalues --  -10.18916 -10.18613 -10.18601 -10.18553 -10.18501
 Alpha  occ. eigenvalues --  -10.18211 -10.17519 -10.16763 -10.16705  -0.91916
 Alpha  occ. eigenvalues --   -0.88579  -0.86073  -0.84113  -0.82116  -0.80579
 Alpha  occ. eigenvalues --   -0.79373  -0.76563  -0.75696  -0.73409  -0.72705
 Alpha  occ. eigenvalues --   -0.71909  -0.66592  -0.65034  -0.63421  -0.62997
 Alpha  occ. eigenvalues --   -0.60767  -0.59169  -0.57042  -0.55421  -0.53387
 Alpha  occ. eigenvalues --   -0.53162  -0.51621  -0.49944  -0.49422  -0.49253
 Alpha  occ. eigenvalues --   -0.47106  -0.46229  -0.44759  -0.44107  -0.43565
 Alpha  occ. eigenvalues --   -0.43472  -0.42593  -0.42144  -0.41009  -0.40624
 Alpha  occ. eigenvalues --   -0.40330  -0.39378  -0.38136  -0.37736  -0.35925
 Alpha  occ. eigenvalues --   -0.35546  -0.35451  -0.34631  -0.33791  -0.33496
 Alpha  occ. eigenvalues --   -0.31924  -0.30240  -0.29820  -0.27550  -0.26769
 Alpha  occ. eigenvalues --   -0.23364  -0.23107  -0.22805  -0.21149
 Alpha virt. eigenvalues --   -0.09681  -0.05278  -0.04536  -0.02666  -0.00321
 Alpha virt. eigenvalues --   -0.00128   0.00232   0.00862   0.00952   0.01686
 Alpha virt. eigenvalues --    0.01816   0.02265   0.03148   0.03389   0.03632
 Alpha virt. eigenvalues --    0.03935   0.04103   0.04799   0.05123   0.05719
 Alpha virt. eigenvalues --    0.06025   0.06216   0.06564   0.06894   0.07628
 Alpha virt. eigenvalues --    0.08105   0.08421   0.08484   0.08695   0.09197
 Alpha virt. eigenvalues --    0.09593   0.10019   0.10795   0.11050   0.11389
 Alpha virt. eigenvalues --    0.11531   0.11857   0.12654   0.12872   0.13220
 Alpha virt. eigenvalues --    0.13484   0.14108   0.14130   0.14463   0.14743
 Alpha virt. eigenvalues --    0.14962   0.15453   0.15729   0.15855   0.16298
 Alpha virt. eigenvalues --    0.16800   0.16905   0.17141   0.17469   0.17560
 Alpha virt. eigenvalues --    0.17938   0.18362   0.18615   0.18782   0.18864
 Alpha virt. eigenvalues --    0.19020   0.19377   0.19499   0.19872   0.20371
 Alpha virt. eigenvalues --    0.20438   0.20750   0.21306   0.21497   0.21706
 Alpha virt. eigenvalues --    0.22055   0.22272   0.22663   0.22975   0.23191
 Alpha virt. eigenvalues --    0.23549   0.23835   0.24003   0.24315   0.24517
 Alpha virt. eigenvalues --    0.24665   0.24960   0.25151   0.25344   0.25650
 Alpha virt. eigenvalues --    0.25811   0.26191   0.26505   0.26644   0.27324
 Alpha virt. eigenvalues --    0.28203   0.28380   0.28723   0.29004   0.29626
 Alpha virt. eigenvalues --    0.29710   0.30055   0.30436   0.30720   0.31484
 Alpha virt. eigenvalues --    0.31991   0.32112   0.32375   0.32945   0.33326
 Alpha virt. eigenvalues --    0.33654   0.33908   0.34212   0.35347   0.35791
 Alpha virt. eigenvalues --    0.36342   0.37150   0.37338   0.38953   0.39151
 Alpha virt. eigenvalues --    0.39828   0.40358   0.41363   0.41678   0.42800
 Alpha virt. eigenvalues --    0.43508   0.44053   0.45353   0.46172   0.46391
 Alpha virt. eigenvalues --    0.47197   0.48343   0.48592   0.49629   0.50293
 Alpha virt. eigenvalues --    0.50934   0.51713   0.52316   0.52765   0.53491
 Alpha virt. eigenvalues --    0.53703   0.53891   0.54512   0.54667   0.55016
 Alpha virt. eigenvalues --    0.55810   0.55978   0.56671   0.57276   0.57414
 Alpha virt. eigenvalues --    0.57692   0.58239   0.58354   0.58908   0.59460
 Alpha virt. eigenvalues --    0.59713   0.60440   0.60922   0.61357   0.62002
 Alpha virt. eigenvalues --    0.62371   0.63384   0.63878   0.64078   0.64377
 Alpha virt. eigenvalues --    0.65108   0.65194   0.65599   0.66030   0.66445
 Alpha virt. eigenvalues --    0.66902   0.67484   0.67880   0.68213   0.68704
 Alpha virt. eigenvalues --    0.69249   0.69766   0.70639   0.71305   0.71458
 Alpha virt. eigenvalues --    0.71925   0.72177   0.72400   0.73278   0.73585
 Alpha virt. eigenvalues --    0.73929   0.74306   0.75212   0.75644   0.76205
 Alpha virt. eigenvalues --    0.76417   0.76729   0.77625   0.78098   0.80197
 Alpha virt. eigenvalues --    0.80782   0.80961   0.81706   0.82978   0.84206
 Alpha virt. eigenvalues --    0.84806   0.85423   0.86174   0.87604   0.87961
 Alpha virt. eigenvalues --    0.88357   0.89611   0.90333   0.90449   0.91424
 Alpha virt. eigenvalues --    0.92170   0.92598   0.93523   0.94528   0.94872
 Alpha virt. eigenvalues --    0.95050   0.95268   0.95553   0.95996   0.96538
 Alpha virt. eigenvalues --    0.96730   0.97131   0.98211   0.98500   0.98996
 Alpha virt. eigenvalues --    1.00366   1.00609   1.01523   1.01645   1.02140
 Alpha virt. eigenvalues --    1.03282   1.04027   1.04306   1.04812   1.05463
 Alpha virt. eigenvalues --    1.05756   1.06895   1.07270   1.08230   1.08464
 Alpha virt. eigenvalues --    1.10065   1.10864   1.11184   1.11762   1.13328
 Alpha virt. eigenvalues --    1.13565   1.15014   1.15496   1.16168   1.16777
 Alpha virt. eigenvalues --    1.17352   1.18820   1.19950   1.20498   1.22022
 Alpha virt. eigenvalues --    1.25457   1.26968   1.28846   1.30431   1.31543
 Alpha virt. eigenvalues --    1.33265   1.34470   1.37078   1.37500   1.39592
 Alpha virt. eigenvalues --    1.40068   1.40778   1.40960   1.43234   1.44867
 Alpha virt. eigenvalues --    1.45829   1.46454   1.47242   1.47559   1.47958
 Alpha virt. eigenvalues --    1.48634   1.48927   1.49202   1.50242   1.50578
 Alpha virt. eigenvalues --    1.51412   1.52459   1.53984   1.55351   1.55557
 Alpha virt. eigenvalues --    1.56012   1.56212   1.57080   1.57459   1.58091
 Alpha virt. eigenvalues --    1.59048   1.60392   1.61946   1.62217   1.63573
 Alpha virt. eigenvalues --    1.65524   1.65836   1.66527   1.68161   1.69108
 Alpha virt. eigenvalues --    1.69856   1.70198   1.71021   1.72647   1.73258
 Alpha virt. eigenvalues --    1.74138   1.74386   1.74592   1.75811   1.76666
 Alpha virt. eigenvalues --    1.77456   1.79227   1.79576   1.80722   1.81310
 Alpha virt. eigenvalues --    1.82074   1.82600   1.82661   1.84511   1.84997
 Alpha virt. eigenvalues --    1.85848   1.86726   1.87032   1.87877   1.88760
 Alpha virt. eigenvalues --    1.88817   1.90393   1.90871   1.91469   1.92332
 Alpha virt. eigenvalues --    1.92755   1.93131   1.94178   1.94992   1.95933
 Alpha virt. eigenvalues --    1.97220   1.97656   1.98251   1.99669   1.99738
 Alpha virt. eigenvalues --    2.00645   2.01935   2.02692   2.03362   2.04174
 Alpha virt. eigenvalues --    2.05107   2.05781   2.06655   2.06839   2.09265
 Alpha virt. eigenvalues --    2.11447   2.11901   2.13443   2.14310   2.15042
 Alpha virt. eigenvalues --    2.16660   2.18635   2.19187   2.19524   2.21841
 Alpha virt. eigenvalues --    2.23360   2.24770   2.24971   2.26953   2.27553
 Alpha virt. eigenvalues --    2.28639   2.32914   2.34850   2.35641   2.38033
 Alpha virt. eigenvalues --    2.39281   2.41173   2.41553   2.42827   2.44536
 Alpha virt. eigenvalues --    2.44847   2.46264   2.46650   2.47840   2.49982
 Alpha virt. eigenvalues --    2.55094   2.55773   2.57205   2.57875   2.58312
 Alpha virt. eigenvalues --    2.59519   2.62169   2.62758   2.64578   2.65674
 Alpha virt. eigenvalues --    2.66730   2.67815   2.69400   2.69798   2.71180
 Alpha virt. eigenvalues --    2.71513   2.72031   2.72915   2.73106   2.73461
 Alpha virt. eigenvalues --    2.74277   2.74819   2.74983   2.75418   2.75793
 Alpha virt. eigenvalues --    2.76094   2.76422   2.76933   2.77089   2.78279
 Alpha virt. eigenvalues --    2.79607   2.80533   2.81958   2.82624   2.83404
 Alpha virt. eigenvalues --    2.83944   2.84568   2.85380   2.86145   2.87350
 Alpha virt. eigenvalues --    2.88218   2.89748   2.90516   2.90837   2.91552
 Alpha virt. eigenvalues --    2.92113   2.93349   2.94533   2.98046   2.99871
 Alpha virt. eigenvalues --    3.01104   3.02264   3.04660   3.05479   3.07593
 Alpha virt. eigenvalues --    3.10000   3.12405   3.12877   3.14679   3.14941
 Alpha virt. eigenvalues --    3.17707   3.20183   3.22295   3.23283   3.24014
 Alpha virt. eigenvalues --    3.25859   3.29503   3.32978   3.35029   3.36210
 Alpha virt. eigenvalues --    3.38270   3.39058   3.41489   3.42379   3.43714
 Alpha virt. eigenvalues --    3.45063   3.46057   3.46903   3.47312   3.49630
 Alpha virt. eigenvalues --    3.51303   3.52345   3.54714   3.56727   3.57768
 Alpha virt. eigenvalues --    3.62138   3.63916   3.66163   3.71544   3.76096
 Alpha virt. eigenvalues --    3.82804   3.84149   3.87864   4.02208   4.04928
 Alpha virt. eigenvalues --    4.06543   4.06880   4.07301   4.08868   4.15464
 Alpha virt. eigenvalues --    4.23639   4.27071   4.30273   4.37407   4.58810
 Alpha virt. eigenvalues --    4.76329   4.77521   4.78794   4.80974   4.85423
 Alpha virt. eigenvalues --    4.87811  23.39918  23.55438  23.67213  23.76703
 Alpha virt. eigenvalues --   23.82322  23.83339  23.85716  23.90972  23.93924
 Alpha virt. eigenvalues --   23.94148  23.98578  23.99332  24.00050  24.06368
 Alpha virt. eigenvalues --   24.08648  24.09319  24.10511  24.12432  24.14045
 Alpha virt. eigenvalues --   24.14966  24.16558  24.19476  24.21049  24.99514
  Beta  occ. eigenvalues --  -10.21388 -10.21334 -10.20279 -10.20235 -10.20095
  Beta  occ. eigenvalues --  -10.19597 -10.19458 -10.19420 -10.19331 -10.19277
  Beta  occ. eigenvalues --  -10.19254 -10.19189 -10.19070 -10.19039 -10.18949
  Beta  occ. eigenvalues --  -10.18915 -10.18611 -10.18537 -10.18497 -10.18212
  Beta  occ. eigenvalues --  -10.18112 -10.17527 -10.16761 -10.16704  -0.91913
  Beta  occ. eigenvalues --   -0.88583  -0.86069  -0.84111  -0.82093  -0.80528
  Beta  occ. eigenvalues --   -0.79329  -0.76508  -0.75365  -0.73386  -0.72705
  Beta  occ. eigenvalues --   -0.71764  -0.66593  -0.64970  -0.63409  -0.62938
  Beta  occ. eigenvalues --   -0.60719  -0.59151  -0.57038  -0.55225  -0.53384
  Beta  occ. eigenvalues --   -0.53034  -0.51575  -0.49928  -0.49390  -0.49249
  Beta  occ. eigenvalues --   -0.47101  -0.46192  -0.44757  -0.44106  -0.43561
  Beta  occ. eigenvalues --   -0.43413  -0.42586  -0.42143  -0.40972  -0.40430
  Beta  occ. eigenvalues --   -0.40257  -0.39362  -0.37995  -0.37463  -0.35742
  Beta  occ. eigenvalues --   -0.35456  -0.35061  -0.34011  -0.33788  -0.33472
  Beta  occ. eigenvalues --   -0.31480  -0.29881  -0.29561  -0.27343  -0.26351
  Beta  occ. eigenvalues --   -0.23264  -0.23046  -0.21033
  Beta virt. eigenvalues --   -0.09697  -0.07938  -0.05139  -0.04140  -0.02624
  Beta virt. eigenvalues --   -0.00123  -0.00011   0.00245   0.00909   0.01068
  Beta virt. eigenvalues --    0.01692   0.01882   0.02308   0.03161   0.03457
  Beta virt. eigenvalues --    0.03659   0.03965   0.04124   0.04827   0.05143
  Beta virt. eigenvalues --    0.05758   0.06043   0.06214   0.06624   0.07007
  Beta virt. eigenvalues --    0.07702   0.08142   0.08456   0.08555   0.08754
  Beta virt. eigenvalues --    0.09413   0.09615   0.10121   0.10866   0.11128
  Beta virt. eigenvalues --    0.11481   0.11651   0.11911   0.12754   0.12928
  Beta virt. eigenvalues --    0.13225   0.13608   0.14162   0.14236   0.14524
  Beta virt. eigenvalues --    0.14896   0.15137   0.15482   0.15811   0.16073
  Beta virt. eigenvalues --    0.16345   0.16853   0.16992   0.17259   0.17480
  Beta virt. eigenvalues --    0.17742   0.18026   0.18407   0.18696   0.18807
  Beta virt. eigenvalues --    0.18884   0.19068   0.19461   0.19569   0.19917
  Beta virt. eigenvalues --    0.20440   0.20463   0.20769   0.21326   0.21542
  Beta virt. eigenvalues --    0.21753   0.22234   0.22288   0.22680   0.22984
  Beta virt. eigenvalues --    0.23212   0.23651   0.24011   0.24033   0.24323
  Beta virt. eigenvalues --    0.24568   0.24701   0.24959   0.25218   0.25345
  Beta virt. eigenvalues --    0.25739   0.25821   0.26188   0.26512   0.26737
  Beta virt. eigenvalues --    0.27345   0.28244   0.28532   0.28823   0.29105
  Beta virt. eigenvalues --    0.29672   0.29768   0.30072   0.30509   0.30815
  Beta virt. eigenvalues --    0.31529   0.32182   0.32254   0.32375   0.32998
  Beta virt. eigenvalues --    0.33368   0.33673   0.33944   0.34250   0.35406
  Beta virt. eigenvalues --    0.35820   0.36354   0.37178   0.37464   0.39100
  Beta virt. eigenvalues --    0.39275   0.39847   0.40352   0.41456   0.41741
  Beta virt. eigenvalues --    0.42910   0.43526   0.44126   0.45509   0.46237
  Beta virt. eigenvalues --    0.46518   0.47951   0.48612   0.49299   0.49783
  Beta virt. eigenvalues --    0.50456   0.51320   0.52211   0.52357   0.53052
  Beta virt. eigenvalues --    0.53491   0.53736   0.53961   0.54522   0.54765
  Beta virt. eigenvalues --    0.55470   0.55812   0.56090   0.56707   0.57316
  Beta virt. eigenvalues --    0.57562   0.57728   0.58251   0.58390   0.59348
  Beta virt. eigenvalues --    0.59506   0.59810   0.60609   0.61070   0.61482
  Beta virt. eigenvalues --    0.62004   0.62392   0.63427   0.63950   0.64117
  Beta virt. eigenvalues --    0.64567   0.65104   0.65246   0.65687   0.66127
  Beta virt. eigenvalues --    0.66518   0.66930   0.67504   0.67879   0.68323
  Beta virt. eigenvalues --    0.69009   0.69258   0.69897   0.70632   0.71346
  Beta virt. eigenvalues --    0.71508   0.71906   0.72211   0.72399   0.73346
  Beta virt. eigenvalues --    0.73828   0.73964   0.74300   0.75243   0.75751
  Beta virt. eigenvalues --    0.76219   0.76573   0.76795   0.77702   0.78151
  Beta virt. eigenvalues --    0.80189   0.80799   0.81179   0.81746   0.83037
  Beta virt. eigenvalues --    0.84326   0.84865   0.85469   0.86264   0.87608
  Beta virt. eigenvalues --    0.88054   0.88399   0.89670   0.90442   0.90644
  Beta virt. eigenvalues --    0.91541   0.92196   0.92718   0.93569   0.94549
  Beta virt. eigenvalues --    0.94907   0.95049   0.95276   0.95555   0.96033
  Beta virt. eigenvalues --    0.96536   0.96756   0.97184   0.98227   0.98548
  Beta virt. eigenvalues --    0.99009   1.00392   1.00639   1.01530   1.01677
  Beta virt. eigenvalues --    1.02245   1.03298   1.04094   1.04454   1.04851
  Beta virt. eigenvalues --    1.05625   1.05870   1.06943   1.07310   1.08376
  Beta virt. eigenvalues --    1.08521   1.10125   1.10876   1.11250   1.11873
  Beta virt. eigenvalues --    1.13355   1.13659   1.15058   1.15672   1.16188
  Beta virt. eigenvalues --    1.16818   1.17416   1.19085   1.20200   1.20774
  Beta virt. eigenvalues --    1.22071   1.25848   1.27130   1.29963   1.30461
  Beta virt. eigenvalues --    1.31633   1.33767   1.34563   1.37547   1.37753
  Beta virt. eigenvalues --    1.39868   1.40343   1.40976   1.43301   1.43914
  Beta virt. eigenvalues --    1.45286   1.46548   1.47271   1.47450   1.47780
  Beta virt. eigenvalues --    1.48414   1.48942   1.49062   1.49713   1.50486
  Beta virt. eigenvalues --    1.50603   1.51615   1.52630   1.54403   1.55579
  Beta virt. eigenvalues --    1.55981   1.56118   1.56737   1.57221   1.57744
  Beta virt. eigenvalues --    1.59058   1.60554   1.61532   1.62309   1.63148
  Beta virt. eigenvalues --    1.64212   1.65724   1.65999   1.67040   1.68781
  Beta virt. eigenvalues --    1.69358   1.70024   1.70401   1.71600   1.72776
  Beta virt. eigenvalues --    1.73542   1.74137   1.74440   1.74624   1.75921
  Beta virt. eigenvalues --    1.76700   1.77605   1.80015   1.80370   1.81099
  Beta virt. eigenvalues --    1.81673   1.82158   1.82653   1.83225   1.84512
  Beta virt. eigenvalues --    1.85520   1.85995   1.86857   1.87268   1.88696
  Beta virt. eigenvalues --    1.88921   1.89018   1.90561   1.90893   1.91625
  Beta virt. eigenvalues --    1.92409   1.93077   1.93704   1.94209   1.95634
  Beta virt. eigenvalues --    1.96126   1.97286   1.97928   1.98617   1.99732
  Beta virt. eigenvalues --    2.00480   2.00941   2.02166   2.02752   2.03594
  Beta virt. eigenvalues --    2.04348   2.05299   2.05816   2.06672   2.06898
  Beta virt. eigenvalues --    2.09431   2.11455   2.11917   2.13473   2.14468
  Beta virt. eigenvalues --    2.15167   2.16792   2.18674   2.19215   2.19526
  Beta virt. eigenvalues --    2.21848   2.23387   2.24804   2.25010   2.26978
  Beta virt. eigenvalues --    2.27591   2.28687   2.32966   2.34862   2.35673
  Beta virt. eigenvalues --    2.38186   2.39337   2.41232   2.41577   2.42852
  Beta virt. eigenvalues --    2.44637   2.44858   2.46340   2.46662   2.47899
  Beta virt. eigenvalues --    2.50831   2.55287   2.56699   2.57841   2.58300
  Beta virt. eigenvalues --    2.59511   2.62060   2.62396   2.64139   2.64631
  Beta virt. eigenvalues --    2.66176   2.67156   2.67987   2.69715   2.70116
  Beta virt. eigenvalues --    2.71284   2.71979   2.72034   2.73034   2.73179
  Beta virt. eigenvalues --    2.73701   2.74613   2.74827   2.75222   2.75544
  Beta virt. eigenvalues --    2.75801   2.76262   2.76519   2.77090   2.77469
  Beta virt. eigenvalues --    2.78282   2.79844   2.80598   2.81973   2.82946
  Beta virt. eigenvalues --    2.83423   2.84010   2.84599   2.85392   2.86351
  Beta virt. eigenvalues --    2.87408   2.88228   2.89780   2.90526   2.90867
  Beta virt. eigenvalues --    2.91632   2.92233   2.93474   2.94574   2.98124
  Beta virt. eigenvalues --    2.99991   3.01339   3.02648   3.04738   3.06216
  Beta virt. eigenvalues --    3.07631   3.10017   3.12356   3.12846   3.14644
  Beta virt. eigenvalues --    3.14842   3.17898   3.20182   3.22304   3.23389
  Beta virt. eigenvalues --    3.24083   3.25865   3.29495   3.33004   3.35035
  Beta virt. eigenvalues --    3.36206   3.38283   3.39082   3.41557   3.42494
  Beta virt. eigenvalues --    3.43803   3.45094   3.46092   3.46914   3.47519
  Beta virt. eigenvalues --    3.49686   3.51322   3.52377   3.54745   3.56731
  Beta virt. eigenvalues --    3.57788   3.62137   3.63916   3.66148   3.71541
  Beta virt. eigenvalues --    3.76097   3.82805   3.84149   3.87868   4.02211
  Beta virt. eigenvalues --    4.04921   4.06540   4.06880   4.07299   4.08847
  Beta virt. eigenvalues --    4.15469   4.23633   4.27079   4.30284   4.37413
  Beta virt. eigenvalues --    4.58823   4.76330   4.77522   4.78797   4.80967
  Beta virt. eigenvalues --    4.85424   4.87812  23.39925  23.55521  23.67265
  Beta virt. eigenvalues --   23.76714  23.82323  23.83338  23.85728  23.90974
  Beta virt. eigenvalues --   23.93938  23.94159  23.98584  23.99333  24.00051
  Beta virt. eigenvalues --   24.06363  24.08641  24.09317  24.10514  24.12432
  Beta virt. eigenvalues --   24.14043  24.14967  24.16560  24.19469  24.21050
  Beta virt. eigenvalues --   24.99740
          Condensed to atoms (all electrons):
               1          2          3          4          5          6
     1  C   10.963421  -2.091116  -2.047709  -0.450885   0.339503   1.336748
     2  C   -2.091116  10.051197  -0.260334  -1.316742   0.130445  -1.080971
     3  C   -2.047709  -0.260334   8.522472   1.860129  -0.933268   0.096855
     4  C   -0.450885  -1.316742   1.860129  11.357843  -2.333480  -1.379086
     5  C    0.339503   0.130445  -0.933268  -2.333480   9.547161   0.615841
     6  C    1.336748  -1.080971   0.096855  -1.379086   0.615841   6.832717
     7  C   -1.367227   0.272923   0.600253   0.033665  -0.282764  -0.244676
     8  C    0.076061  -0.530113  -0.240544   0.194948   0.458693   0.025738
     9  C   -0.182925  -0.137888  -0.015355  -0.559041   0.421797   0.439528
    10  C   -0.149875   0.206387  -0.427580  -0.210567  -0.578808   0.305455
    11  C   -0.085621   0.039458  -0.218601  -0.005324  -0.114859  -0.086267
    12  C    0.031698  -0.068068  -0.311019  -0.118311   0.066090  -0.303090
    13  C   -0.267951  -0.492180   0.947578   0.183886  -0.067101   0.118584
    14  C    0.073603   0.089734   0.630123  -0.024744   0.063327   0.026132
    15  C   -0.027178  -0.015762  -0.002831   0.003952   0.001730  -0.065093
    16  C    0.106406   0.454130   0.203920  -0.066846  -0.064889  -0.244147
    17  C    0.065527   0.334459  -0.996953  -0.011738  -0.084540  -0.187681
    18  H   -0.045977   0.366081  -0.019587  -0.023651  -0.030456   0.068728
    19  H    0.371822  -0.060150   0.056343  -0.003212  -0.026807   0.003794
    20  H    0.053239  -0.044679  -0.013970   0.356164  -0.070026   0.046528
    21  C   -0.102264   0.165581  -0.522733  -0.945914  -0.650473  -0.042790
    22  C    0.253812  -0.129652  -0.105189  -0.137363   0.440411   0.212162
    23  C    0.106661  -0.245409  -0.200953  -0.131145   0.061300  -0.320271
    24  H    0.000015   0.000213  -0.000085  -0.000073  -0.000585   0.001984
    25  H   -0.000061  -0.000824  -0.000949   0.000001   0.000021   0.000177
    26  H    0.000243   0.001406   0.000427  -0.000010   0.000030  -0.000217
    27  H   -0.000001  -0.000082  -0.000296  -0.000002  -0.000006   0.000050
    28  C   -0.284942   0.225647   0.250247   0.049143  -0.099508   0.125474
[...]
 0023151,0.00538931,0.00507376,-0.00039231,-0.01985928,0.00791271,0.000
 20113,0.03411393,-0.02145628,0.00025372,-0.05665326,-0.02167209,0.0013
 0733,0.01797222,-0.00021480,-0.00048985,-0.00708064,-0.00818759,0.0002
 2934,-0.00704098,0.00335631,0.00024491,0.00474835,0.00025123,-0.000264
 81,-0.00084897,-0.00427933,-0.00019680,0.00260575,0.00140744,-0.000018
 51,-0.00268038,0.00231575,0.00020474,-0.00011498,-0.00009305,0.0000079
 0,0.00008788,-0.00000080,0.00000994,-0.00006566,-0.00007562,-0.0000106
 8,-0.00723763,-0.00834316,0.00012040,-0.11570945,0.00728443,-0.0002575
 7,-0.36556915,0.08699234,0.00433995,0.00003832,0.00035961,-0.00004873,
 0.00002647,0.00009162,0.00000115,-0.00005484,0.00003497,0.00002511,-0.
 00009374,-0.00009423,0.00000857,-0.00013806,0.00010311,0.00023116,0.00
 013725,-0.00027506,-0.00008282,-0.00004291,0.00002806,-0.00002224,0.00
 003369,-0.00008061,-0.00006367,-0.00803264,0.03884825,-0.00023276,0.72
 059808,-0.00173641,-0.00050561,0.00004256,0.00028151,-0.00083048,0.000
 08098,0.00075042,-0.00157108,-0.00012293,0.00136571,0.00234829,-0.0001
 1462,-0.00605995,-0.00510467,0.00018436,-0.00282383,-0.00210806,-0.000
 00169,-0.00737494,-0.00386188,0.00031367,0.01770990,-0.00338482,-0.000
 20588,-0.02920487,-0.04466324,0.00036831,0.00070526,0.02889307,-0.0000
 6964,-0.01620328,-0.00816917,0.00035099,0.00525659,0.00862310,-0.00018
 317,0.00794174,-0.00320599,-0.00017317,-0.00502986,-0.00119270,0.00023
 730,0.00104562,0.00449828,0.00020557,-0.00346713,-0.00158327,0.0001331
 4,0.00294542,-0.00309698,-0.00025575,0.00003450,-0.00007545,0.00001518
 ,-0.00001031,0.00002737,-0.00001513,0.00002138,0.00002453,0.00000841,0
 .00194545,0.01344323,-0.00036038,0.03206658,-0.23193120,0.00031147,0.0
 4203214,-0.14126100,-0.00112521,-0.00037782,-0.00010545,0.00007160,0.0
 0001443,-0.00007054,0.00000225,0.00005371,-0.00004279,-0.00005355,-0.0
 0000737,0.00004145,-0.00000381,-0.00004804,0.00020396,-0.00014728,-0.0
 0000212,-0.00006222,0.00005538,0.00000057,-0.00000788,0.00000177,-0.00
 001261,0.00002267,0.00003443,0.01717219,-0.01760350,0.00022184,0.04750
 915,0.61456030,0.00003587,0.00001126,0.00023663,-0.00003940,0.00001493
 ,-0.00024515,-0.00002795,-0.00012253,-0.00063242,0.00000850,-0.0000599
 2,-0.00067679,0.00003064,-0.00003344,-0.00124842,-0.00005940,0.0004164
 9,0.00742201,-0.00007514,-0.00004094,-0.00030161,0.00026162,-0.0002192
 5,-0.00222108,-0.00039450,-0.00032347,0.00490698,0.00098758,0.00052148
 ,0.00400140,-0.00010053,-0.00006469,0.00393129,0.00007107,0.00015681,0
 .00036780,0.00009846,-0.00005243,-0.00021415,-0.00007298,0.00000466,-0
 .00060010,0.00000025,0.00003550,0.00013288,-0.00001156,-0.00005871,0.0
 0032477,0.00001433,0.00001175,-0.00008353,-0.00001417,-0.00001587,-0.0
 0008853,0.00000272,-0.00000147,-0.00002015,0.00000245,0.00000232,0.000
 07933,-0.00013001,0.00005236,0.00468158,0.00030411,0.00028742,-0.05979
 640,0.00369314,-0.00154049,-0.05802416,-0.00003080,0.00001062,-0.00016
 420,-0.00000014,0.00000192,-0.00001018,-0.00000171,-0.00000088,-0.0000
 3690,0.00000341,-0.00000419,0.00005378,0.00003018,0.00002551,-0.000070
 41,-0.00002039,-0.00000910,0.00002119,0.00000495,0.00000120,-0.0000079
 7,0.00000031,0.00000172,0.00000127,-0.00019099,0.00048115,0.00027330,-
 0.00583335,-0.00058563,0.13137912,0.00000948,-0.00026187,0.00001654,0.
 00002094,0.00001060,0.00000033,-0.00005683,0.00103865,-0.00011612,0.00
 126705,0.00097309,-0.00005212,-0.01839219,0.01184285,-0.00074608,-0.00
 263243,-0.00426039,0.00020625,-0.00046545,-0.00010285,0.00001328,-0.00
 020926,0.00017108,-0.00000171,0.00055080,-0.00068843,0.00003484,-0.000
 01754,-0.00009242,0.00000174,-0.00002740,0.00000859,-0.00000073,-0.000
 03596,0.00003938,-0.00000120,0.00010512,0.00012557,-0.00000109,0.00000
 351,0.00000803,0.00000141,0.00000151,0.00001021,-0.00000038,-0.0000221
 6,-0.00000904,0.00000102,0.00000545,-0.00003724,-0.00000300,0.00002753
 ,-0.00007717,0.00000683,-0.00003462,-0.00004869,0.00000307,0.00001031,
 -0.00103289,0.00008170,-0.29183716,0.09859829,-0.00602509,0.00166417,-
 0.00012216,-0.00008846,0.00009347,0.00012408,0.00000684,-0.00000846,0.
 00000694,0.00000156,-0.00000435,0.00000600,0.00000109,-0.00000331,-0.0
 0000219,-0.00000078,-0.00000619,0.00000079,0.00000035,-0.00001525,0.00
 001280,0.00000796,-0.00000748,-0.00001607,-0.00000121,0.00000810,0.000
 01143,-0.00000090,-0.00000083,-0.00000176,-0.00000332,0.00010297,-0.00
 111358,-0.00001745,-0.00010147,-0.00010929,-0.00001206,0.30903565,0.00
 046303,-0.00001668,-0.00000748,-0.00014045,0.00035412,-0.00002204,-0.0
 0061446,0.00052494,-0.00003486,-0.00002392,0.00134321,-0.00015685,-0.0
 1787577,0.01114038,-0.00055627,-0.00329592,-0.00231659,0.00024699,-0.0
 0026488,-0.00009167,0.00002794,-0.00012446,0.00015499,-0.00002613,-0.0
 0045485,-0.00073194,-0.00000475,-0.00009883,-0.00013081,0.00001181,-0.
 00002450,0.00004047,0.00000126,-0.00001924,0.00000111,-0.00000040,0.00
 001338,0.00009908,-0.00001560,-0.00000800,0.00002286,0.00000538,0.0000
 0707,0.00000736,-0.00000137,0.00000583,-0.00001391,-0.00000860,0.00001
 111,0.00000606,0.00000143,0.00001904,-0.00003717,0.00000544,0.00002199
 ,-0.00000136,0.00000173,0.00062839,-0.00022672,0.00001561,0.09648064,-
 0.09831474,0.00326982,-0.00068127,-0.00556062,0.00038930,0.00008322,-0
 .00051314,-0.00002125,-0.00000315,-0.00000356,-0.00000062,-0.00000386,
 -0.00000146,-0.00000027,0.00000082,0.00000140,0.00000079,0.00000326,0.
 00000049,-0.00000008,0.00001433,-0.00000708,0.00000388,0.00000530,0.00
 001175,0.00000055,-0.00000426,-0.00000311,0.00000141,-0.00000034,0.000
 00177,-0.00000029,0.02995682,-0.00900725,0.00075142,0.00131408,0.00044
 661,0.00001573,-0.10530000,0.10204215,-0.00009521,-0.00000047,-0.00014
 760,0.00004749,-0.00005941,-0.00003081,-0.00000539,0.00005693,0.000568
 38,0.00010187,-0.00013225,-0.00239729,0.00000250,-0.00040004,0.0026223
 6,0.00017592,0.00004734,0.00411948,0.00003188,-0.00001088,0.00034942,0
 .00002268,-0.00000039,-0.00060124,0.00006646,0.00013750,-0.00100466,0.
 00000106,0.00002103,0.00015306,0.00001052,0.00000273,0.00001505,0.0000
 1322,-0.00000869,-0.00001796,-0.00002213,-0.00001014,-0.00032080,-0.00
 000210,-0.00000678,0.00006830,0.00000096,0.00000482,-0.00000611,-0.000
 00588,0.00000963,0.00000794,0.00000404,-0.00000539,0.00000727,0.000004
 58,0.00000799,0.00007168,-0.00000015,0.00000637,0.00009526,-0.00002030
 ,0.00001500,0.00030541,-0.00585612,0.00361124,-0.03500563,-0.00008595,
 0.00042816,0.00856766,-0.00001805,0.00003363,-0.00047831,0.00000056,0.
 00000010,-0.00000404,0.00000016,-0.00000016,-0.00000642,-0.00000024,-0
 .00000006,0.00000195,-0.00000011,0.00000006,-0.00000413,-0.00000592,-0
 .00000320,0.00000068,0.00000101,0.00001016,-0.00001713,0.00000119,-0.0
 0000055,0.00000752,-0.00000002,-0.00000607,-0.00000323,-0.00096609,0.0
 0013889,0.00367079,-0.00009045,-0.00002970,0.00042772,0.00660161,-0.00
 369589,0.02442290,0.00018646,-0.00001721,0.00000859,-0.00006619,0.0001
 5580,-0.00001053,-0.00014328,-0.00018130,0.00000733,0.00013834,-0.0000
 4506,-0.00000852,0.00115040,0.00164441,-0.00015478,0.00026407,0.000807
 97,-0.00000541,-0.00052343,0.00019732,0.00001851,-0.00006255,-0.001451
 63,-0.00004057,-0.00444343,0.00395442,-0.00004641,0.00011922,-0.000021
 80,-0.00000159,0.00001673,0.00006819,-0.00000044,-0.00003995,0.0000301
 3,0.00000288,0.00008600,-0.00017557,0.00000030,0.00004085,-0.00001127,
 -0.00000191,-0.00003847,-0.00000721,0.00000031,-0.00006491,0.00003219,
 -0.00000285,-0.00000756,-0.00001987,-0.00000029,-0.00000947,-0.0000187
 5,0.00000299,0.00002162,0.00000857,-0.00000126,0.00000345,-0.00001767,
 -0.00000120,0.00552715,0.00405427,-0.00006509,-0.01775560,-0.01814781,
 0.00012592,-0.00013367,0.00029402,-0.00000386,-0.00003460,0.00001745,0
 .00000334,-0.00000478,0.00000881,0.00000057,-0.00001013,-0.00000225,0.
 00000029,-0.00000590,-0.00000067,0.00000006,-0.00001733,0.00004248,0.0
 0000496,-0.00000132,-0.00004568,0.00000367,0.00000381,0.00000934,-0.00
 000410,0.00000146,-0.00000306,-0.00000087,-0.24489412,-0.12911519,0.00
 108344,0.00145298,-0.00109753,0.00000615,0.00097934,-0.00021802,0.0000
 9406,0.25842434,-0.00009240,-0.00051029,0.00002779,0.00014910,-0.00018
 167,0.00001284,0.00006652,0.00022152,-0.00002921,-0.00136578,0.0001988
 9,-0.00002145,0.00242505,-0.00476091,0.00042105,0.00044046,-0.00046828
 ,-0.00000169,0.00014508,-0.00018831,-0.00000322,0.00052556,0.00064980,
 0.00000541,0.00307954,-0.00070784,0.00012690,0.00002700,0.00019757,0.0
 0000155,-0.00006767,-0.00003201,0.00000201,0.00003112,0.00004317,-0.00
 000838,0.00005903,0.00008813,0.00000184,-0.00002636,-0.00000943,0.0000
 0264,0.00001074,0.00002105,-0.00000050,-0.00000337,-0.00001448,0.00000
 311,0.00001412,-0.00002318,0.00000116,0.00000310,0.00000091,0.00000227
 ,-0.00014417,-0.00007335,0.00000884,0.00004294,-0.00003518,0.00000598,
 -0.02708773,-0.01453696,0.00014155,0.01138202,0.01114313,-0.00005779,-
 0.00029337,-0.00001406,-0.00000052,0.00000627,-0.00000034,0.00000060,0
 .00000069,0.00000248,0.00000039,0.00000220,-0.00000195,-0.00000115,-0.
 00000368,0.00000082,0.00000019,-0.00001064,-0.00001179,-0.00000625,-0.
 00001327,0.00000589,-0.00000065,0.00000906,0.00000538,0.00000101,-0.00
 000158,0.00000014,-0.00000079,-0.12695747,-0.14554940,0.00135969,-0.00
 018255,0.00123905,-0.00006081,0.00025536,0.00085869,-0.00016557,0.1381
 8621,0.15260748,-0.00001010,-0.00005381,-0.00069660,0.00001214,0.00000
 950,0.00020319,-0.00000857,-0.00003552,-0.00071201,-0.00002247,0.00001
 829,0.00044146,-0.00015924,0.00040165,0.00874848,0.00006717,-0.0000913
 6,-0.00080844,-0.00000584,0.00001918,-0.00001236,-0.00004834,-0.000051
 01,0.00053056,-0.00003819,0.00026336,0.00464306,0.00004054,0.00001336,
 -0.00008887,-0.00001805,-0.00000670,0.00003038,0.00001410,0.00000321,-
 0.00001819,-0.00000636,-0.00000742,-0.00007966,-0.00000964,-0.00000093
 ,-0.00000022,0.00000480,0.00000638,-0.00001043,-0.00000271,0.00000540,
 -0.00002485,0.00000064,-0.00000986,0.00001311,0.00000054,0.00000838,0.
 00009505,-0.00000056,-0.00000495,-0.00007340,0.00000026,0.00001304,0.0
 0017621,0.00070643,0.00075652,0.00314700,-0.00080103,-0.00026483,0.002
 33960,-0.00004395,-0.00001192,-0.00011002,0.00000045,-0.00000041,0.000
 01160,0.00000029,-0.00000073,0.00000527,-0.00000019,-0.00000018,0.0000
 0922,-0.00000010,-0.00000003,0.00000245,-0.00000793,0.00000033,-0.0000
 0173,0.00000358,0.00000152,-0.00000740,-0.00000100,0.00000029,0.000002
 73,0.00000126,-0.00000145,0.00000091,0.00118763,0.00103944,-0.03466371
 ,0.00006842,-0.00006782,-0.00218021,0.00008575,-0.00019419,-0.00547178
 ,-0.00102360,-0.00177996,0.02426276,0.00003103,0.00001173,-0.00000106,
 0.00004358,0.00002263,-0.00000050,-0.00012418,0.00008916,-0.00000395,-
 0.00002465,-0.00004366,0.00000339,0.00020561,-0.00000960,0.00000194,0.
 00044432,0.00038730,-0.00000339,0.00017936,-0.00000129,-0.00001014,-0.
 00020187,0.00041592,-0.00001459,0.00020352,0.00232546,0.00003954,-0.00
 378622,0.00334674,0.00018385,-0.00010827,-0.00135407,-0.00001911,-0.00
 050180,0.00013050,0.00003768,-0.00009256,0.00005889,0.00000537,0.00007
 917,-0.00014873,-0.00001275,-0.00009646,-0.00007546,0.00000062,0.00008
 322,0.00003993,-0.00000494,-0.00007198,0.00006347,0.00000436,-0.000001
 28,0.00001617,-0.00000183,0.00000019,-0.00000779,-0.00000001,0.0000049
 8,0.00000142,-0.00000003,-0.00005095,-0.00030479,0.00000641,0.00922005
 ,0.00674299,-0.00003567,-0.01802344,-0.02308650,0.00016419,-0.00002904
 ,0.00004936,0.00000159,0.00000516,0.00001225,0.00000035,-0.00000560,-0
 .00000415,0.00000073,-0.00001862,-0.00001428,0.00000073,-0.00002385,0.
 00002339,0.00001088,-0.00000014,-0.00004119,-0.00000140,0.00000395,0.0
 0000921,-0.00000426,0.00000137,-0.00000526,-0.00000343,0.00104908,-0.0
 0013981,-0.00001517,-0.19184082,-0.13629473,0.00121758,0.00000391,-0.0
 0002757,0.00000255,-0.00011767,-0.00058690,0.00001165,0.20268009,0.000
 02302,-0.00004666,0.00000394,-0.00020727,0.00001383,0.00000244,0.00016
 237,-0.00053354,0.00002102,0.00004543,0.00001022,0.00000349,0.00002897
 ,0.00013750,-0.00000886,-0.00161671,0.00008148,-0.00005373,-0.00027238
 ,-0.00010843,0.00001308,0.00088096,0.00009846,-0.00000688,0.00325841,-
 0.00544856,0.00008991,0.00255516,0.00014333,-0.00007289,-0.00004403,0.
 00042776,-0.00000133,0.00014806,0.00009994,-0.00001044,0.00021334,-0.0
 0005960,-0.00000868,-0.00002719,0.00003434,0.00000454,-0.00000523,0.00
 006278,0.00000401,-0.00008100,-0.00003261,0.00000011,0.00005349,-0.000
 03633,-0.00000363,0.00001198,-0.00006972,0.00000952,0.00000296,-0.0000
 1037,-0.00000043,0.00001182,-0.00003648,0.00000221,0.00025125,-0.00016
 435,0.00000816,-0.02271508,-0.01544486,0.00006956,0.00815420,0.0088751
 8,-0.00007987,-0.00001247,-0.00000288,0.00000158,-0.00000676,0.0000034
 0,0.00000040,-0.00000245,-0.00000204,0.,0.00000197,0.00000457,-0.00000
 057,-0.00000495,0.00000649,-0.00000622,-0.00001320,0.00000143,0.000002
 97,0.00000896,0.00000614,0.00000021,-0.00000093,0.00000264,0.00000185,
 -0.00096717,0.00165275,-0.00004602,-0.13888994,-0.19896409,0.00116889,
 0.00003059,-0.00004384,0.00000142,0.00104910,-0.00016696,0.00002379,0.
 14814918,0.20851279,0.00000406,0.00000308,-0.00002410,-0.00000147,0.00
 000053,-0.00004389,0.00001581,-0.00000753,-0.00002903,-0.00000743,-0.0
 0000668,0.00004635,0.00000871,0.00002575,-0.00005423,-0.00003620,-0.00
 002799,0.00028798,0.00001484,0.00001437,-0.00058716,-0.00004551,-0.000
 00679,-0.00063553,0.00016059,0.00009555,0.00390736,0.00011299,-0.00003
 714,0.00953863,0.00001432,-0.00005659,0.00033943,-0.00008428,0.0000390
 6,-0.00102407,-0.00001559,0.00000330,0.00017443,0.00001751,-0.00000165
 ,-0.00008029,-0.00000717,-0.00002011,0.00009361,0.00001857,-0.00000094
 ,0.00008994,-0.00000826,0.00001719,-0.00000887,-0.00000361,-0.00000085
 ,0.00000786,0.00000018,-0.00000048,-0.00000076,-0.00000011,0.00000024,
 0.00000390,-0.00001235,-0.00002916,-0.00015023,-0.00002873,-0.00037643
 ,0.00261441,0.00045087,0.00019963,0.00379646,0.00001779,-0.00000597,0.
 00028787,-0.00000175,0.00000156,-0.00002325,-0.00000132,0.00000094,-0.
 00001497,0.00000079,-0.00000159,0.00001487,-0.00000602,0.00000688,-0.0
 0000829,0.00000521,-0.00000309,-0.00000464,-0.00000077,-0.00000122,0.0
 0000207,0.00000098,-0.00000158,0.00000159,-0.00000089,0.00002009,-0.00
 167662,0.00097902,0.00128184,-0.03561628,-0.00000115,0.00000337,0.0000
 7968,0.00000998,0.00000686,0.00017491,-0.00148657,-0.00116648,0.024462
 73,0.00008703,-0.00001474,0.00000301,0.00008538,0.00008579,-0.00001184
 ,-0.00020053,-0.00034898,0.00002217,0.00001536,-0.00009017,0.00000579,
 -0.00014276,-0.00002035,0.00000752,0.00021229,-0.00014323,-0.00000755,
 0.00064125,-0.00066938,-0.00003615,-0.00387254,-0.00288855,0.00017416,
 -0.00064358,-0.00022367,-0.00000898,0.00887362,-0.02277140,-0.00027649
 ,0.00162357,-0.00015760,-0.00012344,0.00002662,0.00035863,-0.00001285,
 0.00028061,-0.00006742,0.00000622,-0.00007897,-0.00002621,0.00000274,0
 .00002820,0.00006811,0.00000183,-0.00008171,0.00004050,0.00000742,0.00
 002281,-0.00007733,-0.00000646,-0.00000684,0.00000659,-0.00000088,0.00
 001631,-0.00000107,0.00000097,-0.00000538,-0.00000231,-0.00000075,-0.0
 0045431,0.00015771,-0.00002295,-0.00551609,0.00023133,0.00017160,-0.07
 163917,0.06021772,0.00095833,-0.00029654,0.00071400,0.00002988,-0.0000
 2677,0.00000252,0.00000288,-0.00000279,0.00000439,0.00000009,0.0000020
 2,0.00000289,-0.00000020,0.00000854,0.00000687,-0.00000091,0.00000334,
 0.00000450,0.00000067,-0.00000329,-0.00000210,0.00000059,-0.00000050,0
 .00000005,-0.00000074,0.00065454,0.00122117,0.00000682,-0.00431004,0.0
 3100783,0.00024174,-0.00001097,0.00015545,-0.00001021,-0.00004186,-0.0
 0002422,0.00000220,0.00088080,-0.00017449,-0.00008304,0.07387235,0.000
 06742,-0.00001662,0.00000077,0.00004394,0.00007818,0.00000117,-0.00017
 284,-0.00039802,0.00002017,-0.00000491,-0.00006178,0.00000717,-0.00007
 647,0.00004461,-0.00000205,0.00011720,-0.00015493,-0.00000426,0.000923
 55,-0.00014211,-0.00005989,-0.00404347,-0.00112800,0.00011435,-0.00033
 309,0.00063819,0.00001117,0.00691500,-0.01654498,-0.00025602,0.0010538
 9,0.00106433,-0.00004953,-0.00042144,0.00005999,-0.00000445,0.00002034
 ,0.00007595,0.00001279,0.00010704,-0.00008998,-0.00000509,-0.00003933,
 -0.00007868,-0.00000466,-0.00001486,0.00009105,0.00000605,-0.00008519,
 -0.00002279,0.00000069,-0.00000374,-0.00000317,-0.00000031,0.00001248,
 -0.00001618,0.00000016,0.00000696,-0.00000697,0.00000007,0.00021328,0.
 00005061,0.00000262,0.00105241,0.00156648,-0.00005376,0.06247683,-0.31
 855694,-0.00204140,-0.00095301,0.00010164,0.00006931,-0.00001725,0.000
 02072,0.00000298,-0.00000918,0.00000130,0.00000042,-0.00001469,-0.0000
 0503,0.00000064,-0.00001694,0.00003880,0.00000907,-0.00000348,-0.00003
 867,-0.00000110,0.00000617,0.00000911,-0.00000295,-0.00000037,-0.00000
 462,-0.00000378,-0.00019772,-0.00029239,-0.00000544,-0.00031440,-0.004
 96981,-0.00002790,0.00000171,-0.00003580,0.00000261,0.00003689,0.00000
 228,-0.00000057,0.00025011,0.00099627,0.00003202,-0.06658284,0.3377279
 6,0.00000957,-0.00000069,-0.00003430,-0.00001399,-0.00001842,-0.000308
 11,0.00000713,0.00000174,0.00028403,-0.00000404,-0.00000660,0.00003170
 ,-0.00000350,0.00001674,0.00014222,0.00000781,-0.00003794,-0.00053001,
 0.00005717,0.00004086,0.00061392,0.00003615,0.00006654,0.00346981,0.00
 009649,0.00008048,-0.00097901,-0.00037521,0.00011453,0.00215904,-0.000
 02775,0.00007083,-0.00193103,-0.00004272,-0.00007799,-0.00016275,-0.00
 004710,0.00002565,-0.00001875,0.00002643,0.00000248,0.00000845,-0.0000
 0685,-0.00002222,0.00001323,0.00001428,0.00000983,0.00004985,-0.000014
 76,0.00001344,-0.00002715,0.00000154,0.00000231,0.00001009,0.00000111,
 0.00000619,0.00007779,-0.00000101,0.00000047,0.00000067,0.00002876,-0.
 00002328,-0.00059681,0.00018689,-0.00003580,0.00911154,0.00130275,-0.0
 0198441,-0.03442164,0.00001656,-0.00003357,0.00029315,0.00000230,-0.00
 000085,0.00002280,-0.00000065,0.,0.00000042,-0.00000053,-0.00000058,-0
 .00000042,-0.00000080,0.00000399,0.00001509,0.00000166,-0.00000015,-0.
 00001495,0.00000046,-0.00000009,0.00000356,-0.00000014,-0.00000539,0.0
 0000044,-0.00002909,-0.00006153,0.00043488,-0.00011172,-0.00040566,0.0
 0399761,0.00000070,-0.00000695,-0.00004537,-0.00000006,0.00000423,0.00
 012189,-0.00007461,0.00003290,-0.00594186,-0.00104321,0.00222891,0.024
 14997\\-0.00000067,-0.00000142,0.00000282,-0.00000314,0.00000187,0.000
 00229,0.00000060,0.00000128,-0.00000012,-0.00000075,-0.00000035,0.0000
 0209,-0.00000205,-0.00000016,0.00000619,0.00000015,0.00000006,0.000003
 28,-0.00000021,-0.00000023,-0.00000274,0.00000098,-0.00000011,0.000000
 79,-0.00000008,-0.00000092,0.00000022,0.00000032,-0.00000019,-0.000001
 76,0.00000070,0.00000014,-0.00000228,0.00000042,0.00000031,-0.00000546
 ,-0.00000027,0.,0.00000430,-0.00000010,0.00000081,-0.00000115,0.000000
 23,0.00000091,-0.00000429,-0.00000051,0.00000178,-0.00001028,0.0000009
 1,0.00000166,0.00000073,-0.00000401,-0.00000172,0.00000321,-0.00000101
 ,-0.00000015,0.00000444,-0.00000077,-0.00000058,0.00000469,0.00000132,
 -0.00000059,0.00000225,-0.00000018,-0.00000050,-0.00000003,0.00000041,
 0.00000001,-0.00000166,0.00000051,0.00000046,-0.00000393,0.00000053,0.
 00000078,-0.00000461,-0.00000031,0.00000084,-0.00000147,-0.00000003,0.
 00000115,-0.00000386,0.00000052,-0.00000033,0.00000414,0.00000479,-0.0
 0000016,0.00000064,-0.00000044,0.00000074,0.00000223,0.00000013,-0.000
 00078,0.00000029,-0.00000008,-0.00000122,-0.00000019,0.00000040,-0.000
 00073,-0.00000145,-0.00000021,-0.00000074,0.00000342,0.00000048,-0.000
 00095,0.00000147,0.00000078,-0.00000080,-0.00000115,0.00000067,-0.0000
 0020,-0.00000305\\\@


 MORNING PEOPLE ARE USUALLY ADMIRED AS EARLY BIRDS.
 RECALL BEN FRANKLIN'S APHORISM THAT THE EARLY BIRD GETS THE WORM.
 I IDENTIFY WITH THE WORM. --  CRAIG JAGGER, MINNEAPOLIS, KS.
 Job cpu time:       1 days 22 hours 38 minutes 17.4 seconds.
 File lengths (MBytes):  RWF=   4402 Int=      0 D2E=      0 Chk=     47 Scr=      1
 Normal termination of Gaussian 09 at Sat Feb  1 22:42:14 2020.
