 Entering Gaussian System, Link 0=/share/apps/gaussian16/g16/g16
 Initial command:
 /share/apps/gaussian16/g16/l1.exe "/home/am2145//scratch/3640/Gau-1490.inp" -scrdir="/home/am2145//scratch/3640/"
 Entering Link 1 = /share/apps/gaussian16/g16/l1.exe PID=      1491.
  
 Copyright (c) 1988,1990,1992,1993,1995,1998,2003,2009,2016,
            Gaussian, Inc.  All Rights Reserved.
  
 This is part of the Gaussian(R) 16 program.  It is based on
 the Gaussian(R) 09 system (copyright 2009, Gaussian, Inc.),
 the Gaussian(R) 03 system (copyright 2003, Gaussian, Inc.),
 the Gaussian(R) 98 system (copyright 1998, Gaussian, Inc.),
 the Gaussian(R) 94 system (copyright 1995, Gaussian, Inc.),
 the Gaussian 92(TM) system (copyright 1992, Gaussian, Inc.),
 the Gaussian 90(TM) system (copyright 1990, Gaussian, Inc.),
 the Gaussian 88(TM) system (copyright 1988, Gaussian, Inc.),
 the Gaussian 86(TM) system (copyright 1986, Carnegie Mellon
 University), and the Gaussian 82(TM) system (copyright 1983,
 Carnegie Mellon University). Gaussian is a federally registered
 trademark of Gaussian, Inc.
  
 This software contains proprietary and confidential information,
 including trade secrets, belonging to Gaussian, Inc.
  
 This software is provided under written license and may be
 used, copied, transmitted, or stored only in accord with that
 written license.
  
 The following legend is applicable only to US Government
 contracts under FAR:
  
                    RESTRICTED RIGHTS LEGEND
  
 Use, reproduction and disclosure by the US Government is
 subject to restrictions as set forth in subparagraphs (a)
 and (c) of the Commercial Computer Software - Restricted
 Rights clause in FAR 52.227-19.
  
 Gaussian, Inc.
 340 Quinnipiac St., Bldg. 40, Wallingford CT 06492
  
  
 ---------------------------------------------------------------
 Warning -- This program may not be used in any manner that
 competes with the business of Gaussian, Inc. or will provide
 assistance to any competitor of Gaussian, Inc.  The licensee
 of this program is prohibited from giving any competitor of
 Gaussian, Inc. access to this program.  By using this program,
 the user acknowledges that Gaussian, Inc. is engaged in the
 business of creating and licensing software in the field of
 computational chemistry and represents and warrants to the
 licensee that it is not a competitor of Gaussian, Inc. and that
 it will not use this program in any manner prohibited above.
 ---------------------------------------------------------------
  

 Cite this work as:
 Gaussian 16, Revision A.03,
 M. J. Frisch, G. W. Trucks, H. B. Schlegel, G. E. Scuseria, 
 M. A. Robb, J. R. Cheeseman, G. Scalmani, V. Barone, 
 G. A. Petersson, H. Nakatsuji, X. Li, M. Caricato, A. V. Marenich, 
 J. Bloino, B. G. Janesko, R. Gomperts, B. Mennucci, H. P. Hratchian, 
 J. V. Ortiz, A. F. Izmaylov, J. L. Sonnenberg, D. Williams-Young, 
 F. Ding, F. Lipparini, F. Egidi, J. Goings, B. Peng, A. Petrone, 
 T. Henderson, D. Ranasinghe, V. G. Zakrzewski, J. Gao, N. Rega, 
 G. Zheng, W. Liang, M. Hada, M. Ehara, K. Toyota, R. Fukuda, 
 J. Hasegawa, M. Ishida, T. Nakajima, Y. Honda, O. Kitao, H. Nakai, 
 T. Vreven, K. Throssell, J. A. Montgomery, Jr., J. E. Peralta, 
 F. Ogliaro, M. J. Bearpark, J. J. Heyd, E. N. Brothers, K. N. Kudin, 
 V. N. Staroverov, T. A. Keith, R. Kobayashi, J. Normand, 
 K. Raghavachari, A. P. Rendell, J. C. Burant, S. S. Iyengar, 
 J. Tomasi, M. Cossi, J. M. Millam, M. Klene, C. Adamo, R. Cammi, 
 J. W. Ochterski, R. L. Martin, K. Morokuma, O. Farkas, 
 J. B. Foresman, and D. J. Fox, Gaussian, Inc., Wallingford CT, 2016.
 
 ******************************************
 Gaussian 16:  ES64L-G16RevA.03 25-Dec-2016
                 1-Apr-2019 
 ******************************************
 %nprocshared=20
 Will use up to   20 processors via shared memory.
 %mem=100GB
 %chk=7-memb-TS4d.chk
 ----------------------------------------------------------------------
 # opt=(calcfc,ts,modredundant,noeigen) freq b3lyp/6-311+g(d,p) int=gri
 d=fine scf=xqc
 ----------------------------------------------------------------------
 1/5=1,10=4,11=1,18=120,26=3,38=1/1,3;
 2/9=110,12=2,17=6,18=5,40=1/2;
 3/5=4,6=6,7=111,11=2,25=1,30=1,71=2,74=-5,75=-4,140=1/1,2,3;
 4//1;
 5/5=2,8=3,13=1,38=5/2,8;
 8/6=4,10=90,11=11/1;
 11/6=1,8=1,9=11,15=111,16=1/1,2,10;
 10/6=1,13=1/2;
 6/7=2,8=2,9=2,10=2,28=1/1;
 7/10=1,18=20,25=1/1,2,3,16;
 1/5=1,10=4,11=1,18=20,26=3/3(2);
 2/9=110/2;
 99//99;
 2/9=110/2;
 3/5=4,6=6,7=111,11=2,25=1,30=1,71=1,74=-5,75=-4/1,2,3;
 4/5=5,16=3,69=1/1;
 5/5=2,8=3,13=1,38=5/2,8;
 7//1,2,3,16;
 1/5=1,11=1,18=20,26=3/3(-5);
 2/9=110/2;
 6/7=2,8=2,9=2,10=2,19=2,28=1/1;
 99/9=1/99;
 -----------
 7-memb-TS4d
 -----------
 Symbolic Z-matrix:
 Charge =  0 Multiplicity = 2
 C                    -1.95541  -3.20154  -0.11621 
 C                    -0.64497  -2.63255  -0.42782 
 C                    -0.56158  -1.19868  -0.41373 
 C                    -3.09056  -2.4661    0.12598 
 C                    -3.04631  -1.03334   0.04522 
 C                    -1.7861   -0.50936  -0.23188 
 C                     0.51003  -0.15041  -0.37283 
 C                    -0.17268   1.08255  -0.31469 
 C                    -1.5582    0.86824  -0.22156 
 C                     0.35779   2.36805  -0.14842 
 C                     1.75458   2.42838  -0.08578 
 C                     2.52339   1.23801  -0.08022 
 C                     1.92019  -0.0861   -0.16574 
 C                     3.9403    1.31977   0.08145 
 C                     4.71457   0.19798   0.20783 
 C                     2.76274  -1.23847   0.03858 
 C                     4.11781  -1.08899   0.20131 
 H                    -0.06023  -3.2235   -1.12286 
 H                    -2.02463  -4.28399  -0.11135 
 H                    -4.02168  -2.97539   0.35268 
 C                    -4.07577  -0.06064   0.28016 
 C                    -2.50701   1.83042   0.04371 
 C                    -0.62463   3.42456   0.02688 
 H                     2.27181   3.37744   0.01599 
 H                     4.39549   2.30371   0.12384 
 H                     4.73613  -1.96784   0.34767 
 H                     5.78699   0.28805   0.33828 
 C                     2.02639  -2.53098  -0.00905 
 C                     0.98737  -2.75337   0.78954 
 H                     0.73254  -2.22819   1.70276 
 H                     2.1168   -3.09039  -0.94144 
 C                    -3.82803   1.30805   0.27491 
 C                    -1.97684   3.17761   0.12324 
 H                    -5.08271  -0.40376   0.49508 
 H                    -4.64851   1.98742   0.48156 
 H                    -2.65129   4.01102   0.29116 
 H                    -0.27311   4.44699   0.12128 
 
 The following ModRedundant input section has been read:
 B       2      29 F                                                           
 

 GradGradGradGradGradGradGradGradGradGradGradGradGradGradGradGradGradGrad
 Berny optimization.
 Initialization pass.
                           ----------------------------
                           !    Initial Parameters    !
                           ! (Angstroms and Degrees)  !
 --------------------------                            --------------------------
 ! Name  Definition              Value          Derivative Info.                !
 --------------------------------------------------------------------------------
 ! R1    R(1,2)                  1.4622         calculate D2E/DX2 analytically  !
 ! R2    R(1,4)                  1.3741         calculate D2E/DX2 analytically  !
 ! R3    R(1,19)                 1.0847         calculate D2E/DX2 analytically  !
 ! R4    R(2,3)                  1.4364         calculate D2E/DX2 analytically  !
 ! R5    R(2,18)                 1.0836         calculate D2E/DX2 analytically  !
 ! R6    R(2,29)                 2.0399         frozen, calculate D2E/DX2 analyt!
 ! R7    R(3,6)                  1.4169         calculate D2E/DX2 analytically  !
 ! R8    R(3,7)                  1.4996         calculate D2E/DX2 analytically  !
 ! R9    R(4,5)                  1.4357         calculate D2E/DX2 analytically  !
 ! R10   R(4,20)                 1.0853         calculate D2E/DX2 analytically  !
 ! R11   R(5,6)                  1.3926         calculate D2E/DX2 analytically  !
 ! R12   R(5,21)                 1.4357         calculate D2E/DX2 analytically  !
 ! R13   R(6,9)                  1.3964         calculate D2E/DX2 analytically  !
 ! R14   R(7,8)                  1.4106         calculate D2E/DX2 analytically  !
 ! R15   R(7,13)                 1.4267         calculate D2E/DX2 analytically  !
 ! R16   R(8,9)                  1.4051         calculate D2E/DX2 analytically  !
 ! R17   R(8,10)                 1.4006         calculate D2E/DX2 analytically  !
 ! R18   R(9,22)                 1.3771         calculate D2E/DX2 analytically  !
 ! R19   R(10,11)                1.3995         calculate D2E/DX2 analytically  !
 ! R20   R(10,23)                1.4533         calculate D2E/DX2 analytically  !
 ! R21   R(11,12)                1.4171         calculate D2E/DX2 analytically  !
 ! R22   R(11,24)                1.0856         calculate D2E/DX2 analytically  !
 ! R23   R(12,13)                1.4575         calculate D2E/DX2 analytically  !
 ! R24   R(12,14)                1.4284         calculate D2E/DX2 analytically  !
 ! R25   R(13,16)                1.4421         calculate D2E/DX2 analytically  !
 ! R26   R(14,15)                1.3689         calculate D2E/DX2 analytically  !
 ! R27   R(14,25)                1.085          calculate D2E/DX2 analytically  !
 ! R28   R(15,17)                1.4186         calculate D2E/DX2 analytically  !
 ! R29   R(15,27)                1.0841         calculate D2E/DX2 analytically  !
 ! R30   R(16,17)                1.373          calculate D2E/DX2 analytically  !
 ! R31   R(16,28)                1.4883         calculate D2E/DX2 analytically  !
 ! R32   R(17,26)                1.0845         calculate D2E/DX2 analytically  !
 ! R33   R(21,32)                1.3909         calculate D2E/DX2 analytically  !
 ! R34   R(21,34)                1.0853         calculate D2E/DX2 analytically  !
 ! R35   R(22,32)                1.4393         calculate D2E/DX2 analytically  !
 ! R36   R(22,33)                1.4499         calculate D2E/DX2 analytically  !
 ! R37   R(23,33)                1.378          calculate D2E/DX2 analytically  !
 ! R38   R(23,37)                1.0853         calculate D2E/DX2 analytically  !
 ! R39   R(28,29)                1.3292         calculate D2E/DX2 analytically  !
 ! R40   R(28,31)                1.0911         calculate D2E/DX2 analytically  !
 ! R41   R(29,30)                1.0838         calculate D2E/DX2 analytically  !
 ! R42   R(32,35)                1.0851         calculate D2E/DX2 analytically  !
 ! R43   R(33,36)                1.0852         calculate D2E/DX2 analytically  !
 ! A1    A(2,1,4)              124.7258         calculate D2E/DX2 analytically  !
 ! A2    A(2,1,19)             116.5177         calculate D2E/DX2 analytically  !
 ! A3    A(4,1,19)             118.7261         calculate D2E/DX2 analytically  !
 ! A4    A(1,2,3)              116.0014         calculate D2E/DX2 analytically  !
 ! A5    A(1,2,18)             114.0844         calculate D2E/DX2 analytically  !
 ! A6    A(3,2,18)             121.2896         calculate D2E/DX2 analytically  !
 ! A7    A(2,3,6)              115.8952         calculate D2E/DX2 analytically  !
 ! A8    A(2,3,7)              137.6942         calculate D2E/DX2 analytically  !
 ! A9    A(6,3,7)              105.9014         calculate D2E/DX2 analytically  !
 ! A10   A(1,4,5)              119.9174         calculate D2E/DX2 analytically  !
 ! A11   A(1,4,20)             119.6326         calculate D2E/DX2 analytically  !
 ! A12   A(5,4,20)             120.4318         calculate D2E/DX2 analytically  !
 ! A13   A(4,5,6)              114.4913         calculate D2E/DX2 analytically  !
 ! A14   A(4,5,21)             130.1528         calculate D2E/DX2 analytically  !
 ! A15   A(6,5,21)             115.2464         calculate D2E/DX2 analytically  !
 ! A16   A(3,6,5)              128.6472         calculate D2E/DX2 analytically  !
 ! A17   A(3,6,9)              109.8677         calculate D2E/DX2 analytically  !
 ! A18   A(5,6,9)              121.1588         calculate D2E/DX2 analytically  !
 ! A19   A(3,7,8)              105.4429         calculate D2E/DX2 analytically  !
 ! A20   A(3,7,13)             137.8805         calculate D2E/DX2 analytically  !
 ! A21   A(8,7,13)             115.6578         calculate D2E/DX2 analytically  !
 ! A22   A(7,8,9)              110.284          calculate D2E/DX2 analytically  !
 ! A23   A(7,8,10)             128.5988         calculate D2E/DX2 analytically  !
 ! A24   A(9,8,10)             120.3717         calculate D2E/DX2 analytically  !
 ! A25   A(6,9,8)              108.1147         calculate D2E/DX2 analytically  !
 ! A26   A(6,9,22)             125.3305         calculate D2E/DX2 analytically  !
 ! A27   A(8,9,22)             125.8449         calculate D2E/DX2 analytically  !
 ! A28   A(8,10,11)            115.0181         calculate D2E/DX2 analytically  !
 ! A29   A(8,10,23)            115.1847         calculate D2E/DX2 analytically  !
 ! A30   A(11,10,23)           129.6387         calculate D2E/DX2 analytically  !
 ! A31   A(10,11,12)           120.3615         calculate D2E/DX2 analytically  !
 ! A32   A(10,11,24)           121.1574         calculate D2E/DX2 analytically  !
 ! A33   A(12,11,24)           118.3918         calculate D2E/DX2 analytically  !
 ! A34   A(11,12,13)           122.5724         calculate D2E/DX2 analytically  !
 ! A35   A(11,12,14)           119.3747         calculate D2E/DX2 analytically  !
 ! A36   A(13,12,14)           117.9787         calculate D2E/DX2 analytically  !
 ! A37   A(7,13,12)            117.2907         calculate D2E/DX2 analytically  !
 ! A38   A(7,13,16)            124.1953         calculate D2E/DX2 analytically  !
 ! A39   A(12,13,16)           118.4142         calculate D2E/DX2 analytically  !
 ! A40   A(12,14,15)           121.6406         calculate D2E/DX2 analytically  !
 ! A41   A(12,14,25)           118.1958         calculate D2E/DX2 analytically  !
 ! A42   A(15,14,25)           120.151          calculate D2E/DX2 analytically  !
 ! A43   A(14,15,17)           120.337          calculate D2E/DX2 analytically  !
 ! A44   A(14,15,27)           120.1692         calculate D2E/DX2 analytically  !
 ! A45   A(17,15,27)           119.4768         calculate D2E/DX2 analytically  !
 ! A46   A(13,16,17)           120.4266         calculate D2E/DX2 analytically  !
 ! A47   A(13,16,28)           113.6015         calculate D2E/DX2 analytically  !
 ! A48   A(17,16,28)           125.9198         calculate D2E/DX2 analytically  !
 ! A49   A(15,17,16)           120.9637         calculate D2E/DX2 analytically  !
 ! A50   A(15,17,26)           119.6509         calculate D2E/DX2 analytically  !
 ! A51   A(16,17,26)           119.3727         calculate D2E/DX2 analytically  !
 ! A52   A(5,21,32)            122.572          calculate D2E/DX2 analytically  !
 ! A53   A(5,21,34)            118.9143         calculate D2E/DX2 analytically  !
 ! A54   A(32,21,34)           118.4957         calculate D2E/DX2 analytically  !
 ! A55   A(9,22,32)            114.1887         calculate D2E/DX2 analytically  !
 ! A56   A(9,22,33)            114.0687         calculate D2E/DX2 analytically  !
 ! A57   A(32,22,33)           131.6078         calculate D2E/DX2 analytically  !
 ! A58   A(10,23,33)           122.7866         calculate D2E/DX2 analytically  !
 ! A59   A(10,23,37)           118.4516         calculate D2E/DX2 analytically  !
 ! A60   A(33,23,37)           118.7244         calculate D2E/DX2 analytically  !
 ! A61   A(16,28,29)           120.8517         calculate D2E/DX2 analytically  !
 ! A62   A(16,28,31)           115.57           calculate D2E/DX2 analytically  !
 ! A63   A(29,28,31)           119.4991         calculate D2E/DX2 analytically  !
 ! A64   A(28,29,30)           127.5131         calculate D2E/DX2 analytically  !
 ! A65   A(21,32,22)           121.4145         calculate D2E/DX2 analytically  !
 ! A66   A(21,32,35)           118.7307         calculate D2E/DX2 analytically  !
 ! A67   A(22,32,35)           119.8262         calculate D2E/DX2 analytically  !
 ! A68   A(22,33,23)           121.4327         calculate D2E/DX2 analytically  !
 ! A69   A(22,33,36)           119.6565         calculate D2E/DX2 analytically  !
 ! A70   A(23,33,36)           118.8865         calculate D2E/DX2 analytically  !
 ! D1    D(4,1,2,3)              2.8341         calculate D2E/DX2 analytically  !
 ! D2    D(4,1,2,18)          -145.4846         calculate D2E/DX2 analytically  !
 ! D3    D(19,1,2,3)          -179.2022         calculate D2E/DX2 analytically  !
 ! D4    D(19,1,2,18)           32.4792         calculate D2E/DX2 analytically  !
 ! D5    D(2,1,4,5)              1.7194         calculate D2E/DX2 analytically  !
 ! D6    D(2,1,4,20)          -179.8271         calculate D2E/DX2 analytically  !
 ! D7    D(19,1,4,5)          -176.2029         calculate D2E/DX2 analytically  !
 ! D8    D(19,1,4,20)            2.2506         calculate D2E/DX2 analytically  !
 ! D9    D(1,2,3,6)             -6.0714         calculate D2E/DX2 analytically  !
 ! D10   D(1,2,3,7)            164.2962         calculate D2E/DX2 analytically  !
 ! D11   D(18,2,3,6)           139.7979         calculate D2E/DX2 analytically  !
 ! D12   D(18,2,3,7)           -49.8345         calculate D2E/DX2 analytically  !
 ! D13   D(2,3,6,5)              5.8528         calculate D2E/DX2 analytically  !
 ! D14   D(2,3,6,9)            179.2547         calculate D2E/DX2 analytically  !
 ! D15   D(7,3,6,5)           -167.4221         calculate D2E/DX2 analytically  !
 ! D16   D(7,3,6,9)              5.9798         calculate D2E/DX2 analytically  !
 ! D17   D(2,3,7,8)           -177.0977         calculate D2E/DX2 analytically  !
 ! D18   D(2,3,7,13)            -9.8549         calculate D2E/DX2 analytically  !
 ! D19   D(6,3,7,8)             -6.1024         calculate D2E/DX2 analytically  !
 ! D20   D(6,3,7,13)           161.1404         calculate D2E/DX2 analytically  !
 ! D21   D(1,4,5,6)             -2.5088         calculate D2E/DX2 analytically  !
 ! D22   D(1,4,5,21)          -178.469          calculate D2E/DX2 analytically  !
 ! D23   D(20,4,5,6)           179.0503         calculate D2E/DX2 analytically  !
 ! D24   D(20,4,5,21)            3.09           calculate D2E/DX2 analytically  !
 ! D25   D(4,5,6,3)             -1.3802         calculate D2E/DX2 analytically  !
 ! D26   D(4,5,6,9)           -174.1253         calculate D2E/DX2 analytically  !
 ! D27   D(21,5,6,3)           175.2069         calculate D2E/DX2 analytically  !
 ! D28   D(21,5,6,9)             2.4617         calculate D2E/DX2 analytically  !
 ! D29   D(4,5,21,32)          173.9559         calculate D2E/DX2 analytically  !
 ! D30   D(4,5,21,34)           -4.474          calculate D2E/DX2 analytically  !
 ! D31   D(6,5,21,32)           -1.9796         calculate D2E/DX2 analytically  !
 ! D32   D(6,5,21,34)          179.5905         calculate D2E/DX2 analytically  !
 ! D33   D(3,6,9,8)             -3.5514         calculate D2E/DX2 analytically  !
 ! D34   D(3,6,9,22)          -174.3405         calculate D2E/DX2 analytically  !
 ! D35   D(5,6,9,8)            170.429          calculate D2E/DX2 analytically  !
 ! D36   D(5,6,9,22)            -0.3601         calculate D2E/DX2 analytically  !
 ! D37   D(3,7,8,9)              4.1503         calculate D2E/DX2 analytically  !
 ! D38   D(3,7,8,10)           174.1297         calculate D2E/DX2 analytically  !
 ! D39   D(13,7,8,9)          -166.3931         calculate D2E/DX2 analytically  !
 ! D40   D(13,7,8,10)            3.5863         calculate D2E/DX2 analytically  !
 ! D41   D(3,7,13,12)         -173.5555         calculate D2E/DX2 analytically  !
 ! D42   D(3,7,13,16)            2.7451         calculate D2E/DX2 analytically  !
 ! D43   D(8,7,13,12)           -7.2138         calculate D2E/DX2 analytically  !
 ! D44   D(8,7,13,16)          169.0868         calculate D2E/DX2 analytically  !
 ! D45   D(7,8,9,6)             -0.5753         calculate D2E/DX2 analytically  !
 ! D46   D(7,8,9,22)           170.1539         calculate D2E/DX2 analytically  !
 ! D47   D(10,8,9,6)          -171.5066         calculate D2E/DX2 analytically  !
 ! D48   D(10,8,9,22)           -0.7773         calculate D2E/DX2 analytically  !
 ! D49   D(7,8,10,11)            2.7725         calculate D2E/DX2 analytically  !
 ! D50   D(7,8,10,23)         -173.0993         calculate D2E/DX2 analytically  !
 ! D51   D(9,8,10,11)          171.8679         calculate D2E/DX2 analytically  !
 ! D52   D(9,8,10,23)           -4.0039         calculate D2E/DX2 analytically  !
 ! D53   D(6,9,22,32)           -2.2272         calculate D2E/DX2 analytically  !
 ! D54   D(6,9,22,33)          174.0517         calculate D2E/DX2 analytically  !
 ! D55   D(8,9,22,32)         -171.4097         calculate D2E/DX2 analytically  !
 ! D56   D(8,9,22,33)            4.8692         calculate D2E/DX2 analytically  !
 ! D57   D(8,10,11,12)          -5.0849         calculate D2E/DX2 analytically  !
 ! D58   D(8,10,11,24)         178.407          calculate D2E/DX2 analytically  !
 ! D59   D(23,10,11,12)        170.0624         calculate D2E/DX2 analytically  !
 ! D60   D(23,10,11,24)         -6.4458         calculate D2E/DX2 analytically  !
 ! D61   D(8,10,23,33)           4.6185         calculate D2E/DX2 analytically  !
 ! D62   D(8,10,23,37)        -177.6359         calculate D2E/DX2 analytically  !
 ! D63   D(11,10,23,33)       -170.5222         calculate D2E/DX2 analytically  !
 ! D64   D(11,10,23,37)          7.2235         calculate D2E/DX2 analytically  !
 ! D65   D(10,11,12,13)          1.2943         calculate D2E/DX2 analytically  !
 ! D66   D(10,11,12,14)       -175.5069         calculate D2E/DX2 analytically  !
 ! D67   D(24,11,12,13)        177.8977         calculate D2E/DX2 analytically  !
 ! D68   D(24,11,12,14)          1.0965         calculate D2E/DX2 analytically  !
 ! D69   D(11,12,13,7)           5.2402         calculate D2E/DX2 analytically  !
 ! D70   D(11,12,13,16)       -171.2811         calculate D2E/DX2 analytically  !
 ! D71   D(14,12,13,7)        -177.9162         calculate D2E/DX2 analytically  !
 ! D72   D(14,12,13,16)          5.5626         calculate D2E/DX2 analytically  !
 ! D73   D(11,12,14,15)        174.3509         calculate D2E/DX2 analytically  !
 ! D74   D(11,12,14,25)         -4.359          calculate D2E/DX2 analytically  !
 ! D75   D(13,12,14,15)         -2.5969         calculate D2E/DX2 analytically  !
 ! D76   D(13,12,14,25)        178.6933         calculate D2E/DX2 analytically  !
 ! D77   D(7,13,16,17)         178.5514         calculate D2E/DX2 analytically  !
 ! D78   D(7,13,16,28)           1.0243         calculate D2E/DX2 analytically  !
 ! D79   D(12,13,16,17)         -5.1867         calculate D2E/DX2 analytically  !
 ! D80   D(12,13,16,28)        177.2863         calculate D2E/DX2 analytically  !
 ! D81   D(12,14,15,17)         -0.9626         calculate D2E/DX2 analytically  !
 ! D82   D(12,14,15,27)       -179.4535         calculate D2E/DX2 analytically  !
 ! D83   D(25,14,15,17)        177.7224         calculate D2E/DX2 analytically  !
 ! D84   D(25,14,15,27)         -0.7684         calculate D2E/DX2 analytically  !
 ! D85   D(14,15,17,16)          1.4891         calculate D2E/DX2 analytically  !
 ! D86   D(14,15,17,26)       -177.21           calculate D2E/DX2 analytically  !
 ! D87   D(27,15,17,16)        179.9904         calculate D2E/DX2 analytically  !
 ! D88   D(27,15,17,26)          1.2913         calculate D2E/DX2 analytically  !
 ! D89   D(13,16,17,15)          1.6765         calculate D2E/DX2 analytically  !
 ! D90   D(13,16,17,26)       -179.6208         calculate D2E/DX2 analytically  !
 ! D91   D(28,16,17,15)        178.8781         calculate D2E/DX2 analytically  !
 ! D92   D(28,16,17,26)         -2.4193         calculate D2E/DX2 analytically  !
 ! D93   D(13,16,28,29)        -55.7103         calculate D2E/DX2 analytically  !
 ! D94   D(13,16,28,31)        101.4602         calculate D2E/DX2 analytically  !
 ! D95   D(17,16,28,29)        126.9229         calculate D2E/DX2 analytically  !
 ! D96   D(17,16,28,31)        -75.9066         calculate D2E/DX2 analytically  !
 ! D97   D(5,21,32,22)          -0.6226         calculate D2E/DX2 analytically  !
 ! D98   D(5,21,32,35)        -178.6729         calculate D2E/DX2 analytically  !
 ! D99   D(34,21,32,22)        177.8136         calculate D2E/DX2 analytically  !
 ! D100  D(34,21,32,35)         -0.2367         calculate D2E/DX2 analytically  !
 ! D101  D(9,22,32,21)           2.6495         calculate D2E/DX2 analytically  !
 ! D102  D(9,22,32,35)        -179.3212         calculate D2E/DX2 analytically  !
 ! D103  D(33,22,32,21)       -172.8049         calculate D2E/DX2 analytically  !
 ! D104  D(33,22,32,35)          5.2244         calculate D2E/DX2 analytically  !
 ! D105  D(9,22,33,23)          -4.1221         calculate D2E/DX2 analytically  !
 ! D106  D(9,22,33,36)         177.693          calculate D2E/DX2 analytically  !
 ! D107  D(32,22,33,23)        171.3366         calculate D2E/DX2 analytically  !
 ! D108  D(32,22,33,36)         -6.8483         calculate D2E/DX2 analytically  !
 ! D109  D(10,23,33,22)         -0.4957         calculate D2E/DX2 analytically  !
 ! D110  D(10,23,33,36)        177.7029         calculate D2E/DX2 analytically  !
 ! D111  D(37,23,33,22)       -178.2355         calculate D2E/DX2 analytically  !
 ! D112  D(37,23,33,36)         -0.0369         calculate D2E/DX2 analytically  !
 ! D113  D(16,28,29,30)        -19.0394         calculate D2E/DX2 analytically  !
 ! D114  D(31,28,29,30)       -175.3286         calculate D2E/DX2 analytically  !
 --------------------------------------------------------------------------------
 Trust Radius=3.00D-01 FncErr=1.00D-07 GrdErr=1.00D-06 EigMax=2.50D+02 EigMin=1.00D-04
 Number of steps in this run=    222 maximum allowed number of steps=    222.
 Search for a saddle point of order  1.
 GradGradGradGradGradGradGradGradGradGradGradGradGradGradGradGradGradGrad

                          Input orientation:                          
 ---------------------------------------------------------------------
 Center     Atomic      Atomic             Coordinates (Angstroms)
 Number     Number       Type             X           Y           Z
 ---------------------------------------------------------------------
      1          6           0       -1.955408   -3.201544   -0.116206
      2          6           0       -0.644966   -2.632551   -0.427819
      3          6           0       -0.561575   -1.198680   -0.413734
      4          6           0       -3.090556   -2.466099    0.125978
      5          6           0       -3.046308   -1.033345    0.045223
      6          6           0       -1.786103   -0.509364   -0.231875
      7          6           0        0.510028   -0.150409   -0.372827
      8          6           0       -0.172682    1.082549   -0.314689
      9          6           0       -1.558204    0.868240   -0.221555
     10          6           0        0.357789    2.368050   -0.148421
     11          6           0        1.754575    2.428378   -0.085776
     12          6           0        2.523388    1.238009   -0.080223
     13          6           0        1.920192   -0.086096   -0.165744
     14          6           0        3.940301    1.319770    0.081448
     15          6           0        4.714568    0.197975    0.207833
     16          6           0        2.762742   -1.238472    0.038582
     17          6           0        4.117810   -1.088994    0.201308
     18          1           0       -0.060225   -3.223502   -1.122862
     19          1           0       -2.024627   -4.283988   -0.111354
     20          1           0       -4.021682   -2.975392    0.352684
     21          6           0       -4.075770   -0.060643    0.280158
     22          6           0       -2.507006    1.830422    0.043712
     23          6           0       -0.624626    3.424563    0.026880
     24          1           0        2.271807    3.377444    0.015986
     25          1           0        4.395489    2.303714    0.123839
     26          1           0        4.736132   -1.967835    0.347674
     27          1           0        5.786986    0.288046    0.338282
     28          6           0        2.026389   -2.530979   -0.009052
     29          6           0        0.987368   -2.753368    0.789539
     30          1           0        0.732537   -2.228192    1.702764
     31          1           0        2.116796   -3.090388   -0.941438
     32          6           0       -3.828034    1.308048    0.274913
     33          6           0       -1.976843    3.177612    0.123239
     34          1           0       -5.082713   -0.403762    0.495075
     35          1           0       -4.648507    1.987424    0.481563
     36          1           0       -2.651285    4.011017    0.291160
     37          1           0       -0.273113    4.446985    0.121277
 ---------------------------------------------------------------------
                    Distance matrix (angstroms):
                    1          2          3          4          5
     1  C    0.000000
     2  C    1.462229   0.000000
     3  C    2.458202   1.436363   0.000000
     4  C    1.374079   2.513028   2.879824   0.000000
     5  C    2.432531   2.923640   2.532168   1.435710   0.000000
     6  C    2.699977   2.418369   1.416933   2.378754   1.392644
     7  C    3.931114   2.738259   1.499626   4.309922   3.688071
     8  C    4.644455   3.746708   2.316258   4.615309   3.586680
     9  C    4.090478   3.623822   2.302685   3.686014   2.429331
    10  C    6.030945   5.107797   3.692856   5.944357   4.816104
    11  C    6.742471   5.611398   4.315977   6.890286   5.920233
    12  C    6.306389   5.014033   3.945336   6.728990   6.016336
    13  C    4.972801   3.623969   2.731027   5.554918   5.060426
    14  C    7.432411   6.074938   5.182150   7.985470   7.372324
    15  C    7.493351   6.094304   5.493148   8.247663   7.859630
    16  C    5.112587   3.711261   3.355184   5.981288   5.812674
    17  C    6.437986   5.046029   4.720906   7.339117   7.166034
    18  H    2.146056   1.083619   2.203206   3.363951   3.883027
    19  H    1.084666   2.175054   3.427985   2.120672   3.411016
    20  H    2.130843   3.482662   3.964397   1.085251   2.194865
    21  C    3.810289   4.345844   3.758481   2.603966   1.435666
    22  C    5.064634   4.858772   3.628969   4.336749   2.914105
    23  C    6.759937   6.074191   4.644620   6.386746   5.073246
    24  H    7.821119   6.695115   5.399410   7.931836   6.909288
    25  H    8.408292   7.076526   6.093294   8.876485   8.156132
    26  H    6.820112   5.477176   5.407129   7.845665   7.844177
    27  H    8.504614   7.105407   6.563544   9.297373   8.936389
    28  C    4.039288   2.705886   2.938766   5.119137   5.289434
    29  C    3.111457   2.039870   2.502827   4.141534   4.447812
    30  H    3.388379   2.569125   2.685923   4.142330   4.295902
    31  H    4.156466   2.846181   3.321250   5.352161   5.644694
    32  C    4.898584   5.114105   4.174647   3.848408   2.479108
    33  C    6.383684   5.986281   4.630686   5.752551   4.345342
    34  H    4.240435   5.051023   4.679585   2.891048   2.178460
    35  H    5.876691   6.180573   5.258881   4.731545   3.447097
    36  H    7.257495   6.977051   5.657270   6.494095   5.065779
    37  H    7.834954   7.110528   5.678290   7.465168   6.142509
                    6          7          8          9         10
     6  C    0.000000
     7  C    2.328290   0.000000
     8  C    2.268077   1.410553   0.000000
     9  C    1.396366   2.310436   1.405088   0.000000
    10  C    3.589255   2.533016   1.400556   2.434298   0.000000
    11  C    4.603050   2.877749   2.361774   3.664283   1.399491
    12  C    4.652744   2.463116   2.710708   4.100743   2.443658
    13  C    3.730972   1.426738   2.401674   3.607369   2.909336
    14  C    6.019602   3.759596   4.138820   5.525328   3.739803
    15  C    6.553808   4.258720   4.994068   6.323077   4.880335
    16  C    4.614839   2.535322   3.758810   4.814196   4.338867
    17  C    5.948093   3.771825   4.836339   6.018863   5.119690
    18  H    3.337523   3.214287   4.382678   4.449567   5.691197
    19  H    3.784073   4.855854   5.680736   5.174471   7.065896
    20  H    3.379470   5.389183   5.632679   4.601302   6.926994
    21  C    2.388745   4.632925   4.110332   2.729959   5.073330
    22  C    2.463787   3.633138   2.477263   1.377093   2.921132
    23  C    4.109959   3.771953   2.409554   2.732778   1.453303
    24  H    5.624531   3.962422   3.369186   4.584923   2.170108
    25  H    6.800884   4.622359   4.748867   6.134032   4.047380
    26  H    6.708395   4.656406   5.817218   6.927193   6.181901
    27  H    7.636270   5.342678   6.047747   7.389307   5.834336
    28  C    4.321073   2.845838   4.241098   4.944609   5.177271
    29  C    3.710927   2.890388   4.156837   4.540737   5.244527
    30  H    3.611197   2.945296   3.981274   4.305623   4.969181
    31  H    4.732630   3.398308   4.800826   5.449274   5.789432
    32  C    2.780162   4.622277   3.709458   2.364749   4.338655
    33  C    3.708946   4.184057   2.799298   2.372202   2.485900
    34  H    3.377461   5.665350   5.193577   3.814933   6.139714
    35  H    3.864751   5.648964   4.635281   3.361089   5.060114
    36  H    4.632057   5.268040   3.884128   3.366712   3.456457
    37  H    5.194155   4.689721   3.394051   3.817906   2.189234
                   11         12         13         14         15
    11  C    0.000000
    12  C    1.417068   0.000000
    13  C    2.521191   1.457537   0.000000
    14  C    2.456496   1.428448   2.473541   0.000000
    15  C    3.717857   2.442523   2.833513   1.368900   0.000000
    16  C    3.804951   2.490856   1.442085   2.816573   2.429331
    17  C    4.247258   2.834852   2.443370   2.418268   1.418609
    18  H    6.026010   5.259965   3.831637   6.172187   6.022948
    19  H    7.703173   7.153870   5.760803   8.186553   8.099791
    20  H    7.922002   7.796031   6.627418   9.050699   9.295876
    21  C    6.349965   6.735374   6.012573   8.136487   8.794439
    22  C    4.305275   5.066673   4.828767   6.467608   7.405603
    23  C    2.581797   3.834382   4.340268   5.027096   6.241042
    24  H    1.085638   2.156324   3.486082   2.649940   4.014089
    25  H    2.652151   2.163823   3.452846   1.084960   2.131432
    26  H    5.329564   3.918771   3.425501   3.393018   2.170427
    27  H    4.584887   3.424711   3.917412   2.130883   1.084071
    28  C    4.967393   3.802281   2.452200   4.301107   3.836735
    29  C    5.310864   4.364279   2.982795   5.080518   4.789658
    30  H    5.091864   4.289608   3.080653   5.050391   4.896701
    31  H    5.596440   4.431933   3.109039   4.880672   4.345408
    32  C    5.705327   6.361728   5.931266   7.770753   8.614686
    33  C    3.811629   4.904644   5.091383   6.202090   7.325324
    34  H    7.423403   7.802509   7.041184   9.195457   9.819945
    35  H    6.443273   7.232794   6.918547   8.624006   9.536468
    36  H    4.696640   5.882579   6.155770   7.122906   8.294698
    37  H    2.868652   4.261285   5.043986   5.247277   6.552751
                   16         17         18         19         20
    16  C    0.000000
    17  C    1.372965   0.000000
    18  H    3.641214   4.874990   0.000000
    19  H    5.675963   6.930749   2.450848   0.000000
    20  H    7.010275   8.356599   4.234612   2.432279   0.000000
    21  C    6.943406   8.258237   5.300636   4.711381   2.916153
    22  C    6.098228   7.241272   5.734961   6.135368   5.048322
    23  C    5.763531   6.549299   6.770319   7.835871   7.252969
    24  H    4.642005   4.836439   7.092802   8.784822   8.948737
    25  H    3.901309   3.404934   7.208174   9.201686   9.938315
    26  H    2.126447   1.084484   5.171481   7.161224   8.815583
    27  H    3.400901   2.168213   6.975370   9.062393  10.337321
    28  C    1.488307   2.549042   2.464573   4.415228   6.075156
    29  C    2.451693   3.593859   2.230640   3.496644   5.032963
    30  H    2.805491   3.874560   3.098915   3.888351   4.998362
    31  H    2.192551   3.052131   2.188619   4.389203   6.274463
    32  C    7.069579   8.299859   6.056823   5.888323   4.288520
    33  C    6.478629   7.440082   6.797091   7.465440   6.487948
    34  H    7.902929   9.230681   5.982812   4.977530   2.785560
    35  H    8.095014   9.294687   7.126027   6.823995   5.003905
    36  H    7.545371   8.475779   7.813534   8.328375   7.119809
    37  H    6.445749   7.066376   7.773646   8.907963   8.318473
                   21         22         23         24         25
    21  C    0.000000
    22  C    2.468411   0.000000
    23  C    4.911334   2.466764   0.000000
    24  H    7.223708   5.023057   2.896837   0.000000
    25  H    8.796411   6.919166   5.144634   2.382132   0.000000
    26  H    9.016183   8.184265   7.610426   5.895331   4.290952
    27  H    9.869089   8.441327   7.144472   4.690921   2.458692
    28  C    6.589579   6.290968   6.519022   5.913571   5.385587
    29  C    5.757222   5.811888   6.430164   6.311499   6.134535
    30  H    5.462773   5.451554   6.050134   6.052911   6.037250
    31  H    7.001395   6.823814   7.134257   6.540148   5.951772
    32  C    1.390941   1.439251   3.847464   6.446511   8.284957
    33  C    3.862177   1.449937   1.377955   4.254699   6.431976
    34  H    1.085290   3.439415   5.894898   8.283478   9.864307
    35  H    2.136158   2.191436   4.296943   7.073872   9.056593
    36  H    4.313664   2.199328   2.126292   4.971315   7.252579
    37  H    5.899505   3.441322   1.085274   2.762539   5.137067
                   26         27         28         29         30
    26  H    0.000000
    27  H    2.488651   0.000000
    28  C    2.790536   4.712710   0.000000
    29  C    3.855585   5.700014   1.329199   0.000000
    30  H    4.234717   5.808676   2.167036   1.083849   0.000000
    31  H    3.127756   5.149931   1.091080   2.094152   3.106664
    32  C    9.169604   9.669179   7.006642   6.320446   5.944961
    33  C    8.461089   8.286910   6.973620   6.663860   6.249668
    34  H    9.943730  10.892821   7.437643   6.515615   6.213227
    35  H   10.184962  10.573927   8.075327   7.371095   6.943946
    36  H    9.503883   9.223186   8.047886   7.697083   7.236754
    37  H    8.142095   7.353140   7.348243   7.340332   6.933284
                   31         32         33         34         35
    31  H    0.000000
    32  C    7.494448   0.000000
    33  C    7.561696   2.635371   0.000000
    34  H    7.817574   2.133772   4.755095   0.000000
    35  H    8.577787   1.085095   2.946648   2.430327   0.000000
    36  H    8.641982   2.948058   1.085188   5.044175   2.849575
    37  H    7.978284   4.744891   2.124619   6.841179   5.032228
                   36         37
    36  H    0.000000
    37  H    2.423764   0.000000
 Stoichiometry    C24H13(2)
 Framework group  C1[X(C24H13)]
 Deg. of freedom   105
 Full point group                 C1      NOp   1
 Largest Abelian subgroup         C1      NOp   1
 Largest concise Abelian subgroup C1      NOp   1
                         Standard orientation:                         
 ---------------------------------------------------------------------
 Center     Atomic      Atomic             Coordinates (Angstroms)
 Number     Number       Type             X           Y           Z
 ---------------------------------------------------------------------
      1          6           0       -1.955408   -3.201544   -0.116206
      2          6           0       -0.644966   -2.632551   -0.427819
      3          6           0       -0.561575   -1.198680   -0.413734
      4          6           0       -3.090556   -2.466099    0.125978
      5          6           0       -3.046308   -1.033345    0.045223
      6          6           0       -1.786103   -0.509364   -0.231875
      7          6           0        0.510028   -0.150409   -0.372827
      8          6           0       -0.172682    1.082549   -0.314689
      9          6           0       -1.558204    0.868240   -0.221555
     10          6           0        0.357789    2.368050   -0.148421
     11          6           0        1.754575    2.428378   -0.085776
     12          6           0        2.523388    1.238009   -0.080223
     13          6           0        1.920192   -0.086096   -0.165744
     14          6           0        3.940301    1.319770    0.081448
     15          6           0        4.714568    0.197975    0.207833
     16          6           0        2.762742   -1.238472    0.038582
     17          6           0        4.117810   -1.088994    0.201308
     18          1           0       -0.060225   -3.223502   -1.122862
     19          1           0       -2.024627   -4.283988   -0.111354
     20          1           0       -4.021682   -2.975392    0.352684
     21          6           0       -4.075770   -0.060643    0.280158
     22          6           0       -2.507006    1.830422    0.043712
     23          6           0       -0.624626    3.424563    0.026880
     24          1           0        2.271807    3.377444    0.015986
     25          1           0        4.395489    2.303714    0.123839
     26          1           0        4.736132   -1.967835    0.347674
     27          1           0        5.786986    0.288046    0.338282
     28          6           0        2.026389   -2.530979   -0.009052
     29          6           0        0.987368   -2.753368    0.789539
     30          1           0        0.732537   -2.228192    1.702764
     31          1           0        2.116796   -3.090388   -0.941438
     32          6           0       -3.828034    1.308048    0.274913
     33          6           0       -1.976843    3.177612    0.123239
     34          1           0       -5.082713   -0.403762    0.495075
     35          1           0       -4.648507    1.987424    0.481563
     36          1           0       -2.651285    4.011017    0.291160
     37          1           0       -0.273113    4.446985    0.121277
 ---------------------------------------------------------------------
 Rotational constants (GHZ):           0.4295486           0.2514831           0.1612651
 Standard basis: 6-311+G(d,p) (5D, 7F)
 There are   630 symmetry adapted cartesian basis functions of A   symmetry.
 There are   606 symmetry adapted basis functions of A   symmetry.
   606 basis functions,   968 primitive gaussians,   630 cartesian basis functions
    79 alpha electrons       78 beta electrons
       nuclear repulsion energy      1838.2126131856 Hartrees.
 NAtoms=   37 NActive=   37 NUniq=   37 SFac= 1.00D+00 NAtFMM=   60 NAOKFM=F Big=F
 Integral buffers will be    131072 words long.
 Raffenetti 2 integral format.
 Two-electron integral symmetry is turned on.
 One-electron integrals computed using PRISM.
 NBasis=   606 RedAO= T EigKep=  1.31D-06  NBF=   606
 NBsUse=   591 1.00D-06 EigRej=  9.36D-07 NBFU=   591
 ExpMin= 4.38D-02 ExpMax= 4.56D+03 ExpMxC= 6.82D+02 IAcc=2 IRadAn=         4 AccDes= 0.00D+00
 Harris functional with IExCor=  402 and IRadAn=       4 diagonalized for initial guess.
 HarFok:  IExCor=  402 AccDes= 0.00D+00 IRadAn=         4 IDoV= 1 UseB2=F ITyADJ=14
 ICtDFT=  3500011 ScaDFX=  1.000000  1.000000  1.000000  1.000000
 FoFCou: FMM=F IPFlag=           0 FMFlag=      100000 FMFlg1=           0
         NFxFlg=           0 DoJE=T BraDBF=F KetDBF=T FulRan=T
         wScrn=  0.000000 ICntrl=       500 IOpCl=  0 I1Cent=   200000004 NGrid=           0
         NMat0=    1 NMatS0=      1 NMatT0=    0 NMatD0=    1 NMtDS0=    0 NMtDT0=    0
 Petite list used in FoFCou.
 Initial guess <Sx>= 0.0000 <Sy>= 0.0000 <Sz>= 0.5000 <S**2>= 0.7500 S= 0.5000
 Requested convergence on RMS density matrix=1.00D-08 within  32 cycles.
 Requested convergence on MAX density matrix=1.00D-06.
 Requested convergence on             energy=1.00D-06.
 No special actions if energy rises.
 Restarting incremental Fock formation.
 SCF Done:  E(UB3LYP) =  -922.469950913     A.U. after   27 cycles
            NFock= 27  Conv=0.60D-08     -V/T= 2.0045
 <Sx>= 0.0000 <Sy>= 0.0000 <Sz>= 0.5000 <S**2>= 0.8083 S= 0.5287
 <L.S>=  0.00000000000    
 Annihilation of the first spin contaminant:
 S**2 before annihilation     0.8083,   after     0.7519
 QCSCF skips out because SCF is already converged.
 DoSCS=F DFT=T ScalE2(SS,OS)=  1.000000  1.000000
 Range of M.O.s used for correlation:     1   591
 NBasis=   606 NAE=    79 NBE=    78 NFC=     0 NFV=     0
 NROrb=    591 NOA=    79 NOB=    78 NVA=   512 NVB=   513

 **** Warning!!: The largest alpha MO coefficient is  0.14970293D+03


 **** Warning!!: The smallest alpha delta epsilon is  0.98241751D-01


 **** Warning!!: The largest beta MO coefficient is  0.15329231D+03


 **** Warning!!: The smallest beta delta epsilon is  0.87821259D-01

 Symmetrizing basis deriv contribution to polar:
 IMax=3 JMax=2 DiffMx= 0.00D+00
 G2DrvN: will do    38 centers at a time, making    1 passes.
 Calling FoFCou, ICntrl=  3107 FMM=F I1Cent=   0 AccDes= 0.00D+00.
 End of G2Drv F.D. properties file   721 does not exist.
 End of G2Drv F.D. properties file   722 does not exist.
 End of G2Drv F.D. properties file   788 does not exist.
          IDoAtm=1111111111111111111111111111111111111
          Differentiating once with respect to nuclear coordinates.
 CalDSu exits because no D1Ps are significant.
          There are   114 degrees of freedom in the 1st order CPHF.  IDoFFX=6 NUNeed=     0.
    108 vectors produced by pass  0 Test12= 8.05D-14 1.00D-09 XBig12= 4.94D-01 2.20D-01.
 AX will form   108 AO Fock derivatives at one time.
    108 vectors produced by pass  1 Test12= 8.05D-14 1.00D-09 XBig12= 1.04D-01 5.33D-02.
    108 vectors produced by pass  2 Test12= 8.05D-14 1.00D-09 XBig12= 2.37D-03 9.33D-03.
    108 vectors produced by pass  3 Test12= 8.05D-14 1.00D-09 XBig12= 4.04D-05 1.26D-03.
    108 vectors produced by pass  4 Test12= 8.05D-14 1.00D-09 XBig12= 3.66D-07 6.57D-05.
    108 vectors produced by pass  5 Test12= 8.05D-14 1.00D-09 XBig12= 2.21D-09 4.11D-06.
    103 vectors produced by pass  6 Test12= 8.05D-14 1.00D-09 XBig12= 1.22D-11 2.13D-07.
     48 vectors produced by pass  7 Test12= 8.05D-14 1.00D-09 XBig12= 6.87D-14 1.41D-08.
     24 vectors produced by pass  8 Test12= 8.05D-14 1.00D-09 XBig12= 3.59D-15 4.92D-09.
     24 vectors produced by pass  9 Test12= 8.05D-14 1.00D-09 XBig12= 2.34D-14 1.51D-08.
     24 vectors produced by pass 10 Test12= 8.05D-14 1.00D-09 XBig12= 3.35D-13 4.77D-08.
     15 vectors produced by pass 11 Test12= 8.05D-14 1.00D-09 XBig12= 1.73D-14 7.57D-09.
     15 vectors produced by pass 12 Test12= 8.05D-14 1.00D-09 XBig12= 9.18D-14 2.13D-08.
     15 vectors produced by pass 13 Test12= 8.05D-14 1.00D-09 XBig12= 4.10D-14 9.85D-09.
     15 vectors produced by pass 14 Test12= 8.05D-14 1.00D-09 XBig12= 7.03D-14 1.37D-08.
     15 vectors produced by pass 15 Test12= 8.05D-14 1.00D-09 XBig12= 6.36D-14 1.45D-08.
     15 vectors produced by pass 16 Test12= 8.05D-14 1.00D-09 XBig12= 6.08D-14 1.57D-08.
     11 vectors produced by pass 17 Test12= 8.05D-14 1.00D-09 XBig12= 1.43D-14 7.18D-09.
     11 vectors produced by pass 18 Test12= 8.05D-14 1.00D-09 XBig12= 9.75D-14 1.55D-08.
     11 vectors produced by pass 19 Test12= 8.05D-14 1.00D-09 XBig12= 1.21D-14 5.69D-09.
     11 vectors produced by pass 20 Test12= 8.05D-14 1.00D-09 XBig12= 4.75D-14 1.38D-08.
     11 vectors produced by pass 21 Test12= 8.05D-14 1.00D-09 XBig12= 7.21D-14 1.45D-08.
     11 vectors produced by pass 22 Test12= 8.05D-14 1.00D-09 XBig12= 1.93D-14 7.28D-09.
     11 vectors produced by pass 23 Test12= 8.05D-14 1.00D-09 XBig12= 5.40D-14 1.06D-08.
     11 vectors produced by pass 24 Test12= 8.05D-14 1.00D-09 XBig12= 5.45D-14 1.14D-08.
     11 vectors produced by pass 25 Test12= 8.05D-14 1.00D-09 XBig12= 7.08D-14 1.49D-08.
     11 vectors produced by pass 26 Test12= 8.05D-14 1.00D-09 XBig12= 5.22D-14 1.39D-08.
     11 vectors produced by pass 27 Test12= 8.05D-14 1.00D-09 XBig12= 3.02D-14 1.11D-08.
     11 vectors produced by pass 28 Test12= 8.05D-14 1.00D-09 XBig12= 7.77D-14 1.60D-08.
     11 vectors produced by pass 29 Test12= 8.05D-14 1.00D-09 XBig12= 5.30D-14 1.28D-08.
     11 vectors produced by pass 30 Test12= 8.05D-14 1.00D-09 XBig12= 6.23D-14 1.35D-08.
     10 vectors produced by pass 31 Test12= 8.05D-14 1.00D-09 XBig12= 2.69D-14 8.30D-09.
     10 vectors produced by pass 32 Test12= 8.05D-14 1.00D-09 XBig12= 5.54D-14 1.57D-08.
     10 vectors produced by pass 33 Test12= 8.05D-14 1.00D-09 XBig12= 3.28D-14 9.46D-09.
     10 vectors produced by pass 34 Test12= 8.05D-14 1.00D-09 XBig12= 5.89D-14 1.10D-08.
     10 vectors produced by pass 35 Test12= 8.05D-14 1.00D-09 XBig12= 7.28D-14 1.50D-08.
     10 vectors produced by pass 36 Test12= 8.05D-14 1.00D-09 XBig12= 3.17D-14 1.03D-08.
      8 vectors produced by pass 37 Test12= 8.05D-14 1.00D-09 XBig12= 2.94D-14 8.90D-09.
      8 vectors produced by pass 38 Test12= 8.05D-14 1.00D-09 XBig12= 9.85D-14 1.49D-08.
      8 vectors produced by pass 39 Test12= 8.05D-14 1.00D-09 XBig12= 4.11D-14 9.17D-09.
      8 vectors produced by pass 40 Test12= 8.05D-14 1.00D-09 XBig12= 9.05D-14 1.46D-08.
      8 vectors produced by pass 41 Test12= 8.05D-14 1.00D-09 XBig12= 2.63D-14 7.26D-09.
      8 vectors produced by pass 42 Test12= 8.05D-14 1.00D-09 XBig12= 5.48D-14 1.22D-08.
      7 vectors produced by pass 43 Test12= 8.05D-14 1.00D-09 XBig12= 2.45D-14 8.51D-09.
      7 vectors produced by pass 44 Test12= 8.05D-14 1.00D-09 XBig12= 2.65D-14 8.27D-09.
      7 vectors produced by pass 45 Test12= 8.05D-14 1.00D-09 XBig12= 5.11D-14 1.16D-08.
      7 vectors produced by pass 46 Test12= 8.05D-14 1.00D-09 XBig12= 2.21D-14 8.44D-09.
      7 vectors produced by pass 47 Test12= 8.05D-14 1.00D-09 XBig12= 8.22D-14 1.29D-08.
      7 vectors produced by pass 48 Test12= 8.05D-14 1.00D-09 XBig12= 2.16D-14 7.18D-09.
      7 vectors produced by pass 49 Test12= 8.05D-14 1.00D-09 XBig12= 1.09D-13 1.46D-08.
      7 vectors produced by pass 50 Test12= 8.05D-14 1.00D-09 XBig12= 2.29D-14 7.89D-09.
      5 vectors produced by pass 51 Test12= 8.05D-14 1.00D-09 XBig12= 1.68D-14 6.33D-09.
      5 vectors produced by pass 52 Test12= 8.05D-14 1.00D-09 XBig12= 4.70D-14 8.69D-09.
      5 vectors produced by pass 53 Test12= 8.05D-14 1.00D-09 XBig12= 4.29D-14 8.21D-09.
      5 vectors produced by pass 54 Test12= 8.05D-14 1.00D-09 XBig12= 5.87D-14 1.15D-08.
      5 vectors produced by pass 55 Test12= 8.05D-14 1.00D-09 XBig12= 3.17D-14 7.16D-09.
      5 vectors produced by pass 56 Test12= 8.05D-14 1.00D-09 XBig12= 5.23D-14 9.31D-09.
      5 vectors produced by pass 57 Test12= 8.05D-14 1.00D-09 XBig12= 2.94D-14 7.05D-09.
      5 vectors produced by pass 58 Test12= 8.05D-14 1.00D-09 XBig12= 2.77D-14 7.83D-09.
      5 vectors produced by pass 59 Test12= 8.05D-14 1.00D-09 XBig12= 4.13D-14 8.25D-09.
      5 vectors produced by pass 60 Test12= 8.05D-14 1.00D-09 XBig12= 1.67D-14 5.65D-09.
      5 vectors produced by pass 61 Test12= 8.05D-14 1.00D-09 XBig12= 4.99D-14 1.07D-08.
      5 vectors produced by pass 62 Test12= 8.05D-14 1.00D-09 XBig12= 5.21D-14 9.72D-09.
      4 vectors produced by pass 63 Test12= 8.05D-14 1.00D-09 XBig12= 1.21D-14 5.06D-09.
      4 vectors produced by pass 64 Test12= 8.05D-14 1.00D-09 XBig12= 2.72D-14 8.48D-09.
      4 vectors produced by pass 65 Test12= 8.05D-14 1.00D-09 XBig12= 2.98D-14 8.80D-09.
      4 vectors produced by pass 66 Test12= 8.05D-14 1.00D-09 XBig12= 1.95D-14 6.15D-09.
      4 vectors produced by pass 67 Test12= 8.05D-14 1.00D-09 XBig12= 3.76D-14 8.22D-09.
      4 vectors produced by pass 68 Test12= 8.05D-14 1.00D-09 XBig12= 2.40D-14 7.44D-09.
      4 vectors produced by pass 69 Test12= 8.05D-14 1.00D-09 XBig12= 3.37D-14 9.86D-09.
      4 vectors produced by pass 70 Test12= 8.05D-14 1.00D-09 XBig12= 6.28D-14 1.23D-08.
      4 vectors produced by pass 71 Test12= 8.05D-14 1.00D-09 XBig12= 2.82D-14 8.70D-09.
      4 vectors produced by pass 72 Test12= 8.05D-14 1.00D-09 XBig12= 4.16D-14 1.08D-08.
      4 vectors produced by pass 73 Test12= 8.05D-14 1.00D-09 XBig12= 3.76D-14 8.74D-09.
      4 vectors produced by pass 74 Test12= 8.05D-14 1.00D-09 XBig12= 4.34D-14 1.11D-08.
      4 vectors produced by pass 75 Test12= 8.05D-14 1.00D-09 XBig12= 1.64D-14 5.53D-09.
      4 vectors produced by pass 76 Test12= 8.05D-14 1.00D-09 XBig12= 2.61D-14 8.26D-09.
      4 vectors produced by pass 77 Test12= 8.05D-14 1.00D-09 XBig12= 4.95D-14 1.34D-08.
      4 vectors produced by pass 78 Test12= 8.05D-14 1.00D-09 XBig12= 1.85D-14 6.80D-09.
      4 vectors produced by pass 79 Test12= 8.05D-14 1.00D-09 XBig12= 4.30D-14 9.91D-09.
      4 vectors produced by pass 80 Test12= 8.05D-14 1.00D-09 XBig12= 4.72D-14 9.27D-09.
      4 vectors produced by pass 81 Test12= 8.05D-14 1.00D-09 XBig12= 5.55D-14 1.11D-08.
      4 vectors produced by pass 82 Test12= 8.05D-14 1.00D-09 XBig12= 3.83D-14 8.06D-09.
      4 vectors produced by pass 83 Test12= 8.05D-14 1.00D-09 XBig12= 3.17D-14 8.09D-09.
      4 vectors produced by pass 84 Test12= 8.05D-14 1.00D-09 XBig12= 1.48D-14 5.66D-09.
      4 vectors produced by pass 85 Test12= 8.05D-14 1.00D-09 XBig12= 2.93D-14 7.08D-09.
      4 vectors produced by pass 86 Test12= 8.05D-14 1.00D-09 XBig12= 3.76D-14 9.14D-09.
      3 vectors produced by pass 87 Test12= 8.05D-14 1.00D-09 XBig12= 1.24D-14 5.63D-09.
      3 vectors produced by pass 88 Test12= 8.05D-14 1.00D-09 XBig12= 4.59D-14 8.56D-09.
      3 vectors produced by pass 89 Test12= 8.05D-14 1.00D-09 XBig12= 2.47D-14 6.30D-09.
      3 vectors produced by pass 90 Test12= 8.05D-14 1.00D-09 XBig12= 2.70D-14 7.02D-09.
      3 vectors produced by pass 91 Test12= 8.05D-14 1.00D-09 XBig12= 1.56D-14 5.47D-09.
      3 vectors produced by pass 92 Test12= 8.05D-14 1.00D-09 XBig12= 1.52D-14 4.84D-09.
      3 vectors produced by pass 93 Test12= 8.05D-14 1.00D-09 XBig12= 5.51D-14 9.64D-09.
      3 vectors produced by pass 94 Test12= 8.05D-14 1.00D-09 XBig12= 2.52D-14 7.22D-09.
      3 vectors produced by pass 95 Test12= 8.05D-14 1.00D-09 XBig12= 3.70D-14 8.20D-09.
      3 vectors produced by pass 96 Test12= 8.05D-14 1.00D-09 XBig12= 1.83D-14 5.76D-09.
      3 vectors produced by pass 97 Test12= 8.05D-14 1.00D-09 XBig12= 1.25D-14 5.82D-09.
      3 vectors produced by pass 98 Test12= 8.05D-14 1.00D-09 XBig12= 1.93D-14 6.67D-09.
      3 vectors produced by pass 99 Test12= 8.05D-14 1.00D-09 XBig12= 4.08D-14 8.37D-09.
      3 vectors produced by pass100 Test12= 8.05D-14 1.00D-09 XBig12= 3.14D-14 7.23D-09.
      3 vectors produced by pass101 Test12= 8.05D-14 1.00D-09 XBig12= 8.80D-15 4.47D-09.
      3 vectors produced by pass102 Test12= 8.05D-14 1.00D-09 XBig12= 1.65D-14 5.57D-09.
      3 vectors produced by pass103 Test12= 8.05D-14 1.00D-09 XBig12= 1.98D-14 6.18D-09.
      3 vectors produced by pass104 Test12= 8.05D-14 1.00D-09 XBig12= 3.33D-14 7.97D-09.
      3 vectors produced by pass105 Test12= 8.05D-14 1.00D-09 XBig12= 1.57D-14 5.37D-09.
      3 vectors produced by pass106 Test12= 8.05D-14 1.00D-09 XBig12= 2.07D-14 5.25D-09.
      3 vectors produced by pass107 Test12= 8.05D-14 1.00D-09 XBig12= 1.66D-14 5.23D-09.
      3 vectors produced by pass108 Test12= 8.05D-14 1.00D-09 XBig12= 2.16D-14 7.55D-09.
      3 vectors produced by pass109 Test12= 8.05D-14 1.00D-09 XBig12= 8.66D-15 3.42D-09.
      3 vectors produced by pass110 Test12= 8.05D-14 1.00D-09 XBig12= 2.61D-14 7.52D-09.
      3 vectors produced by pass111 Test12= 8.05D-14 1.00D-09 XBig12= 1.43D-14 5.92D-09.
      3 vectors produced by pass112 Test12= 8.05D-14 1.00D-09 XBig12= 2.88D-14 6.76D-09.
      3 vectors produced by pass113 Test12= 8.05D-14 1.00D-09 XBig12= 5.39D-14 1.02D-08.
      3 vectors produced by pass114 Test12= 8.05D-14 1.00D-09 XBig12= 2.42D-14 6.68D-09.
      3 vectors produced by pass115 Test12= 8.05D-14 1.00D-09 XBig12= 2.24D-14 6.10D-09.
      3 vectors produced by pass116 Test12= 8.05D-14 1.00D-09 XBig12= 3.73D-14 7.75D-09.
      3 vectors produced by pass117 Test12= 8.05D-14 1.00D-09 XBig12= 2.62D-14 7.32D-09.
      3 vectors produced by pass118 Test12= 8.05D-14 1.00D-09 XBig12= 2.44D-14 6.27D-09.
      3 vectors produced by pass119 Test12= 8.05D-14 1.00D-09 XBig12= 8.15D-15 3.59D-09.
      3 vectors produced by pass120 Test12= 8.05D-14 1.00D-09 XBig12= 3.50D-14 8.53D-09.
      3 vectors produced by pass121 Test12= 8.05D-14 1.00D-09 XBig12= 3.45D-14 7.93D-09.
      3 vectors produced by pass122 Test12= 8.05D-14 1.00D-09 XBig12= 3.59D-14 8.60D-09.
      3 vectors produced by pass123 Test12= 8.05D-14 1.00D-09 XBig12= 2.32D-14 6.09D-09.
      3 vectors produced by pass124 Test12= 8.05D-14 1.00D-09 XBig12= 2.37D-14 6.78D-09.
      3 vectors produced by pass125 Test12= 8.05D-14 1.00D-09 XBig12= 8.36D-15 3.79D-09.
      3 vectors produced by pass126 Test12= 8.05D-14 1.00D-09 XBig12= 2.36D-14 6.98D-09.
      3 vectors produced by pass127 Test12= 8.05D-14 1.00D-09 XBig12= 1.31D-14 5.10D-09.
      3 vectors produced by pass128 Test12= 8.05D-14 1.00D-09 XBig12= 2.35D-14 7.00D-09.
      3 vectors produced by pass129 Test12= 8.05D-14 1.00D-09 XBig12= 2.84D-14 7.60D-09.
      3 vectors produced by pass130 Test12= 8.05D-14 1.00D-09 XBig12= 1.30D-14 4.99D-09.
      3 vectors produced by pass131 Test12= 8.05D-14 1.00D-09 XBig12= 1.28D-14 5.18D-09.
      3 vectors produced by pass132 Test12= 8.05D-14 1.00D-09 XBig12= 1.36D-14 4.88D-09.
      3 vectors produced by pass133 Test12= 8.05D-14 1.00D-09 XBig12= 2.23D-14 6.78D-09.
      3 vectors produced by pass134 Test12= 8.05D-14 1.00D-09 XBig12= 4.39D-14 8.78D-09.
      3 vectors produced by pass135 Test12= 8.05D-14 1.00D-09 XBig12= 2.37D-14 5.98D-09.
      3 vectors produced by pass136 Test12= 8.05D-14 1.00D-09 XBig12= 6.92D-15 3.40D-09.
      3 vectors produced by pass137 Test12= 8.05D-14 1.00D-09 XBig12= 4.02D-14 9.34D-09.
      3 vectors produced by pass138 Test12= 8.05D-14 1.00D-09 XBig12= 2.53D-14 6.31D-09.
      3 vectors produced by pass139 Test12= 8.05D-14 1.00D-09 XBig12= 1.03D-14 5.11D-09.
      3 vectors produced by pass140 Test12= 8.05D-14 1.00D-09 XBig12= 2.19D-14 7.04D-09.
      3 vectors produced by pass141 Test12= 8.05D-14 1.00D-09 XBig12= 2.61D-14 7.44D-09.
      3 vectors produced by pass142 Test12= 8.05D-14 1.00D-09 XBig12= 1.81D-14 6.07D-09.
      3 vectors produced by pass143 Test12= 8.05D-14 1.00D-09 XBig12= 2.47D-14 6.32D-09.
      3 vectors produced by pass144 Test12= 8.05D-14 1.00D-09 XBig12= 6.88D-15 4.46D-09.
      3 vectors produced by pass145 Test12= 8.05D-14 1.00D-09 XBig12= 4.12D-14 8.30D-09.
      3 vectors produced by pass146 Test12= 8.05D-14 1.00D-09 XBig12= 3.43D-14 7.43D-09.
      3 vectors produced by pass147 Test12= 8.05D-14 1.00D-09 XBig12= 3.21D-14 7.76D-09.
      3 vectors produced by pass148 Test12= 8.05D-14 1.00D-09 XBig12= 7.93D-15 3.94D-09.
      3 vectors produced by pass149 Test12= 8.05D-14 1.00D-09 XBig12= 1.88D-14 5.09D-09.
      3 vectors produced by pass150 Test12= 8.05D-14 1.00D-09 XBig12= 2.44D-14 6.66D-09.
      3 vectors produced by pass151 Test12= 8.05D-14 1.00D-09 XBig12= 2.57D-14 6.48D-09.
      3 vectors produced by pass152 Test12= 8.05D-14 1.00D-09 XBig12= 2.42D-14 7.16D-09.
      3 vectors produced by pass153 Test12= 8.05D-14 1.00D-09 XBig12= 1.32D-14 4.82D-09.
      3 vectors produced by pass154 Test12= 8.05D-14 1.00D-09 XBig12= 8.96D-15 4.17D-09.
      3 vectors produced by pass155 Test12= 8.05D-14 1.00D-09 XBig12= 2.09D-14 6.50D-09.
      3 vectors produced by pass156 Test12= 8.05D-14 1.00D-09 XBig12= 1.52D-14 5.35D-09.
      3 vectors produced by pass157 Test12= 8.05D-14 1.00D-09 XBig12= 3.58D-14 7.69D-09.
      3 vectors produced by pass158 Test12= 8.05D-14 1.00D-09 XBig12= 1.22D-14 4.06D-09.
      3 vectors produced by pass159 Test12= 8.05D-14 1.00D-09 XBig12= 1.69D-14 5.14D-09.
      3 vectors produced by pass160 Test12= 8.05D-14 1.00D-09 XBig12= 3.56D-14 7.74D-09.
      3 vectors produced by pass161 Test12= 8.05D-14 1.00D-09 XBig12= 1.76D-14 5.29D-09.
      3 vectors produced by pass162 Test12= 8.05D-14 1.00D-09 XBig12= 1.13D-14 4.36D-09.
      3 vectors produced by pass163 Test12= 8.05D-14 1.00D-09 XBig12= 1.63D-14 5.11D-09.
      3 vectors produced by pass164 Test12= 8.05D-14 1.00D-09 XBig12= 8.70D-15 3.89D-09.
      3 vectors produced by pass165 Test12= 8.05D-14 1.00D-09 XBig12= 1.58D-14 6.37D-09.
      3 vectors produced by pass166 Test12= 8.05D-14 1.00D-09 XBig12= 1.93D-14 5.57D-09.
      3 vectors produced by pass167 Test12= 8.05D-14 1.00D-09 XBig12= 2.34D-14 5.78D-09.
      3 vectors produced by pass168 Test12= 8.05D-14 1.00D-09 XBig12= 1.38D-14 4.78D-09.
      3 vectors produced by pass169 Test12= 8.05D-14 1.00D-09 XBig12= 1.44D-14 5.32D-09.
      3 vectors produced by pass170 Test12= 8.05D-14 1.00D-09 XBig12= 2.78D-14 6.78D-09.
      3 vectors produced by pass171 Test12= 8.05D-14 1.00D-09 XBig12= 1.53D-14 5.05D-09.
      3 vectors produced by pass172 Test12= 8.05D-14 1.00D-09 XBig12= 7.38D-15 3.50D-09.
      3 vectors produced by pass173 Test12= 8.05D-14 1.00D-09 XBig12= 1.22D-14 4.21D-09.
      3 vectors produced by pass174 Test12= 8.05D-14 1.00D-09 XBig12= 3.34D-14 7.31D-09.
      3 vectors produced by pass175 Test12= 8.05D-14 1.00D-09 XBig12= 1.48D-14 4.75D-09.
      3 vectors produced by pass176 Test12= 8.05D-14 1.00D-09 XBig12= 1.22D-14 5.08D-09.
      3 vectors produced by pass177 Test12= 8.05D-14 1.00D-09 XBig12= 2.44D-14 6.23D-09.
      3 vectors produced by pass178 Test12= 8.05D-14 1.00D-09 XBig12= 3.26D-14 7.13D-09.
      3 vectors produced by pass179 Test12= 8.05D-14 1.00D-09 XBig12= 2.06D-14 5.88D-09.
      3 vectors produced by pass180 Test12= 8.05D-14 1.00D-09 XBig12= 1.84D-14 5.33D-09.
      3 vectors produced by pass181 Test12= 8.05D-14 1.00D-09 XBig12= 6.76D-15 3.82D-09.
      3 vectors produced by pass182 Test12= 8.05D-14 1.00D-09 XBig12= 6.77D-15 3.07D-09.
      3 vectors produced by pass183 Test12= 8.05D-14 1.00D-09 XBig12= 1.12D-14 4.52D-09.
      3 vectors produced by pass184 Test12= 8.05D-14 1.00D-09 XBig12= 8.06D-15 3.30D-09.
      3 vectors produced by pass185 Test12= 8.05D-14 1.00D-09 XBig12= 1.15D-14 4.78D-09.
      3 vectors produced by pass186 Test12= 8.05D-14 1.00D-09 XBig12= 7.24D-15 3.30D-09.
      3 vectors produced by pass187 Test12= 8.05D-14 1.00D-09 XBig12= 1.68D-14 6.35D-09.
      3 vectors produced by pass188 Test12= 8.05D-14 1.00D-09 XBig12= 1.40D-14 4.65D-09.
      3 vectors produced by pass189 Test12= 8.05D-14 1.00D-09 XBig12= 2.38D-14 5.53D-09.
      3 vectors produced by pass190 Test12= 8.05D-14 1.00D-09 XBig12= 1.04D-14 4.18D-09.
      3 vectors produced by pass191 Test12= 8.05D-14 1.00D-09 XBig12= 9.55D-15 4.57D-09.
      3 vectors produced by pass192 Test12= 8.05D-14 1.00D-09 XBig12= 1.59D-14 5.05D-09.
      3 vectors produced by pass193 Test12= 8.05D-14 1.00D-09 XBig12= 1.30D-14 4.37D-09.
      3 vectors produced by pass194 Test12= 8.05D-14 1.00D-09 XBig12= 1.80D-14 5.29D-09.
      3 vectors produced by pass195 Test12= 8.05D-14 1.00D-09 XBig12= 1.11D-14 4.26D-09.
      3 vectors produced by pass196 Test12= 8.05D-14 1.00D-09 XBig12= 1.81D-14 5.57D-09.
      3 vectors produced by pass197 Test12= 8.05D-14 1.00D-09 XBig12= 1.02D-14 4.70D-09.
      3 vectors produced by pass198 Test12= 8.05D-14 1.00D-09 XBig12= 4.44D-14 7.92D-09.
      3 vectors produced by pass199 Test12= 8.05D-14 1.00D-09 XBig12= 1.05D-14 4.58D-09.
      3 vectors produced by pass200 Test12= 8.05D-14 1.00D-09 XBig12= 2.47D-14 7.87D-09.
      3 vectors produced by pass201 Test12= 8.05D-14 1.00D-09 XBig12= 3.15D-14 7.68D-09.
      2 vectors produced by pass202 Test12= 8.05D-14 1.00D-09 XBig12= 3.88D-15 2.39D-09.
 InvSVY:  IOpt=1 It=  1 EMax= 1.44D-15
 Solved reduced A of dimension  1782 with   114 vectors.
 End of Minotr F.D. properties file   721 does not exist.
 End of Minotr F.D. properties file   722 does not exist.
 End of Minotr F.D. properties file   788 does not exist.

 **********************************************************************

            Population analysis using the SCF density.

 **********************************************************************

 Orbital symmetries:
 Alpha Orbitals:
       Occupied  (A) (A) (A) (A) (A) (A) (A) (A) (A) (A) (A) (A)
                 (A) (A) (A) (A) (A) (A) (A) (A) (A) (A) (A) (A)
                 (A) (A) (A) (A) (A) (A) (A) (A) (A) (A) (A) (A)
                 (A) (A) (A) (A) (A) (A) (A) (A) (A) (A) (A) (A)
                 (A) (A) (A) (A) (A) (A) (A) (A) (A) (A) (A) (A)
                 (A) (A) (A) (A) (A) (A) (A) (A) (A) (A) (A) (A)
                 (A) (A) (A) (A) (A) (A) (A)
       Virtual   (A) (A) (A) (A) (A) (A) (A) (A) (A) (A) (A) (A)
                 (A) (A) (A) (A) (A) (A) (A) (A) (A) (A) (A) (A)
                 (A) (A) (A) (A) (A) (A) (A) (A) (A) (A) (A) (A)
                 (A) (A) (A) (A) (A) (A) (A) (A) (A) (A) (A) (A)
                 (A) (A) (A) (A) (A) (A) (A) (A) (A) (A) (A) (A)
                 (A) (A) (A) (A) (A) (A) (A) (A) (A) (A) (A) (A)
                 (A) (A) (A) (A) (A) (A) (A) (A) (A) (A) (A) (A)
                 (A) (A) (A) (A) (A) (A) (A) (A) (A) (A) (A) (A)
                 (A) (A) (A) (A) (A) (A) (A) (A) (A) (A) (A) (A)
                 (A) (A) (A) (A) (A) (A) (A) (A) (A) (A) (A) (A)
                 (A) (A) (A) (A) (A) (A) (A) (A) (A) (A) (A) (A)
                 (A) (A) (A) (A) (A) (A) (A) (A) (A) (A) (A) (A)
                 (A) (A) (A) (A) (A) (A) (A) (A) (A) (A) (A) (A)
                 (A) (A) (A) (A) (A) (A) (A) (A) (A) (A) (A) (A)
                 (A) (A) (A) (A) (A) (A) (A) (A) (A) (A) (A) (A)
                 (A) (A) (A) (A) (A) (A) (A) (A) (A) (A) (A) (A)
                 (A) (A) (A) (A) (A) (A) (A) (A) (A) (A) (A) (A)
                 (A) (A) (A) (A) (A) (A) (A) (A) (A) (A) (A) (A)
                 (A) (A) (A) (A) (A) (A) (A) (A) (A) (A) (A) (A)
                 (A) (A) (A) (A) (A) (A) (A) (A) (A) (A) (A) (A)
                 (A) (A) (A) (A) (A) (A) (A) (A) (A) (A) (A) (A)
                 (A) (A) (A) (A) (A) (A) (A) (A) (A) (A) (A) (A)
                 (A) (A) (A) (A) (A) (A) (A) (A) (A) (A) (A) (A)
                 (A) (A) (A) (A) (A) (A) (A) (A) (A) (A) (A) (A)
                 (A) (A) (A) (A) (A) (A) (A) (A) (A) (A) (A) (A)
                 (A) (A) (A) (A) (A) (A) (A) (A) (A) (A) (A) (A)
                 (A) (A) (A) (A) (A) (A) (A) (A) (A) (A) (A) (A)
                 (A) (A) (A) (A) (A) (A) (A) (A) (A) (A) (A) (A)
                 (A) (A) (A) (A) (A) (A) (A) (A) (A) (A) (A) (A)
                 (A) (A) (A) (A) (A) (A) (A) (A) (A) (A) (A) (A)
                 (A) (A) (A) (A) (A) (A) (A) (A) (A) (A) (A) (A)
                 (A) (A) (A) (A) (A) (A) (A) (A) (A) (A) (A) (A)
                 (A) (A) (A) (A) (A) (A) (A) (A) (A) (A) (A) (A)
                 (A) (A) (A) (A) (A) (A) (A) (A) (A) (A) (A) (A)
                 (A) (A) (A) (A) (A) (A) (A) (A) (A) (A) (A) (A)
                 (A) (A) (A) (A) (A) (A) (A) (A) (A) (A) (A) (A)
                 (A) (A) (A) (A) (A) (A) (A) (A) (A) (A) (A) (A)
                 (A) (A) (A) (A) (A) (A) (A) (A) (A) (A) (A) (A)
                 (A) (A) (A) (A) (A) (A) (A) (A) (A) (A) (A) (A)
                 (A) (A) (A) (A) (A) (A) (A) (A) (A) (A) (A) (A)
                 (A) (A) (A) (A) (A) (A) (A) (A) (A) (A) (A) (A)
                 (A) (A) (A) (A) (A) (A) (A) (A) (A) (A) (A) (A)
                 (A) (A) (A) (A) (A) (A) (A) (A)
 Beta  Orbitals:
       Occupied  (A) (A) (A) (A) (A) (A) (A) (A) (A) (A) (A) (A)
                 (A) (A) (A) (A) (A) (A) (A) (A) (A) (A) (A) (A)
                 (A) (A) (A) (A) (A) (A) (A) (A) (A) (A) (A) (A)
                 (A) (A) (A) (A) (A) (A) (A) (A) (A) (A) (A) (A)
                 (A) (A) (A) (A) (A) (A) (A) (A) (A) (A) (A) (A)
                 (A) (A) (A) (A) (A) (A) (A) (A) (A) (A) (A) (A)
                 (A) (A) (A) (A) (A) (A)
       Virtual   (A) (A) (A) (A) (A) (A) (A) (A) (A) (A) (A) (A)
                 (A) (A) (A) (A) (A) (A) (A) (A) (A) (A) (A) (A)
                 (A) (A) (A) (A) (A) (A) (A) (A) (A) (A) (A) (A)
                 (A) (A) (A) (A) (A) (A) (A) (A) (A) (A) (A) (A)
                 (A) (A) (A) (A) (A) (A) (A) (A) (A) (A) (A) (A)
                 (A) (A) (A) (A) (A) (A) (A) (A) (A) (A) (A) (A)
                 (A) (A) (A) (A) (A) (A) (A) (A) (A) (A) (A) (A)
                 (A) (A) (A) (A) (A) (A) (A) (A) (A) (A) (A) (A)
                 (A) (A) (A) (A) (A) (A) (A) (A) (A) (A) (A) (A)
                 (A) (A) (A) (A) (A) (A) (A) (A) (A) (A) (A) (A)
                 (A) (A) (A) (A) (A) (A) (A) (A) (A) (A) (A) (A)
                 (A) (A) (A) (A) (A) (A) (A) (A) (A) (A) (A) (A)
                 (A) (A) (A) (A) (A) (A) (A) (A) (A) (A) (A) (A)
                 (A) (A) (A) (A) (A) (A) (A) (A) (A) (A) (A) (A)
                 (A) (A) (A) (A) (A) (A) (A) (A) (A) (A) (A) (A)
                 (A) (A) (A) (A) (A) (A) (A) (A) (A) (A) (A) (A)
                 (A) (A) (A) (A) (A) (A) (A) (A) (A) (A) (A) (A)
                 (A) (A) (A) (A) (A) (A) (A) (A) (A) (A) (A) (A)
                 (A) (A) (A) (A) (A) (A) (A) (A) (A) (A) (A) (A)
                 (A) (A) (A) (A) (A) (A) (A) (A) (A) (A) (A) (A)
                 (A) (A) (A) (A) (A) (A) (A) (A) (A) (A) (A) (A)
                 (A) (A) (A) (A) (A) (A) (A) (A) (A) (A) (A) (A)
                 (A) (A) (A) (A) (A) (A) (A) (A) (A) (A) (A) (A)
                 (A) (A) (A) (A) (A) (A) (A) (A) (A) (A) (A) (A)
                 (A) (A) (A) (A) (A) (A) (A) (A) (A) (A) (A) (A)
                 (A) (A) (A) (A) (A) (A) (A) (A) (A) (A) (A) (A)
                 (A) (A) (A) (A) (A) (A) (A) (A) (A) (A) (A) (A)
                 (A) (A) (A) (A) (A) (A) (A) (A) (A) (A) (A) (A)
                 (A) (A) (A) (A) (A) (A) (A) (A) (A) (A) (A) (A)
                 (A) (A) (A) (A) (A) (A) (A) (A) (A) (A) (A) (A)
                 (A) (A) (A) (A) (A) (A) (A) (A) (A) (A) (A) (A)
                 (A) (A) (A) (A) (A) (A) (A) (A) (A) (A) (A) (A)
                 (A) (A) (A) (A) (A) (A) (A) (A) (A) (A) (A) (A)
                 (A) (A) (A) (A) (A) (A) (A) (A) (A) (A) (A) (A)
                 (A) (A) (A) (A) (A) (A) (A) (A) (A) (A) (A) (A)
                 (A) (A) (A) (A) (A) (A) (A) (A) (A) (A) (A) (A)
                 (A) (A) (A) (A) (A) (A) (A) (A) (A) (A) (A) (A)
                 (A) (A) (A) (A) (A) (A) (A) (A) (A) (A) (A) (A)
                 (A) (A) (A) (A) (A) (A) (A) (A) (A) (A) (A) (A)
                 (A) (A) (A) (A) (A) (A) (A) (A) (A) (A) (A) (A)
                 (A) (A) (A) (A) (A) (A) (A) (A) (A) (A) (A) (A)
                 (A) (A) (A) (A) (A) (A) (A) (A) (A) (A) (A) (A)
                 (A) (A) (A) (A) (A) (A) (A) (A) (A)
 The electronic state is 2-A.
 Alpha  occ. eigenvalues --  -10.21110 -10.20328 -10.20298 -10.19826 -10.19742
 Alpha  occ. eigenvalues --  -10.19691 -10.19622 -10.19489 -10.19462 -10.19461
 Alpha  occ. eigenvalues --  -10.19403 -10.19340 -10.19324 -10.19263 -10.19164
 Alpha  occ. eigenvalues --  -10.19146 -10.19068 -10.18417 -10.18313 -10.18145
 Alpha  occ. eigenvalues --  -10.17400 -10.17248 -10.17122 -10.16929  -0.92171
 Alpha  occ. eigenvalues --   -0.88138  -0.86222  -0.84061  -0.82009  -0.80903
 Alpha  occ. eigenvalues --   -0.79120  -0.76491  -0.75064  -0.73137  -0.72926
 Alpha  occ. eigenvalues --   -0.71115  -0.66430  -0.64917  -0.63520  -0.61971
 Alpha  occ. eigenvalues --   -0.60058  -0.59466  -0.56696  -0.55654  -0.54047
 Alpha  occ. eigenvalues --   -0.52993  -0.51136  -0.49679  -0.49215  -0.48678
 Alpha  occ. eigenvalues --   -0.46768  -0.44882  -0.44461  -0.44033  -0.43756
 Alpha  occ. eigenvalues --   -0.43691  -0.42987  -0.42673  -0.42353  -0.41003
 Alpha  occ. eigenvalues --   -0.40369  -0.39611  -0.39002  -0.37605  -0.36905
 Alpha  occ. eigenvalues --   -0.35956  -0.35370  -0.34497  -0.33978  -0.33787
 Alpha  occ. eigenvalues --   -0.32352  -0.30909  -0.28696  -0.27831  -0.25488
 Alpha  occ. eigenvalues --   -0.24382  -0.23707  -0.21063  -0.19224
 Alpha virt. eigenvalues --   -0.09400  -0.05439  -0.04063  -0.02485  -0.00092
 Alpha virt. eigenvalues --    0.00387   0.00620   0.00939   0.01173   0.01737
 Alpha virt. eigenvalues --    0.02156   0.02394   0.02808   0.03051   0.03658
 Alpha virt. eigenvalues --    0.03735   0.03940   0.04973   0.05260   0.05707
 Alpha virt. eigenvalues --    0.06063   0.06520   0.06803   0.07396   0.07693
 Alpha virt. eigenvalues --    0.08085   0.08115   0.08546   0.08823   0.09418
 Alpha virt. eigenvalues --    0.10001   0.10375   0.10759   0.11009   0.11203
 Alpha virt. eigenvalues --    0.11811   0.12090   0.12457   0.12790   0.13389
 Alpha virt. eigenvalues --    0.13789   0.13861   0.14462   0.15078   0.15369
 Alpha virt. eigenvalues --    0.15480   0.15847   0.16314   0.16676   0.16898
 Alpha virt. eigenvalues --    0.17060   0.17236   0.17405   0.17576   0.17889
 Alpha virt. eigenvalues --    0.18195   0.18240   0.18487   0.18867   0.19258
 Alpha virt. eigenvalues --    0.19338   0.19507   0.19901   0.20033   0.20268
 Alpha virt. eigenvalues --    0.20599   0.21056   0.21178   0.21396   0.21670
 Alpha virt. eigenvalues --    0.21898   0.22144   0.22399   0.22732   0.22886
 Alpha virt. eigenvalues --    0.23383   0.23797   0.23898   0.24228   0.24264
 Alpha virt. eigenvalues --    0.24840   0.25059   0.25116   0.25424   0.25798
 Alpha virt. eigenvalues --    0.26136   0.26400   0.26687   0.26892   0.27375
 Alpha virt. eigenvalues --    0.27742   0.27854   0.28516   0.28743   0.28856
 Alpha virt. eigenvalues --    0.29231   0.29498   0.29686   0.30337   0.30489
 Alpha virt. eigenvalues --    0.30638   0.31451   0.31667   0.31953   0.32296
 Alpha virt. eigenvalues --    0.32645   0.33193   0.33382   0.33918   0.34171
 Alpha virt. eigenvalues --    0.34876   0.35606   0.36097   0.36382   0.36823
 Alpha virt. eigenvalues --    0.37458   0.38339   0.38879   0.39247   0.40149
 Alpha virt. eigenvalues --    0.41441   0.41913   0.42566   0.42973   0.44983
 Alpha virt. eigenvalues --    0.45197   0.45893   0.47008   0.47771   0.48671
 Alpha virt. eigenvalues --    0.49132   0.50545   0.50901   0.51560   0.51904
 Alpha virt. eigenvalues --    0.52745   0.52884   0.53625   0.54016   0.54717
 Alpha virt. eigenvalues --    0.54793   0.55247   0.56104   0.56261   0.56719
 Alpha virt. eigenvalues --    0.57445   0.57901   0.58122   0.58482   0.58588
 Alpha virt. eigenvalues --    0.59396   0.59738   0.60642   0.60938   0.61908
 Alpha virt. eigenvalues --    0.62158   0.62631   0.62960   0.63206   0.64400
 Alpha virt. eigenvalues --    0.64741   0.64943   0.65504   0.66386   0.66663
 Alpha virt. eigenvalues --    0.67075   0.67371   0.68274   0.68679   0.69156
 Alpha virt. eigenvalues --    0.69305   0.70088   0.70288   0.70562   0.70885
 Alpha virt. eigenvalues --    0.71452   0.71643   0.71970   0.72140   0.72927
 Alpha virt. eigenvalues --    0.73454   0.73907   0.74481   0.74683   0.75428
 Alpha virt. eigenvalues --    0.75696   0.76295   0.76869   0.77454   0.77688
 Alpha virt. eigenvalues --    0.77957   0.79178   0.79620   0.80893   0.81834
 Alpha virt. eigenvalues --    0.82286   0.82928   0.83350   0.83834   0.84951
 Alpha virt. eigenvalues --    0.85501   0.86701   0.87303   0.88252   0.88784
 Alpha virt. eigenvalues --    0.88802   0.90763   0.91083   0.91748   0.92176
 Alpha virt. eigenvalues --    0.92898   0.93086   0.93325   0.94118   0.94525
 Alpha virt. eigenvalues --    0.94724   0.95337   0.95499   0.95809   0.96319
 Alpha virt. eigenvalues --    0.96598   0.97852   0.98483   0.98827   0.99956
 Alpha virt. eigenvalues --    1.00768   1.01270   1.01767   1.02112   1.02924
 Alpha virt. eigenvalues --    1.04220   1.04703   1.05799   1.05944   1.06574
 Alpha virt. eigenvalues --    1.07669   1.07995   1.08325   1.08937   1.10336
 Alpha virt. eigenvalues --    1.11498   1.12335   1.13234   1.15126   1.15980
 Alpha virt. eigenvalues --    1.17185   1.18964   1.19400   1.20282   1.21316
 Alpha virt. eigenvalues --    1.23543   1.25545   1.27441   1.28489   1.28794
 Alpha virt. eigenvalues --    1.31497   1.31787   1.34483   1.36002   1.36379
 Alpha virt. eigenvalues --    1.37927   1.39502   1.40441   1.42648   1.43622
 Alpha virt. eigenvalues --    1.44852   1.45654   1.47273   1.47537   1.48224
 Alpha virt. eigenvalues --    1.48786   1.49508   1.50280   1.50449   1.50775
 Alpha virt. eigenvalues --    1.52796   1.53022   1.53954   1.55350   1.55661
 Alpha virt. eigenvalues --    1.56204   1.56646   1.57025   1.57718   1.58645
 Alpha virt. eigenvalues --    1.60114   1.61746   1.62754   1.63227   1.65211
 Alpha virt. eigenvalues --    1.65958   1.66301   1.67223   1.68254   1.68383
 Alpha virt. eigenvalues --    1.70087   1.70413   1.70908   1.71357   1.72820
 Alpha virt. eigenvalues --    1.73829   1.74270   1.75234   1.75680   1.76220
 Alpha virt. eigenvalues --    1.77058   1.78418   1.79790   1.79988   1.81299
 Alpha virt. eigenvalues --    1.81535   1.82897   1.83464   1.84484   1.85173
 Alpha virt. eigenvalues --    1.85895   1.86770   1.87517   1.87979   1.88319
 Alpha virt. eigenvalues --    1.89587   1.90437   1.90899   1.91190   1.92022
 Alpha virt. eigenvalues --    1.93050   1.93170   1.94341   1.95375   1.96599
 Alpha virt. eigenvalues --    1.97474   1.97853   1.98382   1.99552   2.00004
 Alpha virt. eigenvalues --    2.01204   2.01475   2.03023   2.03365   2.03902
 Alpha virt. eigenvalues --    2.04682   2.06613   2.07688   2.08111   2.09425
 Alpha virt. eigenvalues --    2.10070   2.12323   2.13880   2.14120   2.14367
 Alpha virt. eigenvalues --    2.16489   2.17419   2.18028   2.18737   2.20547
 Alpha virt. eigenvalues --    2.20733   2.21447   2.23480   2.24133   2.25327
 Alpha virt. eigenvalues --    2.25742   2.27162   2.28502   2.30267   2.33803
 Alpha virt. eigenvalues --    2.35414   2.36073   2.38480   2.39636   2.40093
 Alpha virt. eigenvalues --    2.41530   2.42572   2.43619   2.44483   2.45869
 Alpha virt. eigenvalues --    2.47004   2.50320   2.53252   2.54239   2.55640
 Alpha virt. eigenvalues --    2.56454   2.57763   2.58593   2.61633   2.63277
 Alpha virt. eigenvalues --    2.63998   2.66085   2.66614   2.67750   2.69077
 Alpha virt. eigenvalues --    2.70590   2.71086   2.71863   2.72225   2.72311
 Alpha virt. eigenvalues --    2.72817   2.73498   2.74555   2.74761   2.75338
 Alpha virt. eigenvalues --    2.75448   2.75777   2.75833   2.76707   2.77287
 Alpha virt. eigenvalues --    2.77923   2.78704   2.79162   2.80064   2.81862
 Alpha virt. eigenvalues --    2.82160   2.83278   2.84678   2.85878   2.86302
 Alpha virt. eigenvalues --    2.86685   2.87664   2.88687   2.89710   2.90667
 Alpha virt. eigenvalues --    2.91669   2.92922   2.93544   2.94670   2.97145
 Alpha virt. eigenvalues --    2.99737   3.03076   3.04444   3.05317   3.05700
 Alpha virt. eigenvalues --    3.07953   3.09996   3.12117   3.13045   3.13652
 Alpha virt. eigenvalues --    3.16790   3.17931   3.19967   3.20903   3.21888
 Alpha virt. eigenvalues --    3.23017   3.25122   3.26950   3.30770   3.34055
 Alpha virt. eigenvalues --    3.35060   3.36211   3.37365   3.38901   3.40580
 Alpha virt. eigenvalues --    3.41851   3.43379   3.43653   3.45515   3.45685
 Alpha virt. eigenvalues --    3.47985   3.50599   3.54026   3.54090   3.56242
 Alpha virt. eigenvalues --    3.57143   3.61146   3.61662   3.66982   3.70377
 Alpha virt. eigenvalues --    3.75629   3.82226   3.83083   3.86795   3.96174
 Alpha virt. eigenvalues --    3.99410   4.03187   4.05958   4.06310   4.06721
 Alpha virt. eigenvalues --    4.11161   4.12485   4.22023   4.27094   4.31464
[...]
 151448,0.00035292,-0.00319649,-0.00211459,-0.00035069,-0.00041190,0.00
 001936,-0.00014568,0.00000900,-0.00000609,-0.00014509,-0.00005108,0.00
 008464,0.00002758,-0.00635231,0.01033176,0.00270510,-0.11768907,-0.018
 41180,0.00742281,-0.36508352,-0.06596630,0.02005449,0.00004334,-0.0003
 3653,-0.00030503,0.00001111,-0.00010363,-0.00003054,-0.00008377,-0.000
 03706,-0.00002496,-0.00007141,0.00012396,0.00002535,0.00023626,0.00000
 591,0.00040521,-0.00074429,-0.00040428,-0.00020984,0.00004699,0.000032
 13,0.00000142,0.00003989,0.00013615,-0.00001600,-0.01358062,-0.0384917
 4,-0.00179893,0.69316700,0.00146029,-0.00059812,-0.00020933,0.00035809
 ,-0.00059237,0.00008533,0.00022366,-0.00099308,0.00025720,-0.00114238,
 0.00201778,0.00042502,0.00593462,-0.00501811,-0.00097002,0.00316696,-0
 .00258233,-0.00178757,0.00452166,-0.00610639,0.00067047,-0.01788931,-0
 .00159074,0.00003937,0.02239465,-0.04682517,-0.00770982,0.00705768,0.0
 2614172,0.00170982,0.01322925,-0.00910033,-0.00099596,-0.00327666,0.00
 803949,0.00033256,-0.00647153,-0.00185230,-0.00096268,0.00415941,-0.00
 174037,0.00051898,-0.00037856,0.00403428,-0.00029687,0.00274842,-0.001
 43902,0.00047823,-0.00289577,-0.00238221,-0.00029516,-0.00028744,-0.00
 013619,-0.00006868,-0.00004337,0.00001276,-0.00003783,-0.00002282,0.00
 001416,0.00000089,-0.00054686,0.01310639,0.00005481,-0.04197210,-0.223
 61534,-0.01175285,-0.02042858,-0.12968912,-0.00764568,0.00036016,-0.00
 009642,-0.00017153,-0.00002724,-0.00005886,-0.00002676,-0.00006427,-0.
 00002616,0.00002835,0.00001857,0.00002988,0.00002620,-0.00016574,-0.00
 006962,0.00018963,-0.00016844,-0.00011416,-0.00026516,-0.00010320,-0.0
 0008827,-0.00001110,0.00006087,0.00004485,0.00004918,-0.01774553,-0.01
 285092,0.00176261,-0.05239207,0.61611010,0.00006625,0.00005385,0.00016
 041,-0.00014273,0.00022641,-0.00043590,0.00003600,-0.00055321,-0.00045
 283,-0.00031671,-0.00008127,-0.00074904,-0.00004692,-0.00001251,-0.000
 83194,0.00195694,-0.00017164,0.00639671,0.00012510,0.00017507,-0.00051
 101,0.00021840,0.00018456,-0.00252915,-0.00087331,-0.00982803,0.005599
 46,0.00502855,0.00092535,0.00423541,-0.00048589,-0.00134795,0.00365330
 ,0.00037667,-0.00002014,0.00022853,-0.00010334,0.00009264,0.00008071,-
 0.00003898,-0.00007423,-0.00058214,-0.00002556,-0.00008207,0.00015014,
 0.00001017,-0.00002047,0.00025473,0.00006802,-0.00002076,-0.00009513,-
 0.00002273,-0.00006367,0.00002788,-0.00001711,0.00000602,0.00001214,0.
 00000721,-0.00001747,0.00006464,0.00210377,-0.00022843,0.00418961,0.00
 288003,-0.01503887,-0.06309449,0.02749534,-0.00326604,-0.06171762,0.00
 004960,0.00002364,-0.00015333,-0.00000140,0.00000637,0.00000149,0.0000
 0902,-0.00000410,-0.00003211,0.00000081,-0.00001029,0.00005414,0.00000
 155,0.00001897,-0.00011121,0.00016171,0.00004885,0.00009318,-0.0000172
 6,-0.00001198,-0.00000122,0.00001555,-0.00001654,0.00001933,0.00043481
 ,0.00578866,0.00058624,-0.06457961,0.05889724,0.14538199,0.00011313,0.
 00029690,-0.00000925,-0.00008760,-0.00003422,-0.00008800,-0.00005291,-
 0.00094662,0.00018519,0.00091190,-0.00091793,-0.00067057,-0.01670735,-
 0.00944952,0.00421268,-0.00182489,0.00410078,0.00135173,-0.00041752,0.
 00009388,0.00008118,-0.00013229,-0.00007543,-0.00008089,0.00040588,0.0
 0057832,-0.00031564,-0.00005970,0.00005707,0.00002251,0.00001490,-0.00
 002426,0.00000223,-0.00002433,-0.00001674,-0.00001469,0.00009181,-0.00
 011833,-0.00006568,-0.00000483,-0.00000451,0.00001735,0.00000056,-0.00
 000957,0.00000403,-0.00004318,0.00003018,-0.00000101,0.00001292,0.0000
 2096,0.00000259,0.00003073,0.00003353,0.00002889,-0.00002502,0.0000408
 5,0.00002866,0.00003433,0.00092976,-0.00002392,-0.29416850,-0.08020923
 ,0.05535228,0.00202974,-0.00049543,0.00145218,0.00007158,-0.00013202,-
 0.00011568,-0.00000764,-0.00000703,-0.00000156,-0.00000473,-0.00000620
 ,-0.00000208,-0.00000217,0.00000491,-0.00000225,-0.00000857,-0.0000020
 5,-0.00000254,-0.00006033,-0.00003410,-0.00001736,0.00018566,0.0001030
 8,0.00002421,-0.00003081,-0.00005467,0.00001725,0.00001256,-0.00000727
 ,0.00001107,-0.00217057,0.00020116,0.00124607,-0.00013299,0.00011638,0
 .00014394,0.31139607,-0.00047290,0.00000454,0.00009351,0.00027863,0.00
 017406,0.00009256,0.00058011,0.00071210,-0.00013038,0.00010347,0.00139
 527,-0.00006027,0.01960660,0.01053808,-0.00439410,0.00326611,-0.002956
 29,-0.00082825,0.00031652,-0.00008940,-0.00003038,0.00015167,0.0001388
 2,0.00000566,0.00038439,-0.00078484,-0.00008241,0.00010565,-0.00015076
 ,-0.00002194,0.00002786,0.00003820,0.00001497,0.00001912,0.00001466,-0
 .00000238,-0.00005861,0.00008928,0.00001780,0.00001304,0.00001256,-0.0
 0000290,-0.00000115,0.00001639,-0.00000252,0.00003675,-0.00002158,0.00
 003715,-0.00001733,-0.00000422,0.00000644,-0.00004344,-0.00000643,-0.0
 0003893,-0.00001534,-0.00000220,0.00001880,-0.00063402,-0.00027108,0.0
 0013501,-0.07867261,-0.08464207,0.01670656,-0.00002007,-0.00557042,-0.
 00049370,-0.00015897,-0.00048865,-0.00003772,0.00000281,-0.00000404,-0
 .00000191,0.00000324,-0.00000210,0.00000148,-0.00000067,0.00000235,0.0
 0000146,-0.00000293,0.00000048,-0.00000168,-0.00001156,-0.00002482,-0.
 00003462,-0.00013795,0.00003747,-0.00005959,0.00000526,0.00000549,-0.0
 0000495,-0.00001708,0.00001603,-0.00000943,-0.02970220,-0.00672106,0.0
 0634896,-0.00122053,0.00056471,0.00025314,0.08616235,0.08717834,0.0002
 5745,-0.00005955,-0.00022485,-0.00024530,0.00002305,-0.00000749,0.0001
 2008,0.00037389,0.00061212,-0.00104066,0.00038419,-0.00236343,0.005641
 02,0.00136107,0.00109043,0.00124376,-0.00144764,0.00426242,0.00011822,
 -0.00006571,0.00021254,0.00009499,0.00013092,-0.00054881,-0.00067147,0
 .00022332,-0.00083273,-0.00004173,-0.00003118,0.00015322,0.00004568,-0
 .00000583,0.00000265,-0.00002184,0.00000817,0.00002122,0.00006036,0.00
 006402,-0.00030902,0.00001524,0.00000235,0.00005572,-0.00000716,0.0000
 2679,-0.00000221,-0.00002859,-0.00000195,-0.00003443,-0.00002537,-0.00
 001851,0.00000936,0.00001964,-0.00006085,0.00005833,0.00003083,-0.0000
 1637,0.00010987,0.00002004,-0.00019321,0.00027044,0.05526482,0.0184464
 6,-0.04610175,0.00146169,-0.00040020,0.00780990,-0.00002747,0.00010757
 ,-0.00043242,0.00000091,-0.00000078,-0.00000790,0.00000110,0.00000159,
 -0.00000366,-0.00000131,-0.00000175,0.00000133,0.00000247,0.00000126,-
 0.00000415,0.00004444,-0.00000354,0.00000951,0.00010218,-0.00005887,0.
 00006954,-0.00001237,-0.00000792,-0.00000308,0.00000580,-0.00001051,0.
 00000193,0.00007500,-0.00132065,0.00329506,0.00020307,-0.00012121,0.00
 040932,-0.06140573,-0.01761713,0.03731916,0.00008556,-0.00007989,-0.00
 013235,-0.00008033,-0.00006721,0.00004624,-0.00015262,0.00017308,-0.00
 012130,0.00029794,0.00000658,0.00003620,0.00114470,-0.00220111,0.00152
 426,0.00014401,-0.00088976,-0.00027198,-0.00057714,-0.00021278,0.00001
 549,0.00000628,0.00142791,0.00041270,-0.00474305,-0.00344453,0.0013211
 2,0.00007102,0.00004502,0.00000312,0.00003485,-0.00005010,-0.00001485,
 -0.00003868,-0.00001619,0.00000555,0.00012516,0.00017333,-0.00002458,0
 .00002373,0.00001378,0.00000656,-0.00003270,0.00000057,-0.00000748,-0.
 00009220,-0.00000834,-0.00005685,-0.00000133,0.00002210,-0.00000134,-0
 .00000424,0.00001129,0.00001598,0.00003248,-0.00002091,-0.00002839,0.0
 0000267,0.00001998,0.00002646,0.00710632,-0.00553310,-0.00102440,-0.01
 574547,0.01979480,0.00522121,-0.00008829,-0.00029144,-0.00007148,-0.00
 003584,-0.00001261,-0.00000197,-0.00000640,-0.00000734,0.00000038,-0.0
 0001060,0.00000270,0.00000073,-0.00000583,0.00000128,0.00000059,-0.000
 01984,0.00000274,0.00001620,0.00002971,-0.00002031,0.00001803,-0.00000
 200,-0.00000438,0.00000860,0.00001834,-0.00000427,0.00000745,-0.215802
 19,0.13066015,0.04453399,0.00136639,0.00101028,-0.00049407,0.00067070,
 0.00025788,-0.00131210,0.22647003,0.00006167,-0.00051737,0.00004514,-0
 .00022058,-0.00001352,-0.00002727,-0.00001683,0.00008681,0.00002019,0.
 00125681,0.00015281,-0.00028196,-0.00265787,-0.00463703,0.00018118,-0.
 00050581,-0.00032734,0.00009528,-0.00013670,-0.00014943,0.00000644,-0.
 00047426,0.00057974,0.00008718,-0.00275763,-0.00022287,0.00030468,-0.0
 0002060,0.00021278,0.00004165,0.00006068,-0.00003018,-0.00000366,-0.00
 002476,0.00003508,0.00001341,-0.00001571,0.00009528,-0.00001432,0.0000
 1982,-0.00000557,-0.00000009,-0.00000828,0.00001532,0.00000125,-0.0000
 2918,-0.00002955,-0.00003901,-0.00001119,-0.00000470,-0.00000976,0.000
 01311,-0.00000349,0.00001231,0.00012304,-0.00007807,-0.00004536,-0.000
 03940,-0.00003477,0.00000440,0.02443742,-0.01573278,-0.00620324,-0.008
 93560,0.01049886,0.00238551,0.00032533,-0.00003665,-0.00003683,-0.0000
 0396,0.00000236,-0.00000090,0.00000029,0.00000366,-0.00000069,-0.00000
 289,-0.00000368,-0.00000115,0.00000541,0.00000194,0.00000210,0.0000627
 9,0.00002050,0.00004723,0.00000404,-0.00005789,0.00002849,0.00001397,0
 .00001351,-0.00000098,0.00000658,-0.00000360,0.00000215,0.12864841,-0.
 16462617,-0.03370527,0.00020931,0.00108784,0.00016343,-0.00019005,0.00
 086380,0.00028315,-0.13977415,0.17299583,-0.00031027,-0.00012886,-0.00
 043286,0.00005352,0.00003685,0.00018262,-0.00011868,0.00002700,-0.0005
 4023,0.00030009,-0.00007426,0.00026407,0.00143034,-0.00019022,0.007993
 12,-0.00020110,0.00001850,-0.00093807,0.00010405,-0.00007304,0.0000464
 1,0.00003622,-0.00038144,0.00039012,0.00127404,0.00109081,0.00436343,-
 0.00013773,0.00003469,-0.00006299,0.00005051,-0.00002224,0.00004112,-0
 .00002392,0.00003303,-0.00001580,0.00003160,-0.00006046,-0.00009144,0.
 00001867,-0.00000658,-0.00000234,-0.00000111,0.00001621,-0.00000424,0.
 00003807,0.00006299,-0.00002511,-0.00001583,-0.00001492,-0.00000133,0.
 00001893,0.00000340,0.00002698,0.00002647,-0.00001368,-0.00004677,0.00
 000611,0.00001677,0.00011655,0.00048704,0.00114060,0.00337945,0.004582
 14,-0.00351689,0.00147342,0.00011073,0.00002399,-0.00013423,0.00000650
 ,0.00000194,0.00000844,0.00000094,0.00000111,0.00000234,0.00000314,-0.
 00000471,0.00000171,0.00000096,0.00000074,0.00000476,-0.00004792,0.000
 03590,0.00001007,-0.00003735,-0.00004439,-0.00001850,0.00000498,-0.000
 00581,0.00000624,0.00001872,-0.00001396,0.00000535,0.04399119,-0.03515
 867,-0.04531626,-0.00079791,0.00008784,-0.00203690,-0.00136989,0.00013
 269,-0.00493033,-0.04963263,0.03675084,0.03594546,0.00003776,-0.000016
 20,0.00000250,0.00004607,-0.00001543,-0.00002604,-0.00015298,-0.000150
 21,0.00002969,-0.00003547,0.00005074,0.00001035,0.00018403,-0.00000302
 ,-0.00003933,0.00060823,-0.00045247,-0.00009084,0.00020731,-0.00002960
 ,-0.00004828,-0.00030790,-0.00036696,-0.00010180,-0.00038030,-0.002783
 39,0.00021342,-0.00421401,-0.00300201,0.00098956,0.00006753,0.00134582
 ,0.00020447,-0.00050718,-0.00004782,-0.00017767,-0.00012093,-0.0000523
 0,0.00001216,0.00009207,0.00013740,-0.00000620,-0.00007981,0.00008239,
 -0.00000298,0.00006331,-0.00004230,0.00002404,-0.00007593,-0.00005742,
 -0.00000404,-0.00000268,-0.00002128,-0.00000228,-0.00000009,0.00000525
 ,-0.00000083,0.00000351,-0.00000446,-0.00000054,-0.00005395,0.00027603
 ,0.00000737,0.01039532,-0.00937277,-0.00207559,-0.01632447,0.02497455,
 0.00502328,-0.00003673,-0.00004792,0.00003019,0.00000218,-0.00001337,-
 0.00000282,-0.00000504,0.00000572,-0.00000190,-0.00001714,0.00001647,0
 .00000031,-0.00001930,-0.00002107,-0.00001671,0.00000922,0.00004726,-0
 .00000678,-0.00000568,-0.00001628,0.00000544,0.00000326,0.00000977,0.0
 0000315,0.00109006,0.00028453,-0.00036576,-0.16206846,0.12960979,0.028
 75496,0.00000426,0.00002261,0.00000457,-0.00015099,0.00055016,0.000083
 05,0.17092552,-0.00000683,-0.00004944,0.00001214,0.00010577,0.00004941
 ,-0.00003552,-0.00016979,-0.00057376,0.00004654,-0.00004418,0.00003310
 ,0.00001497,-0.00001096,0.00009869,0.00001393,0.00142587,0.00002922,-0
 .00044741,0.00029649,-0.00007069,0.00001931,-0.00079679,0.00015616,0.0
 0015904,-0.00369880,-0.00492625,-0.00005540,-0.00218948,0.00077201,-0.
 00089721,0.00006329,0.00032406,-0.00000792,-0.00013565,0.00011315,0.00
 010541,-0.00018992,-0.00001199,-0.00003318,0.00004799,0.00001217,0.000
 01462,0.00001404,0.00007122,-0.00001676,0.00005632,-0.00005843,0.00001
 117,-0.00005938,-0.00002563,-0.00000115,0.00001667,-0.00004257,0.00000
 672,-0.00000278,-0.00000685,-0.00000425,-0.00001258,-0.00003547,0.0000
 0561,-0.00027325,-0.00014582,0.00003175,0.01971432,-0.01635406,-0.0047
 6659,-0.00571675,0.00721594,0.00100609,0.00001771,0.00000022,-0.000033
 75,0.00000674,0.00000387,0.00000223,0.00000073,-0.00000410,0.00000161,
 0.00000235,0.00000537,-0.00000186,0.00006617,0.00001246,0.00000770,-0.
 00005207,-0.00004707,0.00000508,0.00001875,0.00001724,-0.00000512,-0.0
 0000652,0.00000546,-0.00000459,0.00097798,0.00149125,0.00003974,0.1320
 4910,-0.22138008,-0.03516502,-0.00003355,-0.00004343,-0.00000147,-0.00
 095021,-0.00015408,0.00020414,-0.14076569,0.23259944,-0.00002228,0.000
 02722,-0.00001679,0.00001941,-0.00004823,-0.00011644,-0.00004771,-0.00
 001071,0.00001106,0.00003687,-0.00004193,0.00004544,-0.00011565,0.0001
 3307,-0.00003063,0.00024755,-0.00011451,0.00038614,-0.00001619,0.00003
 632,-0.00054574,0.00015464,0.00041431,-0.00064602,-0.00025992,-0.00034
 695,0.00390586,0.00092466,-0.00071974,0.00917560,0.00008222,-0.0003451
 1,0.00034184,0.00014098,0.00002935,-0.00088573,0.00004435,0.00000100,0
 .00012370,0.00000194,-0.00001090,-0.00008409,0.00001031,-0.00000541,0.
 00009754,-0.00004748,0.00002512,0.00004326,0.00000989,0.00001936,-0.00
 001890,-0.00000555,-0.00003119,0.00000121,0.00000020,-0.00000412,-0.00
 000207,-0.00000107,-0.00000216,0.00000628,0.00000683,-0.00022617,-0.00
 017268,0.00092906,-0.00231534,0.00202927,0.00041936,-0.00235722,0.0033
 9179,-0.00001585,-0.00000336,0.00025392,0.00000223,0.00000127,-0.00001
 798,0.00000351,-0.00000315,-0.00001471,-0.00000070,-0.00000107,0.00001
 551,0.00000405,0.00000072,0.00003225,-0.00000718,0.00000950,0.00001430
 ,0.00000475,0.00000364,-0.00000163,-0.00001063,0.00000267,-0.00000835,
 -0.00026050,0.00043583,-0.00166567,0.03012684,-0.03426756,-0.04229258,
 0.00001472,-0.00000874,0.00008393,-0.00005208,-0.00010025,0.00021313,-
 0.03175077,0.03892476,0.03211674,0.00003730,0.00001259,-0.00001657,0.0
 0007224,-0.00003213,-0.00001089,-0.00020819,0.00028067,0.00002506,0.00
 002107,0.00006517,-0.00000564,-0.00017225,0.00004403,0.00003873,0.0002
 3949,0.00011210,-0.00006450,0.00065337,0.00062355,0.00015746,-0.003062
 44,0.00312753,0.00059946,-0.00064696,0.00034943,0.00000895,0.01032076,
 0.01985806,0.00205032,0.00150049,0.00002570,-0.00005836,0.00000536,-0.
 00034875,-0.00002450,0.00029095,0.00005067,0.00003436,-0.00008334,0.00
 002641,-0.00000558,0.00002228,-0.00007318,0.00000702,-0.00008105,-0.00
 003136,-0.00002919,0.00003346,0.00007547,0.00000052,0.00000015,0.00000
 155,-0.00000195,0.00001581,-0.00000040,-0.00000179,-0.00000442,0.00000
 252,0.00000324,-0.00046989,-0.00014756,0.00006365,-0.00540317,0.000254
 91,0.00140641,-0.08537046,-0.08196177,-0.00631068,-0.00027198,-0.00065
 769,-0.00007579,-0.00002096,0.00000401,-0.00000049,-0.00000257,-0.0000
 0484,0.00000096,0.00000394,-0.00000306,-0.00000113,0.00003289,0.000021
 51,0.00000778,-0.00003153,-0.00003632,0.00001271,0.00001177,0.00001433
 ,0.00000017,-0.00000400,-0.00000405,-0.00000523,0.00054585,-0.00129222
 ,-0.00020004,-0.00724861,-0.03040889,-0.00277879,-0.00002081,-0.000156
 71,0.00000774,-0.00004015,0.00002658,0.00001631,0.00081941,0.00023489,
 -0.00057081,0.08851622,-0.00005515,-0.00002166,0.00000420,-0.00006741,
 0.00005296,0.00003009,0.00016056,-0.00043878,-0.00006491,0.00001275,-0
 .00006549,-0.00000138,0.00011800,0.00005305,-0.00003515,-0.00019774,-0
 .00017038,0.00008854,-0.00094810,-0.00005797,-0.00020868,0.00417919,-0
 .00191417,-0.00047460,0.00052088,0.00054834,0.00013877,-0.00948509,-0.
 01716510,-0.00194725,-0.00100460,0.00108630,0.00016562,0.00040651,0.00
 004491,0.00004278,-0.00008035,0.00006384,-0.00002199,-0.00008938,-0.00
 007016,-0.00001373,0.00001873,-0.00006496,0.00000355,0.00006427,0.0000
 5376,0.00002052,0.00006448,-0.00003899,0.00000839,0.00001122,-0.000004
 91,0.00000169,-0.00001601,-0.00001184,-0.00000121,-0.00000706,-0.00000
 754,0.00000283,-0.00013201,0.00007640,0.00010636,-0.00049730,0.0017260
 8,-0.00088490,-0.08419526,-0.30258333,-0.02509527,0.00093048,0.0000639
 5,0.00005345,0.00002179,0.00001849,-0.00000151,0.00000927,-0.00000115,
 0.00000036,0.00001512,-0.00000475,0.00000212,0.00003359,0.00003469,0.0
 0000991,-0.00004225,-0.00004172,0.00000005,0.00001082,0.00002197,-0.00
 000927,-0.00000580,-0.00000189,-0.00000389,0.00010090,-0.00014632,-0.0
 0010507,0.00037041,-0.00225829,-0.00082952,-0.00000135,-0.00001923,0.0
 0000704,-0.00003484,0.00000260,-0.00000992,-0.00013653,0.00091926,0.00
 089965,0.08994723,0.32032204,-0.00000331,0.00002422,-0.00003762,-0.000
 02188,-0.00000422,-0.00027446,0.00008095,0.00002774,0.00025156,-0.0000
 1351,0.00001552,0.00002992,0.00001431,-0.00001405,0.00015231,-0.000114
 26,0.00002759,-0.00057015,-0.00023796,-0.00026987,0.00050640,0.0011782
 3,-0.00035869,0.00348487,-0.00037350,0.00025140,-0.00083912,-0.0007555
 2,-0.00474784,0.00180356,-0.00035977,0.00052485,-0.00190044,0.00012978
 ,-0.00013115,-0.00016545,0.00003592,0.00007330,-0.00000587,-0.00008439
 ,0.00001494,0.00001590,0.00000291,-0.00006919,0.00001727,-0.00003807,0
 .00003221,0.00003076,0.00004051,0.00002477,-0.00001589,-0.00000014,-0.
 00000627,0.00000872,0.00001826,0.00000035,0.00007324,0.00000069,0.0000
 0124,0.00000052,-0.00016421,0.00002072,-0.00055401,0.00124099,-0.00093
 983,0.00882438,-0.00775457,-0.02526190,-0.03700316,0.00011672,0.000034
 53,0.00030862,0.00000197,0.00000156,0.00001737,0.00000245,-0.00000026,
 -0.00000074,0.00000281,-0.00000168,-0.00000189,0.00000823,-0.00003523,
 0.00002243,0.00005486,-0.00001701,0.00000980,-0.00000715,-0.00000214,-
 0.00000311,0.00000063,-0.00000622,-0.00000142,0.00009154,-0.00015082,0
 .00040780,0.00184781,0.00198203,0.00402727,-0.00001204,-0.00000228,-0.
 00005173,0.00002697,-0.00000527,0.00012260,-0.00067735,0.00084463,-0.0
 0576877,0.00572106,0.02812231,0.02707855\\0.00001097,-0.00000539,0.000
 00715,-0.00556093,0.00041443,-0.00416939,-0.00002537,0.00000132,0.0000
 0920,-0.00000458,0.00000732,0.00000419,-0.00000309,-0.00000279,0.00000
 146,0.00001792,-0.00000500,0.00000282,0.00002363,0.00001001,-0.0000008
 2,-0.00000060,-0.00000204,-0.00000664,-0.00000481,0.00000625,0.0000009
 0,-0.00001566,-0.00000258,0.00000059,0.00001193,-0.00000424,-0.0000008
 9,-0.00000791,0.00000315,0.00000059,-0.00001278,0.00000047,-0.00000848
 ,0.00001262,-0.00000133,-0.00000269,-0.00000144,0.00000856,-0.00000398
 ,-0.00000743,-0.00000168,-0.00002039,-0.00000263,-0.00000416,0.0000015
 0,0.00000007,0.00000042,-0.00000536,-0.00000070,-0.00000052,0.00000156
 ,-0.00000057,-0.00000007,0.00000251,0.00000125,0.00000167,0.00000574,0
 .00000959,-0.00000017,0.00000073,0.00000623,0.00000061,0.00000207,-0.0
 0000151,0.00000134,-0.00000201,-0.00000304,0.00000092,-0.00000436,0.00
 000144,0.00000095,-0.00000714,0.00000064,-0.00000206,-0.00000524,-0.00
 000484,0.00000007,0.00001831,0.00556241,-0.00042369,0.00415803,0.00001
 408,-0.00000224,-0.00000163,-0.00000545,0.00000392,0.00000180,-0.00000
 528,-0.00000214,0.00000605,-0.00000632,-0.00000102,0.00000218,-0.00000
 021,-0.00000114,0.00000436,0.00000130,0.00000144,0.00000407,0.00000004
 ,-0.00000062,0.00000292,0.00000103,0.00000004,0.00000029\\\@


      HUMANKIND PERIODICALLY GOES THROUGH A SPEEDUP OF ITS AFFAIRS, 
      THEREBY EXPERIENCING THE RACE BETWEEN THE RENEWABLE VITALITY
      OF THE LIVING, AND THE BECKONING VITIATION OF DECADENCE.
      IN THIS PERIODIC RACE, ANY PAUSE BECOMES A LUXURY.
      ONLY THEN CAN ONE REFLECT THAT ALL IS PERMITTED;
      ALL IS POSSIBLE.

                              -- THE APOCRYPHA OF MUAD'DIB
                                 CHILDREN OF DUNE, BY FRANK HERBERT
 Job cpu time:       0 days 17 hours 38 minutes 33.6 seconds.
 Elapsed time:       0 days  0 hours 52 minutes 55.3 seconds.
 File lengths (MBytes):  RWF=   4443 Int=      0 D2E=      0 Chk=     39 Scr=      1
 Normal termination of Gaussian 16 at Mon Apr  1 16:44:18 2019.
