 Entering Gaussian System, Link 0=/share/apps/gaussian16/g16/g16
 Initial command:
 /share/apps/gaussian16/g16/l1.exe "/home/am2145//scratch/3651/Gau-17982.inp" -scrdir="/home/am2145//scratch/3651/"
 Entering Link 1 = /share/apps/gaussian16/g16/l1.exe PID=     17991.
  
 Copyright (c) 1988,1990,1992,1993,1995,1998,2003,2009,2016,
            Gaussian, Inc.  All Rights Reserved.
  
 This is part of the Gaussian(R) 16 program.  It is based on
 the Gaussian(R) 09 system (copyright 2009, Gaussian, Inc.),
 the Gaussian(R) 03 system (copyright 2003, Gaussian, Inc.),
 the Gaussian(R) 98 system (copyright 1998, Gaussian, Inc.),
 the Gaussian(R) 94 system (copyright 1995, Gaussian, Inc.),
 the Gaussian 92(TM) system (copyright 1992, Gaussian, Inc.),
 the Gaussian 90(TM) system (copyright 1990, Gaussian, Inc.),
 the Gaussian 88(TM) system (copyright 1988, Gaussian, Inc.),
 the Gaussian 86(TM) system (copyright 1986, Carnegie Mellon
 University), and the Gaussian 82(TM) system (copyright 1983,
 Carnegie Mellon University). Gaussian is a federally registered
 trademark of Gaussian, Inc.
  
 This software contains proprietary and confidential information,
 including trade secrets, belonging to Gaussian, Inc.
  
 This software is provided under written license and may be
 used, copied, transmitted, or stored only in accord with that
 written license.
  
 The following legend is applicable only to US Government
 contracts under FAR:
  
                    RESTRICTED RIGHTS LEGEND
  
 Use, reproduction and disclosure by the US Government is
 subject to restrictions as set forth in subparagraphs (a)
 and (c) of the Commercial Computer Software - Restricted
 Rights clause in FAR 52.227-19.
  
 Gaussian, Inc.
 340 Quinnipiac St., Bldg. 40, Wallingford CT 06492
  
  
 ---------------------------------------------------------------
 Warning -- This program may not be used in any manner that
 competes with the business of Gaussian, Inc. or will provide
 assistance to any competitor of Gaussian, Inc.  The licensee
 of this program is prohibited from giving any competitor of
 Gaussian, Inc. access to this program.  By using this program,
 the user acknowledges that Gaussian, Inc. is engaged in the
 business of creating and licensing software in the field of
 computational chemistry and represents and warrants to the
 licensee that it is not a competitor of Gaussian, Inc. and that
 it will not use this program in any manner prohibited above.
 ---------------------------------------------------------------
  

 Cite this work as:
 Gaussian 16, Revision A.03,
 M. J. Frisch, G. W. Trucks, H. B. Schlegel, G. E. Scuseria, 
 M. A. Robb, J. R. Cheeseman, G. Scalmani, V. Barone, 
 G. A. Petersson, H. Nakatsuji, X. Li, M. Caricato, A. V. Marenich, 
 J. Bloino, B. G. Janesko, R. Gomperts, B. Mennucci, H. P. Hratchian, 
 J. V. Ortiz, A. F. Izmaylov, J. L. Sonnenberg, D. Williams-Young, 
 F. Ding, F. Lipparini, F. Egidi, J. Goings, B. Peng, A. Petrone, 
 T. Henderson, D. Ranasinghe, V. G. Zakrzewski, J. Gao, N. Rega, 
 G. Zheng, W. Liang, M. Hada, M. Ehara, K. Toyota, R. Fukuda, 
 J. Hasegawa, M. Ishida, T. Nakajima, Y. Honda, O. Kitao, H. Nakai, 
 T. Vreven, K. Throssell, J. A. Montgomery, Jr., J. E. Peralta, 
 F. Ogliaro, M. J. Bearpark, J. J. Heyd, E. N. Brothers, K. N. Kudin, 
 V. N. Staroverov, T. A. Keith, R. Kobayashi, J. Normand, 
 K. Raghavachari, A. P. Rendell, J. C. Burant, S. S. Iyengar, 
 J. Tomasi, M. Cossi, J. M. Millam, M. Klene, C. Adamo, R. Cammi, 
 J. W. Ochterski, R. L. Martin, K. Morokuma, O. Farkas, 
 J. B. Foresman, and D. J. Fox, Gaussian, Inc., Wallingford CT, 2016.
 
 ******************************************
 Gaussian 16:  ES64L-G16RevA.03 25-Dec-2016
                 2-Apr-2019 
 ******************************************
 %nprocshared=20
 Will use up to   20 processors via shared memory.
 %mem=100GB
 %chk=7-memb-TSguess-4c2.chk
 ----------------------------------------------------------------------
 # opt=(ts,modredundant,noeigen) freq ub3lyp/6-311+g(d,p) int=grid=fine
 ----------------------------------------------------------------------
 1/5=1,11=1,18=120,26=3,38=1/1,3;
 2/9=110,12=2,17=6,18=5,40=1/2;
 3/5=4,6=6,7=111,11=2,25=1,30=1,71=1,74=-5,75=-4,116=2/1,2,3;
 4//1;
 5/5=2,38=5/2;
 6/7=2,8=2,9=2,10=2,28=1/1;
 7//1,2,3,16;
 1/5=1,11=1,18=20,26=3/3(2);
 2/9=110/2;
 99//99;
 2/9=110/2;
 3/5=4,6=6,7=111,11=2,25=1,30=1,71=1,74=-5,75=-4,116=2/1,2,3;
 4/5=5,16=3,69=1/1;
 5/5=2,38=5/2;
 7//1,2,3,16;
 1/5=1,11=1,18=20,26=3/3(-5);
 2/9=110/2;
 6/7=2,8=2,9=2,10=2,19=2,28=1/1;
 99/9=1/99;
 ------------------
 7-memb-TSguess-4c2
 ------------------
 Symbolic Z-matrix:
 Charge =  0 Multiplicity = 2
 C                     1.78542  -3.20518   0.14446 
 C                     0.52744  -2.55422  -0.02473 
 C                     0.53954  -1.1908   -0.27456 
 C                     2.99926  -2.52024   0.16199 
 C                     3.0285   -1.10562  -0.00857 
 C                     1.78722  -0.53441  -0.26276 
 C                    -0.51941  -0.11421  -0.351 
 C                     0.20517   1.09829  -0.30289 
 C                     1.58778   0.84877  -0.27438 
 C                    -0.29395   2.38619  -0.09142 
 C                    -1.68651   2.44914   0.0673 
 C                    -2.48096   1.27815  -0.00975 
 C                    -1.91931  -0.0335   -0.29753 
 C                    -3.87898   1.36953   0.28584 
 C                    -4.70124   0.25392   0.28356 
 C                    -2.83966  -1.19834  -0.42225 
 C                    -4.2177   -0.99104  -0.11134 
 H                     1.78987  -4.27651   0.31396 
 H                     3.91455  -3.0727    0.34816 
 C                     4.10236  -0.1496    0.14579 
 C                     2.5696    1.78455  -0.03614 
 C                     0.71734   3.41617   0.06899 
 H                    -2.17843   3.38604   0.3096 
 H                    -4.2885    2.3431    0.53133 
 H                    -2.66145  -1.84476  -1.27417 
 H                    -4.90176  -1.82296  -0.23325 
 H                    -5.75182   0.36494   0.529 
 C                    -0.86663  -3.08809  -0.02224 
 C                    -1.77437  -2.45073   0.72253 
 H                    -1.17225  -3.62061  -0.92394 
 H                    -1.52801  -1.86528   1.6026 
 C                     3.88803   1.22052   0.13461 
 C                     2.06931   3.1381    0.09567 
 H                     5.11133  -0.51278   0.31334 
 H                     4.73557   1.87906   0.29507 
 H                     2.76608   3.95519   0.25286 
 H                     0.3953    4.44311   0.20835 
 
 The following ModRedundant input section has been read:
 B      16      29 F                                                           
 

 GradGradGradGradGradGradGradGradGradGradGradGradGradGradGradGradGradGrad
 Berny optimization.
 Initialization pass.
                           ----------------------------
                           !    Initial Parameters    !
                           ! (Angstroms and Degrees)  !
 --------------------------                            --------------------------
 ! Name  Definition              Value          Derivative Info.                !
 --------------------------------------------------------------------------------
 ! R1    R(1,2)                  1.4265         estimate D2E/DX2                !
 ! R2    R(1,4)                  1.3939         estimate D2E/DX2                !
 ! R3    R(1,18)                 1.0847         estimate D2E/DX2                !
 ! R4    R(2,3)                  1.3862         estimate D2E/DX2                !
 ! R5    R(2,28)                 1.4928         estimate D2E/DX2                !
 ! R6    R(3,6)                  1.4099         estimate D2E/DX2                !
 ! R7    R(3,7)                  1.512          estimate D2E/DX2                !
 ! R8    R(4,5)                  1.4252         estimate D2E/DX2                !
 ! R9    R(4,19)                 1.0852         estimate D2E/DX2                !
 ! R10   R(5,6)                  1.3898         estimate D2E/DX2                !
 ! R11   R(5,20)                 1.446          estimate D2E/DX2                !
 ! R12   R(6,9)                  1.3975         estimate D2E/DX2                !
 ! R13   R(7,8)                  1.4133         estimate D2E/DX2                !
 ! R14   R(7,13)                 1.4032         estimate D2E/DX2                !
 ! R15   R(8,9)                  1.4052         estimate D2E/DX2                !
 ! R16   R(8,10)                 1.3973         estimate D2E/DX2                !
 ! R17   R(9,21)                 1.3771         estimate D2E/DX2                !
 ! R18   R(10,11)                1.403          estimate D2E/DX2                !
 ! R19   R(10,22)                1.4523         estimate D2E/DX2                !
 ! R20   R(11,12)                1.4172         estimate D2E/DX2                !
 ! R21   R(11,23)                1.0856         estimate D2E/DX2                !
 ! R22   R(12,13)                1.4556         estimate D2E/DX2                !
 ! R23   R(12,14)                1.4318         estimate D2E/DX2                !
 ! R24   R(13,16)                1.4898         estimate D2E/DX2                !
 ! R25   R(14,15)                1.3859         estimate D2E/DX2                !
 ! R26   R(14,24)                1.0844         estimate D2E/DX2                !
 ! R27   R(15,17)                1.3927         estimate D2E/DX2                !
 ! R28   R(15,27)                1.0846         estimate D2E/DX2                !
 ! R29   R(16,17)                1.4278         estimate D2E/DX2                !
 ! R30   R(16,25)                1.0842         estimate D2E/DX2                !
 ! R31   R(16,29)                2.0034         Frozen                          !
 ! R32   R(17,26)                1.0839         estimate D2E/DX2                !
 ! R33   R(20,32)                1.3868         estimate D2E/DX2                !
 ! R34   R(20,34)                1.0854         estimate D2E/DX2                !
 ! R35   R(21,32)                1.4441         estimate D2E/DX2                !
 ! R36   R(21,33)                1.4491         estimate D2E/DX2                !
 ! R37   R(22,33)                1.3805         estimate D2E/DX2                !
 ! R38   R(22,37)                1.0852         estimate D2E/DX2                !
 ! R39   R(28,29)                1.336          estimate D2E/DX2                !
 ! R40   R(28,30)                1.0909         estimate D2E/DX2                !
 ! R41   R(29,31)                1.0853         estimate D2E/DX2                !
 ! R42   R(32,35)                1.0852         estimate D2E/DX2                !
 ! R43   R(33,36)                1.0853         estimate D2E/DX2                !
 ! A1    A(2,1,4)              123.0397         estimate D2E/DX2                !
 ! A2    A(2,1,18)             118.2211         estimate D2E/DX2                !
 ! A3    A(4,1,18)             118.6736         estimate D2E/DX2                !
 ! A4    A(1,2,3)              117.5499         estimate D2E/DX2                !
 ! A5    A(1,2,28)             131.3111         estimate D2E/DX2                !
 ! A6    A(3,2,28)             111.1133         estimate D2E/DX2                !
 ! A7    A(2,3,6)              117.6552         estimate D2E/DX2                !
 ! A8    A(2,3,7)              134.6937         estimate D2E/DX2                !
 ! A9    A(6,3,7)              106.7813         estimate D2E/DX2                !
 ! A10   A(1,4,5)              120.273          estimate D2E/DX2                !
 ! A11   A(1,4,19)             119.1106         estimate D2E/DX2                !
 ! A12   A(5,4,19)             120.5677         estimate D2E/DX2                !
 ! A13   A(4,5,6)              114.2998         estimate D2E/DX2                !
 ! A14   A(4,5,20)             131.201          estimate D2E/DX2                !
 ! A15   A(6,5,20)             114.2713         estimate D2E/DX2                !
 ! A16   A(3,6,5)              126.9101         estimate D2E/DX2                !
 ! A17   A(3,6,9)              109.5378         estimate D2E/DX2                !
 ! A18   A(5,6,9)              122.3941         estimate D2E/DX2                !
 ! A19   A(3,7,8)              104.4813         estimate D2E/DX2                !
 ! A20   A(3,7,13)             137.5367         estimate D2E/DX2                !
 ! A21   A(8,7,13)             117.4393         estimate D2E/DX2                !
 ! A22   A(7,8,9)              110.6575         estimate D2E/DX2                !
 ! A23   A(7,8,10)             127.7888         estimate D2E/DX2                !
 ! A24   A(9,8,10)             120.7988         estimate D2E/DX2                !
 ! A25   A(6,9,8)              108.4405         estimate D2E/DX2                !
 ! A26   A(6,9,21)             124.7059         estimate D2E/DX2                !
 ! A27   A(8,9,21)             125.756          estimate D2E/DX2                !
 ! A28   A(8,10,11)            114.394          estimate D2E/DX2                !
 ! A29   A(8,10,22)            114.9386         estimate D2E/DX2                !
 ! A30   A(11,10,22)           130.3027         estimate D2E/DX2                !
 ! A31   A(10,11,12)           120.8775         estimate D2E/DX2                !
 ! A32   A(10,11,23)           120.9139         estimate D2E/DX2                !
 ! A33   A(12,11,23)           118.1146         estimate D2E/DX2                !
 ! A34   A(11,12,13)           122.618          estimate D2E/DX2                !
 ! A35   A(11,12,14)           118.9076         estimate D2E/DX2                !
 ! A36   A(13,12,14)           118.3638         estimate D2E/DX2                !
 ! A37   A(7,13,12)            116.3792         estimate D2E/DX2                !
 ! A38   A(7,13,16)            124.6201         estimate D2E/DX2                !
 ! A39   A(12,13,16)           118.8655         estimate D2E/DX2                !
 ! A40   A(12,14,15)           121.8421         estimate D2E/DX2                !
 ! A41   A(12,14,24)           118.2147         estimate D2E/DX2                !
 ! A42   A(15,14,24)           119.9364         estimate D2E/DX2                !
 ! A43   A(14,15,17)           120.9338         estimate D2E/DX2                !
 ! A44   A(14,15,27)           119.4684         estimate D2E/DX2                !
 ! A45   A(17,15,27)           119.4706         estimate D2E/DX2                !
 ! A46   A(13,16,17)           117.6771         estimate D2E/DX2                !
 ! A47   A(13,16,25)           115.4948         estimate D2E/DX2                !
 ! A48   A(17,16,25)           114.6025         estimate D2E/DX2                !
 ! A49   A(15,17,16)           121.7769         estimate D2E/DX2                !
 ! A50   A(15,17,26)           119.9247         estimate D2E/DX2                !
 ! A51   A(16,17,26)           118.2405         estimate D2E/DX2                !
 ! A52   A(5,20,32)            122.5159         estimate D2E/DX2                !
 ! A53   A(5,20,34)            119.0532         estimate D2E/DX2                !
 ! A54   A(32,20,34)           118.3923         estimate D2E/DX2                !
 ! A55   A(9,21,32)            113.951          estimate D2E/DX2                !
 ! A56   A(9,21,33)            113.8489         estimate D2E/DX2                !
 ! A57   A(32,21,33)           132.0104         estimate D2E/DX2                !
 ! A58   A(10,22,33)           122.7657         estimate D2E/DX2                !
 ! A59   A(10,22,37)           118.5967         estimate D2E/DX2                !
 ! A60   A(33,22,37)           118.6023         estimate D2E/DX2                !
 ! A61   A(2,28,29)            117.6991         estimate D2E/DX2                !
 ! A62   A(2,28,30)            115.7736         estimate D2E/DX2                !
 ! A63   A(29,28,30)           120.2195         estimate D2E/DX2                !
 ! A64   A(28,29,31)           123.7199         estimate D2E/DX2                !
 ! A65   A(20,32,21)           121.8643         estimate D2E/DX2                !
 ! A66   A(20,32,35)           118.529          estimate D2E/DX2                !
 ! A67   A(21,32,35)           119.5695         estimate D2E/DX2                !
 ! A68   A(21,33,22)           121.6343         estimate D2E/DX2                !
 ! A69   A(21,33,36)           119.6551         estimate D2E/DX2                !
 ! A70   A(22,33,36)           118.6784         estimate D2E/DX2                !
 ! D1    D(4,1,2,3)              4.6            estimate D2E/DX2                !
 ! D2    D(4,1,2,28)          -177.4324         estimate D2E/DX2                !
 ! D3    D(18,1,2,3)          -178.3879         estimate D2E/DX2                !
 ! D4    D(18,1,2,28)           -0.4202         estimate D2E/DX2                !
 ! D5    D(2,1,4,5)             -0.7302         estimate D2E/DX2                !
 ! D6    D(2,1,4,19)           176.7452         estimate D2E/DX2                !
 ! D7    D(18,1,4,5)          -177.7295         estimate D2E/DX2                !
 ! D8    D(18,1,4,19)           -0.2542         estimate D2E/DX2                !
 ! D9    D(1,2,3,6)             -3.7471         estimate D2E/DX2                !
 ! D10   D(1,2,3,7)           -171.4271         estimate D2E/DX2                !
 ! D11   D(28,2,3,6)           177.8893         estimate D2E/DX2                !
 ! D12   D(28,2,3,7)            10.2092         estimate D2E/DX2                !
 ! D13   D(1,2,28,29)          131.8731         estimate D2E/DX2                !
 ! D14   D(1,2,28,30)          -75.9061         estimate D2E/DX2                !
 ! D15   D(3,2,28,29)          -50.0585         estimate D2E/DX2                !
 ! D16   D(3,2,28,30)          102.1623         estimate D2E/DX2                !
 ! D17   D(2,3,6,5)             -0.8556         estimate D2E/DX2                !
 ! D18   D(2,3,6,9)           -168.6781         estimate D2E/DX2                !
 ! D19   D(7,3,6,5)            170.0288         estimate D2E/DX2                !
 ! D20   D(7,3,6,9)              2.2063         estimate D2E/DX2                !
 ! D21   D(2,3,7,8)            165.4751         estimate D2E/DX2                !
 ! D22   D(2,3,7,13)            -5.3375         estimate D2E/DX2                !
 ! D23   D(6,3,7,8)             -3.1399         estimate D2E/DX2                !
 ! D24   D(6,3,7,13)          -173.9525         estimate D2E/DX2                !
 ! D25   D(1,4,5,6)             -3.6152         estimate D2E/DX2                !
 ! D26   D(1,4,5,20)           170.4932         estimate D2E/DX2                !
 ! D27   D(19,4,5,6)           178.9466         estimate D2E/DX2                !
 ! D28   D(19,4,5,20)           -6.945          estimate D2E/DX2                !
 ! D29   D(4,5,6,3)              4.5748         estimate D2E/DX2                !
 ! D30   D(4,5,6,9)            170.9577         estimate D2E/DX2                !
 ! D31   D(20,5,6,3)          -170.5653         estimate D2E/DX2                !
 ! D32   D(20,5,6,9)            -4.1824         estimate D2E/DX2                !
 ! D33   D(4,5,20,32)         -169.7647         estimate D2E/DX2                !
 ! D34   D(4,5,20,34)            7.9377         estimate D2E/DX2                !
 ! D35   D(6,5,20,32)            4.345          estimate D2E/DX2                !
 ! D36   D(6,5,20,34)         -177.9526         estimate D2E/DX2                !
 ! D37   D(3,6,9,8)             -0.3888         estimate D2E/DX2                !
 ! D38   D(3,6,9,21)           168.1918         estimate D2E/DX2                !
 ! D39   D(5,6,9,8)           -168.8666         estimate D2E/DX2                !
 ! D40   D(5,6,9,21)            -0.286          estimate D2E/DX2                !
 ! D41   D(3,7,8,9)              2.9919         estimate D2E/DX2                !
 ! D42   D(3,7,8,10)          -166.9914         estimate D2E/DX2                !
 ! D43   D(13,7,8,9)           176.0157         estimate D2E/DX2                !
 ! D44   D(13,7,8,10)            6.0325         estimate D2E/DX2                !
 ! D45   D(3,7,13,12)          161.6536         estimate D2E/DX2                !
 ! D46   D(3,7,13,16)          -14.057          estimate D2E/DX2                !
 ! D47   D(8,7,13,12)           -8.315          estimate D2E/DX2                !
 ! D48   D(8,7,13,16)          175.9743         estimate D2E/DX2                !
 ! D49   D(7,8,9,6)             -1.7609         estimate D2E/DX2                !
 ! D50   D(7,8,9,21)          -170.1908         estimate D2E/DX2                !
 ! D51   D(10,8,9,6)           169.0307         estimate D2E/DX2                !
 ! D52   D(10,8,9,21)            0.6009         estimate D2E/DX2                !
 ! D53   D(7,8,10,11)           -1.0854         estimate D2E/DX2                !
 ! D54   D(7,8,10,22)          172.7083         estimate D2E/DX2                !
 ! D55   D(9,8,10,11)         -170.1633         estimate D2E/DX2                !
 ! D56   D(9,8,10,22)            3.6303         estimate D2E/DX2                !
 ! D57   D(6,9,21,32)            4.5236         estimate D2E/DX2                !
 ! D58   D(6,9,21,33)         -171.083          estimate D2E/DX2                !
 ! D59   D(8,9,21,32)          171.1413         estimate D2E/DX2                !
 ! D60   D(8,9,21,33)           -4.4652         estimate D2E/DX2                !
 ! D61   D(8,10,11,12)          -0.9368         estimate D2E/DX2                !
 ! D62   D(8,10,11,23)         175.4723         estimate D2E/DX2                !
 ! D63   D(22,10,11,12)       -173.5516         estimate D2E/DX2                !
 ! D64   D(22,10,11,23)          2.8575         estimate D2E/DX2                !
 ! D65   D(8,10,22,33)          -3.9016         estimate D2E/DX2                !
 ! D66   D(8,10,22,37)         178.2907         estimate D2E/DX2                !
 ! D67   D(11,10,22,33)        168.6807         estimate D2E/DX2                !
 ! D68   D(11,10,22,37)         -9.127          estimate D2E/DX2                !
 ! D69   D(10,11,12,13)         -2.0788         estimate D2E/DX2                !
 ! D70   D(10,11,12,14)        174.0311         estimate D2E/DX2                !
 ! D71   D(23,11,12,13)       -178.586          estimate D2E/DX2                !
 ! D72   D(23,11,12,14)         -2.4761         estimate D2E/DX2                !
 ! D73   D(11,12,13,7)           6.8721         estimate D2E/DX2                !
 ! D74   D(11,12,13,16)       -177.158          estimate D2E/DX2                !
 ! D75   D(14,12,13,7)        -169.2579         estimate D2E/DX2                !
 ! D76   D(14,12,13,16)          6.7119         estimate D2E/DX2                !
 ! D77   D(11,12,14,15)       -177.2752         estimate D2E/DX2                !
 ! D78   D(11,12,14,24)          1.7779         estimate D2E/DX2                !
 ! D79   D(13,12,14,15)         -0.9986         estimate D2E/DX2                !
 ! D80   D(13,12,14,24)        178.0546         estimate D2E/DX2                !
 ! D81   D(7,13,16,17)         169.0897         estimate D2E/DX2                !
 ! D82   D(7,13,16,25)         -50.4717         estimate D2E/DX2                !
 ! D83   D(12,13,16,17)         -6.5223         estimate D2E/DX2                !
 ! D84   D(12,13,16,25)        133.9164         estimate D2E/DX2                !
 ! D85   D(12,14,15,17)         -5.118          estimate D2E/DX2                !
 ! D86   D(12,14,15,27)        179.0035         estimate D2E/DX2                !
 ! D87   D(24,14,15,17)        175.8448         estimate D2E/DX2                !
 ! D88   D(24,14,15,27)         -0.0337         estimate D2E/DX2                !
 ! D89   D(14,15,17,16)          5.2748         estimate D2E/DX2                !
 ! D90   D(14,15,17,26)       -171.9084         estimate D2E/DX2                !
 ! D91   D(27,15,17,16)       -178.8468         estimate D2E/DX2                !
 ! D92   D(27,15,17,26)          3.9699         estimate D2E/DX2                !
 ! D93   D(13,16,17,15)          0.6053         estimate D2E/DX2                !
 ! D94   D(13,16,17,26)        177.8343         estimate D2E/DX2                !
 ! D95   D(25,16,17,15)       -140.1758         estimate D2E/DX2                !
 ! D96   D(25,16,17,26)         37.0532         estimate D2E/DX2                !
 ! D97   D(5,20,32,21)          -0.1423         estimate D2E/DX2                !
 ! D98   D(5,20,32,35)         177.6261         estimate D2E/DX2                !
 ! D99   D(34,20,32,21)       -177.8592         estimate D2E/DX2                !
 ! D100  D(34,20,32,35)         -0.0908         estimate D2E/DX2                !
 ! D101  D(9,21,32,20)          -4.2226         estimate D2E/DX2                !
 ! D102  D(9,21,32,35)         178.0316         estimate D2E/DX2                !
 ! D103  D(33,21,32,20)        170.3666         estimate D2E/DX2                !
 ! D104  D(33,21,32,35)         -7.3791         estimate D2E/DX2                !
 ! D105  D(9,21,33,22)           4.0668         estimate D2E/DX2                !
 ! D106  D(9,21,33,36)        -178.023          estimate D2E/DX2                !
 ! D107  D(32,21,33,22)       -170.5267         estimate D2E/DX2                !
 ! D108  D(32,21,33,36)          7.3835         estimate D2E/DX2                !
 ! D109  D(10,22,33,21)         -0.0099         estimate D2E/DX2                !
 ! D110  D(10,22,33,36)       -177.9399         estimate D2E/DX2                !
 ! D111  D(37,22,33,21)        177.7977         estimate D2E/DX2                !
 ! D112  D(37,22,33,36)         -0.1323         estimate D2E/DX2                !
 ! D113  D(2,28,29,31)         -26.06           estimate D2E/DX2                !
 ! D114  D(30,28,29,31)       -177.0012         estimate D2E/DX2                !
 --------------------------------------------------------------------------------
 Trust Radius=3.00D-01 FncErr=1.00D-07 GrdErr=1.00D-06 EigMax=2.50D+02 EigMin=1.00D-04
 Number of steps in this run=    222 maximum allowed number of steps=    222.
 Search for a saddle point of order  1.
 GradGradGradGradGradGradGradGradGradGradGradGradGradGradGradGradGradGrad

                          Input orientation:                          
 ---------------------------------------------------------------------
 Center     Atomic      Atomic             Coordinates (Angstroms)
 Number     Number       Type             X           Y           Z
 ---------------------------------------------------------------------
      1          6           0        1.785422   -3.205184    0.144456
      2          6           0        0.527439   -2.554222   -0.024732
      3          6           0        0.539543   -1.190799   -0.274562
      4          6           0        2.999261   -2.520243    0.161992
      5          6           0        3.028498   -1.105615   -0.008569
      6          6           0        1.787219   -0.534410   -0.262758
      7          6           0       -0.519413   -0.114213   -0.351000
      8          6           0        0.205166    1.098290   -0.302891
      9          6           0        1.587778    0.848772   -0.274375
     10          6           0       -0.293945    2.386194   -0.091420
     11          6           0       -1.686506    2.449144    0.067297
     12          6           0       -2.480957    1.278150   -0.009751
     13          6           0       -1.919309   -0.033495   -0.297532
     14          6           0       -3.878978    1.369525    0.285842
     15          6           0       -4.701238    0.253918    0.283557
     16          6           0       -2.839656   -1.198344   -0.422245
     17          6           0       -4.217703   -0.991040   -0.111342
     18          1           0        1.789869   -4.276508    0.313956
     19          1           0        3.914547   -3.072703    0.348158
     20          6           0        4.102363   -0.149599    0.145791
     21          6           0        2.569597    1.784550   -0.036136
     22          6           0        0.717341    3.416168    0.068992
     23          1           0       -2.178427    3.386039    0.309603
     24          1           0       -4.288500    2.343097    0.531331
     25          1           0       -2.661446   -1.844764   -1.274172
     26          1           0       -4.901758   -1.822957   -0.233248
     27          1           0       -5.751824    0.364937    0.529003
     28          6           0       -0.866633   -3.088089   -0.022235
     29          6           0       -1.774372   -2.450725    0.722526
     30          1           0       -1.172248   -3.620613   -0.923939
     31          1           0       -1.528010   -1.865281    1.602600
     32          6           0        3.888026    1.220524    0.134605
     33          6           0        2.069307    3.138104    0.095672
     34          1           0        5.111332   -0.512776    0.313337
     35          1           0        4.735572    1.879056    0.295068
     36          1           0        2.766077    3.955191    0.252864
     37          1           0        0.395299    4.443108    0.208352
 ---------------------------------------------------------------------
                    Distance matrix (angstroms):
                    1          2          3          4          5
     1  C    0.000000
     2  C    1.426498   0.000000
     3  C    2.405314   1.386176   0.000000
     4  C    1.393864   2.479098   2.829879   0.000000
     5  C    2.444759   2.890332   2.504577   1.425173   0.000000
     6  C    2.701640   2.392351   1.409852   2.364951   1.389842
     7  C    3.887395   2.675069   1.512041   4.293391   3.699704
     8  C    4.606215   3.677238   2.313555   4.595309   3.593748
     9  C    4.080324   3.573095   2.293174   3.678718   2.442531
    10  C    5.970169   5.008675   3.677380   5.914605   4.820604
    11  C    6.635636   5.472083   4.280344   6.830826   5.905365
    12  C    6.190804   4.872140   3.910148   6.670088   6.003035
    13  C    4.896937   3.523501   2.717689   5.530588   5.070871
    14  C    7.282402   5.908363   5.137377   7.902899   7.343447
    15  C    7.352652   5.943043   5.464841   8.185868   7.853820
    16  C    5.073451   3.651541   3.382433   6.015123   5.883448
    17  C    6.403544   4.996740   4.764235   7.382259   7.247835
    18  H    1.084659   2.162107   3.381016   2.137800   3.419472
    19  H    2.142946   3.446791   3.914077   1.085181   2.186726
    20  C    3.834686   4.311771   3.735570   2.614775   1.446022
    21  C    5.054205   4.795360   3.609802   4.330717   2.926500
    22  C    6.707369   5.974145   4.623179   6.360565   5.078778
    23  H    7.693087   6.536069   5.355003   7.855852   6.883913
    24  H    8.235631   6.891024   6.037208   8.769262   8.107007
    25  H    4.861881   3.497630   3.416610   5.878983   5.875675
    26  H    6.838976   5.482190   5.478055   7.941569   7.965803
    27  H    8.348875   6.946744   6.530492   9.221738   8.918832
    28  C    2.659867   1.492802   2.375018   3.911716   4.370633
    29  C    3.684495   2.422280   2.817055   4.806933   5.040970
    30  H    3.172044   2.198795   3.042354   4.448769   4.980902
    31  H    3.860098   2.710668   2.872880   4.795885   4.892313
    32  C    4.899789   5.056445   4.146593   3.844996   2.483991
    33  C    6.349825   5.898680   4.606154   5.734641   4.352018
    34  H    4.282436   5.029301   4.659034   2.917820   2.189356
    35  H    5.880099   6.120834   5.230215   4.731418   3.451747
    36  H    7.228029   6.889196   5.631771   6.480268   5.074344
    37  H    7.773860   7.002458   5.656405   7.434448   6.145659
                    6          7          8          9         10
     6  C    0.000000
     7  C    2.346253   0.000000
     8  C    2.273810   1.413327   0.000000
     9  C    1.397535   2.318074   1.405236   0.000000
    10  C    3.590338   2.523936   1.397329   2.436805   0.000000
    11  C    4.591002   2.847434   2.353778   3.660446   1.402990
    12  C    4.643997   2.429564   2.708050   4.099878   2.453050
    13  C    3.740384   1.403240   2.407148   3.616433   2.922188
    14  C    6.002643   3.727428   4.135264   5.520004   3.745451
    15  C    6.558963   4.245685   5.012952   6.341677   4.910340
    16  C    4.676988   2.562019   3.815719   4.880033   4.408968
    17  C    6.024162   3.808361   4.895279   6.092216   5.177063
    18  H    3.786278   4.806209   5.637396   5.162893   6.992725
    19  H    3.367740   5.376010   5.619658   4.602105   6.906822
    20  C    2.382201   4.648534   4.116635   2.737959   5.080752
    21  C    2.457854   3.639564   2.476418   1.377101   2.926586
    22  C    4.106308   3.764245   2.402744   2.732597   1.452335
    23  H    5.605699   3.929439   3.360128   4.578543   2.170664
    24  H    6.769415   4.585073   4.736930   6.116601   4.043037
    25  H    4.746642   2.904369   4.221661   5.129389   4.990488
    26  H    6.812022   4.705169   5.883809   7.018113   6.242516
    27  H    7.633668   5.327487   6.059339   7.399275   5.853106
    28  C    3.690807   3.012073   4.330507   4.646136   5.504592
    29  C    4.162689   2.861235   4.191129   4.815033   5.123471
    30  H    4.326691   3.612381   4.954898   5.292927   6.127498
    31  H    4.030077   2.810705   3.926519   4.538420   4.740006
    32  C    2.766059   4.630643   3.710768   2.365714   4.347270
    33  C    3.700730   4.180736   2.791902   2.368511   2.487033
    34  H    3.373734   5.683791   5.200551   3.822911   6.146940
    35  H    3.850815   5.657331   4.635917   3.360708   5.069773
    36  H    4.623910   5.264897   3.876727   3.363957   3.456012
    37  H    5.189901   4.681746   3.389001   3.817628   2.189935
                   11         12         13         14         15
    11  C    0.000000
    12  C    1.417151   0.000000
    13  C    2.520078   1.455568   0.000000
    14  C    2.453624   1.431848   2.479736   0.000000
    15  C    3.735558   2.462667   2.856466   1.385892   0.000000
    16  C    3.856627   2.536107   1.489787   2.859288   2.464287
    17  C    4.274779   2.859341   2.496833   2.417593   1.392721
    18  H    7.574986   7.014197   5.668781   8.000894   7.915817
    19  H    7.870290   7.743416   6.609658   8.970859   9.235926
    20  C    6.345914   6.738157   6.039085   8.125833   8.813921
    21  C    4.308921   5.075946   4.850144   6.469933   7.437075
    22  C    2.591065   3.847913   4.357343   5.036062   6.277488
    23  H    1.085574   2.153302   3.482667   2.637947   4.021870
    24  H    2.645174   2.166586   3.456627   1.084350   2.143925
    25  H    4.603009   3.374008   2.187530   3.774610   3.315379
    26  H    5.355280   3.940443   3.478694   3.392267   2.149583
    27  H    4.591721   3.438428   3.940822   2.139130   1.084574
    28  C    5.598317   4.655131   3.242601   5.388827   5.095755
    29  C    4.944266   3.865230   2.627646   4.383420   4.009281
    30  H    6.171625   5.152314   3.717244   5.804432   5.378086
    31  H    4.582198   3.659090   2.668156   4.210092   4.037357
    32  C    5.708717   6.370879   5.956882   7.769905   8.644765
    33  C    3.818586   4.916853   5.111038   6.208553   7.361665
    34  H    7.419172   7.807346   7.073386   9.185286   9.842522
    35  H    6.451354   7.247916   6.949566   8.629611   9.575729
    36  H    4.704052   5.896345   6.177815   7.130464   8.334336
    37  H    2.886122   4.282216   5.064909   5.265203   6.597701
                   16         17         18         19         20
    16  C    0.000000
    17  C    1.427813   0.000000
    18  H    5.607993   6.860474   0.000000
    19  H    7.051667   8.407018   2.442248   0.000000
    20  C    7.043732   8.366459   4.733633   2.936114   0.000000
    21  C    6.189245   7.333280   6.121026   5.054649   2.474551
    22  C    5.846987   6.618962   7.770945   7.239165   4.917211
    23  H    4.689285   4.847129   8.629138   8.879255   7.209431
    24  H    3.943382   3.396249   8.989605   9.831298   8.761778
    25  H    1.084157   2.122017   5.315048   6.883565   7.116108
    26  H    2.162898   1.083918   7.148232   8.923404   9.166133
    27  H    3.439396   2.145284   8.858126  10.261033   9.875049
    28  C    2.761153   3.954140   2.929568   4.795530   5.775282
    29  C    2.003444   2.965785   4.025447   5.735051   6.337493
    30  H    2.983175   4.104846   3.276693   5.271994   6.404200
    31  H    2.503042   3.307014   4.299179   5.714273   6.063576
    32  C    7.170963   8.405614   5.886577   4.298617   1.386832
    33  C    6.570459   7.524572   7.423086   6.484041   3.865853
    34  H    8.014318   9.350935   5.019741   2.826081   1.085351
    35  H    8.207863   9.410832   6.824111   5.019643   2.130417
    36  H    7.644536   8.565689   8.289607   7.121752   4.318151
    37  H    6.533649   7.135261   8.831063   8.300125   5.902474
                   21         22         23         24         25
    21  C    0.000000
    22  C    2.470644   0.000000
    23  H    5.022752   2.905903   0.000000
    24  H    6.904165   5.140397   2.364170   0.000000
    25  H    6.486021   6.395131   5.486616   4.842037   0.000000
    26  H    8.299042   7.688566   5.902953   4.279798   2.470424
    27  H    8.460540   7.167407   4.684481   2.460577   4.205313
    28  C    5.962422   6.694972   6.614019   6.443089   2.516855
    29  C    6.114179   6.407509   5.865286   5.416468   2.267354
    30  H    6.633655   7.353417   7.185207   6.884379   2.343931
    31  H    5.726876   5.940308   5.447132   5.145714   3.092073
    32  C    1.444137   3.857253   6.443751   8.262756   7.367240
    33  C    1.449059   1.380523   4.260338   6.422114   7.006102
    34  H    3.443872   5.899446   8.266883   9.826514   8.044281
    35  H    2.193188   4.308132   7.076340   9.039083   8.428833
    36  H    2.198592   2.126423   4.977477   7.241785   8.088839
    37  H    3.443149   1.085236   2.784190   5.143183   7.146951
                   26         27         28         29         30
    26  H    0.000000
    27  H    2.467898   0.000000
    28  C    4.234067   6.007690   0.000000
    29  C    3.329886   4.877041   1.335998   0.000000
    30  H    4.197364   6.242449   1.090895   2.107614   0.000000
    31  H    3.841133   4.895619   2.138403   1.085343   3.096959
    32  C    9.309049   9.685778   6.418374   6.773955   7.082619
    33  C    8.562480   8.309532   6.884702   6.811888   7.564889
    34  H   10.113224  10.900690   6.517738   7.164915   7.118489
    35  H   10.337415  10.598715   7.493858   7.830012   8.163006
    36  H    9.613480   9.247746   7.929694   7.865877   8.619053
    37  H    8.216897   7.383862   7.639671   7.245466   8.292339
                   31         32         33         34         35
    31  H    0.000000
    32  C    6.403956   0.000000
    33  C    6.343925   2.643174   0.000000
    34  H    6.897270   2.129026   4.757123   0.000000
    35  H    7.413647   1.085241   2.955322   2.421237   0.000000
    36  H    7.357912   2.958236   1.085278   5.046445   2.861997
    37  H    6.740832   4.752855   2.125567   6.841986   5.041810
                   36         37
    36  H    0.000000
    37  H    2.420874   0.000000
 Stoichiometry    C24H13(2)
 Framework group  C1[X(C24H13)]
 Deg. of freedom   105
 Full point group                 C1      NOp   1
 Largest Abelian subgroup         C1      NOp   1
 Largest concise Abelian subgroup C1      NOp   1
                         Standard orientation:                         
 ---------------------------------------------------------------------
 Center     Atomic      Atomic             Coordinates (Angstroms)
 Number     Number       Type             X           Y           Z
 ---------------------------------------------------------------------
      1          6           0        1.785422   -3.205184    0.144456
      2          6           0        0.527439   -2.554222   -0.024732
      3          6           0        0.539543   -1.190799   -0.274562
      4          6           0        2.999261   -2.520243    0.161992
      5          6           0        3.028498   -1.105615   -0.008569
      6          6           0        1.787219   -0.534410   -0.262758
      7          6           0       -0.519413   -0.114213   -0.351000
      8          6           0        0.205166    1.098290   -0.302891
      9          6           0        1.587778    0.848772   -0.274375
     10          6           0       -0.293945    2.386194   -0.091420
     11          6           0       -1.686506    2.449144    0.067297
     12          6           0       -2.480957    1.278150   -0.009751
     13          6           0       -1.919309   -0.033495   -0.297532
     14          6           0       -3.878978    1.369525    0.285842
     15          6           0       -4.701238    0.253918    0.283557
     16          6           0       -2.839656   -1.198344   -0.422245
     17          6           0       -4.217703   -0.991040   -0.111342
     18          1           0        1.789869   -4.276508    0.313956
     19          1           0        3.914547   -3.072703    0.348158
     20          6           0        4.102363   -0.149599    0.145791
     21          6           0        2.569597    1.784550   -0.036136
     22          6           0        0.717341    3.416168    0.068992
     23          1           0       -2.178427    3.386039    0.309603
     24          1           0       -4.288500    2.343097    0.531331
     25          1           0       -2.661446   -1.844764   -1.274172
     26          1           0       -4.901758   -1.822957   -0.233248
     27          1           0       -5.751824    0.364937    0.529003
     28          6           0       -0.866633   -3.088089   -0.022235
     29          6           0       -1.774372   -2.450725    0.722526
     30          1           0       -1.172248   -3.620613   -0.923939
     31          1           0       -1.528010   -1.865281    1.602600
     32          6           0        3.888026    1.220524    0.134605
     33          6           0        2.069307    3.138104    0.095672
     34          1           0        5.111332   -0.512776    0.313337
     35          1           0        4.735572    1.879056    0.295068
     36          1           0        2.766077    3.955191    0.252864
     37          1           0        0.395299    4.443108    0.208352
 ---------------------------------------------------------------------
 Rotational constants (GHZ):           0.4275281           0.2522829           0.1611313
 Standard basis: 6-311+G(d,p) (5D, 7F)
 There are   630 symmetry adapted cartesian basis functions of A   symmetry.
 There are   606 symmetry adapted basis functions of A   symmetry.
   606 basis functions,   968 primitive gaussians,   630 cartesian basis functions
    79 alpha electrons       78 beta electrons
       nuclear repulsion energy      1837.8087401112 Hartrees.
 NAtoms=   37 NActive=   37 NUniq=   37 SFac= 1.00D+00 NAtFMM=   60 NAOKFM=F Big=F
 Integral buffers will be    131072 words long.
 Raffenetti 2 integral format.
 Two-electron integral symmetry is turned on.
 One-electron integrals computed using PRISM.
 NBasis=   606 RedAO= T EigKep=  1.21D-06  NBF=   606
 NBsUse=   591 1.00D-06 EigRej=  9.35D-07 NBFU=   591
 ExpMin= 4.38D-02 ExpMax= 4.56D+03 ExpMxC= 6.82D+02 IAcc=2 IRadAn=         4 AccDes= 0.00D+00
 Harris functional with IExCor=  402 and IRadAn=       4 diagonalized for initial guess.
 HarFok:  IExCor=  402 AccDes= 0.00D+00 IRadAn=         4 IDoV= 1 UseB2=F ITyADJ=14
 ICtDFT=  3500011 ScaDFX=  1.000000  1.000000  1.000000  1.000000
 FoFCou: FMM=F IPFlag=           0 FMFlag=      100000 FMFlg1=           0
         NFxFlg=           0 DoJE=T BraDBF=F KetDBF=T FulRan=T
         wScrn=  0.000000 ICntrl=       500 IOpCl=  0 I1Cent=   200000004 NGrid=           0
         NMat0=    1 NMatS0=      1 NMatT0=    0 NMatD0=    1 NMtDS0=    0 NMtDT0=    0
 Petite list used in FoFCou.
 Initial guess <Sx>= 0.0000 <Sy>= 0.0000 <Sz>= 0.5000 <S**2>= 0.7500 S= 0.5000
 Requested convergence on RMS density matrix=1.00D-08 within 128 cycles.
 Requested convergence on MAX density matrix=1.00D-06.
 Requested convergence on             energy=1.00D-06.
 No special actions if energy rises.
 Restarting incremental Fock formation.
 SCF Done:  E(UB3LYP) =  -922.466605563     A.U. after   24 cycles
            NFock= 24  Conv=0.96D-08     -V/T= 2.0045
 <Sx>= 0.0000 <Sy>= 0.0000 <Sz>= 0.5000 <S**2>= 0.8358 S= 0.5420
 <L.S>=  0.00000000000    
 Annihilation of the first spin contaminant:
 S**2 before annihilation     0.8358,   after     0.7541

 **********************************************************************

            Population analysis using the SCF density.

 **********************************************************************

 Orbital symmetries:
 Alpha Orbitals:
       Occupied  (A) (A) (A) (A) (A) (A) (A) (A) (A) (A) (A) (A)
                 (A) (A) (A) (A) (A) (A) (A) (A) (A) (A) (A) (A)
                 (A) (A) (A) (A) (A) (A) (A) (A) (A) (A) (A) (A)
                 (A) (A) (A) (A) (A) (A) (A) (A) (A) (A) (A) (A)
                 (A) (A) (A) (A) (A) (A) (A) (A) (A) (A) (A) (A)
                 (A) (A) (A) (A) (A) (A) (A) (A) (A) (A) (A) (A)
                 (A) (A) (A) (A) (A) (A) (A)
       Virtual   (A) (A) (A) (A) (A) (A) (A) (A) (A) (A) (A) (A)
                 (A) (A) (A) (A) (A) (A) (A) (A) (A) (A) (A) (A)
                 (A) (A) (A) (A) (A) (A) (A) (A) (A) (A) (A) (A)
                 (A) (A) (A) (A) (A) (A) (A) (A) (A) (A) (A) (A)
                 (A) (A) (A) (A) (A) (A) (A) (A) (A) (A) (A) (A)
                 (A) (A) (A) (A) (A) (A) (A) (A) (A) (A) (A) (A)
                 (A) (A) (A) (A) (A) (A) (A) (A) (A) (A) (A) (A)
                 (A) (A) (A) (A) (A) (A) (A) (A) (A) (A) (A) (A)
                 (A) (A) (A) (A) (A) (A) (A) (A) (A) (A) (A) (A)
                 (A) (A) (A) (A) (A) (A) (A) (A) (A) (A) (A) (A)
                 (A) (A) (A) (A) (A) (A) (A) (A) (A) (A) (A) (A)
                 (A) (A) (A) (A) (A) (A) (A) (A) (A) (A) (A) (A)
                 (A) (A) (A) (A) (A) (A) (A) (A) (A) (A) (A) (A)
                 (A) (A) (A) (A) (A) (A) (A) (A) (A) (A) (A) (A)
                 (A) (A) (A) (A) (A) (A) (A) (A) (A) (A) (A) (A)
                 (A) (A) (A) (A) (A) (A) (A) (A) (A) (A) (A) (A)
                 (A) (A) (A) (A) (A) (A) (A) (A) (A) (A) (A) (A)
                 (A) (A) (A) (A) (A) (A) (A) (A) (A) (A) (A) (A)
                 (A) (A) (A) (A) (A) (A) (A) (A) (A) (A) (A) (A)
                 (A) (A) (A) (A) (A) (A) (A) (A) (A) (A) (A) (A)
                 (A) (A) (A) (A) (A) (A) (A) (A) (A) (A) (A) (A)
                 (A) (A) (A) (A) (A) (A) (A) (A) (A) (A) (A) (A)
                 (A) (A) (A) (A) (A) (A) (A) (A) (A) (A) (A) (A)
                 (A) (A) (A) (A) (A) (A) (A) (A) (A) (A) (A) (A)
                 (A) (A) (A) (A) (A) (A) (A) (A) (A) (A) (A) (A)
                 (A) (A) (A) (A) (A) (A) (A) (A) (A) (A) (A) (A)
                 (A) (A) (A) (A) (A) (A) (A) (A) (A) (A) (A) (A)
                 (A) (A) (A) (A) (A) (A) (A) (A) (A) (A) (A) (A)
                 (A) (A) (A) (A) (A) (A) (A) (A) (A) (A) (A) (A)
                 (A) (A) (A) (A) (A) (A) (A) (A) (A) (A) (A) (A)
                 (A) (A) (A) (A) (A) (A) (A) (A) (A) (A) (A) (A)
                 (A) (A) (A) (A) (A) (A) (A) (A) (A) (A) (A) (A)
                 (A) (A) (A) (A) (A) (A) (A) (A) (A) (A) (A) (A)
                 (A) (A) (A) (A) (A) (A) (A) (A) (A) (A) (A) (A)
                 (A) (A) (A) (A) (A) (A) (A) (A) (A) (A) (A) (A)
                 (A) (A) (A) (A) (A) (A) (A) (A) (A) (A) (A) (A)
                 (A) (A) (A) (A) (A) (A) (A) (A) (A) (A) (A) (A)
                 (A) (A) (A) (A) (A) (A) (A) (A) (A) (A) (A) (A)
                 (A) (A) (A) (A) (A) (A) (A) (A) (A) (A) (A) (A)
                 (A) (A) (A) (A) (A) (A) (A) (A) (A) (A) (A) (A)
                 (A) (A) (A) (A) (A) (A) (A) (A) (A) (A) (A) (A)
                 (A) (A) (A) (A) (A) (A) (A) (A) (A) (A) (A) (A)
                 (A) (A) (A) (A) (A) (A) (A) (A)
 Beta  Orbitals:
       Occupied  (A) (A) (A) (A) (A) (A) (A) (A) (A) (A) (A) (A)
                 (A) (A) (A) (A) (A) (A) (A) (A) (A) (A) (A) (A)
                 (A) (A) (A) (A) (A) (A) (A) (A) (A) (A) (A) (A)
                 (A) (A) (A) (A) (A) (A) (A) (A) (A) (A) (A) (A)
                 (A) (A) (A) (A) (A) (A) (A) (A) (A) (A) (A) (A)
                 (A) (A) (A) (A) (A) (A) (A) (A) (A) (A) (A) (A)
                 (A) (A) (A) (A) (A) (A)
       Virtual   (A) (A) (A) (A) (A) (A) (A) (A) (A) (A) (A) (A)
                 (A) (A) (A) (A) (A) (A) (A) (A) (A) (A) (A) (A)
                 (A) (A) (A) (A) (A) (A) (A) (A) (A) (A) (A) (A)
                 (A) (A) (A) (A) (A) (A) (A) (A) (A) (A) (A) (A)
                 (A) (A) (A) (A) (A) (A) (A) (A) (A) (A) (A) (A)
                 (A) (A) (A) (A) (A) (A) (A) (A) (A) (A) (A) (A)
                 (A) (A) (A) (A) (A) (A) (A) (A) (A) (A) (A) (A)
                 (A) (A) (A) (A) (A) (A) (A) (A) (A) (A) (A) (A)
                 (A) (A) (A) (A) (A) (A) (A) (A) (A) (A) (A) (A)
                 (A) (A) (A) (A) (A) (A) (A) (A) (A) (A) (A) (A)
                 (A) (A) (A) (A) (A) (A) (A) (A) (A) (A) (A) (A)
                 (A) (A) (A) (A) (A) (A) (A) (A) (A) (A) (A) (A)
                 (A) (A) (A) (A) (A) (A) (A) (A) (A) (A) (A) (A)
                 (A) (A) (A) (A) (A) (A) (A) (A) (A) (A) (A) (A)
                 (A) (A) (A) (A) (A) (A) (A) (A) (A) (A) (A) (A)
                 (A) (A) (A) (A) (A) (A) (A) (A) (A) (A) (A) (A)
                 (A) (A) (A) (A) (A) (A) (A) (A) (A) (A) (A) (A)
                 (A) (A) (A) (A) (A) (A) (A) (A) (A) (A) (A) (A)
                 (A) (A) (A) (A) (A) (A) (A) (A) (A) (A) (A) (A)
                 (A) (A) (A) (A) (A) (A) (A) (A) (A) (A) (A) (A)
                 (A) (A) (A) (A) (A) (A) (A) (A) (A) (A) (A) (A)
                 (A) (A) (A) (A) (A) (A) (A) (A) (A) (A) (A) (A)
                 (A) (A) (A) (A) (A) (A) (A) (A) (A) (A) (A) (A)
                 (A) (A) (A) (A) (A) (A) (A) (A) (A) (A) (A) (A)
                 (A) (A) (A) (A) (A) (A) (A) (A) (A) (A) (A) (A)
                 (A) (A) (A) (A) (A) (A) (A) (A) (A) (A) (A) (A)
                 (A) (A) (A) (A) (A) (A) (A) (A) (A) (A) (A) (A)
                 (A) (A) (A) (A) (A) (A) (A) (A) (A) (A) (A) (A)
                 (A) (A) (A) (A) (A) (A) (A) (A) (A) (A) (A) (A)
                 (A) (A) (A) (A) (A) (A) (A) (A) (A) (A) (A) (A)
                 (A) (A) (A) (A) (A) (A) (A) (A) (A) (A) (A) (A)
                 (A) (A) (A) (A) (A) (A) (A) (A) (A) (A) (A) (A)
                 (A) (A) (A) (A) (A) (A) (A) (A) (A) (A) (A) (A)
                 (A) (A) (A) (A) (A) (A) (A) (A) (A) (A) (A) (A)
                 (A) (A) (A) (A) (A) (A) (A) (A) (A) (A) (A) (A)
                 (A) (A) (A) (A) (A) (A) (A) (A) (A) (A) (A) (A)
                 (A) (A) (A) (A) (A) (A) (A) (A) (A) (A) (A) (A)
                 (A) (A) (A) (A) (A) (A) (A) (A) (A) (A) (A) (A)
                 (A) (A) (A) (A) (A) (A) (A) (A) (A) (A) (A) (A)
                 (A) (A) (A) (A) (A) (A) (A) (A) (A) (A) (A) (A)
                 (A) (A) (A) (A) (A) (A) (A) (A) (A) (A) (A) (A)
                 (A) (A) (A) (A) (A) (A) (A) (A) (A) (A) (A) (A)
                 (A) (A) (A) (A) (A) (A) (A) (A) (A)
 The electronic state is 2-A.
 Alpha  occ. eigenvalues --  -10.20905 -10.20836 -10.20264 -10.20111 -10.19834
 Alpha  occ. eigenvalues --  -10.19828 -10.19571 -10.19474 -10.19439 -10.19374
 Alpha  occ. eigenvalues --  -10.19352 -10.19270 -10.19208 -10.19167 -10.19100
 Alpha  occ. eigenvalues --  -10.19034 -10.18939 -10.18887 -10.18719 -10.18324
 Alpha  occ. eigenvalues --  -10.17708 -10.17562 -10.17289 -10.17083  -0.92332
 Alpha  occ. eigenvalues --   -0.88070  -0.86463  -0.84164  -0.81710  -0.81184
 Alpha  occ. eigenvalues --   -0.78914  -0.77073  -0.75311  -0.73039  -0.72400
 Alpha  occ. eigenvalues --   -0.71390  -0.66343  -0.64840  -0.63572  -0.62448
 Alpha  occ. eigenvalues --   -0.59896  -0.59182  -0.57449  -0.56058  -0.53247
 Alpha  occ. eigenvalues --   -0.52413  -0.51482  -0.49687  -0.49205  -0.48920
 Alpha  occ. eigenvalues --   -0.46547  -0.45017  -0.44723  -0.44033  -0.43709
 Alpha  occ. eigenvalues --   -0.43332  -0.42762  -0.42702  -0.42228  -0.41070
 Alpha  occ. eigenvalues --   -0.40652  -0.39790  -0.38635  -0.37881  -0.36823
 Alpha  occ. eigenvalues --   -0.36175  -0.35529  -0.34422  -0.34145  -0.33585
 Alpha  occ. eigenvalues --   -0.32447  -0.30600  -0.30203  -0.27508  -0.24950
 Alpha  occ. eigenvalues --   -0.23839  -0.23379  -0.22704  -0.18173
 Alpha virt. eigenvalues --   -0.09887  -0.05359  -0.05092  -0.02459  -0.00773
 Alpha virt. eigenvalues --    0.00188   0.00675   0.01043   0.01267   0.01975
 Alpha virt. eigenvalues --    0.02015   0.02731   0.03215   0.03442   0.03737
 Alpha virt. eigenvalues --    0.03908   0.04346   0.04567   0.05064   0.05659
 Alpha virt. eigenvalues --    0.06100   0.06317   0.06919   0.07490   0.07729
 Alpha virt. eigenvalues --    0.08031   0.08237   0.08583   0.08750   0.09232
 Alpha virt. eigenvalues --    0.10138   0.10352   0.10571   0.10956   0.11420
 Alpha virt. eigenvalues --    0.11748   0.11968   0.12207   0.13088   0.13298
 Alpha virt. eigenvalues --    0.13698   0.14109   0.14341   0.15040   0.15170
 Alpha virt. eigenvalues --    0.15421   0.15834   0.16183   0.16451   0.16773
 Alpha virt. eigenvalues --    0.16948   0.17094   0.17323   0.17492   0.17674
 Alpha virt. eigenvalues --    0.18141   0.18186   0.18372   0.18524   0.19115
 Alpha virt. eigenvalues --    0.19458   0.19898   0.20046   0.20404   0.20475
 Alpha virt. eigenvalues --    0.20704   0.20922   0.20992   0.21385   0.21611
 Alpha virt. eigenvalues --    0.21813   0.22050   0.22216   0.22710   0.22793
 Alpha virt. eigenvalues --    0.23375   0.23467   0.23800   0.24061   0.24352
 Alpha virt. eigenvalues --    0.24556   0.24758   0.25133   0.25533   0.25796
 Alpha virt. eigenvalues --    0.26097   0.26261   0.26492   0.26925   0.27360
 Alpha virt. eigenvalues --    0.27455   0.27912   0.28082   0.28667   0.28807
 Alpha virt. eigenvalues --    0.28970   0.29433   0.29647   0.30278   0.30794
 Alpha virt. eigenvalues --    0.30906   0.31191   0.31732   0.31881   0.32076
 Alpha virt. eigenvalues --    0.32826   0.33260   0.33320   0.33698   0.34046
 Alpha virt. eigenvalues --    0.34856   0.35133   0.35948   0.36075   0.37659
 Alpha virt. eigenvalues --    0.37772   0.38128   0.38676   0.39365   0.40312
 Alpha virt. eigenvalues --    0.40980   0.42162   0.42812   0.43370   0.43986
 Alpha virt. eigenvalues --    0.45467   0.45599   0.47411   0.47781   0.48412
 Alpha virt. eigenvalues --    0.49055   0.50091   0.50659   0.50807   0.51279
 Alpha virt. eigenvalues --    0.52540   0.53075   0.53168   0.53767   0.54239
 Alpha virt. eigenvalues --    0.54597   0.55148   0.55481   0.55849   0.56318
 Alpha virt. eigenvalues --    0.56808   0.57077   0.57634   0.58410   0.58761
 Alpha virt. eigenvalues --    0.59189   0.59544   0.59968   0.60566   0.61517
 Alpha virt. eigenvalues --    0.61698   0.62276   0.62827   0.63102   0.64284
 Alpha virt. eigenvalues --    0.64984   0.65469   0.65720   0.65846   0.66675
 Alpha virt. eigenvalues --    0.67091   0.68149   0.68512   0.68735   0.69348
 Alpha virt. eigenvalues --    0.69575   0.69940   0.70186   0.70276   0.70998
 Alpha virt. eigenvalues --    0.71255   0.72078   0.72331   0.72784   0.73347
 Alpha virt. eigenvalues --    0.73490   0.73551   0.73928   0.74353   0.74909
 Alpha virt. eigenvalues --    0.75432   0.75690   0.76117   0.76977   0.77340
 Alpha virt. eigenvalues --    0.78095   0.78786   0.79895   0.80892   0.81148
 Alpha virt. eigenvalues --    0.82456   0.82921   0.83085   0.83854   0.84378
 Alpha virt. eigenvalues --    0.84937   0.86966   0.86981   0.87500   0.88240
 Alpha virt. eigenvalues --    0.88874   0.90021   0.90579   0.90844   0.91450
 Alpha virt. eigenvalues --    0.91804   0.92019   0.92760   0.93425   0.93451
 Alpha virt. eigenvalues --    0.94119   0.94441   0.94826   0.95109   0.95487
 Alpha virt. eigenvalues --    0.96097   0.96323   0.96964   0.97965   0.98442
 Alpha virt. eigenvalues --    0.99963   1.00689   1.01424   1.02165   1.02516
 Alpha virt. eigenvalues --    1.03266   1.05227   1.05607   1.06069   1.06490
 Alpha virt. eigenvalues --    1.06989   1.07463   1.08407   1.10060   1.10422
 Alpha virt. eigenvalues --    1.11904   1.12825   1.13655   1.14182   1.15684
 Alpha virt. eigenvalues --    1.16475   1.19030   1.21458   1.22139   1.22925
 Alpha virt. eigenvalues --    1.24083   1.25595   1.26191   1.26870   1.29178
 Alpha virt. eigenvalues --    1.30179   1.33019   1.34250   1.35887   1.37972
 Alpha virt. eigenvalues --    1.38620   1.39079   1.40770   1.42564   1.43491
 Alpha virt. eigenvalues --    1.44554   1.45245   1.46214   1.47150   1.48543
 Alpha virt. eigenvalues --    1.49568   1.50035   1.50140   1.50896   1.51239
 Alpha virt. eigenvalues --    1.51665   1.52918   1.53444   1.54807   1.55059
 Alpha virt. eigenvalues --    1.55788   1.56647   1.56888   1.58983   1.59420
 Alpha virt. eigenvalues --    1.59703   1.61598   1.62267   1.63395   1.64040
 Alpha virt. eigenvalues --    1.65586   1.66285   1.66778   1.67663   1.68402
 Alpha virt. eigenvalues --    1.68673   1.71060   1.71578   1.72520   1.73598
 Alpha virt. eigenvalues --    1.73994   1.74417   1.74956   1.75205   1.76703
 Alpha virt. eigenvalues --    1.76962   1.77242   1.79082   1.80748   1.80809
 Alpha virt. eigenvalues --    1.82024   1.82790   1.83351   1.83892   1.84878
 Alpha virt. eigenvalues --    1.85965   1.86599   1.86902   1.87320   1.88006
 Alpha virt. eigenvalues --    1.88827   1.89620   1.90120   1.90438   1.91520
 Alpha virt. eigenvalues --    1.93116   1.93500   1.94654   1.95078   1.96197
 Alpha virt. eigenvalues --    1.96793   1.97236   1.98382   1.98762   1.99472
 Alpha virt. eigenvalues --    2.01168   2.01519   2.02515   2.02573   2.03696
 Alpha virt. eigenvalues --    2.03929   2.05341   2.07309   2.07805   2.09400
 Alpha virt. eigenvalues --    2.09565   2.12475   2.12972   2.13782   2.14858
 Alpha virt. eigenvalues --    2.15543   2.17647   2.18311   2.19251   2.20755
 Alpha virt. eigenvalues --    2.21275   2.22314   2.23300   2.23552   2.24343
 Alpha virt. eigenvalues --    2.25668   2.27150   2.29121   2.29861   2.33296
 Alpha virt. eigenvalues --    2.35577   2.36091   2.38623   2.40018   2.40171
 Alpha virt. eigenvalues --    2.41238   2.41591   2.42307   2.44519   2.46346
 Alpha virt. eigenvalues --    2.46810   2.50180   2.52848   2.53238   2.56176
 Alpha virt. eigenvalues --    2.56576   2.56967   2.58990   2.60986   2.61203
 Alpha virt. eigenvalues --    2.63230   2.65020   2.66288   2.67028   2.68753
 Alpha virt. eigenvalues --    2.70243   2.70692   2.71346   2.71579   2.72170
 Alpha virt. eigenvalues --    2.72584   2.73303   2.73440   2.74809   2.74916
 Alpha virt. eigenvalues --    2.75226   2.75763   2.76397   2.76514   2.76908
 Alpha virt. eigenvalues --    2.77399   2.78161   2.78587   2.80836   2.81241
 Alpha virt. eigenvalues --    2.82643   2.83279   2.84589   2.85485   2.86352
 Alpha virt. eigenvalues --    2.87081   2.87381   2.88889   2.89222   2.90913
 Alpha virt. eigenvalues --    2.92123   2.92518   2.93026   2.95594   2.98070
 Alpha virt. eigenvalues --    3.00303   3.02551   3.03766   3.04381   3.06337
 Alpha virt. eigenvalues --    3.09124   3.09758   3.11677   3.12321   3.13750
 Alpha virt. eigenvalues --    3.16737   3.18323   3.19282   3.20341   3.21630
 Alpha virt. eigenvalues --    3.22892   3.24929   3.26334   3.31088   3.33929
 Alpha virt. eigenvalues --    3.34575   3.36082   3.36124   3.40592   3.41599
 Alpha virt. eigenvalues --    3.42259   3.43070   3.43834   3.44782   3.45498
 Alpha virt. eigenvalues --    3.47491   3.48499   3.50154   3.53837   3.56118
 Alpha virt. eigenvalues --    3.56369   3.60891   3.62882   3.65114   3.68105
 Alpha virt. eigenvalues --    3.80860   3.81587   3.84059   3.85606   3.97204
 Alpha virt. eigenvalues --    4.00353   4.02954   4.05601   4.06003   4.06296
 Alpha virt. eigenvalues --    4.08010   4.13147   4.20307   4.25218   4.29672
 Alpha virt. eigenvalues --    4.34988   4.48761   4.72699   4.74378   4.75553
 Alpha virt. eigenvalues --    4.77211   4.83546   4.88054  23.39982  23.64433
 Alpha virt. eigenvalues --   23.72099  23.76730  23.80362  23.82950  23.88337
 Alpha virt. eigenvalues --   23.91028  23.92058  23.95333  23.97542  23.99289
 Alpha virt. eigenvalues --   24.01764  24.02473  24.05429  24.06553  24.09150
 Alpha virt. eigenvalues --   24.10623  24.11666  24.12604  24.14255  24.15422
 Alpha virt. eigenvalues --   24.19474  24.25070
  Beta  occ. eigenvalues --  -10.21159 -10.20687 -10.20234 -10.20189 -10.19920
  Beta  occ. eigenvalues --  -10.19784 -10.19630 -10.19448 -10.19363 -10.19323
  Beta  occ. eigenvalues --  -10.19305 -10.19268 -10.19216 -10.19163 -10.19109
  Beta  occ. eigenvalues --  -10.18718 -10.18569 -10.18502 -10.18397 -10.17880
  Beta  occ. eigenvalues --  -10.17731 -10.17620 -10.17318 -10.17081  -0.92297
  Beta  occ. eigenvalues --   -0.87883  -0.86367  -0.83967  -0.81670  -0.80960
  Beta  occ. eigenvalues --   -0.78643  -0.76788  -0.75073  -0.72945  -0.72233
  Beta  occ. eigenvalues --   -0.71030  -0.66135  -0.64655  -0.63324  -0.62342
  Beta  occ. eigenvalues --   -0.59780  -0.59040  -0.56957  -0.55720  -0.53197
  Beta  occ. eigenvalues --   -0.52260  -0.51448  -0.49506  -0.48991  -0.48859
  Beta  occ. eigenvalues --   -0.46421  -0.44917  -0.44597  -0.43942  -0.43595
  Beta  occ. eigenvalues --   -0.43218  -0.42559  -0.42332  -0.42005  -0.41005
  Beta  occ. eigenvalues --   -0.40544  -0.39460  -0.38317  -0.37751  -0.36596
  Beta  occ. eigenvalues --   -0.35964  -0.35415  -0.34271  -0.33800  -0.33530
  Beta  occ. eigenvalues --   -0.32112  -0.30105  -0.29595  -0.27224  -0.23972
  Beta  occ. eigenvalues --   -0.23315  -0.22340  -0.22304
  Beta virt. eigenvalues --   -0.10479  -0.08993  -0.05010  -0.04444  -0.01831
  Beta virt. eigenvalues --   -0.00559   0.00223   0.00700   0.01068   0.01339
  Beta virt. eigenvalues --    0.01975   0.02108   0.02768   0.03278   0.03662
  Beta virt. eigenvalues --    0.03794   0.04030   0.04583   0.04744   0.05174
  Beta virt. eigenvalues --    0.05698   0.06205   0.06451   0.06965   0.07533
  Beta virt. eigenvalues --    0.07877   0.08156   0.08312   0.08686   0.08829
  Beta virt. eigenvalues --    0.09325   0.10261   0.10342   0.10649   0.11063
  Beta virt. eigenvalues --    0.11464   0.11975   0.12053   0.12285   0.13192
  Beta virt. eigenvalues --    0.13371   0.13753   0.14173   0.14410   0.15059
  Beta virt. eigenvalues --    0.15225   0.15504   0.15911   0.16208   0.16501
  Beta virt. eigenvalues --    0.16864   0.17017   0.17278   0.17354   0.17533
  Beta virt. eigenvalues --    0.17763   0.18185   0.18218   0.18402   0.18604
  Beta virt. eigenvalues --    0.19180   0.19510   0.19928   0.20154   0.20457
  Beta virt. eigenvalues --    0.20521   0.20785   0.20982   0.21018   0.21459
  Beta virt. eigenvalues --    0.21674   0.21915   0.22138   0.22350   0.22764
  Beta virt. eigenvalues --    0.22861   0.23437   0.23506   0.23866   0.24088
  Beta virt. eigenvalues --    0.24511   0.24571   0.24826   0.25203   0.25526
  Beta virt. eigenvalues --    0.25809   0.26158   0.26331   0.26614   0.26962
  Beta virt. eigenvalues --    0.27460   0.27553   0.27952   0.28107   0.28726
  Beta virt. eigenvalues --    0.28847   0.28999   0.29521   0.29729   0.30356
  Beta virt. eigenvalues --    0.30807   0.30988   0.31291   0.31776   0.31942
  Beta virt. eigenvalues --    0.32165   0.32910   0.33317   0.33420   0.33786
  Beta virt. eigenvalues --    0.34121   0.34936   0.35244   0.35966   0.36158
  Beta virt. eigenvalues --    0.37709   0.37853   0.38219   0.38708   0.39415
  Beta virt. eigenvalues --    0.40351   0.41043   0.42240   0.42856   0.43611
  Beta virt. eigenvalues --    0.44345   0.45573   0.45769   0.47544   0.47825
  Beta virt. eigenvalues --    0.48462   0.49257   0.50149   0.50732   0.50963
  Beta virt. eigenvalues --    0.51359   0.52774   0.53181   0.53369   0.54058
  Beta virt. eigenvalues --    0.54474   0.54683   0.55229   0.55687   0.55981
  Beta virt. eigenvalues --    0.56447   0.57001   0.57145   0.57901   0.58437
  Beta virt. eigenvalues --    0.58792   0.59303   0.59626   0.60209   0.60644
  Beta virt. eigenvalues --    0.61728   0.62207   0.62362   0.63030   0.63232
  Beta virt. eigenvalues --    0.64426   0.65245   0.65621   0.65793   0.66039
  Beta virt. eigenvalues --    0.66797   0.67186   0.68279   0.68521   0.68819
  Beta virt. eigenvalues --    0.69434   0.69675   0.70093   0.70346   0.70413
  Beta virt. eigenvalues --    0.71090   0.71333   0.72288   0.72335   0.72919
  Beta virt. eigenvalues --    0.73385   0.73669   0.73851   0.73907   0.74509
  Beta virt. eigenvalues --    0.75011   0.75542   0.75775   0.76204   0.77082
  Beta virt. eigenvalues --    0.77514   0.78352   0.79388   0.80155   0.81275
  Beta virt. eigenvalues --    0.81354   0.82605   0.83142   0.83224   0.84055
  Beta virt. eigenvalues --    0.84448   0.85032   0.87061   0.87096   0.87740
  Beta virt. eigenvalues --    0.88316   0.89130   0.90183   0.90690   0.90963
  Beta virt. eigenvalues --    0.91692   0.91965   0.92354   0.92825   0.93476
  Beta virt. eigenvalues --    0.93514   0.94202   0.94505   0.94880   0.95240
  Beta virt. eigenvalues --    0.95653   0.96145   0.96420   0.97062   0.98138
  Beta virt. eigenvalues --    0.98580   1.00106   1.00775   1.01533   1.02280
  Beta virt. eigenvalues --    1.02715   1.03366   1.05372   1.05713   1.06278
  Beta virt. eigenvalues --    1.06665   1.07039   1.07522   1.08707   1.10217
  Beta virt. eigenvalues --    1.10710   1.12098   1.12926   1.13837   1.14317
  Beta virt. eigenvalues --    1.15893   1.16567   1.19087   1.21858   1.22279
  Beta virt. eigenvalues --    1.23028   1.24236   1.25697   1.26276   1.27105
  Beta virt. eigenvalues --    1.29404   1.30420   1.33131   1.34478   1.36065
  Beta virt. eigenvalues --    1.38235   1.38761   1.39117   1.40996   1.42699
  Beta virt. eigenvalues --    1.43872   1.44870   1.45268   1.46373   1.47262
  Beta virt. eigenvalues --    1.48708   1.49858   1.50124   1.50398   1.51122
  Beta virt. eigenvalues --    1.51349   1.51899   1.53042   1.53652   1.55009
  Beta virt. eigenvalues --    1.55202   1.55914   1.56739   1.57112   1.59098
  Beta virt. eigenvalues --    1.59506   1.60004   1.61789   1.62475   1.63860
  Beta virt. eigenvalues --    1.64283   1.65665   1.66490   1.66841   1.67699
  Beta virt. eigenvalues --    1.68654   1.68728   1.71201   1.71799   1.72571
  Beta virt. eigenvalues --    1.73811   1.74085   1.74585   1.75149   1.75285
  Beta virt. eigenvalues --    1.76819   1.77193   1.77402   1.79446   1.80828
  Beta virt. eigenvalues --    1.80978   1.82364   1.82935   1.83588   1.83987
  Beta virt. eigenvalues --    1.85069   1.86109   1.86761   1.86979   1.87456
  Beta virt. eigenvalues --    1.88208   1.89111   1.89777   1.90179   1.90602
  Beta virt. eigenvalues --    1.91670   1.93369   1.93565   1.94994   1.95248
  Beta virt. eigenvalues --    1.96480   1.96868   1.97336   1.98470   1.98984
  Beta virt. eigenvalues --    1.99615   2.01263   2.01691   2.02740   2.02973
  Beta virt. eigenvalues --    2.03896   2.04072   2.05541   2.07495   2.07997
  Beta virt. eigenvalues --    2.09537   2.09853   2.12610   2.13102   2.13847
  Beta virt. eigenvalues --    2.15052   2.15776   2.17727   2.18553   2.19487
  Beta virt. eigenvalues --    2.20960   2.21530   2.22466   2.23573   2.23881
  Beta virt. eigenvalues --    2.24768   2.26121   2.27290   2.29224   2.30230
  Beta virt. eigenvalues --    2.33550   2.35880   2.36138   2.38729   2.40107
  Beta virt. eigenvalues --    2.40332   2.41290   2.41729   2.42373   2.44623
  Beta virt. eigenvalues --    2.46405   2.46962   2.50322   2.53045   2.53337
  Beta virt. eigenvalues --    2.56291   2.56608   2.57171   2.59090   2.61180
  Beta virt. eigenvalues --    2.61510   2.63318   2.65221   2.66369   2.67505
  Beta virt. eigenvalues --    2.68985   2.70408   2.70808   2.71442   2.71619
  Beta virt. eigenvalues --    2.72241   2.72719   2.73359   2.73567   2.74933
  Beta virt. eigenvalues --    2.74981   2.75375   2.75776   2.76447   2.76694
  Beta virt. eigenvalues --    2.76996   2.77471   2.78338   2.78624   2.80888
  Beta virt. eigenvalues --    2.81401   2.82724   2.84276   2.84775   2.85681
  Beta virt. eigenvalues --    2.86457   2.87242   2.87716   2.89113   2.89705
  Beta virt. eigenvalues --    2.90986   2.92153   2.92715   2.93163   2.96138
  Beta virt. eigenvalues --    2.98605   3.00784   3.02694   3.03952   3.04857
  Beta virt. eigenvalues --    3.06288   3.09479   3.09878   3.11729   3.12866
  Beta virt. eigenvalues --    3.13808   3.16802   3.18365   3.19385   3.20396
  Beta virt. eigenvalues --    3.21900   3.22960   3.25072   3.26384   3.31104
  Beta virt. eigenvalues --    3.34032   3.34913   3.36114   3.36362   3.40775
  Beta virt. eigenvalues --    3.41635   3.42283   3.43207   3.43995   3.45013
  Beta virt. eigenvalues --    3.45535   3.47584   3.48544   3.50208   3.54047
  Beta virt. eigenvalues --    3.56220   3.56706   3.60961   3.63068   3.65136
  Beta virt. eigenvalues --    3.68242   3.80853   3.81626   3.84039   3.85649
  Beta virt. eigenvalues --    3.97479   4.00703   4.03112   4.05634   4.06132
  Beta virt. eigenvalues --    4.06326   4.08063   4.13491   4.20435   4.25334
  Beta virt. eigenvalues --    4.29749   4.35044   4.48862   4.72778   4.74613
  Beta virt. eigenvalues --    4.75638   4.77272   4.83598   4.88082  23.40017
  Beta virt. eigenvalues --   23.64519  23.72386  23.77002  23.80412  23.82971
  Beta virt. eigenvalues --   23.88380  23.91033  23.92065  23.95258  23.97478
  Beta virt. eigenvalues --   23.99296  24.02035  24.02747  24.05518  24.06601
  Beta virt. eigenvalues --   24.09158  24.10636  24.11692  24.12610  24.14286
  Beta virt. eigenvalues --   24.15543  24.19472  24.25468
          Condensed to atoms (all electrons):
               1          2          3          4          5          6
     1  C   10.570688  -2.322746   0.119685   0.873178  -0.696787   2.042693
     2  C   -2.322746  10.214669   1.346033  -1.853320   0.980784  -0.284974
     3  C    0.119685   1.346033   8.787413   0.480333  -0.143601   0.951968
     4  C    0.873178  -1.853320   0.480333   9.916106  -3.585151  -1.724014
     5  C   -0.696787   0.980784  -0.143601  -3.585151  13.797217   3.108293
     6  C    2.042693  -0.284974   0.951968  -1.724014   3.108293   9.470027
     7  C   -1.726719   0.382483  -0.494331   0.281946  -0.558406  -1.823309
     8  C   -0.650869  -0.387201  -0.534298   0.550603  -0.309206  -1.270294
     9  C   -0.456140   0.102079  -0.049342  -0.266910  -0.676080  -0.324274
    10  C   -0.474553  -0.100088  -1.798510   0.100105  -0.582150  -0.634979
    11  C   -0.029177   0.139088   0.375036  -0.002317  -0.088253  -0.113880
    12  C   -0.296009  -0.320919  -2.006753   0.060104   0.177631  -0.553298
    13  C   -0.174453  -0.161566   0.420661   0.214351  -0.131109  -0.431178
    14  C    0.051349   0.096878   0.247664  -0.021303   0.048024   0.024488
    15  C   -0.017766  -0.042355   0.002187   0.004346   0.002504  -0.077316
    16  C    0.109971   0.693793   0.479961  -0.125416   0.140323   0.220649
    17  C   -0.021043   0.074207  -0.066753   0.002229  -0.025632   0.039053
    18  H    0.350435  -0.020918   0.042322  -0.008323  -0.027388  -0.018480
    19  H   -0.016437  -0.014636  -0.006241   0.408907  -0.096263   0.017017
    20  C   -0.911185   0.067504  -1.321433   1.133326  -5.386241  -3.155446
    21  C    0.016770  -0.259817  -0.123058   0.512601  -0.926717  -0.258337
    22  C    0.096392  -0.209934  -0.121211  -0.068225   0.197433  -0.016006
    23  H   -0.000047  -0.000507  -0.004793   0.000017   0.000032   0.003002
    24  H   -0.000048  -0.000610  -0.000941  -0.000002   0.000027  -0.000065
    25  H    0.008394   0.040729  -0.000750   0.002635  -0.001725   0.010035
    26  H   -0.000034   0.000240   0.001665   0.000006  -0.000008  -0.000255
    27  H    0.000029  -0.000005   0.000374  -0.000003  -0.000012   0.000058
    28  C   -0.449775  -2.363823  -1.330585   0.301298  -0.093541  -0.708039
    29  C    0.249606  -0.146758   0.171344  -0.080349  -0.058350   0.113214
    30  H   -0.001158  -0.039830   0.011398   0.005148   0.002344  -0.005613
    31  H    0.011497   0.005514   0.013022   0.003370   0.003650  -0.000599
    32  C    0.325575   0.326822   0.236894  -0.860632   0.434749   2.053399
    33  C   -0.077069   0.001480   0.373325   0.052015   0.265559  -0.529071
    34  H    0.006937   0.012014  -0.011009  -0.003840  -0.059480   0.034253
    35  H   -0.001447   0.001035  -0.004316   0.008735  -0.058757  -0.016811
    36  H    0.000236   0.000108   0.003748  -0.000676   0.007981  -0.004817
    37  H   -0.000091   0.000269   0.004330  -0.000050  -0.000455  -0.003242
               7          8          9         10         11         12
     1  C   -1.726719  -0.650869  -0.456140  -0.474553  -0.029177  -0.296009
     2  C    0.382483  -0.387201   0.102079  -0.100088   0.139088  -0.320919
     3  C   -0.494331  -0.534298  -0.049342  -1.798510   0.375036  -2.006753
     4  C    0.281946   0.550603  -0.266910   0.100105  -0.002317   0.060104
     5  C   -0.558406  -0.309206  -0.676080  -0.582150  -0.088253   0.177631
     6  C   -1.823309  -1.270294  -0.324274  -0.634979  -0.113880  -0.553298
     7  C    8.808025   0.793470  -0.289189   0.785273   0.880350  -0.238015
     8  C    0.793470   7.423087   0.532611   0.618469   0.163463  -0.046605
     9  C   -0.289189   0.532611   8.563589  -0.784509  -0.991766  -0.857291
    10  C    0.785273   0.618469  -0.784509  11.278400   0.891417   0.872006
    11  C    0.880350   0.163463  -0.991766   0.891417   7.853262   0.405292
    12  C   -0.238015  -0.046605  -0.857291   0.872006   0.405292  13.539106
    13  C    1.524859   0.165631  -0.368123  -1.365021   0.358332  -0.308226
    14  C   -0.802727  -0.563951   0.257698  -0.261642  -1.327146  -1.367908
    15  C   -0.133068  -0.220736  -0.089084  -0.416163  -0.687109  -0.640312
    16  C   -0.927109  -0.318671  -0.118287  -0.341068  -0.413402  -0.839621
    17  C   -0.122626   0.112837  -0.026707   0.002260   0.119023   0.247966
    18  H    0.009508   0.004477   0.000992   0.000646  -0.000022   0.000461
    19  H   -0.000483   0.002329  -0.007724  -0.000341  -0.000059   0.000127
    20  C    1.013125   0.181303   1.543328   0.824683  -0.072628   0.215908
    21  C    0.069017   0.004464   1.673695   0.650148  -0.342962  -0.482603
    22  C   -0.998679   0.522813   1.610610  -1.433407  -1.800896  -0.932966
    23  H   -0.017709   0.019917  -0.003827  -0.018729   0.350056  -0.089011
    24  H   -0.007363   0.007050   0.001353   0.040793   0.069633  -0.064457
    25  H    0.001134  -0.013629   0.000484  -0.001376  -0.000433   0.017440
    26  H   -0.002456   0.001497  -0.000095  -0.000370   0.002179  -0.003018
    27  H    0.002557   0.001890   0.000245   0.003656   0.009532   0.033598
    28  C    0.442385  -0.069534  -0.183077   0.040166   0.066353  -0.487253
    29  C   -0.055160  -0.130237   0.048776  -0.110770   0.102128  -0.350942
    30  H   -0.003365  -0.003291   0.002918  -0.001115  -0.000304  -0.005815
    31  H   -0.018417  -0.004713   0.003303  -0.002925  -0.000664   0.002780
    32  C   -0.557886  -1.572245  -1.972195  -0.633175   0.187464  -0.422506
    33  C   -0.270280   0.989297  -0.868152  -1.458419   0.100408   0.005144
    34  H    0.001165  -0.003400  -0.011348   0.001942   0.000328   0.000002
    35  H    0.005674  -0.008944   0.046695   0.016505   0.000608   0.000351
    36  H   -0.000670   0.003750   0.021985  -0.018220  -0.003181   0.000386
    37  H   -0.001881   0.023901  -0.020614  -0.080282   0.080789   0.023051
              13         14         15         16         17         18
     1  C   -0.174453   0.051349  -0.017766   0.109971  -0.021043   0.350435
     2  C   -0.161566   0.096878  -0.042355   0.693793   0.074207  -0.020918
     3  C    0.420661   0.247664   0.002187   0.479961  -0.066753   0.042322
     4  C    0.214351  -0.021303   0.004346  -0.125416   0.002229  -0.008323
     5  C   -0.131109   0.048024   0.002504   0.140323  -0.025632  -0.027388
     6  C   -0.431178   0.024488  -0.077316   0.220649   0.039053  -0.018480
     7  C    1.524859  -0.802727  -0.133068  -0.927109  -0.122626   0.009508
     8  C    0.165631  -0.563951  -0.220736  -0.318671   0.112837   0.004477
     9  C   -0.368123   0.257698  -0.089084  -0.118287  -0.026707   0.000992
    10  C   -1.365021  -0.261642  -0.416163  -0.341068   0.002260   0.000646
    11  C    0.358332  -1.327146  -0.687109  -0.413402   0.119023  -0.000022
    12  C   -0.308226  -1.367908  -0.640312  -0.839621   0.247966   0.000461
    13  C    8.478157  -0.889791   0.703380  -0.330098  -0.753842   0.004484
    14  C   -0.889791   9.293915   0.637488   1.385134  -0.809360  -0.000049
    15  C    0.703380   0.637488   6.841423  -0.230990   0.442382   0.000013
    16  C   -0.330098   1.385134  -0.230990   8.282802  -0.462741  -0.001955
    17  C   -0.753842  -0.809360   0.442382  -0.462741   7.063315  -0.000189
    18  H    0.004484  -0.000049   0.000013  -0.001955  -0.000189   0.532943
    19  H    0.000295   0.000009  -0.000001  -0.000033  -0.000005  -0.008756
    20  C    0.098648  -0.009585   0.000094  -0.005716  -0.002655   0.014239
    21  C   -0.099541  -0.088509  -0.028244   0.101829   0.016986  -0.000059
    22  C   -0.687403   0.077525  -0.162797  -0.085414  -0.005345  -0.000045
    23  H   -0.024637   0.032872   0.011910   0.001773   0.000365  -0.000000
    24  H   -0.009137   0.357634  -0.053912  -0.015973   0.003029   0.000000
    25  H    0.003466   0.000683  -0.005992   0.415817  -0.054230   0.000003
    26  H    0.044498  -0.014884  -0.016654  -0.067555   0.409985   0.000000
    27  H   -0.002812  -0.061075   0.377484  -0.001270  -0.016744  -0.000000
    28  C    0.196903  -0.116257   0.167686  -0.770029  -0.381824  -0.000679
    29  C   -0.457970  -0.177466  -0.004327  -0.271714   0.443015  -0.002193
    30  H   -0.012185  -0.000889  -0.001171  -0.005249   0.008886   0.000583
    31  H   -0.001623   0.001493   0.003886  -0.043550   0.016144   0.000076
    32  C   -0.116669  -0.005543  -0.002681   0.045535   0.003024  -0.002099
    33  C   -0.008705  -0.136514  -0.001408  -0.147070  -0.004560   0.000016
    34  H   -0.000419   0.000005   0.000001   0.000004  -0.000003  -0.000004
    35  H   -0.000003  -0.000007   0.000001   0.000019  -0.000000  -0.000000
    36  H    0.000480   0.000153  -0.000018   0.000171   0.000001  -0.000000
    37  H    0.007877   0.004943   0.000949  -0.000494   0.000006  -0.000000
              19         20         21         22         23         24
     1  C   -0.016437  -0.911185   0.016770   0.096392  -0.000047  -0.000048
     2  C   -0.014636   0.067504  -0.259817  -0.209934  -0.000507  -0.000610
     3  C   -0.006241  -1.321433  -0.123058  -0.121211  -0.004793  -0.000941
     4  C    0.408907   1.133326   0.512601  -0.068225   0.000017  -0.000002
     5  C   -0.096263  -5.386241  -0.926717   0.197433   0.000032   0.000027
     6  C    0.017017  -3.155446  -0.258337  -0.016006   0.003002  -0.000065
     7  C   -0.000483   1.013125   0.069017  -0.998679  -0.017709  -0.007363
     8  C    0.002329   0.181303   0.004464   0.522813   0.019917   0.007050
     9  C   -0.007724   1.543328   1.673695   1.610610  -0.003827   0.001353
    10  C   -0.000341   0.824683   0.650148  -1.433407  -0.018729   0.040793
    11  C   -0.000059  -0.072628  -0.342962  -1.800896   0.350056   0.069633
    12  C    0.000127   0.215908  -0.482603  -0.932966  -0.089011  -0.064457
[...]
 08231,-0.00650579,-0.01026720,-0.00182746,-0.11926961,0.01432019,-0.00
 569945,-0.35741887,0.07029590,-0.00332785,0.00000208,0.00044088,-0.000
 03744,-0.00010756,0.00010061,-0.00002949,0.00006662,-0.00077192,0.0004
 9762,-0.00008824,-0.00001080,-0.00004923,-0.00004535,-0.00004413,0.000
 07640,0.00078672,-0.00070366,0.00053504,0.00051631,-0.00201264,0.00139
 045,0.00006815,-0.00029917,0.00012037,0.00000487,0.00008353,0.00000749
 ,-0.01162167,0.03845077,0.00302608,0.69288541,-0.00225160,-0.00057473,
 -0.00019548,0.00164551,-0.00148301,0.00101062,0.00150900,-0.00199254,-
 0.00002315,0.00131311,0.00297262,0.00012447,-0.00571943,-0.00575045,-0
 .00057276,-0.00272363,-0.00379960,-0.00198361,-0.00834097,-0.00371664,
 0.00085872,0.01839827,-0.00270470,-0.00019955,-0.02651763,-0.04645680,
 -0.00780249,-0.00429364,0.02783875,0.00280708,-0.01428558,-0.00895932,
 -0.00141496,0.00242455,0.00973148,0.00083760,0.00906724,-0.00363985,-0
 .00114537,-0.00201083,-0.00057289,0.00053261,0.00021514,0.00070285,-0.
 00012491,0.00093446,-0.00386597,0.00132561,-0.00106418,-0.00070978,0.0
 0037709,-0.00002029,0.00002503,-0.00011617,0.00001948,0.00003105,0.000
 05092,0.00076506,0.01355691,-0.00034445,0.04038490,-0.22285170,-0.0164
 4458,0.02270482,-0.13135950,-0.01101252,-0.00030515,-0.00018511,0.0001
 0401,0.00010605,-0.00005625,0.00004853,-0.00030476,0.00065388,-0.00042
 380,0.00004909,0.00000236,0.00004628,-0.00003228,-0.00002901,-0.000068
 42,-0.00070351,0.00039272,-0.00016741,-0.00077389,0.00186924,-0.001458
 96,0.00001997,0.00031048,-0.00014002,0.00000544,-0.00005012,-0.0000312
 6,0.01785263,-0.01443772,0.00092409,0.05387379,0.61128052,0.00023163,0
 .00002663,0.00009840,-0.00028697,0.00013419,-0.00031138,0.00022371,-0.
 00085227,-0.00016512,0.00017397,-0.00021807,-0.00054593,-0.00013288,-0
 .00013581,-0.00098996,-0.00182341,0.00022862,0.00655597,-0.00065739,-0
 .00000662,-0.00082722,0.00117182,-0.00028522,-0.00197504,-0.00137222,-
 0.01056980,0.00447803,-0.00224912,0.00296189,0.00430855,-0.00072793,-0
 .00193380,0.00384481,0.00006253,0.00083645,0.00018680,0.00065730,-0.00
 022704,0.00004198,-0.00034276,-0.00003186,-0.00046890,0.00002976,0.000
 10850,0.00009091,0.00002055,-0.00030609,0.00024863,-0.00005532,-0.0000
 4382,-0.00003452,0.00001220,0.00000017,-0.00002710,-0.00000453,-0.0000
 1851,0.00007838,-0.00176187,0.00028753,0.00397757,0.00043945,-0.019053
 20,-0.06296067,-0.01297936,-0.00802885,-0.06054720,-0.00013307,0.00006
 277,-0.00013805,0.00000563,0.00000126,0.00000686,-0.00001377,0.0000428
 6,-0.00002589,-0.00000131,0.00000613,-0.00002185,0.00000251,-0.0000162
 4,0.00004328,0.00003983,-0.00002569,-0.00002328,-0.00007097,0.00015635
 ,-0.00010325,-0.00000353,0.00001197,-0.00000844,0.00003598,-0.00000544
 ,0.00001144,0.00029703,0.00424318,0.00063985,0.04191880,0.06622780,0.1
 4392659,-0.00005309,-0.00027143,0.00004962,0.00010233,-0.00001316,0.00
 005945,-0.00005888,0.00098121,-0.00037117,0.00106875,0.00087830,0.0003
 0974,-0.01679321,0.01012845,-0.00365116,-0.00235216,-0.00418894,-0.000
 54626,-0.00045895,-0.00014602,-0.00003786,-0.00018681,0.00017489,0.000
 08177,0.00050710,-0.00066421,0.00026056,0.00002717,-0.00009866,-0.0000
 3462,-0.00005075,-0.00000464,-0.00000096,-0.00002880,0.00004305,0.0000
 0609,0.00010844,0.00012084,0.00004391,0.00000475,0.00003768,-0.0000027
 7,0.00000101,-0.00003676,-0.00002229,0.00008125,-0.00011156,0.00006711
 ,-0.00007462,0.00000157,0.00001884,-0.00003346,-0.00004481,-0.00001040
 ,-0.00001881,-0.00090797,0.00010752,-0.29574632,0.08543829,-0.04313281
 ,0.00189594,0.00025272,-0.00119174,0.00007199,0.00011250,0.00010179,-0
 .00000888,0.00000537,0.00000452,-0.00000405,0.00000475,0.00000556,0.00
 000160,0.00000906,-0.00002018,-0.00000377,-0.00000335,0.00000510,-0.00
 000775,-0.00000068,0.00000161,-0.00001418,-0.00004704,-0.00000414,-0.0
 0007081,0.00003463,-0.00004665,-0.00003373,0.00001469,-0.00001195,0.00
 001699,0.00001383,-0.00001109,-0.00155082,-0.00050752,-0.00091986,-0.0
 0009364,-0.00010615,-0.00012332,0.31293774,0.00041130,-0.00002823,0.00
 004129,-0.00009832,0.00030423,-0.00002345,-0.00061161,0.00063264,-0.00
 021702,0.00015966,0.00138722,-0.00014404,-0.01898009,0.01084737,-0.003
 51309,-0.00342237,-0.00279177,-0.00027728,-0.00029417,-0.00014353,0.00
 001975,-0.00013634,0.00019627,-0.00000094,-0.00037609,-0.00076028,-0.0
 0003003,-0.00007876,-0.00014925,-0.00002250,-0.00003303,0.00003097,0.0
 0001843,-0.00001372,0.00001288,0.00000361,0.00002990,0.00011495,-0.000
 00767,-0.00001883,0.00002531,0.00000609,0.00000955,-0.00000424,-0.0000
 0488,0.00002787,-0.00005367,0.00002375,-0.00002182,0.00000311,0.000006
 57,0.00001471,-0.00000592,-0.00000397,0.00060538,-0.00030294,0.0001176
 9,0.08321368,-0.08749430,0.01419844,-0.00026170,-0.00550111,-0.0003406
 0,0.00012870,-0.00048889,-0.00007627,-0.00000277,-0.00000401,-0.000002
 68,-0.00000251,-0.00000196,-0.00000019,0.00000507,0.00000669,-0.000009
 13,0.00000240,0.00000135,0.00000198,0.00000276,0.00000050,-0.00000081,
 -0.00001120,-0.00003354,0.00000246,-0.00000637,0.00002232,-0.00001265,
 -0.00000268,0.00000731,-0.00000320,0.00000200,-0.00000257,-0.00000188,
 0.02989728,-0.00770746,0.00499838,0.00124613,0.00053235,0.00023082,-0.
 09133151,0.09056430,-0.00031998,-0.00005282,-0.00017367,0.00022031,-0.
 00012979,0.00001124,-0.00022791,0.00034156,0.00042327,0.00075143,0.000
 12866,-0.00211169,-0.00447268,0.00061269,0.00180687,-0.00043169,-0.001
 05962,0.00409940,-0.00005098,-0.00006680,0.00029613,0.00009406,0.00010
 671,-0.00063158,0.00036035,0.00038039,-0.00086053,-0.00005550,0.000001
 51,0.00016933,0.00005562,0.00003636,0.00001164,-0.00002720,-0.00000583
 ,-0.00000193,-0.00000145,-0.00001259,-0.00029128,0.00005453,-0.0000017
 2,0.00005216,0.00000638,-0.00002196,-0.00000008,0.00000229,0.00003411,
 -0.00001975,0.00001344,-0.00000428,0.00001036,-0.00001544,0.00000751,0
 .00010191,-0.00002588,-0.00012610,0.00030642,-0.04287945,0.01599287,-0
 .04194195,-0.00116471,-0.00016182,0.00842416,0.00003462,0.00016505,-0.
 00046375,0.00000077,0.00000117,-0.00000326,0.00000061,0.00000131,-0.00
 000523,-0.00001011,0.00000034,0.00000741,-0.00000215,0.00000010,-0.000
 00086,-0.00000192,0.00000104,-0.00000345,-0.00004745,-0.00001452,0.000
 01716,0.00000988,-0.00006353,0.00003913,-0.00000729,0.00000810,-0.0000
 0023,-0.00002351,-0.00000062,-0.00000542,-0.00054087,-0.00116877,0.003
 63954,-0.00028213,-0.00010385,0.00038851,0.04786220,-0.01502537,0.0320
 8280,0.00020542,0.00004873,0.00010505,-0.00012629,0.00016497,-0.000062
 85,-0.00010862,-0.00018944,0.00007932,0.00026709,-0.00007802,-0.000037
 74,0.00115275,0.00198856,-0.00135230,0.00010312,0.00090099,0.00018958,
 -0.00051492,0.00017014,0.00001575,0.00000815,-0.00141528,-0.00039358,-
 0.00478886,0.00354877,-0.00076999,0.00009556,0.00000724,0.00000044,0.0
 0001803,0.00005427,0.00002462,-0.00004412,0.00002528,0.00000031,0.0000
 4863,-0.00018171,0.00002137,0.00003540,-0.00000020,-0.00000718,-0.0000
 1926,-0.00000997,0.00000213,-0.00005426,0.00003906,0.00000564,-0.00001
 609,-0.00000941,-0.00000897,0.00003046,0.00001714,0.00000929,0.0000041
 1,-0.00002118,-0.00002957,0.00650067,0.00501099,0.00071372,-0.01652117
 ,-0.01900056,-0.00424965,-0.00015088,0.00026652,0.00003394,-0.00003566
 ,0.00001302,0.00000737,-0.00000600,0.00000710,0.00000307,0.00000259,-0
 .00000464,0.00000010,-0.00001002,-0.00000295,0.00000195,-0.00000766,-0
 .00000072,0.00000114,0.00006269,-0.00001453,0.00002787,-0.00006659,-0.
 00000575,0.00000272,0.00000028,-0.00000311,-0.00000707,0.00002478,0.00
 000512,-0.00000689,-0.22641167,-0.13080398,-0.03532820,0.00143401,-0.0
 0101179,0.00025983,0.00082963,-0.00018426,0.00114149,0.23824327,-0.000
 08426,-0.00048749,0.00012151,0.00019760,-0.00016857,0.00003420,0.00002
 787,0.00021112,0.00000467,-0.00130693,0.00015888,-0.00026791,0.0026381
 2,-0.00459301,0.00020279,0.00050135,-0.00035646,0.00009311,0.00012747,
 -0.00016259,-0.00000646,0.00047913,0.00062634,0.00009200,0.00289067,-0
 .00043595,0.00019385,0.00001937,0.00018065,0.00003984,-0.00006972,-0.0
 0003518,-0.00000754,0.00002402,0.00004019,0.00000031,0.00005013,0.0000
 8759,-0.00001032,-0.00001528,0.00000003,0.00000275,0.00000399,0.000004
 19,-0.00000273,0.00003677,-0.00003865,0.00001945,-0.00000567,-0.000006
 32,0.00000433,-0.00013668,-0.00006570,0.00001710,0.00004185,-0.0000351
 6,-0.00000128,-0.02543813,-0.01597499,-0.00484985,0.00994359,0.0107087
 6,0.00206683,-0.00028834,-0.00002158,-0.00002199,0.00000438,0.00000093
 ,0.00000082,0.00000005,0.00000279,0.00000187,-0.00000030,0.00000278,-0
 .00000456,-0.00000012,-0.00000220,-0.00000006,-0.00000459,0.00000028,0
 .00000140,-0.00000769,0.00002976,-0.00002809,-0.00002158,-0.00001251,-
 0.00000148,-0.00001631,-0.00000009,-0.00000222,-0.00000174,0.00000874,
 -0.00000573,-0.12862591,-0.15744746,-0.02546625,-0.00028768,0.00112558
 ,0.00016266,0.00019833,0.00084839,0.00019634,0.13970120,0.16598141,0.0
 0003000,-0.00017187,-0.00064106,0.00004474,-0.00002855,0.00017113,0.00
 001396,-0.00004045,-0.00064066,-0.00027884,0.00006400,0.00042752,-0.00
 118180,0.00000726,0.00852298,0.00047791,-0.00019044,-0.00068987,-0.000
 10576,0.00011134,-0.00003135,-0.00016262,-0.00038631,0.00028012,-0.000
 88412,0.00093594,0.00444106,0.00019593,0.00009642,-0.00007176,-0.00009
 125,-0.00002551,0.00002253,0.00004878,0.00003452,-0.00000321,0.0000377
 8,-0.00005143,-0.00003441,-0.00002228,-0.00001057,-0.00000280,-0.00000
 096,0.00001970,0.00000107,-0.00000691,0.00000551,-0.00000809,0.0000165
 3,-0.00001220,-0.00000776,-0.00000695,-0.00001772,-0.00007108,-0.00001
 638,0.00002355,0.00018203,-0.00037834,0.00132386,0.00325507,-0.0041876
 8,-0.00228358,0.00170375,-0.00022842,-0.00000901,-0.00014057,-0.000003
 26,-0.00000101,0.00001451,-0.00000052,0.00000027,0.00000329,-0.0000067
 5,-0.00000493,0.00000257,-0.00000298,-0.00000125,0.00000255,-0.0000004
 3,0.00000007,0.00000327,-0.00000380,0.00001592,0.00006743,-0.00002182,
 -0.00001775,0.00001977,0.00000994,0.00000319,0.00000116,-0.00001059,0.
 00000030,-0.00000218,-0.03450795,-0.02713315,-0.04131551,0.00066318,0.
 00004511,-0.00195408,0.00115672,0.00006555,-0.00541762,0.03949167,0.02
 749341,0.03161974,0.00004436,0.00001710,0.00000629,0.00000381,0.000044
 88,-0.00004401,-0.00015158,0.00014147,-0.00001903,-0.00002966,-0.00005
 759,0.00000112,0.00019036,-0.00000072,0.00003873,0.00055694,0.00046524
 ,0.00011374,0.00024662,0.00000803,0.00001751,-0.00030174,0.00041627,0.
 00005636,-0.00018539,0.00268592,0.00006300,-0.00426464,0.00299691,-0.0
 0023477,0.00006043,-0.00130466,-0.00026914,-0.00045936,-0.00000259,0.0
 0017916,-0.00016306,0.00008592,0.00002706,0.00004309,-0.00016347,-0.00
 003378,-0.00006824,0.00000953,0.00001897,-0.00003857,0.00011667,-0.000
 05451,0.00003993,0.00001495,-0.00001652,-0.00000049,-0.00000738,-0.000
 00074,0.00000426,0.00000373,-0.00000053,-0.00004611,-0.00029500,-0.000
 01146,0.01024541,0.00864752,0.00178154,-0.01687794,-0.02438209,-0.0047
 2953,-0.00003875,0.00005213,-0.00001761,-0.00000025,0.00001251,0.00000
 043,0.00000008,-0.00002489,0.00001355,-0.00000613,-0.00000580,-0.00000
 176,-0.00001712,-0.00001408,0.00000261,0.00005499,-0.00001511,0.000024
 41,-0.00001990,-0.00007833,0.00004302,-0.00000401,-0.00000899,0.000000
 97,0.00001502,0.00000677,-0.00000464,0.00106320,-0.00026935,0.00022436
 ,-0.16933916,-0.13120558,-0.02695462,0.00000381,-0.00002400,-0.0000037
 1,-0.00014292,-0.00054995,-0.00006694,0.17873801,0.00000605,-0.0000532
 1,0.00000345,-0.00012654,0.00001974,0.00005055,0.00020309,-0.00053640,
 0.00003937,0.00004465,0.00002443,0.00002294,0.00004219,0.00009193,-0.0
 0000064,-0.00151699,-0.00003001,-0.00045871,-0.00029309,-0.00013028,0.
 00010130,0.00091373,0.00015798,0.00017131,0.00342091,-0.00508673,-0.00
 048838,0.00235395,0.00075207,-0.00118012,-0.00009295,0.00035879,-0.000
 00888,0.00012388,0.00013724,0.00009427,0.00022461,-0.00003863,-0.00005
 632,-0.00001550,0.00005096,0.00002756,0.00000886,0.00000175,-0.0000138
 2,0.00001957,-0.00011939,0.00004536,-0.00004106,-0.00000446,0.00000871
 ,0.00000401,-0.00000759,-0.00000056,0.00001125,-0.00003585,0.00000430,
 0.00023983,-0.00016936,0.00005026,-0.02030089,-0.01588081,-0.00434627,
 0.00618474,0.00753357,0.00091862,-0.00002134,0.00000075,-0.00002712,-0
 .00000354,0.00000242,0.00000401,0.00000723,0.00001595,-0.00001761,-0.0
 0000155,-0.00000247,0.00000535,-0.00000240,0.00000377,-0.00000298,-0.0
 0000592,-0.00001483,-0.00000588,-0.00005435,0.00003194,-0.00003308,-0.
 00001800,0.00000192,-0.00000601,0.00001076,0.00000633,-0.00000698,-0.0
 0096720,0.00150743,0.00012861,-0.13364982,-0.21484192,-0.03294001,0.00
 003372,-0.00004259,-0.00000708,0.00093282,-0.00017682,0.00015315,0.142
 51696,0.22559002,0.00003635,0.00002381,-0.00000621,0.00001496,-0.00000
 165,-0.00002433,0.00002582,-0.00007436,-0.00001658,-0.00002880,-0.0000
 5900,0.00002493,0.00009381,0.00015102,-0.00005217,-0.00025909,-0.00013
 945,0.00015794,0.00006924,0.00012024,-0.00061119,-0.00013300,0.0002471
 2,-0.00067298,0.00070589,-0.00053935,0.00414392,-0.00049941,-0.0009282
 2,0.00915478,0.00001665,-0.00037898,0.00028602,-0.00028187,0.00018282,
 -0.00077181,-0.00005727,-0.00004032,0.00014181,0.00001786,0.00000445,-
 0.00008541,-0.00000797,-0.00004987,0.00003998,0.00005129,0.00002105,0.
 00007168,-0.00004977,0.00002982,0.00000505,0.00000027,-0.00000234,0.00
 000178,0.00000087,-0.00000274,0.00000646,-0.00002005,-0.00020025,-0.00
 015228,-0.00184007,-0.00345042,0.00209901,0.00054858,-0.00115133,0.003
 52643,0.00004146,-0.00003940,0.00023888,-0.00000268,0.00000133,-0.0000
 0504,0.00001579,0.00000179,0.00000441,-0.00000072,0.00000161,-0.000008
 05,-0.00000004,-0.00000454,0.00001631,0.00001298,0.00002687,0.00000179
 ,-0.00004657,0.00002777,0.00002145,-0.00000056,0.00001412,-0.00001375,
 0.00000213,0.00000116,-0.00000257,0.00014066,0.00053089,-0.00170665,-0
 .02843647,-0.03206298,-0.04167212,-0.00001370,-0.00000563,0.00009745,0
 .00012949,-0.00007080,0.00017328,0.02945813,0.03676173,0.03129976,0.00
 004732,-0.00001610,0.00000995,0.00009246,0.00002397,0.00003077,-0.0001
 8300,-0.00029296,-0.00000532,0.00002459,-0.00005166,0.00001831,-0.0001
 3867,-0.00006208,-0.00001756,0.00020285,-0.00014279,0.00001968,0.00060
 944,-0.00066755,-0.00018041,-0.00327157,-0.00313529,-0.00041263,-0.000
 71855,-0.00033689,-0.00001492,0.01012434,-0.02056994,-0.00308327,0.001
 47351,0.00005614,-0.00017175,-0.00002655,0.00038618,0.00003626,0.00033
 212,-0.00007707,-0.00001068,-0.00001915,0.00000066,-0.00000278,0.00000
 698,-0.00000867,-0.00001144,-0.00000076,-0.00002748,0.00003544,-0.0000
 4846,-0.00002963,0.00001542,0.00001485,-0.00000102,-0.00000613,-0.0000
 0487,-0.00000170,-0.00000168,-0.00046781,0.00015347,-0.00007451,-0.005
 48888,-0.00000716,-0.00078454,-0.08079477,0.07509112,0.00995205,-0.000
 26230,0.00065907,0.00014789,-0.00001807,-0.00000323,0.00000811,-0.0000
 0659,0.00001731,-0.00000625,-0.00000283,0.00000381,0.00000389,0.000002
 32,0.00000182,-0.00000155,-0.00001158,0.00000671,-0.00000012,-0.000002
 30,0.00006001,-0.00003789,0.00000837,0.00000809,-0.00000221,-0.0000044
 9,-0.00000243,-0.00000140,0.00060437,0.00122751,0.00021776,-0.00652665
 ,0.03038239,0.00411184,-0.00001502,0.00015576,-0.00001594,-0.00004163,
 -0.00002504,-0.00000977,0.00084472,-0.00019165,0.00029579,0.08366629,0
 .00004089,-0.00002044,0.00001890,0.00006964,0.00006035,0.00005121,-0.0
 0018295,-0.00037380,-0.00001276,0.00000381,-0.00004164,0.00000921,-0.0
 0007945,0.00001266,-0.00002251,0.00013014,-0.00015628,0.00004030,0.000
 95487,-0.00015657,-0.00025632,-0.00412225,-0.00173548,-0.00056738,-0.0
 0054575,0.00052271,0.00021779,0.00877294,-0.01660200,-0.00285428,0.000
 94187,0.00103808,0.00021638,-0.00039397,0.00003634,0.00002145,0.000020
 34,0.00004247,0.00002546,0.00012271,-0.00005969,-0.00003088,-0.0000400
 8,-0.00007487,-0.00002237,0.00000119,0.00006077,0.00002915,-0.00006518
 ,-0.00001704,0.00001688,0.00001413,-0.00001648,-0.00001383,0.00000743,
 -0.00000723,0.00000118,0.00014234,0.00007512,0.00010032,0.00062156,0.0
 0182565,-0.00108220,0.07728791,-0.30466639,-0.03665848,-0.00091335,0.0
 0002848,0.00016786,-0.00002030,0.00001678,0.00000999,-0.00000631,-0.00
 000418,-0.00000100,-0.00001241,-0.00000101,0.00000562,-0.00001508,-0.0
 0000612,0.00000191,0.00002767,-0.00000455,0.00000940,-0.00005548,-0.00
 000488,-0.00001123,-0.00000968,0.00000429,-0.00000521,0.00001353,0.000
 01162,-0.00001197,-0.00011442,-0.00016449,-0.00011666,-0.00021580,-0.0
 0298822,-0.00103145,0.00000053,-0.00002189,0.00001124,0.00003556,0.000
 00234,-0.00001333,0.00016705,0.00088238,0.00105408,-0.08258366,0.32250
 322,0.00002912,0.00000532,-0.00001815,-0.00001933,-0.00000915,-0.00029
 189,-0.00005646,-0.00006540,0.00029222,-0.00000192,-0.00002951,0.00000
 840,-0.00004030,0.00003939,0.00015305,0.00014829,-0.00007616,-0.000567
 33,0.00038821,-0.00005824,0.00046119,-0.00109536,-0.00060571,0.0035924
 7,0.00035457,0.00049810,-0.00083263,0.00028442,-0.00435875,0.00167544,
 0.00028444,0.00066398,-0.00184476,-0.00017583,-0.00029125,-0.00023850,
 -0.00018624,0.00011571,0.00003907,0.00008255,-0.00000933,0.00000300,-0
 .00001208,-0.00003064,0.00001999,-0.00004419,0.00010644,0.00001760,0.0
 0002595,0.00001233,-0.00002649,-0.00000171,0.00001050,0.00007942,-0.00
 000176,0.00000127,-0.00000376,0.00016555,0.00000829,-0.00052619,-0.000
 59623,-0.00114362,0.00871087,0.01182258,-0.03659990,-0.03929617,-0.000
 06492,-0.00007280,0.00029668,-0.00000044,0.00000052,0.00001493,0.00000
 310,-0.00002031,0.00001437,-0.00000441,-0.00000101,-0.00000303,-0.0000
 0283,-0.00000091,0.00000169,0.00002231,-0.00002189,-0.00000126,0.00000
 930,-0.00004809,0.00004339,-0.00000040,-0.00000899,0.00000026,-0.00000
 453,0.00000121,-0.00000245,-0.00011541,-0.00022711,0.00041506,-0.00153
 491,0.00051615,0.00387344,0.00001083,-0.00001153,-0.00005261,-0.000013
 87,-0.00000199,0.00011719,0.00039234,0.00100958,-0.00571201,-0.0100504
 1,0.04070351,0.02958749\\-0.00002729,0.00000657,0.00000020,0.00001410,
 -0.00002945,0.00000219,0.00000573,0.00003052,-0.00000832,0.00002428,0.
 00002720,-0.00000045,-0.00000507,-0.00002315,-0.00000071,-0.00001057,-
 0.00001380,-0.00001396,-0.00001118,-0.00002454,0.00000864,0.00001498,0
 .00001506,0.00000616,-0.00001234,0.00001025,0.00000354,0.00001341,-0.0
 0000161,-0.00000303,-0.00001368,-0.00000618,0.00000374,-0.00000988,0.0
 0001473,0.00000470,0.00001408,-0.00000867,0.00000373,0.00001648,-0.000
 00203,-0.00000459,-0.00001447,-0.00001317,-0.00000127,-0.00780141,0.00
 919098,-0.00840369,-0.00001087,-0.00000762,0.00001068,0.00000658,0.000
 00101,-0.00000157,0.00000219,0.00000227,-0.00000299,0.00000686,0.00001
 979,0.00000313,-0.00001466,0.00001445,-0.00000246,-0.00002001,0.000000
 02,-0.00000430,-0.00000224,-0.00000019,-0.00000080,-0.00000320,-0.0000
 0214,0.00000636,0.00000022,-0.00000779,0.00000842,0.00000220,-0.000005
 07,0.00000094,0.00000289,-0.00000042,0.00000445,-0.00000772,0.00001017
 ,0.00000860,0.00780954,-0.00918745,0.00838134,0.00000430,0.00000212,0.
 00000727,0.00001389,-0.00000329,-0.00000089,0.00000884,-0.00001059,-0.
 00000246,0.00001166,-0.00000922,-0.00000347,0.00000021,0.00000244,-0.0
 0000356,-0.00000163,0.00000533,-0.00000393,-0.00000370,0.00000344,-0.0
 0000162,-0.00000251,0.00000002,0.00000002\\\@


 CHARLIE BROWN.."I CAN'T GET THAT STUPID KITE IN THE
 AIR... I CAN'T... I C A N N O T..."
 LUCY.."OH COME NOW CHARLIE BROWN...THAT'S NO WAY TO TALK...
 THE TROUBLE WITH YOU IS YOU DON'T BELIEVE IN YOURSELF... YOU
 DON'T BELIEVE IN YOUR OWN ABILITIES...  YOU'VE GOT TO SAY TO
 YOURSELF...'I BELIEVE I CAN FLY THIS KITE.'... GO AHEAD SAY
 IT...."
 CHARLIE BROWN.."I BELIEVE THAT I CAN FLY THIS STUPID
 KITE.....I BELIEVE THAT I CAN FLY THIS KITE........
 I  A C T U A L L Y  B E L I E V E  T H A T  I  C A N ******"
 LUCY.."I'LL BET YOU TEN-TO-ONE YOU'RE WRONG......."    SCHULZ
 Job cpu time:       1 days  1 hours 43 minutes 18.0 seconds.
 Elapsed time:       0 days  1 hours 17 minutes  8.8 seconds.
 File lengths (MBytes):  RWF=   2406 Int=      0 D2E=      0 Chk=     39 Scr=      1
 Normal termination of Gaussian 16 at Tue Apr  2 19:31:41 2019.
