 Entering Gaussian System, Link 0=g09
 Initial command:
 /usr/local/Cluster-Apps/gaussian/g09/l1.exe "/rds/user/am2145/hpc-work/scratch/19184610/Gau-147344.inp" -scrdir="/rds/user/am2145/hpc-work/scratch/19184610/"
 Entering Link 1 = /usr/local/Cluster-Apps/gaussian/g09/l1.exe PID=    147345.
  
 Copyright (c) 1988,1990,1992,1993,1995,1998,2003,2009,2013,
            Gaussian, Inc.  All Rights Reserved.
  
 This is part of the Gaussian(R) 09 program.  It is based on
 the Gaussian(R) 03 system (copyright 2003, Gaussian, Inc.),
 the Gaussian(R) 98 system (copyright 1998, Gaussian, Inc.),
 the Gaussian(R) 94 system (copyright 1995, Gaussian, Inc.),
 the Gaussian 92(TM) system (copyright 1992, Gaussian, Inc.),
 the Gaussian 90(TM) system (copyright 1990, Gaussian, Inc.),
 the Gaussian 88(TM) system (copyright 1988, Gaussian, Inc.),
 the Gaussian 86(TM) system (copyright 1986, Carnegie Mellon
 University), and the Gaussian 82(TM) system (copyright 1983,
 Carnegie Mellon University). Gaussian is a federally registered
 trademark of Gaussian, Inc.
  
 This software contains proprietary and confidential information,
 including trade secrets, belonging to Gaussian, Inc.
  
 This software is provided under written license and may be
 used, copied, transmitted, or stored only in accord with that
 written license.
  
 The following legend is applicable only to US Government
 contracts under FAR:
  
                    RESTRICTED RIGHTS LEGEND
  
 Use, reproduction and disclosure by the US Government is
 subject to restrictions as set forth in subparagraphs (a)
 and (c) of the Commercial Computer Software - Restricted
 Rights clause in FAR 52.227-19.
  
 Gaussian, Inc.
 340 Quinnipiac St., Bldg. 40, Wallingford CT 06492
  
  
 ---------------------------------------------------------------
 Warning -- This program may not be used in any manner that
 competes with the business of Gaussian, Inc. or will provide
 assistance to any competitor of Gaussian, Inc.  The licensee
 of this program is prohibited from giving any competitor of
 Gaussian, Inc. access to this program.  By using this program,
 the user acknowledges that Gaussian, Inc. is engaged in the
 business of creating and licensing software in the field of
 computational chemistry and represents and warrants to the
 licensee that it is not a competitor of Gaussian, Inc. and that
 it will not use this program in any manner prohibited above.
 ---------------------------------------------------------------
  

 Cite this work as:
 Gaussian 09, Revision D.01,
 M. J. Frisch, G. W. Trucks, H. B. Schlegel, G. E. Scuseria, 
 M. A. Robb, J. R. Cheeseman, G. Scalmani, V. Barone, B. Mennucci, 
 G. A. Petersson, H. Nakatsuji, M. Caricato, X. Li, H. P. Hratchian, 
 A. F. Izmaylov, J. Bloino, G. Zheng, J. L. Sonnenberg, M. Hada, 
 M. Ehara, K. Toyota, R. Fukuda, J. Hasegawa, M. Ishida, T. Nakajima, 
 Y. Honda, O. Kitao, H. Nakai, T. Vreven, J. A. Montgomery, Jr., 
 J. E. Peralta, F. Ogliaro, M. Bearpark, J. J. Heyd, E. Brothers, 
 K. N. Kudin, V. N. Staroverov, T. Keith, R. Kobayashi, J. Normand, 
 K. Raghavachari, A. Rendell, J. C. Burant, S. S. Iyengar, J. Tomasi, 
 M. Cossi, N. Rega, J. M. Millam, M. Klene, J. E. Knox, J. B. Cross, 
 V. Bakken, C. Adamo, J. Jaramillo, R. Gomperts, R. E. Stratmann, 
 O. Yazyev, A. J. Austin, R. Cammi, C. Pomelli, J. W. Ochterski, 
 R. L. Martin, K. Morokuma, V. G. Zakrzewski, G. A. Voth, 
 P. Salvador, J. J. Dannenberg, S. Dapprich, A. D. Daniels, 
 O. Farkas, J. B. Foresman, J. V. Ortiz, J. Cioslowski, 
 and D. J. Fox, Gaussian, Inc., Wallingford CT, 2013.
 
 ******************************************
 Gaussian 09:  ES64L-G09RevD.01 24-Apr-2013
                 1-Feb-2020 
 ******************************************
 %NProcShared=20
 Will use up to   20 processors via shared memory.
 %mem=64GB
 %Chk=AS2a_Hmigclose_guess2.chk
 --------------------------------------------------
 #n opt=(ts,calcfc,noeigen) freq b3lyp/6-311+g(d,p)
 --------------------------------------------------
 1/5=1,10=4,11=1,14=-1,18=20,26=3,38=1/1,3;
 2/9=110,12=2,17=6,18=5,40=1/2;
 3/5=4,6=6,7=111,11=2,16=1,25=1,30=1,71=2,74=-5,140=1/1,2,3;
 4//1;
 5/5=2,38=5/2;
 8/6=4,10=90,11=11/1;
 11/6=1,8=1,9=11,15=111,16=1/1,2,10;
 10/6=1,13=1/2;
 6/7=2,8=2,9=2,10=2,28=1/1;
 7/10=1,18=20,25=1/1,2,3,16;
 1/5=1,10=4,11=1,14=-1,18=20,26=3/3(2);
 2/9=110/2;
 99//99;
 2/9=110/2;
 3/5=4,6=6,7=111,11=2,16=1,25=1,30=1,71=1,74=-5/1,2,3;
 4/5=5,16=3,69=1/1;
 5/5=2,38=5/2;
 7//1,2,3,16;
 1/5=1,11=1,14=-1,18=20,26=3/3(-5);
 2/9=110/2;
 6/7=2,8=2,9=2,10=2,19=2,28=1/1;
 99/9=1/99;
 ---------------------
 AS2a_Hmigclose_guess2
 ---------------------
 Symbolic Z-matrix:
 Charge =  0 Multiplicity = 2
 C                     1.83648   3.27979  -0.13565 
 C                     0.60882   2.58652  -0.07057 
 C                     0.5281    1.22458  -0.05469 
 C                     3.05538   2.60367  -0.167 
 C                     3.06521   1.18008  -0.12813 
 C                     1.80795   0.59039  -0.07773 
 C                    -0.48613   0.12092   0.02796 
 C                     0.26886  -1.06634   0.06387 
 C                     1.64354  -0.78763   0.00282 
 C                    -0.18012  -2.39119   0.11507 
 C                    -1.56823  -2.52996   0.10261 
 C                    -2.4084   -1.39078   0.02991 
 C                    -1.89419  -0.01804   0.01222 
 C                    -3.81373  -1.59851  -0.0811 
 C                    -4.6769   -0.55164  -0.25409 
 C                    -2.84297   1.0634   -0.10096 
 C                    -4.18316   0.76927  -0.27944 
 H                    -1.51548   4.15097   0.83879 
 H                     1.83723   4.36482  -0.15581 
 H                     3.98083   3.16912  -0.21179 
 C                     4.16494   0.24381  -0.11557 
 C                     2.66379  -1.71059   0.01824 
 C                     0.86715  -3.39894   0.13637 
 H                    -2.03522  -3.50977   0.11498 
 H                    -4.18521  -2.61725  -0.05391 
 H                    -4.88163   1.59009  -0.40508 
 H                    -5.74049  -0.72814  -0.36547 
 C                    -2.47834   2.48853  -0.04389 
 C                    -1.63346   3.07457   0.82881 
 H                    -1.19932   2.53013   1.65657 
 H                    -2.99798   3.12439  -0.75711 
 C                     3.97993  -1.12851  -0.04845 
 C                     2.2077   -3.08583   0.09375 
 H                     5.1792    0.62765  -0.15849 
 H                     4.85345  -1.77231  -0.04357 
 H                     2.93436  -3.89164   0.11091 
 H                     0.57688  -4.44356   0.18383 
 

 GradGradGradGradGradGradGradGradGradGradGradGradGradGradGradGradGradGrad
 Berny optimization.
 Initialization pass.
                           ----------------------------
                           !    Initial Parameters    !
                           ! (Angstroms and Degrees)  !
 --------------------------                            --------------------------
 ! Name  Definition              Value          Derivative Info.                !
 --------------------------------------------------------------------------------
 ! R1    R(1,2)                  1.4114         calculate D2E/DX2 analytically  !
 ! R2    R(1,4)                  1.3942         calculate D2E/DX2 analytically  !
 ! R3    R(1,19)                 1.0852         calculate D2E/DX2 analytically  !
 ! R4    R(2,3)                  1.3644         calculate D2E/DX2 analytically  !
 ! R5    R(3,6)                  1.4285         calculate D2E/DX2 analytically  !
 ! R6    R(3,7)                  1.5012         calculate D2E/DX2 analytically  !
 ! R7    R(4,5)                  1.4242         calculate D2E/DX2 analytically  !
 ! R8    R(4,20)                 1.0854         calculate D2E/DX2 analytically  !
 ! R9    R(5,6)                  1.3896         calculate D2E/DX2 analytically  !
 ! R10   R(5,21)                 1.4444         calculate D2E/DX2 analytically  !
 ! R11   R(6,9)                  1.3901         calculate D2E/DX2 analytically  !
 ! R12   R(7,8)                  1.4074         calculate D2E/DX2 analytically  !
 ! R13   R(7,13)                 1.415          calculate D2E/DX2 analytically  !
 ! R14   R(8,9)                  1.404          calculate D2E/DX2 analytically  !
 ! R15   R(8,10)                 1.3998         calculate D2E/DX2 analytically  !
 ! R16   R(9,22)                 1.3759         calculate D2E/DX2 analytically  !
 ! R17   R(10,11)                1.3951         calculate D2E/DX2 analytically  !
 ! R18   R(10,23)                1.4535         calculate D2E/DX2 analytically  !
 ! R19   R(11,12)                1.4174         calculate D2E/DX2 analytically  !
 ! R20   R(11,24)                1.0855         calculate D2E/DX2 analytically  !
 ! R21   R(12,13)                1.466          calculate D2E/DX2 analytically  !
 ! R22   R(12,14)                1.4249         calculate D2E/DX2 analytically  !
 ! R23   R(13,16)                1.4431         calculate D2E/DX2 analytically  !
 ! R24   R(14,15)                1.3678         calculate D2E/DX2 analytically  !
 ! R25   R(14,25)                1.0847         calculate D2E/DX2 analytically  !
 ! R26   R(15,17)                1.4104         calculate D2E/DX2 analytically  !
 ! R27   R(15,27)                1.0839         calculate D2E/DX2 analytically  !
 ! R28   R(16,17)                1.3836         calculate D2E/DX2 analytically  !
 ! R29   R(16,28)                1.4721         calculate D2E/DX2 analytically  !
 ! R30   R(17,26)                1.0851         calculate D2E/DX2 analytically  !
 ! R31   R(18,29)                1.0829         calculate D2E/DX2 analytically  !
 ! R32   R(21,32)                1.3864         calculate D2E/DX2 analytically  !
 ! R33   R(21,34)                1.0853         calculate D2E/DX2 analytically  !
 ! R34   R(22,32)                1.4407         calculate D2E/DX2 analytically  !
 ! R35   R(22,33)                1.4509         calculate D2E/DX2 analytically  !
 ! R36   R(23,33)                1.3773         calculate D2E/DX2 analytically  !
 ! R37   R(23,37)                1.0852         calculate D2E/DX2 analytically  !
 ! R38   R(28,29)                1.3487         calculate D2E/DX2 analytically  !
 ! R39   R(28,31)                1.0877         calculate D2E/DX2 analytically  !
 ! R40   R(29,30)                1.0817         calculate D2E/DX2 analytically  !
 ! R41   R(32,35)                1.0851         calculate D2E/DX2 analytically  !
 ! R42   R(33,36)                1.0852         calculate D2E/DX2 analytically  !
 ! A1    A(2,1,4)              121.5527         calculate D2E/DX2 analytically  !
 ! A2    A(2,1,19)             119.5097         calculate D2E/DX2 analytically  !
 ! A3    A(4,1,19)             118.9365         calculate D2E/DX2 analytically  !
 ! A4    A(1,2,3)              122.8404         calculate D2E/DX2 analytically  !
 ! A5    A(2,3,6)              112.9509         calculate D2E/DX2 analytically  !
 ! A6    A(2,3,7)              140.7566         calculate D2E/DX2 analytically  !
 ! A7    A(6,3,7)              106.2483         calculate D2E/DX2 analytically  !
 ! A8    A(1,4,5)              119.3521         calculate D2E/DX2 analytically  !
 ! A9    A(1,4,20)             119.5833         calculate D2E/DX2 analytically  !
 ! A10   A(5,4,20)             121.0624         calculate D2E/DX2 analytically  !
 ! A11   A(4,5,6)              114.7675         calculate D2E/DX2 analytically  !
 ! A12   A(4,5,21)             130.8032         calculate D2E/DX2 analytically  !
 ! A13   A(6,5,21)             114.4243         calculate D2E/DX2 analytically  !
 ! A14   A(3,6,5)              128.5197         calculate D2E/DX2 analytically  !
 ! A15   A(3,6,9)              109.4619         calculate D2E/DX2 analytically  !
 ! A16   A(5,6,9)              121.9901         calculate D2E/DX2 analytically  !
 ! A17   A(3,7,8)              105.0204         calculate D2E/DX2 analytically  !
 ! A18   A(3,7,13)             138.0646         calculate D2E/DX2 analytically  !
 ! A19   A(8,7,13)             116.8235         calculate D2E/DX2 analytically  !
 ! A20   A(7,8,9)              110.8956         calculate D2E/DX2 analytically  !
 ! A21   A(7,8,10)             128.849          calculate D2E/DX2 analytically  !
 ! A22   A(9,8,10)             120.2338         calculate D2E/DX2 analytically  !
 ! A23   A(6,9,8)              108.3673         calculate D2E/DX2 analytically  !
 ! A24   A(6,9,22)             125.3049         calculate D2E/DX2 analytically  !
 ! A25   A(8,9,22)             126.3278         calculate D2E/DX2 analytically  !
 ! A26   A(8,10,11)            114.391          calculate D2E/DX2 analytically  !
 ! A27   A(8,10,23)            115.1902         calculate D2E/DX2 analytically  !
 ! A28   A(11,10,23)           130.3955         calculate D2E/DX2 analytically  !
 ! A29   A(10,11,12)           120.6851         calculate D2E/DX2 analytically  !
 ! A30   A(10,11,24)           121.1815         calculate D2E/DX2 analytically  !
 ! A31   A(12,11,24)           118.1031         calculate D2E/DX2 analytically  !
 ! A32   A(11,12,13)           123.0457         calculate D2E/DX2 analytically  !
 ! A33   A(11,12,14)           118.1281         calculate D2E/DX2 analytically  !
 ! A34   A(13,12,14)           118.7836         calculate D2E/DX2 analytically  !
 ! A35   A(7,13,12)            116.1591         calculate D2E/DX2 analytically  !
 ! A36   A(7,13,16)            125.5578         calculate D2E/DX2 analytically  !
 ! A37   A(12,13,16)           118.1679         calculate D2E/DX2 analytically  !
 ! A38   A(12,14,15)           121.3761         calculate D2E/DX2 analytically  !
 ! A39   A(12,14,25)           118.2115         calculate D2E/DX2 analytically  !
 ! A40   A(15,14,25)           120.3891         calculate D2E/DX2 analytically  !
 ! A41   A(14,15,17)           119.878          calculate D2E/DX2 analytically  !
 ! A42   A(14,15,27)           120.5048         calculate D2E/DX2 analytically  !
 ! A43   A(17,15,27)           119.6159         calculate D2E/DX2 analytically  !
 ! A44   A(13,16,17)           119.1849         calculate D2E/DX2 analytically  !
 ! A45   A(13,16,28)           124.0264         calculate D2E/DX2 analytically  !
 ! A46   A(17,16,28)           116.7883         calculate D2E/DX2 analytically  !
 ! A47   A(15,17,16)           122.4013         calculate D2E/DX2 analytically  !
 ! A48   A(15,17,26)           119.0258         calculate D2E/DX2 analytically  !
 ! A49   A(16,17,26)           118.53           calculate D2E/DX2 analytically  !
 ! A50   A(5,21,32)            122.7159         calculate D2E/DX2 analytically  !
 ! A51   A(5,21,34)            118.8129         calculate D2E/DX2 analytically  !
 ! A52   A(32,21,34)           118.4711         calculate D2E/DX2 analytically  !
 ! A53   A(9,22,32)            113.9467         calculate D2E/DX2 analytically  !
 ! A54   A(9,22,33)            113.7867         calculate D2E/DX2 analytically  !
 ! A55   A(32,22,33)           132.2661         calculate D2E/DX2 analytically  !
 ! A56   A(10,23,33)           122.9022         calculate D2E/DX2 analytically  !
 ! A57   A(10,23,37)           118.378          calculate D2E/DX2 analytically  !
 ! A58   A(33,23,37)           118.7193         calculate D2E/DX2 analytically  !
 ! A59   A(16,28,29)           126.9352         calculate D2E/DX2 analytically  !
 ! A60   A(16,28,31)           114.9725         calculate D2E/DX2 analytically  !
 ! A61   A(29,28,31)           118.007          calculate D2E/DX2 analytically  !
 ! A62   A(18,29,28)           120.4075         calculate D2E/DX2 analytically  !
 ! A63   A(18,29,30)           116.713          calculate D2E/DX2 analytically  !
 ! A64   A(28,29,30)           121.8635         calculate D2E/DX2 analytically  !
 ! A65   A(21,32,22)           121.6079         calculate D2E/DX2 analytically  !
 ! A66   A(21,32,35)           118.6899         calculate D2E/DX2 analytically  !
 ! A67   A(22,32,35)           119.7019         calculate D2E/DX2 analytically  !
 ! A68   A(22,33,23)           121.5384         calculate D2E/DX2 analytically  !
 ! A69   A(22,33,36)           119.6149         calculate D2E/DX2 analytically  !
 ! A70   A(23,33,36)           118.8455         calculate D2E/DX2 analytically  !
 ! D1    D(4,1,2,3)             -1.0232         calculate D2E/DX2 analytically  !
 ! D2    D(19,1,2,3)           179.36           calculate D2E/DX2 analytically  !
 ! D3    D(2,1,4,5)             -0.2097         calculate D2E/DX2 analytically  !
 ! D4    D(2,1,4,20)          -179.6778         calculate D2E/DX2 analytically  !
 ! D5    D(19,1,4,5)           179.4093         calculate D2E/DX2 analytically  !
 ! D6    D(19,1,4,20)           -0.0588         calculate D2E/DX2 analytically  !
 ! D7    D(1,2,3,6)              1.4292         calculate D2E/DX2 analytically  !
 ! D8    D(1,2,3,7)            178.5412         calculate D2E/DX2 analytically  !
 ! D9    D(2,3,6,5)             -0.8054         calculate D2E/DX2 analytically  !
 ! D10   D(2,3,6,9)            177.2646         calculate D2E/DX2 analytically  !
 ! D11   D(7,3,6,5)           -178.9029         calculate D2E/DX2 analytically  !
 ! D12   D(7,3,6,9)             -0.8329         calculate D2E/DX2 analytically  !
 ! D13   D(2,3,7,8)           -176.5187         calculate D2E/DX2 analytically  !
 ! D14   D(2,3,7,13)             7.2895         calculate D2E/DX2 analytically  !
 ! D15   D(6,3,7,8)              0.7114         calculate D2E/DX2 analytically  !
 ! D16   D(6,3,7,13)          -175.4803         calculate D2E/DX2 analytically  !
 ! D17   D(1,4,5,6)              0.7912         calculate D2E/DX2 analytically  !
 ! D18   D(1,4,5,21)          -178.333          calculate D2E/DX2 analytically  !
 ! D19   D(20,4,5,6)          -179.7488         calculate D2E/DX2 analytically  !
 ! D20   D(20,4,5,21)            1.127          calculate D2E/DX2 analytically  !
 ! D21   D(4,5,6,3)             -0.2906         calculate D2E/DX2 analytically  !
 ! D22   D(4,5,6,9)           -178.145          calculate D2E/DX2 analytically  !
 ! D23   D(21,5,6,3)           178.9813         calculate D2E/DX2 analytically  !
 ! D24   D(21,5,6,9)             1.1269         calculate D2E/DX2 analytically  !
 ! D25   D(4,5,21,32)          178.6577         calculate D2E/DX2 analytically  !
 ! D26   D(4,5,21,34)           -1.2253         calculate D2E/DX2 analytically  !
 ! D27   D(6,5,21,32)           -0.4689         calculate D2E/DX2 analytically  !
 ! D28   D(6,5,21,34)          179.6482         calculate D2E/DX2 analytically  !
 ! D29   D(3,6,9,8)              0.6318         calculate D2E/DX2 analytically  !
 ! D30   D(3,6,9,22)          -179.4097         calculate D2E/DX2 analytically  !
 ! D31   D(5,6,9,8)            178.8515         calculate D2E/DX2 analytically  !
 ! D32   D(5,6,9,22)            -1.19           calculate D2E/DX2 analytically  !
 ! D33   D(3,7,8,9)             -0.3517         calculate D2E/DX2 analytically  !
 ! D34   D(3,7,8,10)          -178.6382         calculate D2E/DX2 analytically  !
 ! D35   D(13,7,8,9)           176.7973         calculate D2E/DX2 analytically  !
 ! D36   D(13,7,8,10)           -1.4891         calculate D2E/DX2 analytically  !
 ! D37   D(3,7,13,12)          175.6453         calculate D2E/DX2 analytically  !
 ! D38   D(3,7,13,16)           -0.3632         calculate D2E/DX2 analytically  !
 ! D39   D(8,7,13,12)           -0.2326         calculate D2E/DX2 analytically  !
 ! D40   D(8,7,13,16)         -176.241          calculate D2E/DX2 analytically  !
 ! D41   D(7,8,9,6)             -0.1553         calculate D2E/DX2 analytically  !
 ! D42   D(7,8,9,22)           179.8867         calculate D2E/DX2 analytically  !
 ! D43   D(10,8,9,6)           178.3001         calculate D2E/DX2 analytically  !
 ! D44   D(10,8,9,22)           -1.6579         calculate D2E/DX2 analytically  !
 ! D45   D(7,8,10,11)            1.324          calculate D2E/DX2 analytically  !
 ! D46   D(7,8,10,23)          179.7528         calculate D2E/DX2 analytically  !
 ! D47   D(9,8,10,11)         -176.823          calculate D2E/DX2 analytically  !
 ! D48   D(9,8,10,23)            1.6057         calculate D2E/DX2 analytically  !
 ! D49   D(6,9,22,32)            0.4269         calculate D2E/DX2 analytically  !
 ! D50   D(6,9,22,33)         -179.3612         calculate D2E/DX2 analytically  !
 ! D51   D(8,9,22,32)         -179.6219         calculate D2E/DX2 analytically  !
 ! D52   D(8,9,22,33)            0.5899         calculate D2E/DX2 analytically  !
 ! D53   D(8,10,11,12)           0.5813         calculate D2E/DX2 analytically  !
 ! D54   D(8,10,11,24)         178.539          calculate D2E/DX2 analytically  !
 ! D55   D(23,10,11,12)       -177.5517         calculate D2E/DX2 analytically  !
 ! D56   D(23,10,11,24)          0.406          calculate D2E/DX2 analytically  !
 ! D57   D(8,10,23,33)          -0.7346         calculate D2E/DX2 analytically  !
 ! D58   D(8,10,23,37)         179.5263         calculate D2E/DX2 analytically  !
 ! D59   D(11,10,23,33)        177.3863         calculate D2E/DX2 analytically  !
 ! D60   D(11,10,23,37)         -2.3528         calculate D2E/DX2 analytically  !
 ! D61   D(10,11,12,13)         -2.239          calculate D2E/DX2 analytically  !
 ! D62   D(10,11,12,14)        175.3524         calculate D2E/DX2 analytically  !
 ! D63   D(24,11,12,13)        179.7418         calculate D2E/DX2 analytically  !
 ! D64   D(24,11,12,14)         -2.6668         calculate D2E/DX2 analytically  !
 ! D65   D(11,12,13,7)           2.0081         calculate D2E/DX2 analytically  !
 ! D66   D(11,12,13,16)        178.3251         calculate D2E/DX2 analytically  !
 ! D67   D(14,12,13,7)        -175.5683         calculate D2E/DX2 analytically  !
 ! D68   D(14,12,13,16)          0.7487         calculate D2E/DX2 analytically  !
 ! D69   D(11,12,14,15)       -175.1564         calculate D2E/DX2 analytically  !
 ! D70   D(11,12,14,25)          3.0908         calculate D2E/DX2 analytically  !
 ! D71   D(13,12,14,15)          2.5401         calculate D2E/DX2 analytically  !
 ! D72   D(13,12,14,25)       -179.2127         calculate D2E/DX2 analytically  !
 ! D73   D(7,13,16,17)         171.5782         calculate D2E/DX2 analytically  !
 ! D74   D(7,13,16,28)          -8.1783         calculate D2E/DX2 analytically  !
 ! D75   D(12,13,16,17)         -4.3576         calculate D2E/DX2 analytically  !
 ! D76   D(12,13,16,28)        175.8859         calculate D2E/DX2 analytically  !
 ! D77   D(12,14,15,17)         -2.1851         calculate D2E/DX2 analytically  !
 ! D78   D(12,14,15,27)        178.2297         calculate D2E/DX2 analytically  !
 ! D79   D(25,14,15,17)        179.6055         calculate D2E/DX2 analytically  !
 ! D80   D(25,14,15,27)          0.0203         calculate D2E/DX2 analytically  !
 ! D81   D(14,15,17,16)         -1.6608         calculate D2E/DX2 analytically  !
 ! D82   D(14,15,17,26)       -179.2439         calculate D2E/DX2 analytically  !
 ! D83   D(27,15,17,16)        177.9281         calculate D2E/DX2 analytically  !
 ! D84   D(27,15,17,26)          0.345          calculate D2E/DX2 analytically  !
 ! D85   D(13,16,17,15)          4.9431         calculate D2E/DX2 analytically  !
 ! D86   D(13,16,17,26)       -177.4623         calculate D2E/DX2 analytically  !
 ! D87   D(28,16,17,15)       -175.283          calculate D2E/DX2 analytically  !
 ! D88   D(28,16,17,26)          2.3116         calculate D2E/DX2 analytically  !
 ! D89   D(13,16,28,29)        -44.408          calculate D2E/DX2 analytically  !
 ! D90   D(13,16,28,31)        139.0443         calculate D2E/DX2 analytically  !
 ! D91   D(17,16,28,29)        135.8301         calculate D2E/DX2 analytically  !
 ! D92   D(17,16,28,31)        -40.7175         calculate D2E/DX2 analytically  !
 ! D93   D(5,21,32,22)          -0.2178         calculate D2E/DX2 analytically  !
 ! D94   D(5,21,32,35)         179.9654         calculate D2E/DX2 analytically  !
 ! D95   D(34,21,32,22)        179.6656         calculate D2E/DX2 analytically  !
 ! D96   D(34,21,32,35)         -0.1513         calculate D2E/DX2 analytically  !
 ! D97   D(9,22,32,21)           0.256          calculate D2E/DX2 analytically  !
 ! D98   D(9,22,32,35)        -179.9289         calculate D2E/DX2 analytically  !
 ! D99   D(33,22,32,21)        179.994          calculate D2E/DX2 analytically  !
 ! D100  D(33,22,32,35)         -0.1909         calculate D2E/DX2 analytically  !
 ! D101  D(9,22,33,23)           0.3629         calculate D2E/DX2 analytically  !
 ! D102  D(9,22,33,36)         179.9597         calculate D2E/DX2 analytically  !
 ! D103  D(32,22,33,23)       -179.3754         calculate D2E/DX2 analytically  !
 ! D104  D(32,22,33,36)          0.2214         calculate D2E/DX2 analytically  !
 ! D105  D(10,23,33,22)         -0.2638         calculate D2E/DX2 analytically  !
 ! D106  D(10,23,33,36)       -179.8636         calculate D2E/DX2 analytically  !
 ! D107  D(37,23,33,22)        179.4744         calculate D2E/DX2 analytically  !
 ! D108  D(37,23,33,36)         -0.1253         calculate D2E/DX2 analytically  !
 ! D109  D(16,28,29,18)       -173.8914         calculate D2E/DX2 analytically  !
 ! D110  D(16,28,29,30)         -5.8015         calculate D2E/DX2 analytically  !
 ! D111  D(31,28,29,18)          2.5638         calculate D2E/DX2 analytically  !
 ! D112  D(31,28,29,30)        170.6537         calculate D2E/DX2 analytically  !
 --------------------------------------------------------------------------------
 Trust Radius=3.00D-01 FncErr=1.00D-07 GrdErr=1.00D-06
 Number of steps in this run=    222 maximum allowed number of steps=    222.
 Search for a saddle point of order  1.
 GradGradGradGradGradGradGradGradGradGradGradGradGradGradGradGradGradGrad

                          Input orientation:                          
 ---------------------------------------------------------------------
 Center     Atomic      Atomic             Coordinates (Angstroms)
 Number     Number       Type             X           Y           Z
 ---------------------------------------------------------------------
      1          6           0        1.836480    3.279790   -0.135650
      2          6           0        0.608820    2.586520   -0.070570
      3          6           0        0.528100    1.224580   -0.054690
      4          6           0        3.055380    2.603670   -0.167000
      5          6           0        3.065210    1.180080   -0.128130
      6          6           0        1.807950    0.590390   -0.077730
      7          6           0       -0.486130    0.120920    0.027960
      8          6           0        0.268860   -1.066340    0.063870
      9          6           0        1.643540   -0.787630    0.002820
     10          6           0       -0.180120   -2.391190    0.115070
     11          6           0       -1.568230   -2.529960    0.102610
     12          6           0       -2.408400   -1.390780    0.029910
     13          6           0       -1.894190   -0.018040    0.012220
     14          6           0       -3.813730   -1.598510   -0.081100
     15          6           0       -4.676900   -0.551640   -0.254090
     16          6           0       -2.842970    1.063400   -0.100960
     17          6           0       -4.183160    0.769270   -0.279440
     18          1           0       -1.515480    4.150970    0.838790
     19          1           0        1.837230    4.364820   -0.155810
     20          1           0        3.980830    3.169120   -0.211790
     21          6           0        4.164940    0.243810   -0.115570
     22          6           0        2.663790   -1.710590    0.018240
     23          6           0        0.867150   -3.398940    0.136370
     24          1           0       -2.035220   -3.509770    0.114980
     25          1           0       -4.185210   -2.617250   -0.053910
     26          1           0       -4.881630    1.590090   -0.405080
     27          1           0       -5.740490   -0.728140   -0.365470
     28          6           0       -2.478340    2.488530   -0.043890
     29          6           0       -1.633460    3.074570    0.828810
     30          1           0       -1.199320    2.530130    1.656570
     31          1           0       -2.997980    3.124390   -0.757110
     32          6           0        3.979930   -1.128510   -0.048450
     33          6           0        2.207700   -3.085830    0.093750
     34          1           0        5.179200    0.627650   -0.158490
     35          1           0        4.853450   -1.772310   -0.043570
     36          1           0        2.934360   -3.891640    0.110910
     37          1           0        0.576880   -4.443560    0.183830
 ---------------------------------------------------------------------
                    Distance matrix (angstroms):
                    1          2          3          4          5
     1  C    0.000000
     2  C    1.411385   0.000000
     3  C    2.437684   1.364422   0.000000
     4  C    1.394216   2.448520   2.881258   0.000000
     5  C    2.432821   2.831120   2.538563   1.424154   0.000000
     6  C    2.690175   2.328626   1.428546   2.370094   1.389596
     7  C    3.924251   2.699594   1.501186   4.329475   3.709205
     8  C    4.624509   3.671108   2.308588   4.613780   3.592052
     9  C    4.074347   3.530003   2.301413   3.677370   2.431085
    10  C    6.024081   5.043261   3.688385   5.957907   4.831696
    11  C    6.738102   5.563084   4.303012   6.914088   5.940236
    12  C    6.313528   4.993258   3.933230   6.771063   6.049356
    13  C    4.981511   3.613260   2.723246   5.603903   5.104002
    14  C    7.464962   6.088804   5.178998   8.052973   7.419069
    15  C    7.557645   6.149843   5.503339   8.351750   7.934418
    16  C    5.177919   3.773019   3.375238   6.096501   5.909394
    17  C    6.523761   5.129239   4.738543   7.468208   7.261579
    18  H    3.597794   2.790536   3.679441   4.929352   5.544713
    19  H    1.085218   2.163009   3.403697   2.141416   3.413396
    20  H    2.148553   3.424882   3.965761   1.085448   2.191264
    21  C    3.826134   4.258674   3.767256   2.608200   1.444356
    22  C    5.060832   4.764026   3.630663   4.335954   2.922077
    23  C    6.754186   5.994605   4.639870   6.396226   5.086143
    24  H    7.819911   6.647566   5.386415   7.960394   6.933122
    25  H    8.428672   7.075466   6.080703   8.927314   8.184975
    26  H    6.932581   5.590153   5.433374   8.005008   7.962228
    27  H    8.574777   7.168520   6.573045   9.407852   9.013212
    28  C    4.387731   3.088830   3.261344   5.536287   5.696498
    29  C    3.607323   2.464731   2.979157   4.816493   5.155805
    30  H    3.604181   2.501112   2.759864   4.629610   4.816015
    31  H    4.876717   3.710748   4.066437   6.104306   6.398299
    32  C    4.902560   5.016604   4.177583   3.846819   2.484482
    33  C    6.380560   5.895674   4.628469   5.758208   4.356896
    34  H    4.267100   4.973256   4.690398   2.900920   2.185190
    35  H    5.885091   6.084161   5.262141   4.732599   3.452761
    36  H    7.259169   6.885320   5.656255   6.502379   5.079036
    37  H    7.831909   7.034754   5.673366   7.478602   6.157470
                    6          7          8          9         10
     6  C    0.000000
     7  C    2.344008   0.000000
     8  C    2.265746   1.407439   0.000000
     9  C    1.390129   2.315511   1.403977   0.000000
    10  C    3.588790   2.532178   1.399797   2.430996   0.000000
    11  C    4.600837   2.864206   2.349167   3.655289   1.395085
    12  C    4.659853   2.445478   2.697061   4.096674   2.444034
    13  C    3.752881   1.414988   2.404243   3.620482   2.929241
    14  C    6.032792   3.747166   4.119680   5.517822   3.724238
    15  C    6.587003   4.253756   4.982625   6.330060   4.872500
    16  C    4.674969   2.541571   3.774447   4.854467   4.367108
    17  C    5.997173   3.766017   4.827816   6.037718   5.115513
    18  H    4.956100   4.237725   5.568186   5.921826   6.716161
    19  H    3.775351   4.841741   5.657344   5.158529   7.055973
    20  H    3.374793   5.413200   5.638602   4.600527   6.952510
    21  C    2.382635   4.654907   4.114381   2.726782   5.086842
    22  C    2.456864   3.643696   2.480490   1.375864   2.925819
    23  C    4.104351   3.772603   2.409197   2.727555   1.453543
    24  H    5.623025   3.948311   3.358831   4.577762   2.166245
    25  H    6.797609   4.602985   4.717831   6.109423   4.015022
    26  H    6.771783   4.654719   5.814128   6.956851   6.182665
    27  H    7.668133   5.337039   6.034153   7.393448   5.823604
    28  C    4.687895   3.095099   4.493976   5.265482   5.396179
    29  C    4.340077   3.268299   4.620724   5.132015   5.700540
    30  H    3.976690   2.994212   4.198433   4.671646   5.256841
    31  H    5.475370   3.993314   5.376660   6.117606   6.254811
    32  C    2.770013   4.638168   3.713290   2.361683   4.350530
    33  C    3.701864   4.188591   2.799702   2.368178   2.486898
    34  H    3.372423   5.691002   5.199085   3.811815   6.157154
    35  H    3.854684   5.665735   4.639871   3.357867   5.073954
    36  H    4.625254   5.273260   3.884511   3.363447   3.457073
    37  H    5.188892   4.689218   3.393358   3.812657   2.188607
                   11         12         13         14         15
    11  C    0.000000
    12  C    1.417357   0.000000
    13  C    2.534593   1.465995   0.000000
    14  C    2.437954   1.424931   2.488218   0.000000
    15  C    3.702001   2.435345   2.845896   1.367818   0.000000
    16  C    3.818198   2.495792   1.443089   2.833467   2.448490
    17  C    4.227143   2.812701   2.438095   2.404620   1.410399
    18  H    6.721575   5.671207   4.266999   6.259766   5.770919
    19  H    7.694279   7.154495   5.758575   8.215853   8.161809
    20  H    7.960554   7.853239   6.687603   9.137972   9.423488
    21  C    6.372648   6.775090   6.066132   8.188682   8.878630
    22  C    4.311436   5.082276   4.862092   6.479251   7.436603
    23  C    2.585990   3.843601   4.367024   5.019908   6.244683
    24  H    1.085477   2.153281   3.496087   2.618102   3.983117
    25  H    2.623109   2.160627   3.465406   1.084697   2.132739
    26  H    5.311420   3.897649   3.418336   3.378246   2.156785
    27  H    4.568742   3.420269   3.929493   2.133264   1.083873
    28  C    5.102451   3.880642   2.574349   4.299831   3.757723
    29  C    5.651759   4.601970   3.209211   5.236334   4.856398
    30  H    5.306166   4.413778   3.111254   5.186550   5.024091
    31  H    5.895335   4.621013   3.418346   4.840271   4.072468
    32  C    5.724418   6.394192   5.978471   7.807887   8.678466
    33  C    3.816637   4.917891   5.122839   6.204862   7.344442
    34  H    7.454293   7.853740   7.104851   9.264695   9.926861
    35  H    6.467873   7.272237   6.972175   8.669004   9.610511
    36  H    4.703994   5.899656   6.191075   7.129659   8.319862
    37  H    2.875754   4.272593   5.071574   5.238507   6.552940
                   16         17         18         19         20
    16  C    0.000000
    17  C    1.383646   0.000000
    18  H    3.489763   4.450039   0.000000
    19  H    5.727709   7.013441   3.503659   0.000000
    20  H    7.142170   8.509676   5.681300   2.455169   0.000000
    21  C    7.055689   8.366226   6.960163   4.733136   2.932677
    22  C    6.167142   7.288281   7.245515   6.133849   5.059553
    23  C    5.808080   6.561441   7.948048   7.829585   7.277062
    24  H    4.648976   4.804102   7.712391   8.779428   8.994843
    25  H    3.918036   3.394022   7.330292   9.221142  10.009556
    26  H    2.127446   1.085077   4.408660   7.273537   9.004104
    27  H    3.416900   2.162155   6.565567   9.132581  10.474556
    28  C    1.472144   2.432643   2.114221   4.707137   6.497097
    29  C    2.524320   3.611592   1.082892   3.831437   5.710695
    30  H    2.818119   3.968887   1.842781   3.983898   5.543738
    31  H    2.168465   2.679442   2.408022   5.027871   7.000226
    32  C    7.166533   8.383971   7.672003   5.897403   4.300733
    33  C    6.539365   7.472895   8.172419   7.464028   6.508590
    34  H    8.034202   9.364212   7.630668   5.013503   2.810338
    35  H    8.202404   9.390186   8.742258   6.839192   5.020707
    36  H    7.614122   8.516780   9.220329   8.333305   7.145178
    37  H    6.488689   7.074334   8.869774   8.904572   8.348430
                   21         22         23         24         25
    21  C    0.000000
    22  C    2.468002   0.000000
    23  C    4.920215   2.468278   0.000000
    24  H    7.251517   5.032604   2.904564   0.000000
    25  H    8.826917   6.909127   5.116013   2.334004   0.000000
    26  H    9.150777   8.246639   7.630993   5.863539   4.279022
    27  H    9.956138   8.470204   7.144643   4.658039   2.466719
    28  C    7.012637   6.639124   6.774002   6.016743   5.383539
    29  C    6.521234   6.482371   6.974156   6.635096   6.299797
    30  H    6.094508   5.965857   6.460277   6.289326   6.191672
    31  H    7.747047   7.485575   7.634879   6.760143   5.905119
    32  C    1.386361   1.440656   3.857254   6.471409   8.299752
    33  C    3.867959   1.450864   1.377290   4.264100   6.411760
    34  H    1.085310   3.438879   5.907127   8.321111   9.911230
    35  H    2.131659   2.191402   4.309164   7.106172   9.078073
    36  H    4.320598   2.199722   2.125267   4.984232   7.234605
    37  H    5.910605   3.442635   1.085237   2.774846   5.105823
                   26         27         28         29         30
    26  H    0.000000
    27  H    2.472529   0.000000
    28  C    2.591034   4.592603   0.000000
    29  C    3.778462   5.723164   1.348655   0.000000
    30  H    4.323596   5.943668   2.128189   1.081702   0.000000
    31  H    2.454820   4.745180   1.087670   2.092735   3.068253
    32  C    9.276056   9.733826   7.402179   7.067221   6.566382
    33  C    8.507153   8.303211   7.283640   7.296941   6.751977
    34  H   10.109767  11.005482   7.881239   7.305786   6.899231
    35  H   10.305737  10.650140   8.479971   8.144525   7.618234
    36  H    9.560612   9.245955   8.368265   8.361127   7.792015
    37  H    8.157639   7.349506   7.578925   7.862816   7.345489
                   31         32         33         34         35
    31  H    0.000000
    32  C    8.202474   0.000000
    33  C    8.148000   2.644262   0.000000
    34  H    8.570783   2.129426   4.762706   0.000000
    35  H    9.280720   1.085145   2.957057   2.424691   0.000000
    36  H    9.228802   2.958631   1.085200   5.053302   2.863273
    37  H    8.422521   4.756497   2.123940   6.856800   5.047409
                   36         37
    36  H    0.000000
    37  H    2.422322   0.000000
 Stoichiometry    C24H13(2)
 Framework group  C1[X(C24H13)]
 Deg. of freedom   105
 Full point group                 C1      NOp   1
 Largest Abelian subgroup         C1      NOp   1
 Largest concise Abelian subgroup C1      NOp   1
                         Standard orientation:                         
 ---------------------------------------------------------------------
 Center     Atomic      Atomic             Coordinates (Angstroms)
 Number     Number       Type             X           Y           Z
 ---------------------------------------------------------------------
      1          6           0        1.836478    3.279792   -0.135650
      2          6           0        0.608819    2.586521   -0.070570
      3          6           0        0.528100    1.224581   -0.054690
      4          6           0        3.055379    2.603673   -0.167000
      5          6           0        3.065210    1.180083   -0.128130
      6          6           0        1.807950    0.590392   -0.077730
      7          6           0       -0.486130    0.120920    0.027960
      8          6           0        0.268861   -1.066339    0.063870
      9          6           0        1.643541   -0.787628    0.002820
     10          6           0       -0.180118   -2.391190    0.115070
     11          6           0       -1.568228   -2.529961    0.102610
     12          6           0       -2.408399   -1.390781    0.029910
     13          6           0       -1.894190   -0.018041    0.012220
     14          6           0       -3.813729   -1.598512   -0.081100
     15          6           0       -4.676899   -0.551643   -0.254090
     16          6           0       -2.842970    1.063399   -0.100960
     17          6           0       -4.183160    0.769268   -0.279440
     18          1           0       -1.515482    4.150969    0.838790
     19          1           0        1.837227    4.364822   -0.155810
     20          1           0        3.980828    3.169123   -0.211790
     21          6           0        4.164940    0.243813   -0.115570
     22          6           0        2.663792   -1.710588    0.018240
     23          6           0        0.867153   -3.398939    0.136370
     24          1           0       -2.035217   -3.509771    0.114980
     25          1           0       -4.185208   -2.617252   -0.053910
     26          1           0       -4.881631    1.590087   -0.405080
     27          1           0       -5.740489   -0.728143   -0.365470
     28          6           0       -2.478341    2.488529   -0.043890
     29          6           0       -1.633462    3.074569    0.828810
     30          1           0       -1.199321    2.530130    1.656570
     31          1           0       -2.997982    3.124389   -0.757110
     32          6           0        3.979931   -1.128507   -0.048450
     33          6           0        2.207702   -3.085828    0.093750
     34          1           0        5.179200    0.627654   -0.158490
     35          1           0        4.853452   -1.772306   -0.043570
     36          1           0        2.934363   -3.891638    0.110910
     37          1           0        0.576883   -4.443559    0.183830
 ---------------------------------------------------------------------
 Rotational constants (GHZ):      0.4187725      0.2430814      0.1553627
 Standard basis: 6-311+G(d,p) (5D, 7F)
 There are   630 symmetry adapted cartesian basis functions of A   symmetry.
 There are   606 symmetry adapted basis functions of A   symmetry.
   606 basis functions,   968 primitive gaussians,   630 cartesian basis functions
    79 alpha electrons       78 beta electrons
       nuclear repulsion energy      1818.2387128761 Hartrees.
 NAtoms=   37 NActive=   37 NUniq=   37 SFac= 1.00D+00 NAtFMM=   60 NAOKFM=F Big=F
 Integral buffers will be    131072 words long.
 Raffenetti 2 integral format.
 Two-electron integral symmetry is turned on.
 One-electron integrals computed using PRISM.
 NBasis=   606 RedAO= T EigKep=  1.40D-06  NBF=   606
 NBsUse=   590 1.00D-06 EigRej=  7.80D-07 NBFU=   590
 ExpMin= 4.38D-02 ExpMax= 4.56D+03 ExpMxC= 6.82D+02 IAcc=2 IRadAn=         4 AccDes= 0.00D+00
 Harris functional with IExCor=  402 and IRadAn=       4 diagonalized for initial guess.
 HarFok:  IExCor=  402 AccDes= 0.00D+00 IRadAn=         4 IDoV= 1 UseB2=F ITyADJ=14
 ICtDFT=  3500011 ScaDFX=  1.000000  1.000000  1.000000  1.000000
 FoFCou: FMM=F IPFlag=           0 FMFlag=      100000 FMFlg1=           0
         NFxFlg=           0 DoJE=T BraDBF=F KetDBF=T FulRan=T
         wScrn=  0.000000 ICntrl=     500 IOpCl=  0 I1Cent=   200000004 NGrid=           0
         NMat0=    1 NMatS0=      1 NMatT0=    0 NMatD0=    1 NMtDS0=    0 NMtDT0=    0
 Petite list used in FoFCou.
 Initial guess <Sx>= 0.0000 <Sy>= 0.0000 <Sz>= 0.5000 <S**2>= 0.7500 S= 0.5000
 Requested convergence on RMS density matrix=1.00D-08 within 128 cycles.
 Requested convergence on MAX density matrix=1.00D-06.
 Requested convergence on             energy=1.00D-06.
 No special actions if energy rises.
 Restarting incremental Fock formation.
 SCF Done:  E(UB3LYP) =  -922.510844097     A.U. after   25 cycles
            NFock= 25  Conv=0.63D-08     -V/T= 2.0044
 <Sx>= 0.0000 <Sy>= 0.0000 <Sz>= 0.5000 <S**2>= 0.7740 S= 0.5119
 <L.S>= 0.000000000000E+00
 Annihilation of the first spin contaminant:
 S**2 before annihilation     0.7740,   after     0.7503
 DoSCS=F DFT=T ScalE2(SS,OS)=  1.000000  1.000000
 Range of M.O.s used for correlation:     1   590
 NBasis=   606 NAE=    79 NBE=    78 NFC=     0 NFV=     0
 NROrb=    590 NOA=    79 NOB=    78 NVA=   511 NVB=   512

 **** Warning!!: The largest alpha MO coefficient is  0.13739227D+03


 **** Warning!!: The largest beta MO coefficient is  0.13896113D+03

 Symmetrizing basis deriv contribution to polar:
 IMax=3 JMax=2 DiffMx= 0.00D+00
 G2DrvN: will do    38 centers at a time, making    1 passes.
 Calling FoFCou, ICntrl=  3107 FMM=F I1Cent=   0 AccDes= 0.00D+00.
 End of G2Drv F.D. properties file   721 does not exist.
 End of G2Drv F.D. properties file   722 does not exist.
 End of G2Drv F.D. properties file   788 does not exist.
          IDoAtm=1111111111111111111111111111111111111
          Differentiating once with respect to nuclear coordinates.
          There are   114 degrees of freedom in the 1st order CPHF.  IDoFFX=6 NUNeed=     0.
    108 vectors produced by pass  0 Test12= 8.03D-14 1.00D-09 XBig12= 5.27D-01 1.29D-01.
 AX will form   108 AO Fock derivatives at one time.
    108 vectors produced by pass  1 Test12= 8.03D-14 1.00D-09 XBig12= 1.58D-01 5.97D-02.
    108 vectors produced by pass  2 Test12= 8.03D-14 1.00D-09 XBig12= 3.09D-03 5.58D-03.
    108 vectors produced by pass  3 Test12= 8.03D-14 1.00D-09 XBig12= 4.60D-05 1.30D-03.
    108 vectors produced by pass  4 Test12= 8.03D-14 1.00D-09 XBig12= 6.00D-07 8.11D-05.
    108 vectors produced by pass  5 Test12= 8.03D-14 1.00D-09 XBig12= 3.62D-09 3.47D-06.
    108 vectors produced by pass  6 Test12= 8.03D-14 1.00D-09 XBig12= 5.12D-11 3.87D-07.
    108 vectors produced by pass  7 Test12= 8.03D-14 1.00D-09 XBig12= 8.97D-12 1.49D-07.
    104 vectors produced by pass  8 Test12= 8.03D-14 1.00D-09 XBig12= 1.46D-12 7.31D-08.
     52 vectors produced by pass  9 Test12= 8.03D-14 1.00D-09 XBig12= 1.54D-14 7.31D-09.
     24 vectors produced by pass 10 Test12= 8.03D-14 1.00D-09 XBig12= 7.96D-16 1.52D-09.
     24 vectors produced by pass 11 Test12= 8.03D-14 1.00D-09 XBig12= 2.12D-13 2.50D-08.
     24 vectors produced by pass 12 Test12= 8.03D-14 1.00D-09 XBig12= 2.04D-12 7.01D-08.
     24 vectors produced by pass 13 Test12= 8.03D-14 1.00D-09 XBig12= 9.53D-13 6.26D-08.
     24 vectors produced by pass 14 Test12= 8.03D-14 1.00D-09 XBig12= 3.48D-13 3.82D-08.
     24 vectors produced by pass 15 Test12= 8.03D-14 1.00D-09 XBig12= 3.04D-13 2.44D-08.
     24 vectors produced by pass 16 Test12= 8.03D-14 1.00D-09 XBig12= 2.94D-13 2.68D-08.
     24 vectors produced by pass 17 Test12= 8.03D-14 1.00D-09 XBig12= 2.96D-13 2.60D-08.
     24 vectors produced by pass 18 Test12= 8.03D-14 1.00D-09 XBig12= 1.43D-13 2.20D-08.
     24 vectors produced by pass 19 Test12= 8.03D-14 1.00D-09 XBig12= 7.91D-14 1.21D-08.
     24 vectors produced by pass 20 Test12= 8.03D-14 1.00D-09 XBig12= 1.88D-13 1.75D-08.
     24 vectors produced by pass 21 Test12= 8.03D-14 1.00D-09 XBig12= 7.91D-14 1.30D-08.
     24 vectors produced by pass 22 Test12= 8.03D-14 1.00D-09 XBig12= 7.77D-14 1.42D-08.
     24 vectors produced by pass 23 Test12= 8.03D-14 1.00D-09 XBig12= 1.06D-13 1.67D-08.
     20 vectors produced by pass 24 Test12= 8.03D-14 1.00D-09 XBig12= 2.95D-14 7.71D-09.
     20 vectors produced by pass 25 Test12= 8.03D-14 1.00D-09 XBig12= 1.99D-13 1.88D-08.
     20 vectors produced by pass 26 Test12= 8.03D-14 1.00D-09 XBig12= 7.79D-14 1.14D-08.
     20 vectors produced by pass 27 Test12= 8.03D-14 1.00D-09 XBig12= 1.48D-13 1.57D-08.
     20 vectors produced by pass 28 Test12= 8.03D-14 1.00D-09 XBig12= 1.45D-13 1.59D-08.
     20 vectors produced by pass 29 Test12= 8.03D-14 1.00D-09 XBig12= 1.89D-13 1.98D-08.
     20 vectors produced by pass 30 Test12= 8.03D-14 1.00D-09 XBig12= 9.42D-14 1.31D-08.
     20 vectors produced by pass 31 Test12= 8.03D-14 1.00D-09 XBig12= 1.57D-13 1.58D-08.
     19 vectors produced by pass 32 Test12= 8.03D-14 1.00D-09 XBig12= 5.65D-14 1.17D-08.
     19 vectors produced by pass 33 Test12= 8.03D-14 1.00D-09 XBig12= 1.12D-13 1.48D-08.
     19 vectors produced by pass 34 Test12= 8.03D-14 1.00D-09 XBig12= 6.84D-14 1.02D-08.
     19 vectors produced by pass 35 Test12= 8.03D-14 1.00D-09 XBig12= 1.02D-13 1.45D-08.
     19 vectors produced by pass 36 Test12= 8.03D-14 1.00D-09 XBig12= 7.31D-14 1.11D-08.
     19 vectors produced by pass 37 Test12= 8.03D-14 1.00D-09 XBig12= 1.44D-13 1.49D-08.
     16 vectors produced by pass 38 Test12= 8.03D-14 1.00D-09 XBig12= 6.52D-14 1.15D-08.
     14 vectors produced by pass 39 Test12= 8.03D-14 1.00D-09 XBig12= 5.11D-14 9.42D-09.
     14 vectors produced by pass 40 Test12= 8.03D-14 1.00D-09 XBig12= 9.20D-14 1.20D-08.
     14 vectors produced by pass 41 Test12= 8.03D-14 1.00D-09 XBig12= 9.18D-14 1.24D-08.
     13 vectors produced by pass 42 Test12= 8.03D-14 1.00D-09 XBig12= 4.02D-14 8.43D-09.
     13 vectors produced by pass 43 Test12= 8.03D-14 1.00D-09 XBig12= 5.14D-14 8.73D-09.
     13 vectors produced by pass 44 Test12= 8.03D-14 1.00D-09 XBig12= 8.15D-14 1.32D-08.
     13 vectors produced by pass 45 Test12= 8.03D-14 1.00D-09 XBig12= 6.01D-14 1.01D-08.
     13 vectors produced by pass 46 Test12= 8.03D-14 1.00D-09 XBig12= 8.87D-14 1.18D-08.
     13 vectors produced by pass 47 Test12= 8.03D-14 1.00D-09 XBig12= 8.36D-14 1.20D-08.
     13 vectors produced by pass 48 Test12= 8.03D-14 1.00D-09 XBig12= 9.86D-14 1.23D-08.
     13 vectors produced by pass 49 Test12= 8.03D-14 1.00D-09 XBig12= 5.68D-14 9.19D-09.
     13 vectors produced by pass 50 Test12= 8.03D-14 1.00D-09 XBig12= 6.15D-14 1.06D-08.
     13 vectors produced by pass 51 Test12= 8.03D-14 1.00D-09 XBig12= 2.84D-14 6.34D-09.
     11 vectors produced by pass 52 Test12= 8.03D-14 1.00D-09 XBig12= 2.40D-14 6.05D-09.
     11 vectors produced by pass 53 Test12= 8.03D-14 1.00D-09 XBig12= 6.34D-14 1.12D-08.
     11 vectors produced by pass 54 Test12= 8.03D-14 1.00D-09 XBig12= 5.11D-14 8.39D-09.
     11 vectors produced by pass 55 Test12= 8.03D-14 1.00D-09 XBig12= 6.13D-14 9.13D-09.
     11 vectors produced by pass 56 Test12= 8.03D-14 1.00D-09 XBig12= 4.50D-14 8.32D-09.
     11 vectors produced by pass 57 Test12= 8.03D-14 1.00D-09 XBig12= 4.64D-14 8.61D-09.
     10 vectors produced by pass 58 Test12= 8.03D-14 1.00D-09 XBig12= 2.74D-14 5.97D-09.
     10 vectors produced by pass 59 Test12= 8.03D-14 1.00D-09 XBig12= 8.70D-14 1.13D-08.
     10 vectors produced by pass 60 Test12= 8.03D-14 1.00D-09 XBig12= 3.65D-14 6.56D-09.
     10 vectors produced by pass 61 Test12= 8.03D-14 1.00D-09 XBig12= 5.24D-14 1.04D-08.
     10 vectors produced by pass 62 Test12= 8.03D-14 1.00D-09 XBig12= 3.07D-14 6.91D-09.
     10 vectors produced by pass 63 Test12= 8.03D-14 1.00D-09 XBig12= 5.54D-14 8.05D-09.
      6 vectors produced by pass 64 Test12= 8.03D-14 1.00D-09 XBig12= 1.58D-14 6.09D-09.
      6 vectors produced by pass 65 Test12= 8.03D-14 1.00D-09 XBig12= 7.59D-14 9.48D-09.
      6 vectors produced by pass 66 Test12= 8.03D-14 1.00D-09 XBig12= 2.92D-14 6.10D-09.
      6 vectors produced by pass 67 Test12= 8.03D-14 1.00D-09 XBig12= 4.77D-14 8.60D-09.
      6 vectors produced by pass 68 Test12= 8.03D-14 1.00D-09 XBig12= 3.61D-14 8.19D-09.
      6 vectors produced by pass 69 Test12= 8.03D-14 1.00D-09 XBig12= 3.16D-14 8.28D-09.
      6 vectors produced by pass 70 Test12= 8.03D-14 1.00D-09 XBig12= 3.59D-14 6.95D-09.
      6 vectors produced by pass 71 Test12= 8.03D-14 1.00D-09 XBig12= 4.44D-14 7.82D-09.
      6 vectors produced by pass 72 Test12= 8.03D-14 1.00D-09 XBig12= 4.81D-14 8.68D-09.
      6 vectors produced by pass 73 Test12= 8.03D-14 1.00D-09 XBig12= 2.13D-14 4.99D-09.
      6 vectors produced by pass 74 Test12= 8.03D-14 1.00D-09 XBig12= 5.39D-14 8.41D-09.
      6 vectors produced by pass 75 Test12= 8.03D-14 1.00D-09 XBig12= 3.48D-14 6.71D-09.
      6 vectors produced by pass 76 Test12= 8.03D-14 1.00D-09 XBig12= 5.57D-14 8.72D-09.
      6 vectors produced by pass 77 Test12= 8.03D-14 1.00D-09 XBig12= 2.22D-14 6.15D-09.
      6 vectors produced by pass 78 Test12= 8.03D-14 1.00D-09 XBig12= 3.97D-14 7.06D-09.
      6 vectors produced by pass 79 Test12= 8.03D-14 1.00D-09 XBig12= 5.88D-14 7.93D-09.
      6 vectors produced by pass 80 Test12= 8.03D-14 1.00D-09 XBig12= 4.19D-14 7.80D-09.
      6 vectors produced by pass 81 Test12= 8.03D-14 1.00D-09 XBig12= 5.59D-14 8.81D-09.
      6 vectors produced by pass 82 Test12= 8.03D-14 1.00D-09 XBig12= 2.47D-14 5.68D-09.
      6 vectors produced by pass 83 Test12= 8.03D-14 1.00D-09 XBig12= 5.57D-14 7.91D-09.
      6 vectors produced by pass 84 Test12= 8.03D-14 1.00D-09 XBig12= 4.21D-14 7.19D-09.
      6 vectors produced by pass 85 Test12= 8.03D-14 1.00D-09 XBig12= 5.72D-14 9.39D-09.
      6 vectors produced by pass 86 Test12= 8.03D-14 1.00D-09 XBig12= 3.91D-14 6.58D-09.
      6 vectors produced by pass 87 Test12= 8.03D-14 1.00D-09 XBig12= 2.42D-14 5.84D-09.
      4 vectors produced by pass 88 Test12= 8.03D-14 1.00D-09 XBig12= 1.67D-14 4.80D-09.
      4 vectors produced by pass 89 Test12= 8.03D-14 1.00D-09 XBig12= 6.64D-14 9.18D-09.
      4 vectors produced by pass 90 Test12= 8.03D-14 1.00D-09 XBig12= 3.81D-14 6.54D-09.
      4 vectors produced by pass 91 Test12= 8.03D-14 1.00D-09 XBig12= 3.95D-14 7.86D-09.
      4 vectors produced by pass 92 Test12= 8.03D-14 1.00D-09 XBig12= 1.89D-14 4.61D-09.
      4 vectors produced by pass 93 Test12= 8.03D-14 1.00D-09 XBig12= 3.67D-14 7.57D-09.
      4 vectors produced by pass 94 Test12= 8.03D-14 1.00D-09 XBig12= 2.98D-14 6.49D-09.
      4 vectors produced by pass 95 Test12= 8.03D-14 1.00D-09 XBig12= 3.09D-14 7.14D-09.
      4 vectors produced by pass 96 Test12= 8.03D-14 1.00D-09 XBig12= 3.36D-14 7.78D-09.
      4 vectors produced by pass 97 Test12= 8.03D-14 1.00D-09 XBig12= 3.55D-14 6.90D-09.
      4 vectors produced by pass 98 Test12= 8.03D-14 1.00D-09 XBig12= 2.77D-14 5.70D-09.
      4 vectors produced by pass 99 Test12= 8.03D-14 1.00D-09 XBig12= 3.45D-14 7.77D-09.
      4 vectors produced by pass100 Test12= 8.03D-14 1.00D-09 XBig12= 2.51D-14 5.59D-09.
      4 vectors produced by pass101 Test12= 8.03D-14 1.00D-09 XBig12= 4.81D-14 8.17D-09.
      4 vectors produced by pass102 Test12= 8.03D-14 1.00D-09 XBig12= 3.75D-14 7.61D-09.
      4 vectors produced by pass103 Test12= 8.03D-14 1.00D-09 XBig12= 3.75D-14 6.69D-09.
      4 vectors produced by pass104 Test12= 8.03D-14 1.00D-09 XBig12= 2.76D-14 6.11D-09.
      4 vectors produced by pass105 Test12= 8.03D-14 1.00D-09 XBig12= 3.17D-14 6.19D-09.
      4 vectors produced by pass106 Test12= 8.03D-14 1.00D-09 XBig12= 3.09D-14 6.03D-09.
      4 vectors produced by pass107 Test12= 8.03D-14 1.00D-09 XBig12= 3.07D-14 6.15D-09.
      4 vectors produced by pass108 Test12= 8.03D-14 1.00D-09 XBig12= 2.87D-14 5.79D-09.
      4 vectors produced by pass109 Test12= 8.03D-14 1.00D-09 XBig12= 3.41D-14 6.24D-09.
      4 vectors produced by pass110 Test12= 8.03D-14 1.00D-09 XBig12= 3.89D-14 7.67D-09.
      4 vectors produced by pass111 Test12= 8.03D-14 1.00D-09 XBig12= 2.61D-14 6.74D-09.
      4 vectors produced by pass112 Test12= 8.03D-14 1.00D-09 XBig12= 3.04D-14 6.18D-09.
      4 vectors produced by pass113 Test12= 8.03D-14 1.00D-09 XBig12= 2.68D-14 6.73D-09.
      4 vectors produced by pass114 Test12= 8.03D-14 1.00D-09 XBig12= 3.17D-14 6.34D-09.
      4 vectors produced by pass115 Test12= 8.03D-14 1.00D-09 XBig12= 2.40D-14 5.49D-09.
      4 vectors produced by pass116 Test12= 8.03D-14 1.00D-09 XBig12= 5.00D-14 7.88D-09.
      3 vectors produced by pass117 Test12= 8.03D-14 1.00D-09 XBig12= 1.38D-14 3.99D-09.
      3 vectors produced by pass118 Test12= 8.03D-14 1.00D-09 XBig12= 4.75D-14 7.78D-09.
      3 vectors produced by pass119 Test12= 8.03D-14 1.00D-09 XBig12= 2.47D-14 5.68D-09.
      3 vectors produced by pass120 Test12= 8.03D-14 1.00D-09 XBig12= 2.05D-14 5.31D-09.
      3 vectors produced by pass121 Test12= 8.03D-14 1.00D-09 XBig12= 2.22D-14 5.18D-09.
      3 vectors produced by pass122 Test12= 8.03D-14 1.00D-09 XBig12= 1.17D-14 3.78D-09.
      3 vectors produced by pass123 Test12= 8.03D-14 1.00D-09 XBig12= 3.29D-14 6.01D-09.
      3 vectors produced by pass124 Test12= 8.03D-14 1.00D-09 XBig12= 2.78D-14 6.73D-09.
      3 vectors produced by pass125 Test12= 8.03D-14 1.00D-09 XBig12= 1.80D-14 4.76D-09.
      3 vectors produced by pass126 Test12= 8.03D-14 1.00D-09 XBig12= 4.82D-14 8.62D-09.
      3 vectors produced by pass127 Test12= 8.03D-14 1.00D-09 XBig12= 3.08D-14 5.88D-09.
      3 vectors produced by pass128 Test12= 8.03D-14 1.00D-09 XBig12= 2.73D-14 5.89D-09.
      3 vectors produced by pass129 Test12= 8.03D-14 1.00D-09 XBig12= 1.55D-14 4.45D-09.
      3 vectors produced by pass130 Test12= 8.03D-14 1.00D-09 XBig12= 1.95D-14 4.44D-09.
      3 vectors produced by pass131 Test12= 8.03D-14 1.00D-09 XBig12= 2.74D-14 6.50D-09.
      3 vectors produced by pass132 Test12= 8.03D-14 1.00D-09 XBig12= 1.91D-14 4.89D-09.
      3 vectors produced by pass133 Test12= 8.03D-14 1.00D-09 XBig12= 2.42D-14 5.35D-09.
      3 vectors produced by pass134 Test12= 8.03D-14 1.00D-09 XBig12= 1.56D-14 4.09D-09.
      3 vectors produced by pass135 Test12= 8.03D-14 1.00D-09 XBig12= 3.40D-14 6.96D-09.
      3 vectors produced by pass136 Test12= 8.03D-14 1.00D-09 XBig12= 2.15D-14 5.40D-09.
      3 vectors produced by pass137 Test12= 8.03D-14 1.00D-09 XBig12= 1.77D-14 4.28D-09.
      3 vectors produced by pass138 Test12= 8.03D-14 1.00D-09 XBig12= 2.76D-14 6.44D-09.
      3 vectors produced by pass139 Test12= 8.03D-14 1.00D-09 XBig12= 4.34D-14 7.90D-09.
      3 vectors produced by pass140 Test12= 8.03D-14 1.00D-09 XBig12= 3.18D-14 6.10D-09.
      3 vectors produced by pass141 Test12= 8.03D-14 1.00D-09 XBig12= 3.03D-14 5.94D-09.
      3 vectors produced by pass142 Test12= 8.03D-14 1.00D-09 XBig12= 3.73D-14 6.64D-09.
      3 vectors produced by pass143 Test12= 8.03D-14 1.00D-09 XBig12= 2.35D-14 5.61D-09.
      3 vectors produced by pass144 Test12= 8.03D-14 1.00D-09 XBig12= 2.21D-14 5.19D-09.
      3 vectors produced by pass145 Test12= 8.03D-14 1.00D-09 XBig12= 2.04D-14 6.42D-09.
      3 vectors produced by pass146 Test12= 8.03D-14 1.00D-09 XBig12= 2.78D-14 6.06D-09.
      3 vectors produced by pass147 Test12= 8.03D-14 1.00D-09 XBig12= 3.14D-14 6.78D-09.
      3 vectors produced by pass148 Test12= 8.03D-14 1.00D-09 XBig12= 1.47D-14 4.06D-09.
      3 vectors produced by pass149 Test12= 8.03D-14 1.00D-09 XBig12= 9.80D-15 3.48D-09.
      3 vectors produced by pass150 Test12= 8.03D-14 1.00D-09 XBig12= 2.65D-14 5.66D-09.
      3 vectors produced by pass151 Test12= 8.03D-14 1.00D-09 XBig12= 1.85D-14 4.69D-09.
      3 vectors produced by pass152 Test12= 8.03D-14 1.00D-09 XBig12= 2.84D-14 7.03D-09.
      3 vectors produced by pass153 Test12= 8.03D-14 1.00D-09 XBig12= 1.69D-14 4.46D-09.
      3 vectors produced by pass154 Test12= 8.03D-14 1.00D-09 XBig12= 1.98D-14 4.63D-09.
      3 vectors produced by pass155 Test12= 8.03D-14 1.00D-09 XBig12= 1.40D-14 3.95D-09.
      3 vectors produced by pass156 Test12= 8.03D-14 1.00D-09 XBig12= 2.81D-14 6.05D-09.
      3 vectors produced by pass157 Test12= 8.03D-14 1.00D-09 XBig12= 2.15D-14 5.76D-09.
      3 vectors produced by pass158 Test12= 8.03D-14 1.00D-09 XBig12= 1.87D-14 4.99D-09.
      3 vectors produced by pass159 Test12= 8.03D-14 1.00D-09 XBig12= 2.31D-14 5.43D-09.
      3 vectors produced by pass160 Test12= 8.03D-14 1.00D-09 XBig12= 1.97D-14 5.81D-09.
      3 vectors produced by pass161 Test12= 8.03D-14 1.00D-09 XBig12= 2.31D-14 5.42D-09.
      3 vectors produced by pass162 Test12= 8.03D-14 1.00D-09 XBig12= 1.66D-14 4.56D-09.
      3 vectors produced by pass163 Test12= 8.03D-14 1.00D-09 XBig12= 2.91D-14 5.40D-09.
      3 vectors produced by pass164 Test12= 8.03D-14 1.00D-09 XBig12= 1.37D-14 3.77D-09.
      3 vectors produced by pass165 Test12= 8.03D-14 1.00D-09 XBig12= 1.91D-14 4.89D-09.
      3 vectors produced by pass166 Test12= 8.03D-14 1.00D-09 XBig12= 1.45D-14 5.04D-09.
      3 vectors produced by pass167 Test12= 8.03D-14 1.00D-09 XBig12= 2.28D-14 4.89D-09.
      3 vectors produced by pass168 Test12= 8.03D-14 1.00D-09 XBig12= 1.69D-14 5.01D-09.
      3 vectors produced by pass169 Test12= 8.03D-14 1.00D-09 XBig12= 1.99D-14 5.89D-09.
      3 vectors produced by pass170 Test12= 8.03D-14 1.00D-09 XBig12= 2.22D-14 5.04D-09.
      3 vectors produced by pass171 Test12= 8.03D-14 1.00D-09 XBig12= 1.89D-14 4.71D-09.
      3 vectors produced by pass172 Test12= 8.03D-14 1.00D-09 XBig12= 2.69D-14 5.25D-09.
      3 vectors produced by pass173 Test12= 8.03D-14 1.00D-09 XBig12= 2.49D-14 5.42D-09.
      3 vectors produced by pass174 Test12= 8.03D-14 1.00D-09 XBig12= 2.70D-14 6.24D-09.
      3 vectors produced by pass175 Test12= 8.03D-14 1.00D-09 XBig12= 1.82D-14 5.37D-09.
      3 vectors produced by pass176 Test12= 8.03D-14 1.00D-09 XBig12= 1.55D-14 4.32D-09.
      3 vectors produced by pass177 Test12= 8.03D-14 1.00D-09 XBig12= 2.54D-14 5.56D-09.
      3 vectors produced by pass178 Test12= 8.03D-14 1.00D-09 XBig12= 3.62D-14 5.60D-09.
      3 vectors produced by pass179 Test12= 8.03D-14 1.00D-09 XBig12= 2.04D-14 4.58D-09.
      3 vectors produced by pass180 Test12= 8.03D-14 1.00D-09 XBig12= 1.71D-14 4.31D-09.
      3 vectors produced by pass181 Test12= 8.03D-14 1.00D-09 XBig12= 2.24D-14 4.79D-09.
      3 vectors produced by pass182 Test12= 8.03D-14 1.00D-09 XBig12= 2.44D-14 5.82D-09.
      3 vectors produced by pass183 Test12= 8.03D-14 1.00D-09 XBig12= 1.21D-14 4.38D-09.
      3 vectors produced by pass184 Test12= 8.03D-14 1.00D-09 XBig12= 2.95D-14 5.32D-09.
      3 vectors produced by pass185 Test12= 8.03D-14 1.00D-09 XBig12= 2.44D-14 5.79D-09.
      3 vectors produced by pass186 Test12= 8.03D-14 1.00D-09 XBig12= 2.37D-14 5.18D-09.
      3 vectors produced by pass187 Test12= 8.03D-14 1.00D-09 XBig12= 1.05D-14 3.26D-09.
      3 vectors produced by pass188 Test12= 8.03D-14 1.00D-09 XBig12= 2.02D-14 5.45D-09.
      3 vectors produced by pass189 Test12= 8.03D-14 1.00D-09 XBig12= 1.52D-14 4.17D-09.
      3 vectors produced by pass190 Test12= 8.03D-14 1.00D-09 XBig12= 2.49D-14 5.53D-09.
      3 vectors produced by pass191 Test12= 8.03D-14 1.00D-09 XBig12= 2.23D-14 5.40D-09.
      3 vectors produced by pass192 Test12= 8.03D-14 1.00D-09 XBig12= 1.53D-14 4.08D-09.
      3 vectors produced by pass193 Test12= 8.03D-14 1.00D-09 XBig12= 1.54D-14 4.08D-09.
      3 vectors produced by pass194 Test12= 8.03D-14 1.00D-09 XBig12= 1.80D-14 4.05D-09.
      3 vectors produced by pass195 Test12= 8.03D-14 1.00D-09 XBig12= 2.45D-14 5.41D-09.
      3 vectors produced by pass196 Test12= 8.03D-14 1.00D-09 XBig12= 1.61D-14 4.44D-09.
      3 vectors produced by pass197 Test12= 8.03D-14 1.00D-09 XBig12= 1.64D-14 4.36D-09.
      3 vectors produced by pass198 Test12= 8.03D-14 1.00D-09 XBig12= 2.09D-14 5.14D-09.
      3 vectors produced by pass199 Test12= 8.03D-14 1.00D-09 XBig12= 1.49D-14 3.93D-09.
      3 vectors produced by pass200 Test12= 8.03D-14 1.00D-09 XBig12= 7.99D-15 3.45D-09.
      3 vectors produced by pass201 Test12= 8.03D-14 1.00D-09 XBig12= 3.05D-14 5.57D-09.
      3 vectors produced by pass202 Test12= 8.03D-14 1.00D-09 XBig12= 2.13D-14 4.59D-09.
      3 vectors produced by pass203 Test12= 8.03D-14 1.00D-09 XBig12= 1.20D-14 3.94D-09.
      3 vectors produced by pass204 Test12= 8.03D-14 1.00D-09 XBig12= 1.97D-14 5.10D-09.
      3 vectors produced by pass205 Test12= 8.03D-14 1.00D-09 XBig12= 1.00D-14 3.43D-09.
      3 vectors produced by pass206 Test12= 8.03D-14 1.00D-09 XBig12= 2.66D-14 5.33D-09.
      3 vectors produced by pass207 Test12= 8.03D-14 1.00D-09 XBig12= 1.60D-14 4.50D-09.
      3 vectors produced by pass208 Test12= 8.03D-14 1.00D-09 XBig12= 2.08D-14 5.67D-09.
      3 vectors produced by pass209 Test12= 8.03D-14 1.00D-09 XBig12= 3.19D-14 6.23D-09.
      3 vectors produced by pass210 Test12= 8.03D-14 1.00D-09 XBig12= 2.35D-14 4.76D-09.
      3 vectors produced by pass211 Test12= 8.03D-14 1.00D-09 XBig12= 1.43D-14 3.92D-09.
      3 vectors produced by pass212 Test12= 8.03D-14 1.00D-09 XBig12= 1.08D-14 3.36D-09.
      3 vectors produced by pass213 Test12= 8.03D-14 1.00D-09 XBig12= 1.43D-14 3.75D-09.
      3 vectors produced by pass214 Test12= 8.03D-14 1.00D-09 XBig12= 1.54D-14 4.03D-09.
      3 vectors produced by pass215 Test12= 8.03D-14 1.00D-09 XBig12= 1.37D-14 3.93D-09.
      3 vectors produced by pass216 Test12= 8.03D-14 1.00D-09 XBig12= 1.56D-14 4.27D-09.
      3 vectors produced by pass217 Test12= 8.03D-14 1.00D-09 XBig12= 9.20D-15 3.15D-09.
      3 vectors produced by pass218 Test12= 8.03D-14 1.00D-09 XBig12= 3.58D-14 6.33D-09.
      3 vectors produced by pass219 Test12= 8.03D-14 1.00D-09 XBig12= 1.41D-14 3.57D-09.
      3 vectors produced by pass220 Test12= 8.03D-14 1.00D-09 XBig12= 1.44D-14 4.30D-09.
      3 vectors produced by pass221 Test12= 8.03D-14 1.00D-09 XBig12= 1.83D-14 4.75D-09.
      3 vectors produced by pass222 Test12= 8.03D-14 1.00D-09 XBig12= 1.14D-14 3.80D-09.
      3 vectors produced by pass223 Test12= 8.03D-14 1.00D-09 XBig12= 2.90D-14 5.32D-09.
      3 vectors produced by pass224 Test12= 8.03D-14 1.00D-09 XBig12= 1.37D-14 4.66D-09.
      3 vectors produced by pass225 Test12= 8.03D-14 1.00D-09 XBig12= 9.50D-15 3.28D-09.
      3 vectors produced by pass226 Test12= 8.03D-14 1.00D-09 XBig12= 1.62D-14 4.40D-09.
      3 vectors produced by pass227 Test12= 8.03D-14 1.00D-09 XBig12= 8.99D-15 3.16D-09.
      3 vectors produced by pass228 Test12= 8.03D-14 1.00D-09 XBig12= 1.71D-14 4.18D-09.
      3 vectors produced by pass229 Test12= 8.03D-14 1.00D-09 XBig12= 1.63D-14 4.21D-09.
      3 vectors produced by pass230 Test12= 8.03D-14 1.00D-09 XBig12= 2.87D-14 5.76D-09.
      3 vectors produced by pass231 Test12= 8.03D-14 1.00D-09 XBig12= 1.28D-14 4.08D-09.
      3 vectors produced by pass232 Test12= 8.03D-14 1.00D-09 XBig12= 1.93D-14 4.98D-09.
      3 vectors produced by pass233 Test12= 8.03D-14 1.00D-09 XBig12= 8.63D-15 3.28D-09.
      3 vectors produced by pass234 Test12= 8.03D-14 1.00D-09 XBig12= 1.40D-14 4.02D-09.
      3 vectors produced by pass235 Test12= 8.03D-14 1.00D-09 XBig12= 1.95D-14 4.67D-09.
      3 vectors produced by pass236 Test12= 8.03D-14 1.00D-09 XBig12= 1.42D-14 4.03D-09.
      3 vectors produced by pass237 Test12= 8.03D-14 1.00D-09 XBig12= 1.78D-14 4.73D-09.
      3 vectors produced by pass238 Test12= 8.03D-14 1.00D-09 XBig12= 1.14D-14 3.45D-09.
      3 vectors produced by pass239 Test12= 8.03D-14 1.00D-09 XBig12= 2.60D-14 5.12D-09.
      3 vectors produced by pass240 Test12= 8.03D-14 1.00D-09 XBig12= 1.20D-14 3.43D-09.
      3 vectors produced by pass241 Test12= 8.03D-14 1.00D-09 XBig12= 1.49D-14 4.31D-09.
      3 vectors produced by pass242 Test12= 8.03D-14 1.00D-09 XBig12= 1.36D-14 3.78D-09.
      3 vectors produced by pass243 Test12= 8.03D-14 1.00D-09 XBig12= 1.20D-14 3.49D-09.
      3 vectors produced by pass244 Test12= 8.03D-14 1.00D-09 XBig12= 2.25D-14 4.83D-09.
      3 vectors produced by pass245 Test12= 8.03D-14 1.00D-09 XBig12= 1.09D-14 3.85D-09.
      3 vectors produced by pass246 Test12= 8.03D-14 1.00D-09 XBig12= 1.80D-14 4.82D-09.
      3 vectors produced by pass247 Test12= 8.03D-14 1.00D-09 XBig12= 1.45D-14 3.82D-09.
      3 vectors produced by pass248 Test12= 8.03D-14 1.00D-09 XBig12= 1.54D-14 4.44D-09.
      3 vectors produced by pass249 Test12= 8.03D-14 1.00D-09 XBig12= 1.55D-14 4.43D-09.
      3 vectors produced by pass250 Test12= 8.03D-14 1.00D-09 XBig12= 7.72D-15 2.85D-09.
      3 vectors produced by pass251 Test12= 8.03D-14 1.00D-09 XBig12= 1.35D-14 4.37D-09.
      3 vectors produced by pass252 Test12= 8.03D-14 1.00D-09 XBig12= 2.00D-14 4.39D-09.
      3 vectors produced by pass253 Test12= 8.03D-14 1.00D-09 XBig12= 1.52D-14 5.30D-09.
      3 vectors produced by pass254 Test12= 8.03D-14 1.00D-09 XBig12= 1.46D-14 3.73D-09.
      3 vectors produced by pass255 Test12= 8.03D-14 1.00D-09 XBig12= 1.11D-14 3.28D-09.
      3 vectors produced by pass256 Test12= 8.03D-14 1.00D-09 XBig12= 9.47D-15 3.17D-09.
      3 vectors produced by pass257 Test12= 8.03D-14 1.00D-09 XBig12= 1.30D-14 4.14D-09.
      3 vectors produced by pass258 Test12= 8.03D-14 1.00D-09 XBig12= 1.55D-14 3.68D-09.
      2 vectors produced by pass259 Test12= 8.03D-14 1.00D-09 XBig12= 1.04D-14 3.93D-09.
 InvSVY:  IOpt=1 It=  1 EMax= 1.11D-15
 Solved reduced A of dimension  2632 with   114 vectors.
 End of Minotr F.D. properties file   721 does not exist.
 End of Minotr F.D. properties file   722 does not exist.
 End of Minotr F.D. properties file   788 does not exist.

 **********************************************************************

            Population analysis using the SCF density.

 **********************************************************************

 Orbital symmetries:
 Alpha Orbitals:
       Occupied  (A) (A) (A) (A) (A) (A) (A) (A) (A) (A) (A) (A)
                 (A) (A) (A) (A) (A) (A) (A) (A) (A) (A) (A) (A)
                 (A) (A) (A) (A) (A) (A) (A) (A) (A) (A) (A) (A)
                 (A) (A) (A) (A) (A) (A) (A) (A) (A) (A) (A) (A)
                 (A) (A) (A) (A) (A) (A) (A) (A) (A) (A) (A) (A)
                 (A) (A) (A) (A) (A) (A) (A) (A) (A) (A) (A) (A)
                 (A) (A) (A) (A) (A) (A) (A)
       Virtual   (A) (A) (A) (A) (A) (A) (A) (A) (A) (A) (A) (A)
                 (A) (A) (A) (A) (A) (A) (A) (A) (A) (A) (A) (A)
                 (A) (A) (A) (A) (A) (A) (A) (A) (A) (A) (A) (A)
                 (A) (A) (A) (A) (A) (A) (A) (A) (A) (A) (A) (A)
                 (A) (A) (A) (A) (A) (A) (A) (A) (A) (A) (A) (A)
                 (A) (A) (A) (A) (A) (A) (A) (A) (A) (A) (A) (A)
                 (A) (A) (A) (A) (A) (A) (A) (A) (A) (A) (A) (A)
                 (A) (A) (A) (A) (A) (A) (A) (A) (A) (A) (A) (A)
                 (A) (A) (A) (A) (A) (A) (A) (A) (A) (A) (A) (A)
                 (A) (A) (A) (A) (A) (A) (A) (A) (A) (A) (A) (A)
                 (A) (A) (A) (A) (A) (A) (A) (A) (A) (A) (A) (A)
                 (A) (A) (A) (A) (A) (A) (A) (A) (A) (A) (A) (A)
                 (A) (A) (A) (A) (A) (A) (A) (A) (A) (A) (A) (A)
                 (A) (A) (A) (A) (A) (A) (A) (A) (A) (A) (A) (A)
                 (A) (A) (A) (A) (A) (A) (A) (A) (A) (A) (A) (A)
                 (A) (A) (A) (A) (A) (A) (A) (A) (A) (A) (A) (A)
                 (A) (A) (A) (A) (A) (A) (A) (A) (A) (A) (A) (A)
                 (A) (A) (A) (A) (A) (A) (A) (A) (A) (A) (A) (A)
                 (A) (A) (A) (A) (A) (A) (A) (A) (A) (A) (A) (A)
                 (A) (A) (A) (A) (A) (A) (A) (A) (A) (A) (A) (A)
                 (A) (A) (A) (A) (A) (A) (A) (A) (A) (A) (A) (A)
                 (A) (A) (A) (A) (A) (A) (A) (A) (A) (A) (A) (A)
                 (A) (A) (A) (A) (A) (A) (A) (A) (A) (A) (A) (A)
                 (A) (A) (A) (A) (A) (A) (A) (A) (A) (A) (A) (A)
                 (A) (A) (A) (A) (A) (A) (A) (A) (A) (A) (A) (A)
                 (A) (A) (A) (A) (A) (A) (A) (A) (A) (A) (A) (A)
                 (A) (A) (A) (A) (A) (A) (A) (A) (A) (A) (A) (A)
                 (A) (A) (A) (A) (A) (A) (A) (A) (A) (A) (A) (A)
                 (A) (A) (A) (A) (A) (A) (A) (A) (A) (A) (A) (A)
                 (A) (A) (A) (A) (A) (A) (A) (A) (A) (A) (A) (A)
                 (A) (A) (A) (A) (A) (A) (A) (A) (A) (A) (A) (A)
                 (A) (A) (A) (A) (A) (A) (A) (A) (A) (A) (A) (A)
                 (A) (A) (A) (A) (A) (A) (A) (A) (A) (A) (A) (A)
                 (A) (A) (A) (A) (A) (A) (A) (A) (A) (A) (A) (A)
                 (A) (A) (A) (A) (A) (A) (A) (A) (A) (A) (A) (A)
                 (A) (A) (A) (A) (A) (A) (A) (A) (A) (A) (A) (A)
                 (A) (A) (A) (A) (A) (A) (A) (A) (A) (A) (A) (A)
                 (A) (A) (A) (A) (A) (A) (A) (A) (A) (A) (A) (A)
                 (A) (A) (A) (A) (A) (A) (A) (A) (A) (A) (A) (A)
                 (A) (A) (A) (A) (A) (A) (A) (A) (A) (A) (A) (A)
                 (A) (A) (A) (A) (A) (A) (A) (A) (A) (A) (A) (A)
                 (A) (A) (A) (A) (A) (A) (A) (A) (A) (A) (A) (A)
                 (A) (A) (A) (A) (A) (A) (A)
 Beta  Orbitals:
       Occupied  (A) (A) (A) (A) (A) (A) (A) (A) (A) (A) (A) (A)
                 (A) (A) (A) (A) (A) (A) (A) (A) (A) (A) (A) (A)
                 (A) (A) (A) (A) (A) (A) (A) (A) (A) (A) (A) (A)
                 (A) (A) (A) (A) (A) (A) (A) (A) (A) (A) (A) (A)
                 (A) (A) (A) (A) (A) (A) (A) (A) (A) (A) (A) (A)
                 (A) (A) (A) (A) (A) (A) (A) (A) (A) (A) (A) (A)
                 (A) (A) (A) (A) (A) (A)
       Virtual   (A) (A) (A) (A) (A) (A) (A) (A) (A) (A) (A) (A)
                 (A) (A) (A) (A) (A) (A) (A) (A) (A) (A) (A) (A)
                 (A) (A) (A) (A) (A) (A) (A) (A) (A) (A) (A) (A)
                 (A) (A) (A) (A) (A) (A) (A) (A) (A) (A) (A) (A)
                 (A) (A) (A) (A) (A) (A) (A) (A) (A) (A) (A) (A)
                 (A) (A) (A) (A) (A) (A) (A) (A) (A) (A) (A) (A)
                 (A) (A) (A) (A) (A) (A) (A) (A) (A) (A) (A) (A)
                 (A) (A) (A) (A) (A) (A) (A) (A) (A) (A) (A) (A)
                 (A) (A) (A) (A) (A) (A) (A) (A) (A) (A) (A) (A)
                 (A) (A) (A) (A) (A) (A) (A) (A) (A) (A) (A) (A)
                 (A) (A) (A) (A) (A) (A) (A) (A) (A) (A) (A) (A)
                 (A) (A) (A) (A) (A) (A) (A) (A) (A) (A) (A) (A)
                 (A) (A) (A) (A) (A) (A) (A) (A) (A) (A) (A) (A)
                 (A) (A) (A) (A) (A) (A) (A) (A) (A) (A) (A) (A)
                 (A) (A) (A) (A) (A) (A) (A) (A) (A) (A) (A) (A)
                 (A) (A) (A) (A) (A) (A) (A) (A) (A) (A) (A) (A)
                 (A) (A) (A) (A) (A) (A) (A) (A) (A) (A) (A) (A)
                 (A) (A) (A) (A) (A) (A) (A) (A) (A) (A) (A) (A)
                 (A) (A) (A) (A) (A) (A) (A) (A) (A) (A) (A) (A)
                 (A) (A) (A) (A) (A) (A) (A) (A) (A) (A) (A) (A)
                 (A) (A) (A) (A) (A) (A) (A) (A) (A) (A) (A) (A)
                 (A) (A) (A) (A) (A) (A) (A) (A) (A) (A) (A) (A)
                 (A) (A) (A) (A) (A) (A) (A) (A) (A) (A) (A) (A)
                 (A) (A) (A) (A) (A) (A) (A) (A) (A) (A) (A) (A)
                 (A) (A) (A) (A) (A) (A) (A) (A) (A) (A) (A) (A)
                 (A) (A) (A) (A) (A) (A) (A) (A) (A) (A) (A) (A)
                 (A) (A) (A) (A) (A) (A) (A) (A) (A) (A) (A) (A)
                 (A) (A) (A) (A) (A) (A) (A) (A) (A) (A) (A) (A)
                 (A) (A) (A) (A) (A) (A) (A) (A) (A) (A) (A) (A)
                 (A) (A) (A) (A) (A) (A) (A) (A) (A) (A) (A) (A)
                 (A) (A) (A) (A) (A) (A) (A) (A) (A) (A) (A) (A)
                 (A) (A) (A) (A) (A) (A) (A) (A) (A) (A) (A) (A)
                 (A) (A) (A) (A) (A) (A) (A) (A) (A) (A) (A) (A)
                 (A) (A) (A) (A) (A) (A) (A) (A) (A) (A) (A) (A)
                 (A) (A) (A) (A) (A) (A) (A) (A) (A) (A) (A) (A)
                 (A) (A) (A) (A) (A) (A) (A) (A) (A) (A) (A) (A)
                 (A) (A) (A) (A) (A) (A) (A) (A) (A) (A) (A) (A)
                 (A) (A) (A) (A) (A) (A) (A) (A) (A) (A) (A) (A)
                 (A) (A) (A) (A) (A) (A) (A) (A) (A) (A) (A) (A)
                 (A) (A) (A) (A) (A) (A) (A) (A) (A) (A) (A) (A)
                 (A) (A) (A) (A) (A) (A) (A) (A) (A) (A) (A) (A)
                 (A) (A) (A) (A) (A) (A) (A) (A) (A) (A) (A) (A)
                 (A) (A) (A) (A) (A) (A) (A) (A)
 The electronic state is 2-A.
 Alpha  occ. eigenvalues --  -10.20497 -10.20306 -10.19888 -10.19592 -10.19507
 Alpha  occ. eigenvalues --  -10.19505 -10.19293 -10.19231 -10.19213 -10.19179
 Alpha  occ. eigenvalues --  -10.19175 -10.19169 -10.19119 -10.19009 -10.18907
 Alpha  occ. eigenvalues --  -10.18807 -10.18661 -10.18468 -10.18456 -10.18121
 Alpha  occ. eigenvalues --  -10.17880 -10.17245 -10.17049 -10.16700  -0.92020
 Alpha  occ. eigenvalues --   -0.88158  -0.86094  -0.83964  -0.81992  -0.80600
 Alpha  occ. eigenvalues --   -0.79145  -0.76160  -0.75305  -0.73106  -0.72817
 Alpha  occ. eigenvalues --   -0.71446  -0.66126  -0.64892  -0.62893  -0.62675
 Alpha  occ. eigenvalues --   -0.60379  -0.59499  -0.56935  -0.55831  -0.52961
 Alpha  occ. eigenvalues --   -0.51933  -0.51326  -0.49633  -0.48838  -0.47952
 Alpha  occ. eigenvalues --   -0.46736  -0.45818  -0.44769  -0.44168  -0.43706
 Alpha  occ. eigenvalues --   -0.43291  -0.43093  -0.42074  -0.41393  -0.40726
 Alpha  occ. eigenvalues --   -0.39959  -0.39427  -0.38555  -0.37283  -0.37017
 Alpha  occ. eigenvalues --   -0.36836  -0.35003  -0.34580  -0.34024  -0.33657
 Alpha  occ. eigenvalues --   -0.32417  -0.30638  -0.29843  -0.27538  -0.26425
 Alpha  occ. eigenvalues --   -0.23285  -0.23032  -0.22434  -0.19838
 Alpha virt. eigenvalues --   -0.09518  -0.04975  -0.03791  -0.02383   0.00000
 Alpha virt. eigenvalues --    0.00135   0.00667   0.00764   0.01509   0.01694
 Alpha virt. eigenvalues --    0.01898   0.02354   0.03268   0.03329   0.03554
 Alpha virt. eigenvalues --    0.03847   0.04296   0.04915   0.05505   0.05600
 Alpha virt. eigenvalues --    0.05869   0.06386   0.06813   0.07352   0.08026
 Alpha virt. eigenvalues --    0.08046   0.08311   0.08491   0.09228   0.09531
 Alpha virt. eigenvalues --    0.10129   0.10371   0.10613   0.11146   0.11291
 Alpha virt. eigenvalues --    0.11469   0.12034   0.12687   0.12971   0.13629
 Alpha virt. eigenvalues --    0.13687   0.14142   0.14311   0.14787   0.15190
 Alpha virt. eigenvalues --    0.15258   0.15799   0.16309   0.16784   0.17175
 Alpha virt. eigenvalues --    0.17315   0.17364   0.17523   0.17746   0.17857
 Alpha virt. eigenvalues --    0.18150   0.18434   0.18527   0.18997   0.19021
 Alpha virt. eigenvalues --    0.19721   0.19829   0.20081   0.20365   0.20606
 Alpha virt. eigenvalues --    0.20856   0.21172   0.21513   0.21745   0.21812
 Alpha virt. eigenvalues --    0.21848   0.22285   0.22601   0.22851   0.23046
 Alpha virt. eigenvalues --    0.23494   0.23740   0.23832   0.24151   0.24557
 Alpha virt. eigenvalues --    0.24778   0.24979   0.25269   0.25366   0.25655
 Alpha virt. eigenvalues --    0.26317   0.26343   0.26639   0.27044   0.27479
 Alpha virt. eigenvalues --    0.28066   0.28239   0.28534   0.28880   0.29433
 Alpha virt. eigenvalues --    0.29644   0.29973   0.30314   0.30602   0.30752
 Alpha virt. eigenvalues --    0.31705   0.31950   0.32082   0.32660   0.32934
 Alpha virt. eigenvalues --    0.33566   0.33805   0.34099   0.34766   0.35352
 Alpha virt. eigenvalues --    0.36019   0.36634   0.37423   0.38032   0.38734
 Alpha virt. eigenvalues --    0.39369   0.39842   0.40983   0.41111   0.41664
 Alpha virt. eigenvalues --    0.42078   0.43338   0.43750   0.45214   0.45867
 Alpha virt. eigenvalues --    0.46457   0.47730   0.48440   0.49297   0.50061
 Alpha virt. eigenvalues --    0.50895   0.51259   0.52036   0.52617   0.52865
 Alpha virt. eigenvalues --    0.53491   0.53673   0.54248   0.54995   0.55068
 Alpha virt. eigenvalues --    0.55387   0.56122   0.56584   0.57292   0.57860
 Alpha virt. eigenvalues --    0.58047   0.58161   0.58702   0.59227   0.59794
 Alpha virt. eigenvalues --    0.60187   0.60782   0.61646   0.61951   0.62374
 Alpha virt. eigenvalues --    0.62678   0.63295   0.63784   0.64232   0.64705
 Alpha virt. eigenvalues --    0.65532   0.65835   0.65893   0.66036   0.66683
 Alpha virt. eigenvalues --    0.66722   0.67222   0.67697   0.68126   0.68864
 Alpha virt. eigenvalues --    0.69286   0.69669   0.70394   0.70759   0.71141
 Alpha virt. eigenvalues --    0.71748   0.71912   0.72278   0.73018   0.73299
 Alpha virt. eigenvalues --    0.73774   0.74077   0.74327   0.75007   0.75454
 Alpha virt. eigenvalues --    0.75683   0.76101   0.76626   0.77147   0.77977
 Alpha virt. eigenvalues --    0.79113   0.79408   0.80809   0.81665   0.83054
 Alpha virt. eigenvalues --    0.83363   0.83599   0.84580   0.85120   0.86532
 Alpha virt. eigenvalues --    0.86884   0.87535   0.88753   0.89456   0.89970
[...]
 .00357962,-0.00021488,0.00331110,-0.00540956,0.00012807,-0.00365938,0.
 00184508,0.00020559,0.00525340,-0.00567274,0.00016631,-0.02105458,-0.0
 0723490,0.00101754,0.03568806,0.01812309,-0.00212434,-0.05529862,0.025
 54386,-0.00040517,0.01869979,-0.00120169,0.00046591,-0.00682041,0.0090
 8314,-0.00069485,-0.00735942,-0.00304040,0.00002848,0.00497696,-0.0005
 7583,0.00051520,-0.00067014,0.00452205,-0.00024536,0.00248852,-0.00167
 312,0.00012262,-0.00281496,-0.00223697,-0.00016981,0.00003322,0.000043
 69,0.00001890,0.00008005,0.00001581,0.00008553,-0.00002642,0.00005214,
 -0.00002536,-0.00688052,0.00914665,-0.00004120,-0.11709011,-0.01111029
 ,0.00245245,-0.36235155,-0.07627680,0.01026512,0.00002504,-0.00036832,
 0.00005999,0.00001041,-0.00010793,-0.00003589,-0.00008733,-0.00001619,
 0.00000227,-0.00008352,0.00010190,-0.00003641,-0.00008086,-0.00013607,
 0.00006721,-0.00011625,0.00017469,-0.00001527,-0.00009895,-0.00002261,
 0.00005638,-0.00000093,0.00008845,-0.00000568,-0.00950990,-0.03817757,
 0.00204446,0.70577686,0.00170120,-0.00051211,0.00004375,-0.00029002,-0
 .00099352,-0.00027635,-0.00061685,-0.00143424,0.00023747,-0.00132352,0
 .00233708,-0.00021488,0.00563123,-0.00522559,0.00002290,0.00303700,-0.
 00230825,0.00047564,0.00694405,-0.00427149,0.00039197,-0.01722769,-0.0
 0280581,0.00053959,0.02646519,-0.04705974,0.00166336,0.00279097,0.0278
 9332,-0.00129151,0.01475142,-0.00882516,0.00049941,-0.00427256,0.00866
 764,-0.00050601,-0.00791314,-0.00259905,-0.00021442,0.00456582,-0.0014
 0529,0.00048034,-0.00075134,0.00417545,-0.00027957,0.00305678,-0.00191
 090,0.00040954,-0.00275005,-0.00271995,-0.00006217,0.00005587,0.000010
 48,-0.00001326,0.00001856,0.00002988,0.00009755,-0.00002244,0.00002649
 ,-0.00002444,-0.00100109,0.01301571,-0.00034548,-0.03567070,-0.2253098
 2,0.00882580,-0.03079310,-0.13570687,0.00365813,0.00034802,-0.00012562
 ,0.00006050,-0.00003011,-0.00007215,-0.00002812,-0.00006699,-0.0000340
 1,-0.00002159,0.00001595,0.00003261,-0.00001891,0.00018061,0.00024068,
 0.00007150,-0.00031556,-0.00005245,-0.00002457,-0.00002210,-0.00000185
 ,0.00001974,0.00004034,0.00003053,-0.00006009,-0.01694804,-0.01473473,
 0.00105776,-0.05525428,0.61473879,-0.00005734,0.00000424,0.00023779,-0
 .00002135,0.00010560,-0.00034447,0.00002923,0.00007000,-0.00057334,0.0
 0007768,-0.00015663,-0.00064010,-0.00031456,0.00025731,-0.00117886,0.0
 0016624,0.00033427,0.00726875,-0.00054924,0.00030611,-0.00063693,0.001
 37881,0.00006320,-0.00204968,-0.00218372,0.00212416,0.00549728,0.00098
 900,-0.00139736,0.00408501,-0.00113277,0.00049922,0.00380543,0.0003342
 0,-0.00060519,0.00031529,0.00057120,0.00018115,-0.00001402,-0.00025261
 ,0.00004399,-0.00059705,0.00004410,-0.00027916,0.00016579,-0.00025682,
 0.00015110,0.00023468,0.00023537,0.00018209,-0.00009603,0.00001398,-0.
 00001025,-0.00000516,-0.00000315,-0.00000199,-0.00004303,0.00000954,-0
 .00000433,0.00005285,0.00041101,-0.00055133,0.00463295,0.00361842,0.00
 795782,-0.06087587,0.00846645,0.00486253,-0.05870848,0.00000406,0.0000
 1961,-0.00017534,-0.00000015,0.00000657,0.00000352,0.00001221,0.000002
 51,-0.00002892,-0.00000361,-0.00000162,0.00005499,-0.00000415,0.000018
 30,-0.00000054,-0.00005833,-0.00003251,-0.00002250,-0.00000707,-0.0000
 0201,0.00000629,0.00000215,-0.00000425,0.00000100,0.00092393,0.0017442
 4,-0.00006523,-0.01141095,-0.02043177,0.13289636,-0.00008967,0.0002789
 7,-0.00001445,0.00019998,-0.00005710,-0.00000920,-0.00023954,-0.000889
 56,0.00003955,0.00120194,-0.00100515,-0.00008751,-0.01789894,-0.010593
 12,0.00093094,-0.00232799,0.00432321,0.00003787,-0.00042176,0.00009489
 ,0.00001572,-0.00019581,-0.00015648,0.00001539,0.00053593,0.00060593,-
 0.00009429,-0.00001340,0.00008548,-0.00000253,-0.00002196,-0.00000716,
 0.00000318,-0.00003120,-0.00003540,0.,0.00008266,-0.00011513,0.0000022
 7,-0.00001038,-0.00001135,-0.00000114,0.00001076,-0.00001639,-0.000000
 99,-0.00004366,0.00001384,-0.00000311,0.00001580,0.00002814,-0.0000003
 9,0.00000190,0.00000427,-0.00000241,-0.00003220,0.00004289,0.00000647,
 0.00000617,0.00098464,-0.00000491,-0.29881110,-0.09102180,0.01083834,0
 .00167616,-0.00010602,0.00018232,0.00008465,-0.00013932,-0.00000528,-0
 .00000848,-0.00000664,-0.00000115,-0.00000417,-0.00000624,-0.00000050,
 -0.00000294,0.00000464,0.00000290,-0.00000794,-0.00000202,-0.00000071,
 0.00002835,0.00004169,0.00004750,-0.00010369,-0.00001623,-0.00000476,0
 .00001119,0.00000258,-0.00002001,0.00000355,0.00000150,-0.00000841,-0.
 00098772,0.00086296,0.00006695,-0.00013429,0.00013271,0.00000711,0.316
 53151,-0.00043791,0.00000168,0.00001184,0.00012958,0.00038144,-0.00001
 241,0.00073060,0.00044152,-0.00000528,-0.00006209,0.00137849,-0.000154
 28,0.01884945,0.01090710,-0.00082556,0.00323667,-0.00258239,0.00021620
 ,0.00024372,-0.00010081,-0.00000348,0.00013904,0.00016105,-0.00003303,
 0.00043530,-0.00077257,-0.00002971,0.00008916,-0.00013781,0.00001124,0
 .00003074,0.00003991,-0.00000052,0.00001480,0.00000530,0.00000698,-0.0
 0001604,0.00009245,-0.00001423,0.00001310,0.00002001,0.00000469,-0.000
 00738,0.00001334,-0.00000133,-0.00000145,-0.00000764,-0.00001112,-0.00
 001408,0.00000056,-0.00000255,0.00000515,-0.00000193,-0.00000011,-0.00
 001518,-0.00000552,0.00000524,-0.00059982,-0.00025781,0.00004638,-0.08
 872069,-0.09107780,0.00469253,0.00039867,-0.00555246,0.00061785,-0.000
 10433,-0.00050363,0.00000642,0.00000282,-0.00000369,-0.00000093,0.0000
 0362,-0.00000182,-0.00000108,-0.00000137,0.00000215,0.00000037,-0.0000
 0320,0.00000069,-0.00000040,-0.00001381,-0.00002154,-0.00000214,0.0000
 2941,0.00000237,-0.00000131,-0.00000077,-0.00000295,0.00000358,-0.0000
 0093,0.00000237,0.00000054,-0.03008623,-0.00803606,0.00131752,-0.00127
 613,0.00051361,0.00005253,0.09695814,0.09433784,-0.00004835,-0.0000047
 5,-0.00014338,0.00002224,0.00001234,0.00005321,-0.00003185,-0.00004012
 ,0.00059299,-0.00003499,-0.00013798,-0.00231744,-0.00064392,0.00006755
 ,0.00253275,0.00009665,0.00033484,0.00401225,0.00003228,0.00005701,0.0
 0031620,0.00002046,-0.00002356,-0.00056354,-0.00007135,-0.00013714,-0.
 00102788,0.00001638,-0.00001182,0.00014888,-0.00000275,-0.00000269,0.0
 0001257,0.00002003,0.00002221,-0.00001980,-0.00001674,-0.00004921,-0.0
 0030803,-0.00003365,0.00000354,0.00005835,0.00000605,-0.00002294,-0.00
 000036,-0.00000650,-0.00002550,0.00000276,0.00001251,0.00001623,0.0000
 1770,-0.00000922,0.00000071,0.00000462,0.00000644,0.00000126,0.0001079
 4,0.00004040,0.00000007,0.00029947,0.01080538,0.00447748,-0.03503668,0
 .00013969,0.00059485,0.00856052,-0.00003508,-0.00000577,-0.00047227,0.
 00000113,0.00000054,-0.00000374,-0.00000108,0.00000007,-0.00000395,-0.
 00000035,0.00000029,0.00000210,0.00000073,-0.00000120,-0.00000617,0.00
 001820,0.00002157,-0.00002355,0.00001898,0.00001752,0.00001912,0.00000
 568,0.00000230,-0.00000214,0.00000128,0.00000134,-0.00000313,0.0015520
 7,0.00065417,0.00355629,0.00008819,0.00003306,0.00044138,-0.01178592,-
 0.00559565,0.02469050,0.00021574,-0.00001302,-0.00002566,-0.00007631,-
 0.00015776,0.00001190,-0.00017016,0.00017557,-0.00002817,0.00019014,0.
 00006345,0.00001532,0.00103563,-0.00181686,0.00028322,0.00023454,-0.00
 085653,0.00002987,-0.00052581,-0.00017996,0.00003624,-0.00001914,0.001
 46743,-0.00007696,-0.00473731,-0.00378738,0.00050534,0.00012164,0.0000
 1661,0.00001194,0.00000683,-0.00006190,-0.00000101,-0.00002399,-0.0000
 2015,0.00000894,0.00007270,0.00016814,-0.00001151,0.00002474,0.0000150
 7,0.00000065,-0.00003539,-0.00000258,-0.00000379,-0.00007367,-0.000025
 18,-0.00000896,-0.00000054,0.00002226,-0.00000316,-0.00000076,0.000005
 51,0.00000024,0.00002452,-0.00001202,-0.00000568,0.00000497,0.00001450
 ,0.00000387,0.00609681,-0.00472860,0.00014574,-0.01747787,0.01884328,-
 0.00034824,-0.00015054,-0.00028092,0.00000366,-0.00003591,-0.00001610,
 -0.00000156,-0.00000583,-0.00000875,-0.00000042,-0.00001169,0.00000466
 ,-0.00000138,-0.00000686,0.00000016,-0.00000008,-0.00001145,-0.0000259
 0,0.00001659,-0.00000673,0.00001407,0.00000152,0.00000366,-0.00000513,
 -0.00000924,-0.00000154,0.00000886,-0.00000222,-0.23734994,0.13198915,
 -0.00033554,0.00146526,0.00100934,-0.00015344,0.00100790,0.00018192,-0
 .00018765,0.25041212,0.00015468,-0.00052106,-0.00002305,-0.00025138,-0
 .00014678,0.00002744,-0.00001252,0.00018576,-0.00002571,0.00132432,0.0
 0020857,-0.00000036,-0.00251841,-0.00460250,0.00067232,-0.00054858,-0.
 00045204,-0.00003182,-0.00013122,-0.00015738,0.00002465,-0.00048923,0.
 00062827,0.00000901,-0.00295359,-0.00048382,0.00035112,-0.00001420,0.0
 0019786,-0.00000731,0.00006323,-0.00003409,0.00000042,-0.00002311,0.00
 004704,-0.00000698,-0.00005256,0.00008486,-0.00001519,0.00002495,-0.00
 000539,0.00000306,-0.00001377,0.00001900,-0.00000033,0.00001011,-0.000
 02358,0.00000462,-0.00001535,-0.00001200,0.00000138,-0.00000921,0.0000
 0176,0.00000367,0.00012830,-0.00007041,-0.00001438,-0.00003781,-0.0000
 4454,0.00000980,0.02629597,-0.01539574,0.00013876,-0.01053204,0.010911
 58,-0.00012490,0.00029003,-0.00002268,-0.00001474,-0.00000537,0.000000
 40,0.00000118,-0.00000078,0.00000299,0.00000054,-0.00000264,-0.0000031
 4,-0.00000248,0.00000496,0.00000161,0.00000022,-0.00000852,-0.00002464
 ,-0.00002819,0.00004962,0.00001827,0.00000558,-0.00000854,-0.00000162,
 0.00000802,-0.00000283,0.00000161,0.00000477,0.12966715,-0.15289506,0.
 00179949,0.00025182,0.00115606,-0.00017482,-0.00024682,0.00083840,-0.0
 0026675,-0.14097464,0.16075901,-0.00001045,0.00000669,-0.00059462,-0.0
 0002998,-0.00000246,0.00016752,-0.00003997,-0.00001074,-0.00056647,-0.
 00008639,0.00005469,0.00048854,0.00033035,0.00058843,0.00864825,0.0000
 3253,-0.00002930,-0.00083537,0.00001295,0.00001372,0.00002816,0.000052
 42,-0.00003531,0.00053450,0.00037093,0.00043490,0.00448558,-0.00001450
 ,-0.00001667,-0.00009071,0.00000829,0.00000329,0.00002723,-0.00000346,
 -0.00000284,-0.00000934,0.00000102,0.00000153,-0.00009455,0.00000620,-
 0.00000093,-0.00000235,0.00000327,0.00000758,-0.00000772,-0.00000399,0
 .00000204,-0.00002602,-0.00001069,-0.00000225,0.00000561,-0.00000438,-
 0.00000044,0.00000136,-0.00000796,0.00000218,-0.00007439,0.00000676,0.
 00000643,0.00016950,-0.00134190,0.00102355,0.00302896,0.00119834,-0.00
 099447,0.00226046,-0.00001013,0.00000535,-0.00011245,0.00000088,0.0000
 0060,0.00001208,0.00000037,0.00000006,0.00000325,-0.00000121,0.0000005
 8,0.00000681,-0.00000071,0.00000040,0.00000277,-0.00000563,-0.00001611
 ,-0.00000874,0.00004622,0.00000608,-0.00000266,0.00000488,-0.00000584,
 0.00000505,-0.00000664,0.00000069,0.00000485,-0.00029518,0.00169633,-0
 .03440718,-0.00012852,-0.00017836,-0.00209169,-0.00015043,-0.00029995,
 -0.00553002,0.00007761,-0.00233447,0.02429042,0.00002672,-0.00001591,-
 0.00000027,0.00000952,0.00000147,-0.00001099,-0.00009500,-0.00011914,0
 .00001453,-0.00002518,0.00004345,-0.00000172,0.00019717,0.00001093,-0.
 00000287,0.00048148,-0.00043071,0.00002527,0.00019856,-0.00000943,0.00
 000131,-0.00025672,-0.00043830,-0.00001647,0.00001164,-0.00253213,0.00
 024965,-0.00403041,-0.00313612,0.00044184,-0.00002287,0.00136473,-0.00
 000962,-0.00049757,-0.00009314,-0.00004777,-0.00011465,-0.00005977,0.0
 0000006,0.00008287,0.00015006,-0.00000139,-0.00009336,0.00007245,-0.00
 001102,0.00007630,-0.00004034,0.00000122,-0.00006691,-0.00005699,-0.00
 000516,0.00000253,0.00000430,0.00000093,0.00000067,0.00000776,0.000000
 74,0.00000357,-0.00000229,0.00000041,-0.00005298,0.00029420,-0.0000168
 2,0.00987420,-0.00786005,0.00013764,-0.01750014,0.02407216,-0.00051725
 ,-0.00003249,-0.00004847,0.00001253,0.00000307,-0.00001324,0.00000022,
 -0.00000742,0.00000666,-0.00000229,-0.00001800,0.00001519,-0.00000325,
 -0.00002187,-0.00002788,0.00000554,0.00002204,0.00001565,0.00000401,-0
 .00000190,-0.00000442,-0.00000391,-0.00000093,0.00001050,-0.00000227,0
 .00106062,0.00022717,-0.00009316,-0.17940998,0.13535610,-0.00239867,0.
 00000399,0.00002534,0.00000108,-0.00015268,0.00056302,-0.00000276,0.18
 948361,-0.00002414,-0.00005274,-0.00000150,0.00005195,0.00004341,-0.00
 000123,-0.00002705,-0.00053798,0.00003523,-0.00005834,0.00001729,-0.00
 000054,-0.00003611,0.00011378,0.00000865,0.00150960,-0.00000757,-0.000
 03969,0.00023291,-0.00010833,-0.00002737,-0.00087409,0.00014653,0.0000
 0882,-0.00340180,-0.00524678,0.00056061,-0.00237636,0.00041201,0.00042
 259,0.00007862,0.00036174,0.00001375,-0.00013405,0.00011173,-0.0000664
 7,-0.00017799,-0.00004413,0.00001394,0.00005094,0.00002984,0.00000243,
 -0.00000272,0.00007497,0.00000662,0.00009279,-0.00003240,0.00000224,-0
 .00006216,-0.00002706,-0.00000871,-0.00000403,-0.00000025,0.00000348,-
 0.00000321,-0.00000697,0.00000057,-0.00001386,-0.00003588,0.00000280,-
 0.00025345,-0.00017569,0.00000137,0.02142709,-0.01610885,0.00023149,-0
 .00706694,0.00804159,-0.00000163,0.00001416,-0.00000123,0.00001442,0.0
 0000664,0.00000373,-0.00000052,0.00000119,-0.00000336,-0.00000287,0.00
 000057,0.00000581,-0.00000077,-0.00003097,-0.00004648,-0.00004501,0.00
 010253,0.00002078,0.00000907,-0.00001552,-0.00000210,0.00001617,-0.000
 00485,0.00000196,0.00000755,0.00091327,0.00156262,-0.00017871,0.138076
 72,-0.21090069,0.00435860,-0.00003185,-0.00004476,0.00000646,-0.000990
 89,-0.00016886,0.00006945,-0.14711042,0.22158270,0.00001987,-0.0000043
 6,-0.00005358,-0.00004697,-0.00003158,0.00002994,-0.00000745,0.0000546
 3,-0.00004539,0.00000311,0.00001349,0.00007410,-0.00000940,-0.00000831
 ,-0.00005845,-0.00001591,0.00001932,0.00027446,0.00001107,-0.00008038,
 -0.00053535,-0.00003744,0.00003874,-0.00063084,0.00031109,0.00051045,0
 .00382418,0.00036721,0.00042644,0.00940269,0.00007095,-0.00010103,0.00
 038565,0.00007724,0.00000961,-0.00099202,-0.00005543,-0.00001902,0.000
 15632,0.00000115,-0.00000404,-0.00008645,-0.00001802,0.00002597,0.0000
 9313,0.00008280,0.00005177,0.00008849,-0.00005290,-0.00002034,-0.00002
 729,-0.00000068,-0.00000217,0.00000103,0.00000035,-0.00000010,-0.00002
 395,0.00000246,0.00000140,0.00001251,0.00000805,-0.00001683,-0.0001470
 6,-0.00112056,0.00118040,0.00260554,0.00072876,-0.00080728,0.00371047,
 -0.00001247,0.00001016,0.00028176,0.00000219,-0.00000249,-0.00002066,0
 .00000283,-0.00000085,-0.00001870,-0.00000206,0.00000162,0.00001714,-0
 .00004886,-0.00005276,-0.00002025,0.00006882,-0.00000839,-0.00000776,-
 0.00000659,0.00000069,0.00000638,-0.00001225,0.00000239,0.00000720,-0.
 00011181,-0.00016902,-0.00166761,-0.00248981,0.00436841,-0.03543133,0.
 00000245,0.00000395,0.00008149,0.00004633,-0.00000052,0.00016202,0.002
 39444,-0.00512453,0.02450450,0.00008954,0.00000636,-0.00000639,0.00004
 476,-0.00005969,-0.00000026,-0.00015357,0.00033157,-0.00000093,0.00001
 564,0.00009138,0.00000050,-0.00013552,0.00002590,0.00000448,0.00018702
 ,0.00013573,-0.00002097,0.00064059,0.00066044,-0.00001103,-0.00360061,
 0.00305910,-0.00000689,-0.00064465,0.00028257,-0.00003134,0.00962233,0
 .02172431,-0.00100168,0.00156992,-0.00000529,0.00000087,0.00000801,-0.
 00036508,0.00000776,0.00030888,0.00005477,0.00001105,-0.00007715,0.000
 02647,-0.00000521,0.00002418,-0.00006567,0.00000735,-0.00007639,-0.000
 02330,-0.00000927,0.00002053,0.00007455,-0.00000563,-0.00000539,0.0000
 0152,0.00000069,0.00001343,0.00000071,-0.00000077,-0.00000468,0.000000
 99,0.00000044,-0.00046758,-0.00013982,0.00000912,-0.00554186,-0.000017
 16,0.00032552,-0.07612551,-0.06833453,0.00350705,-0.00033267,-0.000691
 05,0.00001608,-0.00002307,0.00000004,-0.00000261,-0.00000270,-0.000004
 61,0.00000020,0.00000213,-0.00000254,0.00000159,-0.00000031,-0.0000169
 2,-0.00000669,0.00002267,0.00000574,0.00000091,-0.00000235,-0.00000149
 ,-0.00000010,-0.00000351,-0.00000217,0.00000329,0.00063144,-0.00123317
 ,0.00006498,-0.00558637,-0.03083157,0.00151324,-0.00001559,-0.00015583
 ,0.00000355,-0.00004306,0.00002496,0.00000187,0.00086247,0.00014185,-0
 .00015258,0.07877901,-0.00006936,-0.00001574,0.00000024,-0.00005522,0.
 00007275,-0.00000200,0.00018204,-0.00041985,0.00000827,-0.00000315,-0.
 00005984,0.00000145,0.00008945,0.00003339,0.00000164,-0.00014117,-0.00
 017407,0.00000634,-0.00096193,-0.00013334,0.00002334,0.00419744,-0.001
 46229,0.00019043,0.00040111,0.00063251,-0.00010590,-0.00787222,-0.0169
 6922,0.00086989,-0.00097715,0.00108659,-0.00017268,0.00041246,0.000024
 14,-0.00000482,-0.00002445,0.00007450,-0.00001077,-0.00010535,-0.00008
 097,-0.00000583,0.00003277,-0.00007674,0.00000516,0.00003515,0.0000768
 4,0.00001325,0.00007727,-0.00002716,0.00001649,-0.00000192,-0.00000578
 ,0.00000025,-0.00001187,-0.00001340,0.00000322,-0.00000767,-0.00000718
 ,0.00000028,-0.00019564,0.00007085,-0.00001961,-0.00074802,0.00161047,
 0.00031407,-0.07079411,-0.31333860,0.01285912,0.00092656,0.00006552,0.
 00005457,0.00001800,0.00002097,0.00000374,0.00001175,-0.00000182,-0.00
 000180,0.00001610,-0.00000520,0.00000127,0.00000627,0.00002439,-0.0000
 1990,0.00001119,-0.00000646,-0.00000121,-0.00000262,0.00000278,0.00001
 127,0.00000085,-0.00000710,0.00000370,0.00016028,-0.00024459,0.0000192
 0,0.00037296,-0.00385905,0.00030806,-0.00000267,-0.00002909,-0.0000003
 2,-0.00003569,0.00000227,0.00000555,-0.00024240,0.00102160,-0.00026544
 ,0.07530091,0.33211793,0.00000431,0.00000832,-0.00003717,-0.00001474,-
 0.00000917,-0.00028983,-0.00000060,0.00001772,0.00027901,-0.00000468,0
 .00000903,0.00002465,-0.00003758,0.00000962,0.00014841,0.00000183,0.00
 003023,-0.00054388,0.00004797,0.00002666,0.00059354,0.00008489,0.00025
 863,0.00348261,-0.00015126,-0.00009582,-0.00093529,0.00047825,-0.00001
 384,0.00227164,-0.00000560,-0.00005856,-0.00192214,0.00003182,-0.00005
 734,-0.00016421,0.00002747,0.00000948,-0.00001868,-0.00002788,0.000010
 52,0.00001348,-0.00000075,-0.00002115,0.00001379,-0.00000737,0.0000015
 5,0.00004366,0.00000919,0.00001041,-0.00001954,-0.00000616,0.00000157,
 -0.00000035,0.00000299,0.00000095,0.00007700,-0.00000084,0.00000110,0.
 00000303,-0.00000391,-0.00006592,-0.00058629,0.00029033,0.00030074,0.0
 0905030,0.00326090,0.01291417,-0.03503708,-0.00004706,-0.00000014,0.00
 029494,-0.00000250,-0.00000121,0.00001926,0.,0.00000048,0.00000021,-0.
 00000042,-0.00000005,-0.00000130,0.00000674,0.00000274,-0.00000141,0.0
 0001068,0.00000780,0.00000659,0.00000083,-0.00000119,-0.00000441,-0.00
 000261,0.00000031,-0.00000062,0.00004328,0.00007139,0.00044424,0.00036
 955,0.00103507,0.00387923,-0.00000084,-0.00000278,-0.00004901,0.000005
 72,0.00000595,0.00012137,-0.00014376,-0.00029674,-0.00595233,-0.004218
 19,-0.01411054,0.02479658\\0.00000217,-0.00000162,-0.00000198,0.000002
 67,-0.00000111,-0.00000269,0.00000022,0.00000010,-0.00000036,-0.000002
 24,0.00000088,-0.00000286,0.00000038,-0.00000019,-0.00000216,-0.000000
 31,-0.00000030,-0.00000058,0.00000059,-0.00000037,0.,0.00000007,0.0000
 0045,-0.00000060,0.00000007,0.00000007,-0.00000037,-0.00000055,-0.0000
 0036,0.00000117,0.00000009,0.00000073,0.00000198,-0.00000003,-0.000000
 62,0.00000166,-0.00000087,0.00000095,0.00000118,-0.00000120,0.00000214
 ,0.00000270,0.00000143,-0.00000158,0.00000302,-0.00000248,-0.00000301,
 0.00000033,0.00000177,0.00000027,0.00000159,0.00000003,0.00000017,-0.0
 0000053,0.00000009,-0.00000014,-0.00000254,-0.00000004,-0.00000027,-0.
 00000338,-0.00000075,-0.00000233,-0.00000242,0.00000011,0.,-0.00000095
 ,0.00000223,0.00000064,0.00000061,-0.00000013,0.00000019,0.00000237,-0
 .00000007,0.00000016,0.00000314,-0.00000012,0.00000009,0.00000215,-0.0
 0000024,0.00000009,0.00000344,0.00000610,0.00000454,0.00000671,-0.0000
 0776,-0.00000088,-0.00000363,0.00000202,0.00000024,-0.00000136,-0.0000
 0016,-0.00000001,0.00000064,0.00000003,0.00000203,-0.00000205,-0.00000
 268,-0.00000054,-0.00000004,-0.00000012,-0.00000026,-0.00000307,-0.000
 00016,-0.00000020,-0.00000202,-0.00000009,-0.00000003,-0.00000030,-0.0
 0000008,0.00000012,0.00000119\\\@


 IF IT HAPPENS, IT MUST BE POSSIBLE.

 -- THE UNNAMED LAW FROM PAUL DICKSON'S 
    "THE OFFICIAL RULES"
 Job cpu time:       2 days 19 hours 15 minutes 57.3 seconds.
 File lengths (MBytes):  RWF=   7923 Int=      0 D2E=      0 Chk=     39 Scr=      1
 Normal termination of Gaussian 09 at Sun Feb  2 01:27:55 2020.
