 Entering Gaussian System, Link 0=g09
 Initial command:
 /usr/local/Cluster-Apps/gaussian/g09/l1.exe "/rds/user/am2145/hpc-work/scratch/19184581/Gau-12813.inp" -scrdir="/rds/user/am2145/hpc-work/scratch/19184581/"
 Entering Link 1 = /usr/local/Cluster-Apps/gaussian/g09/l1.exe PID=     12814.
  
 Copyright (c) 1988,1990,1992,1993,1995,1998,2003,2009,2013,
            Gaussian, Inc.  All Rights Reserved.
  
 This is part of the Gaussian(R) 09 program.  It is based on
 the Gaussian(R) 03 system (copyright 2003, Gaussian, Inc.),
 the Gaussian(R) 98 system (copyright 1998, Gaussian, Inc.),
 the Gaussian(R) 94 system (copyright 1995, Gaussian, Inc.),
 the Gaussian 92(TM) system (copyright 1992, Gaussian, Inc.),
 the Gaussian 90(TM) system (copyright 1990, Gaussian, Inc.),
 the Gaussian 88(TM) system (copyright 1988, Gaussian, Inc.),
 the Gaussian 86(TM) system (copyright 1986, Carnegie Mellon
 University), and the Gaussian 82(TM) system (copyright 1983,
 Carnegie Mellon University). Gaussian is a federally registered
 trademark of Gaussian, Inc.
  
 This software contains proprietary and confidential information,
 including trade secrets, belonging to Gaussian, Inc.
  
 This software is provided under written license and may be
 used, copied, transmitted, or stored only in accord with that
 written license.
  
 The following legend is applicable only to US Government
 contracts under FAR:
  
                    RESTRICTED RIGHTS LEGEND
  
 Use, reproduction and disclosure by the US Government is
 subject to restrictions as set forth in subparagraphs (a)
 and (c) of the Commercial Computer Software - Restricted
 Rights clause in FAR 52.227-19.
  
 Gaussian, Inc.
 340 Quinnipiac St., Bldg. 40, Wallingford CT 06492
  
  
 ---------------------------------------------------------------
 Warning -- This program may not be used in any manner that
 competes with the business of Gaussian, Inc. or will provide
 assistance to any competitor of Gaussian, Inc.  The licensee
 of this program is prohibited from giving any competitor of
 Gaussian, Inc. access to this program.  By using this program,
 the user acknowledges that Gaussian, Inc. is engaged in the
 business of creating and licensing software in the field of
 computational chemistry and represents and warrants to the
 licensee that it is not a competitor of Gaussian, Inc. and that
 it will not use this program in any manner prohibited above.
 ---------------------------------------------------------------
  

 Cite this work as:
 Gaussian 09, Revision D.01,
 M. J. Frisch, G. W. Trucks, H. B. Schlegel, G. E. Scuseria, 
 M. A. Robb, J. R. Cheeseman, G. Scalmani, V. Barone, B. Mennucci, 
 G. A. Petersson, H. Nakatsuji, M. Caricato, X. Li, H. P. Hratchian, 
 A. F. Izmaylov, J. Bloino, G. Zheng, J. L. Sonnenberg, M. Hada, 
 M. Ehara, K. Toyota, R. Fukuda, J. Hasegawa, M. Ishida, T. Nakajima, 
 Y. Honda, O. Kitao, H. Nakai, T. Vreven, J. A. Montgomery, Jr., 
 J. E. Peralta, F. Ogliaro, M. Bearpark, J. J. Heyd, E. Brothers, 
 K. N. Kudin, V. N. Staroverov, T. Keith, R. Kobayashi, J. Normand, 
 K. Raghavachari, A. Rendell, J. C. Burant, S. S. Iyengar, J. Tomasi, 
 M. Cossi, N. Rega, J. M. Millam, M. Klene, J. E. Knox, J. B. Cross, 
 V. Bakken, C. Adamo, J. Jaramillo, R. Gomperts, R. E. Stratmann, 
 O. Yazyev, A. J. Austin, R. Cammi, C. Pomelli, J. W. Ochterski, 
 R. L. Martin, K. Morokuma, V. G. Zakrzewski, G. A. Voth, 
 P. Salvador, J. J. Dannenberg, S. Dapprich, A. D. Daniels, 
 O. Farkas, J. B. Foresman, J. V. Ortiz, J. Cioslowski, 
 and D. J. Fox, Gaussian, Inc., Wallingford CT, 2013.
 
 ******************************************
 Gaussian 09:  ES64L-G09RevD.01 24-Apr-2013
                 1-Feb-2020 
 ******************************************
 %NProcShared=20
 Will use up to   20 processors via shared memory.
 %mem=64GB
 %Chk=AS2b_Hmigclose_guess2.chk
 --------------------------------------------------
 #n opt=(ts,calcfc,noeigen) freq b3lyp/6-311+g(d,p)
 --------------------------------------------------
 1/5=1,10=4,11=1,14=-1,18=20,26=3,38=1/1,3;
 2/9=110,12=2,17=6,18=5,40=1/2;
 3/5=4,6=6,7=111,11=2,16=1,25=1,30=1,71=2,74=-5,140=1/1,2,3;
 4//1;
 5/5=2,38=5/2;
 8/6=4,10=90,11=11/1;
 11/6=1,8=1,9=11,15=111,16=1/1,2,10;
 10/6=1,13=1/2;
 6/7=2,8=2,9=2,10=2,28=1/1;
 7/10=1,18=20,25=1/1,2,3,16;
 1/5=1,10=4,11=1,14=-1,18=20,26=3/3(2);
 2/9=110/2;
 99//99;
 2/9=110/2;
 3/5=4,6=6,7=111,11=2,16=1,25=1,30=1,71=1,74=-5/1,2,3;
 4/5=5,16=3,69=1/1;
 5/5=2,38=5/2;
 7//1,2,3,16;
 1/5=1,11=1,14=-1,18=20,26=3/3(-5);
 2/9=110/2;
 6/7=2,8=2,9=2,10=2,19=2,28=1/1;
 99/9=1/99;
 ---------------------
 AS2b_Hmigclose_guess2
 ---------------------
 Symbolic Z-matrix:
 Charge =  0 Multiplicity = 2
 C                    -1.8551    3.14376  -0.23233 
 C                    -0.55548   2.54953  -0.06543 
 C                    -0.50412   1.16406   0.07193 
 C                    -3.04739   2.44149  -0.22605 
 C                    -3.02818   1.02579  -0.06552 
 C                    -1.75583   0.489     0.08285 
 C                     0.53506   0.08568   0.10261 
 C                    -0.17006  -1.12799   0.14725 
 C                    -1.5528   -0.88822   0.14012 
 C                     0.33246  -2.43441   0.08724 
 C                     1.72569  -2.52822  -0.00027 
 C                     2.52348  -1.35888  -0.04618 
 C                     1.93792  -0.0133    0.00138 
 C                     3.94424  -1.45987  -0.16414 
 C                     4.7495   -0.35532  -0.24251 
 C                     2.84036   1.06136  -0.07883 
 C                     4.18476   0.95682  -0.20006 
 H                    -1.89134   4.22113  -0.35839 
 H                    -3.98298   2.97491  -0.35783 
 C                    -4.097     0.0579   -0.10025 
 C                    -2.53776  -1.8458    0.06841 
 C                    -0.68133  -3.47618   0.06708 
 H                     2.22086  -3.49287  -0.05745 
 H                     4.38368  -2.45126  -0.19599 
 H                     2.58036   3.79512   0.70856 
 H                     4.82955   1.82761  -0.25907 
 H                     5.82451  -0.4675   -0.33527 
 C                     0.64268   3.38654  -0.05684 
 C                     1.71243   3.14755   0.73311 
 H                     0.66048   4.23399  -0.73794 
 H                     1.65778   2.4379    1.54781 
 C                    -3.87023  -1.30852  -0.03534 
 C                    -2.03249  -3.20603   0.05663 
 H                    -5.11894   0.40957  -0.19982 
 H                    -4.7202   -1.98133  -0.08495 
 H                    -2.73073  -4.03606   0.02109 
 H                    -0.35764  -4.51169   0.04001 
 

 GradGradGradGradGradGradGradGradGradGradGradGradGradGradGradGradGradGrad
 Berny optimization.
 Initialization pass.
                           ----------------------------
                           !    Initial Parameters    !
                           ! (Angstroms and Degrees)  !
 --------------------------                            --------------------------
 ! Name  Definition              Value          Derivative Info.                !
 --------------------------------------------------------------------------------
 ! R1    R(1,2)                  1.4387         calculate D2E/DX2 analytically  !
 ! R2    R(1,4)                  1.3838         calculate D2E/DX2 analytically  !
 ! R3    R(1,18)                 1.0853         calculate D2E/DX2 analytically  !
 ! R4    R(2,3)                  1.3932         calculate D2E/DX2 analytically  !
 ! R5    R(2,28)                 1.4616         calculate D2E/DX2 analytically  !
 ! R6    R(3,6)                  1.4222         calculate D2E/DX2 analytically  !
 ! R7    R(3,7)                  1.4979         calculate D2E/DX2 analytically  !
 ! R8    R(4,5)                  1.4249         calculate D2E/DX2 analytically  !
 ! R9    R(4,19)                 1.085          calculate D2E/DX2 analytically  !
 ! R10   R(5,6)                  1.3889         calculate D2E/DX2 analytically  !
 ! R11   R(5,20)                 1.4424         calculate D2E/DX2 analytically  !
 ! R12   R(6,9)                  1.3933         calculate D2E/DX2 analytically  !
 ! R13   R(7,8)                  1.4043         calculate D2E/DX2 analytically  !
 ! R14   R(7,13)                 1.41           calculate D2E/DX2 analytically  !
 ! R15   R(8,9)                  1.4034         calculate D2E/DX2 analytically  !
 ! R16   R(8,10)                 1.401          calculate D2E/DX2 analytically  !
 ! R17   R(9,21)                 1.3756         calculate D2E/DX2 analytically  !
 ! R18   R(10,11)                1.3991         calculate D2E/DX2 analytically  !
 ! R19   R(10,22)                1.4538         calculate D2E/DX2 analytically  !
 ! R20   R(11,12)                1.4163         calculate D2E/DX2 analytically  !
 ! R21   R(11,23)                1.0858         calculate D2E/DX2 analytically  !
 ! R22   R(12,13)                1.4682         calculate D2E/DX2 analytically  !
 ! R23   R(12,14)                1.4292         calculate D2E/DX2 analytically  !
 ! R24   R(13,16)                1.4056         calculate D2E/DX2 analytically  !
 ! R25   R(14,15)                1.3692         calculate D2E/DX2 analytically  !
 ! R26   R(14,24)                1.0849         calculate D2E/DX2 analytically  !
 ! R27   R(15,17)                1.4291         calculate D2E/DX2 analytically  !
 ! R28   R(15,27)                1.0848         calculate D2E/DX2 analytically  !
 ! R29   R(16,17)                1.3539         calculate D2E/DX2 analytically  !
 ! R30   R(17,26)                1.0851         calculate D2E/DX2 analytically  !
 ! R31   R(20,32)                1.3866         calculate D2E/DX2 analytically  !
 ! R32   R(20,34)                1.0853         calculate D2E/DX2 analytically  !
 ! R33   R(21,32)                1.4405         calculate D2E/DX2 analytically  !
 ! R34   R(21,33)                1.4511         calculate D2E/DX2 analytically  !
 ! R35   R(22,33)                1.3779         calculate D2E/DX2 analytically  !
 ! R36   R(22,37)                1.0853         calculate D2E/DX2 analytically  !
 ! R37   R(25,29)                1.0832         calculate D2E/DX2 analytically  !
 ! R38   R(28,29)                1.3511         calculate D2E/DX2 analytically  !
 ! R39   R(28,30)                1.0874         calculate D2E/DX2 analytically  !
 ! R40   R(29,31)                1.0818         calculate D2E/DX2 analytically  !
 ! R41   R(32,35)                1.0852         calculate D2E/DX2 analytically  !
 ! R42   R(33,36)                1.0852         calculate D2E/DX2 analytically  !
 ! A1    A(2,1,4)              124.6233         calculate D2E/DX2 analytically  !
 ! A2    A(2,1,18)             116.9768         calculate D2E/DX2 analytically  !
 ! A3    A(4,1,18)             118.395          calculate D2E/DX2 analytically  !
 ! A4    A(1,2,3)              117.0947         calculate D2E/DX2 analytically  !
 ! A5    A(1,2,28)             120.3083         calculate D2E/DX2 analytically  !
 ! A6    A(3,2,28)             122.5945         calculate D2E/DX2 analytically  !
 ! A7    A(2,3,6)              116.1255         calculate D2E/DX2 analytically  !
 ! A8    A(2,3,7)              138.0319         calculate D2E/DX2 analytically  !
 ! A9    A(6,3,7)              105.5878         calculate D2E/DX2 analytically  !
 ! A10   A(1,4,5)              119.5464         calculate D2E/DX2 analytically  !
 ! A11   A(1,4,19)             119.5328         calculate D2E/DX2 analytically  !
 ! A12   A(5,4,19)             120.9148         calculate D2E/DX2 analytically  !
 ! A13   A(4,5,6)              114.1029         calculate D2E/DX2 analytically  !
 ! A14   A(4,5,20)             130.8447         calculate D2E/DX2 analytically  !
 ! A15   A(6,5,20)             114.9649         calculate D2E/DX2 analytically  !
 ! A16   A(3,6,5)              128.4628         calculate D2E/DX2 analytically  !
 ! A17   A(3,6,9)              109.9533         calculate D2E/DX2 analytically  !
 ! A18   A(5,6,9)              121.3266         calculate D2E/DX2 analytically  !
 ! A19   A(3,7,8)              105.9318         calculate D2E/DX2 analytically  !
 ! A20   A(3,7,13)             137.673          calculate D2E/DX2 analytically  !
 ! A21   A(8,7,13)             116.1789         calculate D2E/DX2 analytically  !
 ! A22   A(7,8,9)              110.2976         calculate D2E/DX2 analytically  !
 ! A23   A(7,8,10)             128.6393         calculate D2E/DX2 analytically  !
 ! A24   A(9,8,10)             120.8304         calculate D2E/DX2 analytically  !
 ! A25   A(6,9,8)              108.2199         calculate D2E/DX2 analytically  !
 ! A26   A(6,9,21)             125.5642         calculate D2E/DX2 analytically  !
 ! A27   A(8,9,21)             125.9318         calculate D2E/DX2 analytically  !
 ! A28   A(8,10,11)            114.9844         calculate D2E/DX2 analytically  !
 ! A29   A(8,10,22)            114.7511         calculate D2E/DX2 analytically  !
 ! A30   A(11,10,22)           130.203          calculate D2E/DX2 analytically  !
 ! A31   A(10,11,12)           120.5031         calculate D2E/DX2 analytically  !
 ! A32   A(10,11,23)           121.1293         calculate D2E/DX2 analytically  !
 ! A33   A(12,11,23)           118.3531         calculate D2E/DX2 analytically  !
 ! A34   A(11,12,13)           122.0697         calculate D2E/DX2 analytically  !
 ! A35   A(11,12,14)           120.2842         calculate D2E/DX2 analytically  !
 ! A36   A(13,12,14)           117.6383         calculate D2E/DX2 analytically  !
 ! A37   A(7,13,12)            117.6108         calculate D2E/DX2 analytically  !
 ! A38   A(7,13,16)            126.101          calculate D2E/DX2 analytically  !
 ! A39   A(12,13,16)           116.2814         calculate D2E/DX2 analytically  !
 ! A40   A(12,14,15)           122.1662         calculate D2E/DX2 analytically  !
 ! A41   A(12,14,24)           118.0118         calculate D2E/DX2 analytically  !
 ! A42   A(15,14,24)           119.8214         calculate D2E/DX2 analytically  !
 ! A43   A(14,15,17)           120.4361         calculate D2E/DX2 analytically  !
 ! A44   A(14,15,27)           120.2843         calculate D2E/DX2 analytically  !
 ! A45   A(17,15,27)           119.2794         calculate D2E/DX2 analytically  !
 ! A46   A(13,16,17)           125.7042         calculate D2E/DX2 analytically  !
 ! A47   A(15,17,16)           117.7711         calculate D2E/DX2 analytically  !
 ! A48   A(15,17,26)           120.0235         calculate D2E/DX2 analytically  !
 ! A49   A(16,17,26)           122.2045         calculate D2E/DX2 analytically  !
 ! A50   A(5,20,32)            122.6124         calculate D2E/DX2 analytically  !
 ! A51   A(5,20,34)            118.8499         calculate D2E/DX2 analytically  !
 ! A52   A(32,20,34)           118.5275         calculate D2E/DX2 analytically  !
 ! A53   A(9,21,32)            113.9824         calculate D2E/DX2 analytically  !
 ! A54   A(9,21,33)            113.8058         calculate D2E/DX2 analytically  !
 ! A55   A(32,21,33)           132.1559         calculate D2E/DX2 analytically  !
 ! A56   A(10,22,33)           122.9161         calculate D2E/DX2 analytically  !
 ! A57   A(10,22,37)           118.431          calculate D2E/DX2 analytically  !
 ! A58   A(33,22,37)           118.6423         calculate D2E/DX2 analytically  !
 ! A59   A(2,28,29)            123.4489         calculate D2E/DX2 analytically  !
 ! A60   A(2,28,30)            117.1326         calculate D2E/DX2 analytically  !
 ! A61   A(29,28,30)           119.4137         calculate D2E/DX2 analytically  !
 ! A62   A(25,29,28)           121.0258         calculate D2E/DX2 analytically  !
 ! A63   A(25,29,31)           116.726          calculate D2E/DX2 analytically  !
 ! A64   A(28,29,31)           121.087          calculate D2E/DX2 analytically  !
 ! A65   A(20,32,21)           121.4806         calculate D2E/DX2 analytically  !
 ! A66   A(20,32,35)           118.7334         calculate D2E/DX2 analytically  !
 ! A67   A(21,32,35)           119.774          calculate D2E/DX2 analytically  !
 ! A68   A(21,33,22)           121.6782         calculate D2E/DX2 analytically  !
 ! A69   A(21,33,36)           119.5497         calculate D2E/DX2 analytically  !
 ! A70   A(22,33,36)           118.7632         calculate D2E/DX2 analytically  !
 ! D1    D(4,1,2,3)              1.9784         calculate D2E/DX2 analytically  !
 ! D2    D(4,1,2,28)          -178.5766         calculate D2E/DX2 analytically  !
 ! D3    D(18,1,2,3)          -178.8507         calculate D2E/DX2 analytically  !
 ! D4    D(18,1,2,28)            0.5944         calculate D2E/DX2 analytically  !
 ! D5    D(2,1,4,5)             -0.9932         calculate D2E/DX2 analytically  !
 ! D6    D(2,1,4,19)           179.8878         calculate D2E/DX2 analytically  !
 ! D7    D(18,1,4,5)           179.8468         calculate D2E/DX2 analytically  !
 ! D8    D(18,1,4,19)            0.7277         calculate D2E/DX2 analytically  !
 ! D9    D(1,2,3,6)             -2.3109         calculate D2E/DX2 analytically  !
 ! D10   D(1,2,3,7)            170.8439         calculate D2E/DX2 analytically  !
 ! D11   D(28,2,3,6)           178.2577         calculate D2E/DX2 analytically  !
 ! D12   D(28,2,3,7)            -8.5874         calculate D2E/DX2 analytically  !
 ! D13   D(1,2,28,29)          143.3488         calculate D2E/DX2 analytically  !
 ! D14   D(1,2,28,30)          -37.4553         calculate D2E/DX2 analytically  !
 ! D15   D(3,2,28,29)          -37.2376         calculate D2E/DX2 analytically  !
 ! D16   D(3,2,28,30)          141.9583         calculate D2E/DX2 analytically  !
 ! D17   D(2,3,6,5)              2.1068         calculate D2E/DX2 analytically  !
 ! D18   D(2,3,6,9)            176.2589         calculate D2E/DX2 analytically  !
 ! D19   D(7,3,6,5)           -173.1468         calculate D2E/DX2 analytically  !
 ! D20   D(7,3,6,9)              1.0053         calculate D2E/DX2 analytically  !
 ! D21   D(2,3,7,8)           -174.3968         calculate D2E/DX2 analytically  !
 ! D22   D(2,3,7,13)            -0.2569         calculate D2E/DX2 analytically  !
 ! D23   D(6,3,7,8)             -0.7752         calculate D2E/DX2 analytically  !
 ! D24   D(6,3,7,13)           173.3646         calculate D2E/DX2 analytically  !
 ! D25   D(1,4,5,6)              0.4612         calculate D2E/DX2 analytically  !
 ! D26   D(1,4,5,20)          -175.9107         calculate D2E/DX2 analytically  !
 ! D27   D(19,4,5,6)           179.5678         calculate D2E/DX2 analytically  !
 ! D28   D(19,4,5,20)            3.1959         calculate D2E/DX2 analytically  !
 ! D29   D(4,5,6,3)             -1.1011         calculate D2E/DX2 analytically  !
 ! D30   D(4,5,6,9)           -174.6637         calculate D2E/DX2 analytically  !
 ! D31   D(20,5,6,3)           175.8721         calculate D2E/DX2 analytically  !
 ! D32   D(20,5,6,9)             2.3094         calculate D2E/DX2 analytically  !
 ! D33   D(4,5,20,32)          174.2957         calculate D2E/DX2 analytically  !
 ! D34   D(4,5,20,34)           -4.5257         calculate D2E/DX2 analytically  !
 ! D35   D(6,5,20,32)           -2.0512         calculate D2E/DX2 analytically  !
 ! D36   D(6,5,20,34)          179.1275         calculate D2E/DX2 analytically  !
 ! D37   D(3,6,9,8)             -0.8565         calculate D2E/DX2 analytically  !
 ! D38   D(3,6,9,21)          -175.0193         calculate D2E/DX2 analytically  !
 ! D39   D(5,6,9,8)            173.7845         calculate D2E/DX2 analytically  !
 ! D40   D(5,6,9,21)            -0.3783         calculate D2E/DX2 analytically  !
 ! D41   D(3,7,8,9)              0.2837         calculate D2E/DX2 analytically  !
 ! D42   D(3,7,8,10)           174.694          calculate D2E/DX2 analytically  !
 ! D43   D(13,7,8,9)          -175.3226         calculate D2E/DX2 analytically  !
 ! D44   D(13,7,8,10)           -0.9123         calculate D2E/DX2 analytically  !
 ! D45   D(3,7,13,12)         -173.7691         calculate D2E/DX2 analytically  !
 ! D46   D(3,7,13,16)            5.2385         calculate D2E/DX2 analytically  !
 ! D47   D(8,7,13,12)           -0.0499         calculate D2E/DX2 analytically  !
 ! D48   D(8,7,13,16)          178.9576         calculate D2E/DX2 analytically  !
 ! D49   D(7,8,9,6)              0.3343         calculate D2E/DX2 analytically  !
 ! D50   D(7,8,9,21)           174.47           calculate D2E/DX2 analytically  !
 ! D51   D(10,8,9,6)          -174.5825         calculate D2E/DX2 analytically  !
 ! D52   D(10,8,9,21)           -0.4468         calculate D2E/DX2 analytically  !
 ! D53   D(7,8,10,11)            1.4878         calculate D2E/DX2 analytically  !
 ! D54   D(7,8,10,22)         -175.9552         calculate D2E/DX2 analytically  !
 ! D55   D(9,8,10,11)          175.3806         calculate D2E/DX2 analytically  !
 ! D56   D(9,8,10,22)           -2.0624         calculate D2E/DX2 analytically  !
 ! D57   D(6,9,21,32)           -1.8501         calculate D2E/DX2 analytically  !
 ! D58   D(6,9,21,33)          175.7664         calculate D2E/DX2 analytically  !
 ! D59   D(8,9,21,32)         -174.9981         calculate D2E/DX2 analytically  !
 ! D60   D(8,9,21,33)            2.6184         calculate D2E/DX2 analytically  !
 ! D61   D(8,10,11,12)          -1.0842         calculate D2E/DX2 analytically  !
 ! D62   D(8,10,11,23)        -179.6764         calculate D2E/DX2 analytically  !
 ! D63   D(22,10,11,12)        175.8751         calculate D2E/DX2 analytically  !
 ! D64   D(22,10,11,23)         -2.7172         calculate D2E/DX2 analytically  !
 ! D65   D(8,10,22,33)           2.3403         calculate D2E/DX2 analytically  !
 ! D66   D(8,10,22,37)        -178.8582         calculate D2E/DX2 analytically  !
 ! D67   D(11,10,22,33)       -174.6247         calculate D2E/DX2 analytically  !
 ! D68   D(11,10,22,37)          4.1768         calculate D2E/DX2 analytically  !
 ! D69   D(10,11,12,13)          0.2893         calculate D2E/DX2 analytically  !
 ! D70   D(10,11,12,14)       -178.67           calculate D2E/DX2 analytically  !
 ! D71   D(23,11,12,13)        178.92           calculate D2E/DX2 analytically  !
 ! D72   D(23,11,12,14)         -0.0393         calculate D2E/DX2 analytically  !
 ! D73   D(11,12,13,7)           0.3177         calculate D2E/DX2 analytically  !
 ! D74   D(11,12,13,16)       -178.788          calculate D2E/DX2 analytically  !
 ! D75   D(14,12,13,7)         179.3033         calculate D2E/DX2 analytically  !
 ! D76   D(14,12,13,16)          0.1976         calculate D2E/DX2 analytically  !
 ! D77   D(11,12,14,15)        178.4838         calculate D2E/DX2 analytically  !
 ! D78   D(11,12,14,24)         -1.2254         calculate D2E/DX2 analytically  !
 ! D79   D(13,12,14,15)         -0.5208         calculate D2E/DX2 analytically  !
 ! D80   D(13,12,14,24)        179.7701         calculate D2E/DX2 analytically  !
 ! D81   D(7,13,16,17)        -178.7346         calculate D2E/DX2 analytically  !
 ! D82   D(12,13,16,17)          0.2847         calculate D2E/DX2 analytically  !
 ! D83   D(12,14,15,17)          0.3784         calculate D2E/DX2 analytically  !
 ! D84   D(12,14,15,27)       -179.7647         calculate D2E/DX2 analytically  !
 ! D85   D(24,14,15,17)       -179.9176         calculate D2E/DX2 analytically  !
 ! D86   D(24,14,15,27)         -0.0607         calculate D2E/DX2 analytically  !
 ! D87   D(14,15,17,16)          0.0988         calculate D2E/DX2 analytically  !
 ! D88   D(14,15,17,26)        179.7776         calculate D2E/DX2 analytically  !
 ! D89   D(27,15,17,16)       -179.7596         calculate D2E/DX2 analytically  !
 ! D90   D(27,15,17,26)         -0.0807         calculate D2E/DX2 analytically  !
 ! D91   D(13,16,17,15)         -0.4408         calculate D2E/DX2 analytically  !
 ! D92   D(13,16,17,26)        179.8878         calculate D2E/DX2 analytically  !
 ! D93   D(5,20,32,21)          -0.1577         calculate D2E/DX2 analytically  !
 ! D94   D(5,20,32,35)        -178.8925         calculate D2E/DX2 analytically  !
 ! D95   D(34,20,32,21)        178.6673         calculate D2E/DX2 analytically  !
 ! D96   D(34,20,32,35)         -0.0675         calculate D2E/DX2 analytically  !
 ! D97   D(9,21,32,20)           2.0567         calculate D2E/DX2 analytically  !
 ! D98   D(9,21,32,35)        -179.2214         calculate D2E/DX2 analytically  !
 ! D99   D(33,21,32,20)       -175.0012         calculate D2E/DX2 analytically  !
 ! D100  D(33,21,32,35)          3.7207         calculate D2E/DX2 analytically  !
 ! D101  D(9,21,33,22)          -2.2633         calculate D2E/DX2 analytically  !
 ! D102  D(9,21,33,36)         178.8327         calculate D2E/DX2 analytically  !
 ! D103  D(32,21,33,22)        174.7986         calculate D2E/DX2 analytically  !
 ! D104  D(32,21,33,36)         -4.1054         calculate D2E/DX2 analytically  !
 ! D105  D(10,22,33,21)         -0.1495         calculate D2E/DX2 analytically  !
 ! D106  D(10,22,33,36)        178.7629         calculate D2E/DX2 analytically  !
 ! D107  D(37,22,33,21)       -178.9486         calculate D2E/DX2 analytically  !
 ! D108  D(37,22,33,36)         -0.0362         calculate D2E/DX2 analytically  !
 ! D109  D(2,28,29,25)        -179.9138         calculate D2E/DX2 analytically  !
 ! D110  D(2,28,29,31)         -12.633          calculate D2E/DX2 analytically  !
 ! D111  D(30,28,29,25)          0.9077         calculate D2E/DX2 analytically  !
 ! D112  D(30,28,29,31)        168.1885         calculate D2E/DX2 analytically  !
 --------------------------------------------------------------------------------
 Trust Radius=3.00D-01 FncErr=1.00D-07 GrdErr=1.00D-06
 Number of steps in this run=    222 maximum allowed number of steps=    222.
 Search for a saddle point of order  1.
 GradGradGradGradGradGradGradGradGradGradGradGradGradGradGradGradGradGrad

                          Input orientation:                          
 ---------------------------------------------------------------------
 Center     Atomic      Atomic             Coordinates (Angstroms)
 Number     Number       Type             X           Y           Z
 ---------------------------------------------------------------------
      1          6           0       -1.855100    3.143760   -0.232330
      2          6           0       -0.555480    2.549530   -0.065430
      3          6           0       -0.504120    1.164060    0.071930
      4          6           0       -3.047390    2.441490   -0.226050
      5          6           0       -3.028180    1.025790   -0.065520
      6          6           0       -1.755830    0.489000    0.082850
      7          6           0        0.535060    0.085680    0.102610
      8          6           0       -0.170060   -1.127990    0.147250
      9          6           0       -1.552800   -0.888220    0.140120
     10          6           0        0.332460   -2.434410    0.087240
     11          6           0        1.725690   -2.528220   -0.000270
     12          6           0        2.523480   -1.358880   -0.046180
     13          6           0        1.937920   -0.013300    0.001380
     14          6           0        3.944240   -1.459870   -0.164140
     15          6           0        4.749500   -0.355320   -0.242510
     16          6           0        2.840360    1.061360   -0.078830
     17          6           0        4.184760    0.956820   -0.200060
     18          1           0       -1.891340    4.221130   -0.358390
     19          1           0       -3.982980    2.974910   -0.357830
     20          6           0       -4.097000    0.057900   -0.100250
     21          6           0       -2.537760   -1.845800    0.068410
     22          6           0       -0.681330   -3.476180    0.067080
     23          1           0        2.220860   -3.492870   -0.057450
     24          1           0        4.383680   -2.451260   -0.195990
     25          1           0        2.580360    3.795120    0.708560
     26          1           0        4.829550    1.827610   -0.259070
     27          1           0        5.824510   -0.467500   -0.335270
     28          6           0        0.642680    3.386540   -0.056840
     29          6           0        1.712430    3.147550    0.733110
     30          1           0        0.660480    4.233990   -0.737940
     31          1           0        1.657780    2.437900    1.547810
     32          6           0       -3.870230   -1.308520   -0.035340
     33          6           0       -2.032490   -3.206030    0.056630
     34          1           0       -5.118940    0.409570   -0.199820
     35          1           0       -4.720200   -1.981330   -0.084950
     36          1           0       -2.730730   -4.036060    0.021090
     37          1           0       -0.357640   -4.511690    0.040010
 ---------------------------------------------------------------------
                    Distance matrix (angstroms):
                    1          2          3          4          5
     1  C    0.000000
     2  C    1.438741   0.000000
     3  C    2.415975   1.393210   0.000000
     4  C    1.383755   2.499417   2.861615   0.000000
     5  C    2.426878   2.904484   2.531579   1.424902   0.000000
     6  C    2.675246   2.389270   1.422183   2.361305   1.388896
     7  C    3.895754   2.699643   1.497912   4.300210   3.689004
     8  C    4.607742   3.703773   2.317491   4.599953   3.585093
     9  C    4.060415   3.585390   2.305696   3.668085   2.425380
    10  C    6.000294   5.064721   3.694467   5.941038   4.825994
    11  C    6.711726   5.567003   4.313954   6.894294   5.935868
    12  C    6.283342   4.975544   3.942783   6.746092   6.042181
    13  C    4.940511   3.576256   2.711957   5.561568   5.074084
    14  C    7.404755   6.027646   5.169975   8.006705   7.402896
    15  C    7.474250   6.050812   5.477948   8.283351   7.901335
    16  C    5.138803   3.707635   3.349451   6.049135   5.868663
    17  C    6.423679   5.002472   4.701332   7.383015   7.214524
    18  H    1.085325   2.159767   3.384558   2.126284   3.404170
    19  H    2.138255   3.466151   3.945420   1.085003   2.190013
    20  C    3.816555   4.330334   3.763246   2.607491   1.442357
    21  C    5.045015   4.823513   3.632487   4.327503   2.916244
    22  C    6.729858   6.028481   4.643625   6.379889   5.078683
    23  H    7.790307   6.649716   5.397152   7.937223   6.926094
    24  H    8.380212   7.029954   6.085467   8.897230   8.187953
    25  H    4.580704   3.461798   4.103875   5.863223   6.302707
    26  H    6.813040   5.436655   5.384969   7.900894   7.900905
    27  H    8.486943   7.062546   6.548233   9.337278   8.981804
    28  C    2.515680   1.461591   2.504226   3.812921   4.364451
    29  C    3.695857   2.477642   3.047045   4.906567   5.254813
    30  H    2.787900   2.183629   3.381812   4.150107   4.934664
    31  H    4.000933   2.741081   2.911134   5.028441   5.153165
    32  C    4.891048   5.086553   4.178020   3.843958   2.481726
    33  C    6.358836   5.943310   4.629669   5.744947   4.349094
    34  H    4.257875   5.042089   4.683980   2.901845   2.183813
    35  H    5.873420   6.154183   5.262454   4.730702   3.450519
    36  H    7.237456   6.936079   5.656998   6.489993   5.071322
    37  H    7.805285   7.064778   5.677730   7.460044   6.148708
                    6          7          8          9         10
     6  C    0.000000
     7  C    2.326206   0.000000
     8  C    2.265716   1.404344   0.000000
     9  C    1.393282   2.304137   1.403392   0.000000
    10  C    3.592673   2.528268   1.401021   2.438792   0.000000
    11  C    4.607766   2.874136   2.361414   3.668488   1.399124
    12  C    4.663025   2.462256   2.710329   4.107589   2.444409
    13  C    3.728637   1.409986   2.389015   3.601369   2.906312
    14  C    6.029088   3.752651   4.139393   5.535053   3.749383
    15  C    6.567957   4.251481   4.995098   6.336353   4.893015
    16  C    4.634512   2.509837   3.729208   4.811305   4.305525
    17  C    5.965694   3.764413   4.840611   6.036513   5.140350
    18  H    3.760565   4.816833   5.641947   5.144762   7.031364
    19  H    3.366622   5.382596   5.623811   4.591024   6.934108
    20  C    2.387561   4.636583   4.109556   2.725046   5.085949
    21  C    2.462299   3.629602   2.475373   1.375590   2.930014
    22  C    4.108218   3.764002   2.404542   2.731727   1.453775
    23  H    5.629302   3.958985   3.369133   4.589526   2.169638
    24  H    6.812963   4.619210   4.754514   6.147996   4.061144
    25  H    5.488578   4.279062   5.667177   6.272146   6.651777
    26  H    6.728745   4.648417   5.822093   6.947624   6.205527
    27  H    7.651880   5.336293   6.050119   7.404573   5.848920
    28  C    3.764054   3.306461   4.591642   4.809626   5.830991
    29  C    4.418094   3.340476   4.708210   5.225017   5.786168
    30  H    4.531799   4.234469   5.497653   5.648596   6.727264
    31  H    4.194884   2.980276   4.244778   4.832441   5.256343
    32  C    2.777721   4.622705   3.709068   2.361762   4.352615
    33  C    3.705466   4.174899   2.791972   2.368400   2.487835
    34  H    3.375903   5.671339   5.193839   3.810141   6.155354
    35  H    3.862406   5.650263   4.635286   3.358269   5.075855
    36  H    4.629299   5.259351   3.876831   3.363121   3.457281
    37  H    5.192655   4.683657   3.390592   3.816800   2.189420
                   11         12         13         14         15
    11  C    0.000000
    12  C    1.416310   0.000000
    13  C    2.523860   1.468240   0.000000
    14  C    2.467831   1.429221   2.478968   0.000000
    15  C    3.731434   2.449662   2.842788   1.369166   0.000000
    16  C    3.759487   2.441115   1.405605   2.753621   2.382979
    17  C    4.269947   2.854119   2.455606   2.428895   1.429141
    18  H    7.665826   7.122122   5.720408   8.146502   8.065859
    19  H    7.937330   7.823866   6.641949   9.085461   9.346654
    20  C    6.371949   6.770594   6.036196   8.183474   8.857288
    21  C    4.318266   5.085899   4.836761   6.497642   7.444620
    22  C    2.587839   3.842733   4.342387   5.051224   6.271326
    23  H    1.085823   2.155370   3.491550   2.667304   4.033917
    24  H    2.666297   2.162425   3.458952   1.084885   2.128134
    25  H    6.420088   5.209279   3.926435   5.498790   4.778688
    26  H    5.354828   3.939162   3.437777   3.405923   2.184460
    27  H    4.599904   3.431462   3.927494   2.132955   1.084820
    28  C    6.013360   5.104560   3.638674   5.865109   5.558953
    29  C    5.722970   4.644675   3.252268   5.197533   4.737692
    30  H    6.885224   5.935444   4.496434   6.597906   6.166628
    31  H    5.202260   4.207824   2.911753   4.832317   4.534981
    32  C    5.727409   6.393918   5.950928   7.816997   8.674748
    33  C    3.819238   4.917255   5.095168   6.230499   7.362841
    34  H    7.451133   7.845865   7.072381   9.254043   9.898130
    35  H    6.469603   7.270478   6.943425   8.680479   9.609576
    36  H    4.704648   5.897333   6.162733   7.157254   8.340934
    37  H    2.876811   4.271825   5.050406   5.278395   6.590759
                   16         17         18         19         20
    16  C    0.000000
    17  C    1.353897   0.000000
    18  H    5.696603   6.899259   0.000000
    19  H    7.092072   8.414841   2.434753   0.000000
    20  C    7.009590   8.331000   4.718480   2.930579   0.000000
    21  C    6.115344   7.288280   6.116180   5.050702   2.466526
    22  C    5.745682   6.587995   7.803443   7.259339   4.917776
    23  H    4.596221   4.865900   8.746802   8.967164   7.247424
    24  H    3.838497   3.413883   9.160952   9.973490   8.844602
    25  H    2.856751   3.384618   4.616922   6.699803   7.694682
    26  H    2.139276   1.085132   7.135066   8.887448   9.101670
    27  H    3.362785   2.176178   9.028739  10.394112   9.938191
    28  C    3.199491   4.297718   2.684908   4.653683   5.791916
    29  C    2.506723   3.432568   3.915495   5.801521   6.632488
    30  H    3.905366   4.842490   2.579924   4.826125   6.362389
    31  H    2.437071   3.410905   4.405651   5.978128   6.441894
    32  C    7.116898   8.369096   5.881955   4.297032   1.386630
    33  C    6.478706   7.486615   7.440085   6.494629   3.865236
    34  H    7.986860   9.319781   4.997053   2.810043   1.085333
    35  H    8.149851   9.377862   6.822590   5.018194   2.132386
    36  H    7.551869   8.532395   8.308415   7.131999   4.317630
    37  H    6.426524   7.113061   8.875421   8.327698   5.906237
                   21         22         23         24         25
    21  C    0.000000
    22  C    2.470723   0.000000
    23  H    5.037176   2.904908   0.000000
    24  H    6.952900   5.174359   2.404565   0.000000
    25  H    7.643620   7.995119   7.336948   6.564102   0.000000
    26  H    8.238837   7.655479   5.929032   4.302500   3.141060
    27  H    8.484706   7.179136   4.713421   2.455747   5.457474
    28  C    6.124399   6.990371   7.058111   6.935009   2.123059
    29  C    6.590864   7.074425   6.706613   6.272597   1.083168
    30  H    6.916848   7.867352   7.912156   7.671277   2.443544
    31  H    6.175862   6.529957   6.169923   5.863041   1.843242
    32  C    1.440455   3.857243   6.470954   8.334188   8.258973
    33  C    1.451090   1.377942   4.264537   6.465349   8.409489
    34  H    3.438187   5.904462   8.313962   9.923918   8.459688
    35  H    2.192016   4.309311   7.103789   9.116677   9.343191
    36  H    2.199253   2.124999   4.981914   7.292019   9.487237
    37  H    3.443937   1.085260   2.774194   5.175054   8.836396
                   26         27         28         29         30
    26  H    0.000000
    27  H    2.502655   0.000000
    28  C    4.472252   6.463939   0.000000
    29  C    3.527478   5.578461   1.351111   0.000000
    30  H    4.837471   6.995238   1.087376   2.109725   0.000000
    31  H    3.700999   5.417470   2.122557   1.081816   3.073304
    32  C    9.250489   9.735772   6.512327   7.184231   7.193080
    33  C    8.516149   8.329801   7.115574   7.406081   7.952190
    34  H   10.049219  10.979376   6.486837   7.418525   6.951076
    35  H   10.282804  10.655761   7.587839   8.267609   8.246715
    36  H    9.571779   9.276516   8.153586   8.476609   8.970516
    37  H    8.196531   7.396978   7.961913   7.964266   8.839044
                   31         32         33         34         35
    31  H    0.000000
    32  C    6.863011   0.000000
    33  C    6.906204   2.643159   0.000000
    34  H    7.286444   2.130297   4.760725   0.000000
    35  H    7.929321   1.085165   2.956978   2.426642   0.000000
    36  H    7.968817   2.956538   1.085243   5.051334   2.862019
    37  H    7.391358   4.754394   2.123711   6.851737   5.044826
                   36         37
    36  H    0.000000
    37  H    2.420359   0.000000
 Stoichiometry    C24H13(2)
 Framework group  C1[X(C24H13)]
 Deg. of freedom   105
 Full point group                 C1      NOp   1
 Largest Abelian subgroup         C1      NOp   1
 Largest concise Abelian subgroup C1      NOp   1
                         Standard orientation:                         
 ---------------------------------------------------------------------
 Center     Atomic      Atomic             Coordinates (Angstroms)
 Number     Number       Type             X           Y           Z
 ---------------------------------------------------------------------
      1          6           0       -1.855103    3.143760   -0.232329
      2          6           0       -0.555483    2.549530   -0.065429
      3          6           0       -0.504122    1.164060    0.071931
      4          6           0       -3.047392    2.441489   -0.226049
      5          6           0       -3.028182    1.025789   -0.065519
      6          6           0       -1.755832    0.489000    0.082851
      7          6           0        0.535058    0.085680    0.102611
      8          6           0       -0.170061   -1.127990    0.147251
      9          6           0       -1.552801   -0.888220    0.140121
     10          6           0        0.332459   -2.434410    0.087241
     11          6           0        1.725689   -2.528219   -0.000269
     12          6           0        2.523479   -1.358879   -0.046179
     13          6           0        1.937918   -0.013299    0.001381
     14          6           0        3.944239   -1.459868   -0.164139
     15          6           0        4.749499   -0.355318   -0.242509
     16          6           0        2.840358    1.061361   -0.078829
     17          6           0        4.184758    0.956822   -0.200059
     18          1           0       -1.891343    4.221130   -0.358389
     19          1           0       -3.982983    2.974909   -0.357829
     20          6           0       -4.097002    0.057899   -0.100249
     21          6           0       -2.537761   -1.845801    0.068411
     22          6           0       -0.681330   -3.476180    0.067081
     23          1           0        2.220860   -3.492869   -0.057449
     24          1           0        4.383679   -2.451258   -0.195989
     25          1           0        2.580357    3.795121    0.708561
     26          1           0        4.829548    1.827612   -0.259069
     27          1           0        5.824509   -0.467498   -0.335269
     28          6           0        0.642677    3.386540   -0.056839
     29          6           0        1.712427    3.147551    0.733111
     30          1           0        0.660477    4.233990   -0.737939
     31          1           0        1.657778    2.437901    1.547811
     32          6           0       -3.870231   -1.308521   -0.035339
     33          6           0       -2.032490   -3.206030    0.056631
     34          1           0       -5.118942    0.409568   -0.199819
     35          1           0       -4.720201   -1.981331   -0.084949
     36          1           0       -2.730730   -4.036061    0.021091
     37          1           0       -0.357640   -4.511690    0.040011
 ---------------------------------------------------------------------
 Rotational constants (GHZ):      0.3961886      0.2528784      0.1557451
 Standard basis: 6-311+G(d,p) (5D, 7F)
 There are   630 symmetry adapted cartesian basis functions of A   symmetry.
 There are   606 symmetry adapted basis functions of A   symmetry.
   606 basis functions,   968 primitive gaussians,   630 cartesian basis functions
    79 alpha electrons       78 beta electrons
       nuclear repulsion energy      1817.3166903265 Hartrees.
 NAtoms=   37 NActive=   37 NUniq=   37 SFac= 1.00D+00 NAtFMM=   60 NAOKFM=F Big=F
 Integral buffers will be    131072 words long.
 Raffenetti 2 integral format.
 Two-electron integral symmetry is turned on.
 One-electron integrals computed using PRISM.
 NBasis=   606 RedAO= T EigKep=  1.43D-06  NBF=   606
 NBsUse=   590 1.00D-06 EigRej=  8.36D-07 NBFU=   590
 ExpMin= 4.38D-02 ExpMax= 4.56D+03 ExpMxC= 6.82D+02 IAcc=2 IRadAn=         4 AccDes= 0.00D+00
 Harris functional with IExCor=  402 and IRadAn=       4 diagonalized for initial guess.
 HarFok:  IExCor=  402 AccDes= 0.00D+00 IRadAn=         4 IDoV= 1 UseB2=F ITyADJ=14
 ICtDFT=  3500011 ScaDFX=  1.000000  1.000000  1.000000  1.000000
 FoFCou: FMM=F IPFlag=           0 FMFlag=      100000 FMFlg1=           0
         NFxFlg=           0 DoJE=T BraDBF=F KetDBF=T FulRan=T
         wScrn=  0.000000 ICntrl=     500 IOpCl=  0 I1Cent=   200000004 NGrid=           0
         NMat0=    1 NMatS0=      1 NMatT0=    0 NMatD0=    1 NMtDS0=    0 NMtDT0=    0
 Petite list used in FoFCou.
 Initial guess <Sx>= 0.0000 <Sy>= 0.0000 <Sz>= 0.5000 <S**2>= 0.7500 S= 0.5000
 Requested convergence on RMS density matrix=1.00D-08 within 128 cycles.
 Requested convergence on MAX density matrix=1.00D-06.
 Requested convergence on             energy=1.00D-06.
 No special actions if energy rises.
 Restarting incremental Fock formation.
 SCF Done:  E(UB3LYP) =  -922.516963378     A.U. after   24 cycles
            NFock= 24  Conv=0.76D-08     -V/T= 2.0044
 <Sx>= 0.0000 <Sy>= 0.0000 <Sz>= 0.5000 <S**2>= 0.7745 S= 0.5122
 <L.S>= 0.000000000000E+00
 Annihilation of the first spin contaminant:
 S**2 before annihilation     0.7745,   after     0.7504
 DoSCS=F DFT=T ScalE2(SS,OS)=  1.000000  1.000000
 Range of M.O.s used for correlation:     1   590
 NBasis=   606 NAE=    79 NBE=    78 NFC=     0 NFV=     0
 NROrb=    590 NOA=    79 NOB=    78 NVA=   511 NVB=   512

 **** Warning!!: The largest alpha MO coefficient is  0.14433586D+03


 **** Warning!!: The largest beta MO coefficient is  0.14848830D+03

 Symmetrizing basis deriv contribution to polar:
 IMax=3 JMax=2 DiffMx= 0.00D+00
 G2DrvN: will do    38 centers at a time, making    1 passes.
 Calling FoFCou, ICntrl=  3107 FMM=F I1Cent=   0 AccDes= 0.00D+00.
 End of G2Drv F.D. properties file   721 does not exist.
 End of G2Drv F.D. properties file   722 does not exist.
 End of G2Drv F.D. properties file   788 does not exist.
          IDoAtm=1111111111111111111111111111111111111
          Differentiating once with respect to nuclear coordinates.
          There are   114 degrees of freedom in the 1st order CPHF.  IDoFFX=6 NUNeed=     0.
    108 vectors produced by pass  0 Test12= 8.03D-14 1.00D-09 XBig12= 5.35D-01 1.37D-01.
 AX will form   108 AO Fock derivatives at one time.
    108 vectors produced by pass  1 Test12= 8.03D-14 1.00D-09 XBig12= 1.14D-01 4.34D-02.
    108 vectors produced by pass  2 Test12= 8.03D-14 1.00D-09 XBig12= 1.71D-03 8.27D-03.
    108 vectors produced by pass  3 Test12= 8.03D-14 1.00D-09 XBig12= 2.28D-05 9.24D-04.
    108 vectors produced by pass  4 Test12= 8.03D-14 1.00D-09 XBig12= 2.08D-07 6.72D-05.
    108 vectors produced by pass  5 Test12= 8.03D-14 1.00D-09 XBig12= 1.26D-09 3.11D-06.
    108 vectors produced by pass  6 Test12= 8.03D-14 1.00D-09 XBig12= 3.75D-11 3.92D-07.
    108 vectors produced by pass  7 Test12= 8.03D-14 1.00D-09 XBig12= 6.05D-12 1.40D-07.
    104 vectors produced by pass  8 Test12= 8.03D-14 1.00D-09 XBig12= 5.91D-13 5.02D-08.
     51 vectors produced by pass  9 Test12= 8.03D-14 1.00D-09 XBig12= 5.21D-15 3.78D-09.
     23 vectors produced by pass 10 Test12= 8.03D-14 1.00D-09 XBig12= 5.88D-16 1.76D-09.
     23 vectors produced by pass 11 Test12= 8.03D-14 1.00D-09 XBig12= 5.36D-14 1.33D-08.
     23 vectors produced by pass 12 Test12= 8.03D-14 1.00D-09 XBig12= 5.58D-13 4.80D-08.
     23 vectors produced by pass 13 Test12= 8.03D-14 1.00D-09 XBig12= 3.38D-13 2.80D-08.
     23 vectors produced by pass 14 Test12= 8.03D-14 1.00D-09 XBig12= 3.67D-13 2.96D-08.
     23 vectors produced by pass 15 Test12= 8.03D-14 1.00D-09 XBig12= 2.84D-13 2.50D-08.
     23 vectors produced by pass 16 Test12= 8.03D-14 1.00D-09 XBig12= 9.43D-14 1.49D-08.
     23 vectors produced by pass 17 Test12= 8.03D-14 1.00D-09 XBig12= 8.90D-14 1.25D-08.
     23 vectors produced by pass 18 Test12= 8.03D-14 1.00D-09 XBig12= 1.59D-13 1.92D-08.
     23 vectors produced by pass 19 Test12= 8.03D-14 1.00D-09 XBig12= 1.44D-13 1.74D-08.
     23 vectors produced by pass 20 Test12= 8.03D-14 1.00D-09 XBig12= 1.57D-13 2.04D-08.
     23 vectors produced by pass 21 Test12= 8.03D-14 1.00D-09 XBig12= 1.57D-13 1.61D-08.
     23 vectors produced by pass 22 Test12= 8.03D-14 1.00D-09 XBig12= 1.76D-13 2.50D-08.
     23 vectors produced by pass 23 Test12= 8.03D-14 1.00D-09 XBig12= 6.36D-14 1.10D-08.
     23 vectors produced by pass 24 Test12= 8.03D-14 1.00D-09 XBig12= 1.36D-13 1.58D-08.
     23 vectors produced by pass 25 Test12= 8.03D-14 1.00D-09 XBig12= 8.20D-14 1.30D-08.
     23 vectors produced by pass 26 Test12= 8.03D-14 1.00D-09 XBig12= 1.15D-13 1.43D-08.
     23 vectors produced by pass 27 Test12= 8.03D-14 1.00D-09 XBig12= 8.73D-14 1.23D-08.
     23 vectors produced by pass 28 Test12= 8.03D-14 1.00D-09 XBig12= 5.89D-14 1.09D-08.
     23 vectors produced by pass 29 Test12= 8.03D-14 1.00D-09 XBig12= 3.67D-14 8.05D-09.
     23 vectors produced by pass 30 Test12= 8.03D-14 1.00D-09 XBig12= 9.51D-14 1.41D-08.
     23 vectors produced by pass 31 Test12= 8.03D-14 1.00D-09 XBig12= 7.37D-14 1.15D-08.
     23 vectors produced by pass 32 Test12= 8.03D-14 1.00D-09 XBig12= 7.56D-14 1.23D-08.
     23 vectors produced by pass 33 Test12= 8.03D-14 1.00D-09 XBig12= 4.19D-14 8.47D-09.
     23 vectors produced by pass 34 Test12= 8.03D-14 1.00D-09 XBig12= 7.87D-14 1.33D-08.
     23 vectors produced by pass 35 Test12= 8.03D-14 1.00D-09 XBig12= 8.96D-14 1.16D-08.
     20 vectors produced by pass 36 Test12= 8.03D-14 1.00D-09 XBig12= 1.78D-14 5.40D-09.
     20 vectors produced by pass 37 Test12= 8.03D-14 1.00D-09 XBig12= 8.07D-14 1.29D-08.
     20 vectors produced by pass 38 Test12= 8.03D-14 1.00D-09 XBig12= 5.08D-14 9.29D-09.
     20 vectors produced by pass 39 Test12= 8.03D-14 1.00D-09 XBig12= 2.29D-14 7.00D-09.
     20 vectors produced by pass 40 Test12= 8.03D-14 1.00D-09 XBig12= 5.26D-14 9.45D-09.
     20 vectors produced by pass 41 Test12= 8.03D-14 1.00D-09 XBig12= 5.64D-14 8.92D-09.
     20 vectors produced by pass 42 Test12= 8.03D-14 1.00D-09 XBig12= 3.19D-14 7.43D-09.
     18 vectors produced by pass 43 Test12= 8.03D-14 1.00D-09 XBig12= 2.56D-14 6.93D-09.
     18 vectors produced by pass 44 Test12= 8.03D-14 1.00D-09 XBig12= 5.00D-14 8.88D-09.
     18 vectors produced by pass 45 Test12= 8.03D-14 1.00D-09 XBig12= 3.21D-14 6.73D-09.
     18 vectors produced by pass 46 Test12= 8.03D-14 1.00D-09 XBig12= 4.73D-14 7.96D-09.
     16 vectors produced by pass 47 Test12= 8.03D-14 1.00D-09 XBig12= 2.09D-14 5.55D-09.
     16 vectors produced by pass 48 Test12= 8.03D-14 1.00D-09 XBig12= 6.74D-14 1.10D-08.
     16 vectors produced by pass 49 Test12= 8.03D-14 1.00D-09 XBig12= 6.19D-14 1.09D-08.
     16 vectors produced by pass 50 Test12= 8.03D-14 1.00D-09 XBig12= 5.21D-14 9.60D-09.
     16 vectors produced by pass 51 Test12= 8.03D-14 1.00D-09 XBig12= 4.65D-14 9.16D-09.
     16 vectors produced by pass 52 Test12= 8.03D-14 1.00D-09 XBig12= 2.90D-14 6.25D-09.
     16 vectors produced by pass 53 Test12= 8.03D-14 1.00D-09 XBig12= 5.45D-14 8.20D-09.
     16 vectors produced by pass 54 Test12= 8.03D-14 1.00D-09 XBig12= 4.97D-14 8.40D-09.
     16 vectors produced by pass 55 Test12= 8.03D-14 1.00D-09 XBig12= 3.51D-14 7.32D-09.
     15 vectors produced by pass 56 Test12= 8.03D-14 1.00D-09 XBig12= 3.38D-14 9.10D-09.
     15 vectors produced by pass 57 Test12= 8.03D-14 1.00D-09 XBig12= 4.17D-14 6.67D-09.
     13 vectors produced by pass 58 Test12= 8.03D-14 1.00D-09 XBig12= 2.51D-14 5.49D-09.
     13 vectors produced by pass 59 Test12= 8.03D-14 1.00D-09 XBig12= 5.42D-14 1.01D-08.
     11 vectors produced by pass 60 Test12= 8.03D-14 1.00D-09 XBig12= 1.49D-14 3.99D-09.
     11 vectors produced by pass 61 Test12= 8.03D-14 1.00D-09 XBig12= 4.78D-14 8.62D-09.
     11 vectors produced by pass 62 Test12= 8.03D-14 1.00D-09 XBig12= 3.22D-14 5.90D-09.
     11 vectors produced by pass 63 Test12= 8.03D-14 1.00D-09 XBig12= 2.95D-14 6.32D-09.
     11 vectors produced by pass 64 Test12= 8.03D-14 1.00D-09 XBig12= 4.63D-14 7.90D-09.
     10 vectors produced by pass 65 Test12= 8.03D-14 1.00D-09 XBig12= 2.66D-14 5.73D-09.
     10 vectors produced by pass 66 Test12= 8.03D-14 1.00D-09 XBig12= 2.29D-14 5.50D-09.
     10 vectors produced by pass 67 Test12= 8.03D-14 1.00D-09 XBig12= 2.50D-14 5.44D-09.
     10 vectors produced by pass 68 Test12= 8.03D-14 1.00D-09 XBig12= 2.59D-14 5.62D-09.
     10 vectors produced by pass 69 Test12= 8.03D-14 1.00D-09 XBig12= 4.29D-14 7.28D-09.
     10 vectors produced by pass 70 Test12= 8.03D-14 1.00D-09 XBig12= 2.97D-14 5.72D-09.
     10 vectors produced by pass 71 Test12= 8.03D-14 1.00D-09 XBig12= 4.28D-14 7.85D-09.
     10 vectors produced by pass 72 Test12= 8.03D-14 1.00D-09 XBig12= 3.91D-14 7.05D-09.
     10 vectors produced by pass 73 Test12= 8.03D-14 1.00D-09 XBig12= 2.29D-14 5.50D-09.
     10 vectors produced by pass 74 Test12= 8.03D-14 1.00D-09 XBig12= 1.97D-14 4.92D-09.
     10 vectors produced by pass 75 Test12= 8.03D-14 1.00D-09 XBig12= 4.43D-14 6.70D-09.
     10 vectors produced by pass 76 Test12= 8.03D-14 1.00D-09 XBig12= 3.30D-14 7.43D-09.
     10 vectors produced by pass 77 Test12= 8.03D-14 1.00D-09 XBig12= 3.46D-14 6.55D-09.
     10 vectors produced by pass 78 Test12= 8.03D-14 1.00D-09 XBig12= 3.26D-14 6.62D-09.
      8 vectors produced by pass 79 Test12= 8.03D-14 1.00D-09 XBig12= 1.39D-14 4.02D-09.
      8 vectors produced by pass 80 Test12= 8.03D-14 1.00D-09 XBig12= 1.56D-14 3.95D-09.
      6 vectors produced by pass 81 Test12= 8.03D-14 1.00D-09 XBig12= 9.28D-15 3.72D-09.
      6 vectors produced by pass 82 Test12= 8.03D-14 1.00D-09 XBig12= 1.73D-14 4.76D-09.
      6 vectors produced by pass 83 Test12= 8.03D-14 1.00D-09 XBig12= 5.11D-14 9.92D-09.
      6 vectors produced by pass 84 Test12= 8.03D-14 1.00D-09 XBig12= 3.14D-14 5.63D-09.
      6 vectors produced by pass 85 Test12= 8.03D-14 1.00D-09 XBig12= 2.26D-14 7.52D-09.
      6 vectors produced by pass 86 Test12= 8.03D-14 1.00D-09 XBig12= 2.12D-14 5.61D-09.
      5 vectors produced by pass 87 Test12= 8.03D-14 1.00D-09 XBig12= 1.08D-14 3.41D-09.
      5 vectors produced by pass 88 Test12= 8.03D-14 1.00D-09 XBig12= 1.58D-14 4.76D-09.
      5 vectors produced by pass 89 Test12= 8.03D-14 1.00D-09 XBig12= 2.01D-14 6.63D-09.
      5 vectors produced by pass 90 Test12= 8.03D-14 1.00D-09 XBig12= 1.42D-14 4.33D-09.
      5 vectors produced by pass 91 Test12= 8.03D-14 1.00D-09 XBig12= 3.07D-14 6.83D-09.
      3 vectors produced by pass 92 Test12= 8.03D-14 1.00D-09 XBig12= 8.58D-15 3.31D-09.
      3 vectors produced by pass 93 Test12= 8.03D-14 1.00D-09 XBig12= 3.31D-14 6.40D-09.
      3 vectors produced by pass 94 Test12= 8.03D-14 1.00D-09 XBig12= 2.52D-14 5.36D-09.
      3 vectors produced by pass 95 Test12= 8.03D-14 1.00D-09 XBig12= 2.51D-14 6.08D-09.
      3 vectors produced by pass 96 Test12= 8.03D-14 1.00D-09 XBig12= 2.01D-14 5.21D-09.
      3 vectors produced by pass 97 Test12= 8.03D-14 1.00D-09 XBig12= 3.01D-14 6.35D-09.
      3 vectors produced by pass 98 Test12= 8.03D-14 1.00D-09 XBig12= 2.43D-14 6.73D-09.
      3 vectors produced by pass 99 Test12= 8.03D-14 1.00D-09 XBig12= 4.02D-14 7.25D-09.
      3 vectors produced by pass100 Test12= 8.03D-14 1.00D-09 XBig12= 1.31D-14 3.86D-09.
      3 vectors produced by pass101 Test12= 8.03D-14 1.00D-09 XBig12= 2.05D-14 5.09D-09.
      3 vectors produced by pass102 Test12= 8.03D-14 1.00D-09 XBig12= 3.11D-14 5.68D-09.
      3 vectors produced by pass103 Test12= 8.03D-14 1.00D-09 XBig12= 1.58D-14 4.76D-09.
      3 vectors produced by pass104 Test12= 8.03D-14 1.00D-09 XBig12= 2.37D-14 5.17D-09.
      3 vectors produced by pass105 Test12= 8.03D-14 1.00D-09 XBig12= 1.78D-14 4.34D-09.
      3 vectors produced by pass106 Test12= 8.03D-14 1.00D-09 XBig12= 8.73D-15 3.05D-09.
      3 vectors produced by pass107 Test12= 8.03D-14 1.00D-09 XBig12= 1.72D-14 4.38D-09.
      3 vectors produced by pass108 Test12= 8.03D-14 1.00D-09 XBig12= 2.09D-14 5.15D-09.
      3 vectors produced by pass109 Test12= 8.03D-14 1.00D-09 XBig12= 3.20D-14 6.04D-09.
      3 vectors produced by pass110 Test12= 8.03D-14 1.00D-09 XBig12= 1.58D-14 4.41D-09.
      3 vectors produced by pass111 Test12= 8.03D-14 1.00D-09 XBig12= 2.93D-14 6.22D-09.
      3 vectors produced by pass112 Test12= 8.03D-14 1.00D-09 XBig12= 1.18D-14 3.77D-09.
      3 vectors produced by pass113 Test12= 8.03D-14 1.00D-09 XBig12= 2.02D-14 4.95D-09.
      3 vectors produced by pass114 Test12= 8.03D-14 1.00D-09 XBig12= 3.54D-14 5.87D-09.
      3 vectors produced by pass115 Test12= 8.03D-14 1.00D-09 XBig12= 1.04D-14 3.52D-09.
      3 vectors produced by pass116 Test12= 8.03D-14 1.00D-09 XBig12= 2.20D-14 4.99D-09.
      3 vectors produced by pass117 Test12= 8.03D-14 1.00D-09 XBig12= 1.95D-14 4.25D-09.
      3 vectors produced by pass118 Test12= 8.03D-14 1.00D-09 XBig12= 1.69D-14 5.20D-09.
      3 vectors produced by pass119 Test12= 8.03D-14 1.00D-09 XBig12= 1.74D-14 4.67D-09.
      3 vectors produced by pass120 Test12= 8.03D-14 1.00D-09 XBig12= 1.93D-14 5.07D-09.
      3 vectors produced by pass121 Test12= 8.03D-14 1.00D-09 XBig12= 2.38D-14 5.11D-09.
      3 vectors produced by pass122 Test12= 8.03D-14 1.00D-09 XBig12= 1.05D-14 3.37D-09.
      3 vectors produced by pass123 Test12= 8.03D-14 1.00D-09 XBig12= 2.62D-14 6.17D-09.
      3 vectors produced by pass124 Test12= 8.03D-14 1.00D-09 XBig12= 1.63D-14 5.24D-09.
      3 vectors produced by pass125 Test12= 8.03D-14 1.00D-09 XBig12= 2.66D-14 5.44D-09.
      3 vectors produced by pass126 Test12= 8.03D-14 1.00D-09 XBig12= 1.67D-14 4.25D-09.
      3 vectors produced by pass127 Test12= 8.03D-14 1.00D-09 XBig12= 1.23D-14 4.16D-09.
      3 vectors produced by pass128 Test12= 8.03D-14 1.00D-09 XBig12= 1.33D-14 4.06D-09.
      3 vectors produced by pass129 Test12= 8.03D-14 1.00D-09 XBig12= 1.78D-14 4.45D-09.
      3 vectors produced by pass130 Test12= 8.03D-14 1.00D-09 XBig12= 2.25D-14 5.30D-09.
      3 vectors produced by pass131 Test12= 8.03D-14 1.00D-09 XBig12= 2.76D-14 5.86D-09.
      3 vectors produced by pass132 Test12= 8.03D-14 1.00D-09 XBig12= 1.73D-14 4.02D-09.
      3 vectors produced by pass133 Test12= 8.03D-14 1.00D-09 XBig12= 9.70D-15 3.63D-09.
      3 vectors produced by pass134 Test12= 8.03D-14 1.00D-09 XBig12= 1.09D-14 3.71D-09.
      3 vectors produced by pass135 Test12= 8.03D-14 1.00D-09 XBig12= 2.05D-14 4.59D-09.
      3 vectors produced by pass136 Test12= 8.03D-14 1.00D-09 XBig12= 1.18D-14 4.06D-09.
      3 vectors produced by pass137 Test12= 8.03D-14 1.00D-09 XBig12= 1.86D-14 4.70D-09.
      3 vectors produced by pass138 Test12= 8.03D-14 1.00D-09 XBig12= 1.62D-14 4.92D-09.
      3 vectors produced by pass139 Test12= 8.03D-14 1.00D-09 XBig12= 2.76D-14 5.21D-09.
      3 vectors produced by pass140 Test12= 8.03D-14 1.00D-09 XBig12= 1.74D-14 4.36D-09.
      3 vectors produced by pass141 Test12= 8.03D-14 1.00D-09 XBig12= 8.00D-15 3.31D-09.
      3 vectors produced by pass142 Test12= 8.03D-14 1.00D-09 XBig12= 1.45D-14 3.80D-09.
      3 vectors produced by pass143 Test12= 8.03D-14 1.00D-09 XBig12= 1.92D-14 4.55D-09.
      3 vectors produced by pass144 Test12= 8.03D-14 1.00D-09 XBig12= 1.76D-14 4.66D-09.
      3 vectors produced by pass145 Test12= 8.03D-14 1.00D-09 XBig12= 1.68D-14 4.47D-09.
      3 vectors produced by pass146 Test12= 8.03D-14 1.00D-09 XBig12= 2.38D-14 4.55D-09.
      3 vectors produced by pass147 Test12= 8.03D-14 1.00D-09 XBig12= 1.96D-14 4.03D-09.
      3 vectors produced by pass148 Test12= 8.03D-14 1.00D-09 XBig12= 1.86D-14 5.31D-09.
      3 vectors produced by pass149 Test12= 8.03D-14 1.00D-09 XBig12= 1.18D-14 3.36D-09.
      3 vectors produced by pass150 Test12= 8.03D-14 1.00D-09 XBig12= 2.00D-14 5.37D-09.
      3 vectors produced by pass151 Test12= 8.03D-14 1.00D-09 XBig12= 1.55D-14 4.42D-09.
      3 vectors produced by pass152 Test12= 8.03D-14 1.00D-09 XBig12= 1.40D-14 3.92D-09.
      3 vectors produced by pass153 Test12= 8.03D-14 1.00D-09 XBig12= 2.16D-14 5.15D-09.
      3 vectors produced by pass154 Test12= 8.03D-14 1.00D-09 XBig12= 1.63D-14 4.63D-09.
      3 vectors produced by pass155 Test12= 8.03D-14 1.00D-09 XBig12= 1.36D-14 3.47D-09.
      3 vectors produced by pass156 Test12= 8.03D-14 1.00D-09 XBig12= 1.55D-14 5.20D-09.
      3 vectors produced by pass157 Test12= 8.03D-14 1.00D-09 XBig12= 1.23D-14 4.08D-09.
      3 vectors produced by pass158 Test12= 8.03D-14 1.00D-09 XBig12= 1.70D-14 4.10D-09.
      3 vectors produced by pass159 Test12= 8.03D-14 1.00D-09 XBig12= 1.58D-14 4.28D-09.
      3 vectors produced by pass160 Test12= 8.03D-14 1.00D-09 XBig12= 1.46D-14 4.24D-09.
      3 vectors produced by pass161 Test12= 8.03D-14 1.00D-09 XBig12= 8.94D-15 3.14D-09.
      3 vectors produced by pass162 Test12= 8.03D-14 1.00D-09 XBig12= 9.14D-15 3.51D-09.
      3 vectors produced by pass163 Test12= 8.03D-14 1.00D-09 XBig12= 1.78D-14 5.25D-09.
      3 vectors produced by pass164 Test12= 8.03D-14 1.00D-09 XBig12= 1.69D-14 4.79D-09.
      3 vectors produced by pass165 Test12= 8.03D-14 1.00D-09 XBig12= 1.94D-14 5.98D-09.
      3 vectors produced by pass166 Test12= 8.03D-14 1.00D-09 XBig12= 1.99D-14 4.80D-09.
      3 vectors produced by pass167 Test12= 8.03D-14 1.00D-09 XBig12= 1.05D-14 3.74D-09.
      3 vectors produced by pass168 Test12= 8.03D-14 1.00D-09 XBig12= 1.07D-14 3.45D-09.
      3 vectors produced by pass169 Test12= 8.03D-14 1.00D-09 XBig12= 1.70D-14 4.33D-09.
      3 vectors produced by pass170 Test12= 8.03D-14 1.00D-09 XBig12= 1.69D-14 4.08D-09.
      3 vectors produced by pass171 Test12= 8.03D-14 1.00D-09 XBig12= 1.77D-14 4.19D-09.
      3 vectors produced by pass172 Test12= 8.03D-14 1.00D-09 XBig12= 1.76D-14 4.81D-09.
      3 vectors produced by pass173 Test12= 8.03D-14 1.00D-09 XBig12= 9.71D-15 3.29D-09.
      3 vectors produced by pass174 Test12= 8.03D-14 1.00D-09 XBig12= 2.14D-14 4.88D-09.
      3 vectors produced by pass175 Test12= 8.03D-14 1.00D-09 XBig12= 1.12D-14 3.46D-09.
      3 vectors produced by pass176 Test12= 8.03D-14 1.00D-09 XBig12= 1.29D-14 3.98D-09.
      3 vectors produced by pass177 Test12= 8.03D-14 1.00D-09 XBig12= 6.82D-15 2.91D-09.
      3 vectors produced by pass178 Test12= 8.03D-14 1.00D-09 XBig12= 2.07D-14 5.22D-09.
      3 vectors produced by pass179 Test12= 8.03D-14 1.00D-09 XBig12= 1.30D-14 3.97D-09.
      3 vectors produced by pass180 Test12= 8.03D-14 1.00D-09 XBig12= 1.54D-14 4.36D-09.
      3 vectors produced by pass181 Test12= 8.03D-14 1.00D-09 XBig12= 1.42D-14 4.31D-09.
      3 vectors produced by pass182 Test12= 8.03D-14 1.00D-09 XBig12= 1.73D-14 4.18D-09.
      3 vectors produced by pass183 Test12= 8.03D-14 1.00D-09 XBig12= 9.00D-15 3.32D-09.
      3 vectors produced by pass184 Test12= 8.03D-14 1.00D-09 XBig12= 1.56D-14 4.36D-09.
      3 vectors produced by pass185 Test12= 8.03D-14 1.00D-09 XBig12= 9.18D-15 2.95D-09.
      3 vectors produced by pass186 Test12= 8.03D-14 1.00D-09 XBig12= 8.27D-15 3.02D-09.
      3 vectors produced by pass187 Test12= 8.03D-14 1.00D-09 XBig12= 1.23D-14 3.84D-09.
      3 vectors produced by pass188 Test12= 8.03D-14 1.00D-09 XBig12= 1.08D-14 3.57D-09.
      3 vectors produced by pass189 Test12= 8.03D-14 1.00D-09 XBig12= 1.24D-14 3.90D-09.
      3 vectors produced by pass190 Test12= 8.03D-14 1.00D-09 XBig12= 9.59D-15 3.44D-09.
      3 vectors produced by pass191 Test12= 8.03D-14 1.00D-09 XBig12= 1.47D-14 3.70D-09.
      3 vectors produced by pass192 Test12= 8.03D-14 1.00D-09 XBig12= 1.10D-14 3.77D-09.
      3 vectors produced by pass193 Test12= 8.03D-14 1.00D-09 XBig12= 1.91D-14 4.66D-09.
      3 vectors produced by pass194 Test12= 8.03D-14 1.00D-09 XBig12= 7.76D-15 3.38D-09.
      3 vectors produced by pass195 Test12= 8.03D-14 1.00D-09 XBig12= 8.46D-15 2.95D-09.
      3 vectors produced by pass196 Test12= 8.03D-14 1.00D-09 XBig12= 1.32D-14 3.96D-09.
      3 vectors produced by pass197 Test12= 8.03D-14 1.00D-09 XBig12= 1.25D-14 3.55D-09.
      3 vectors produced by pass198 Test12= 8.03D-14 1.00D-09 XBig12= 8.20D-15 2.88D-09.
      3 vectors produced by pass199 Test12= 8.03D-14 1.00D-09 XBig12= 8.75D-15 3.04D-09.
      3 vectors produced by pass200 Test12= 8.03D-14 1.00D-09 XBig12= 1.58D-14 4.26D-09.
      3 vectors produced by pass201 Test12= 8.03D-14 1.00D-09 XBig12= 1.35D-14 4.71D-09.
      3 vectors produced by pass202 Test12= 8.03D-14 1.00D-09 XBig12= 1.20D-14 3.73D-09.
      3 vectors produced by pass203 Test12= 8.03D-14 1.00D-09 XBig12= 1.39D-14 3.99D-09.
      3 vectors produced by pass204 Test12= 8.03D-14 1.00D-09 XBig12= 8.10D-15 3.08D-09.
      3 vectors produced by pass205 Test12= 8.03D-14 1.00D-09 XBig12= 1.81D-14 4.22D-09.
      3 vectors produced by pass206 Test12= 8.03D-14 1.00D-09 XBig12= 1.38D-14 4.18D-09.
      3 vectors produced by pass207 Test12= 8.03D-14 1.00D-09 XBig12= 1.41D-14 4.08D-09.
      3 vectors produced by pass208 Test12= 8.03D-14 1.00D-09 XBig12= 9.33D-15 3.03D-09.
      3 vectors produced by pass209 Test12= 8.03D-14 1.00D-09 XBig12= 8.83D-15 3.40D-09.
      3 vectors produced by pass210 Test12= 8.03D-14 1.00D-09 XBig12= 1.80D-14 5.16D-09.
      3 vectors produced by pass211 Test12= 8.03D-14 1.00D-09 XBig12= 1.12D-14 3.54D-09.
      3 vectors produced by pass212 Test12= 8.03D-14 1.00D-09 XBig12= 9.46D-15 3.12D-09.
      3 vectors produced by pass213 Test12= 8.03D-14 1.00D-09 XBig12= 9.35D-15 3.32D-09.
      3 vectors produced by pass214 Test12= 8.03D-14 1.00D-09 XBig12= 1.10D-14 3.53D-09.
      3 vectors produced by pass215 Test12= 8.03D-14 1.00D-09 XBig12= 9.99D-15 3.59D-09.
      3 vectors produced by pass216 Test12= 8.03D-14 1.00D-09 XBig12= 1.01D-14 3.93D-09.
      3 vectors produced by pass217 Test12= 8.03D-14 1.00D-09 XBig12= 1.19D-14 3.71D-09.
      3 vectors produced by pass218 Test12= 8.03D-14 1.00D-09 XBig12= 8.03D-15 3.11D-09.
      3 vectors produced by pass219 Test12= 8.03D-14 1.00D-09 XBig12= 1.47D-14 4.07D-09.
      3 vectors produced by pass220 Test12= 8.03D-14 1.00D-09 XBig12= 8.46D-15 3.13D-09.
      3 vectors produced by pass221 Test12= 8.03D-14 1.00D-09 XBig12= 1.77D-14 5.07D-09.
      3 vectors produced by pass222 Test12= 8.03D-14 1.00D-09 XBig12= 6.37D-15 2.58D-09.
      3 vectors produced by pass223 Test12= 8.03D-14 1.00D-09 XBig12= 7.87D-15 3.28D-09.
      3 vectors produced by pass224 Test12= 8.03D-14 1.00D-09 XBig12= 1.22D-14 3.31D-09.
      3 vectors produced by pass225 Test12= 8.03D-14 1.00D-09 XBig12= 6.66D-15 2.68D-09.
      3 vectors produced by pass226 Test12= 8.03D-14 1.00D-09 XBig12= 1.41D-14 4.06D-09.
      3 vectors produced by pass227 Test12= 8.03D-14 1.00D-09 XBig12= 8.67D-15 2.83D-09.
      3 vectors produced by pass228 Test12= 8.03D-14 1.00D-09 XBig12= 1.97D-14 4.75D-09.
      3 vectors produced by pass229 Test12= 8.03D-14 1.00D-09 XBig12= 6.37D-15 2.51D-09.
      3 vectors produced by pass230 Test12= 8.03D-14 1.00D-09 XBig12= 1.50D-14 4.06D-09.
      3 vectors produced by pass231 Test12= 8.03D-14 1.00D-09 XBig12= 7.06D-15 3.30D-09.
      3 vectors produced by pass232 Test12= 8.03D-14 1.00D-09 XBig12= 1.24D-14 4.13D-09.
      3 vectors produced by pass233 Test12= 8.03D-14 1.00D-09 XBig12= 9.02D-15 2.89D-09.
      3 vectors produced by pass234 Test12= 8.03D-14 1.00D-09 XBig12= 9.21D-15 4.03D-09.
      3 vectors produced by pass235 Test12= 8.03D-14 1.00D-09 XBig12= 1.22D-14 3.72D-09.
      3 vectors produced by pass236 Test12= 8.03D-14 1.00D-09 XBig12= 8.48D-15 3.22D-09.
      3 vectors produced by pass237 Test12= 8.03D-14 1.00D-09 XBig12= 1.11D-14 3.54D-09.
      3 vectors produced by pass238 Test12= 8.03D-14 1.00D-09 XBig12= 5.11D-15 2.63D-09.
      3 vectors produced by pass239 Test12= 8.03D-14 1.00D-09 XBig12= 1.07D-14 3.17D-09.
      3 vectors produced by pass240 Test12= 8.03D-14 1.00D-09 XBig12= 3.87D-15 1.88D-09.
      3 vectors produced by pass241 Test12= 8.03D-14 1.00D-09 XBig12= 1.61D-14 4.37D-09.
      3 vectors produced by pass242 Test12= 8.03D-14 1.00D-09 XBig12= 6.16D-15 2.59D-09.
      3 vectors produced by pass243 Test12= 8.03D-14 1.00D-09 XBig12= 1.29D-14 3.90D-09.
      3 vectors produced by pass244 Test12= 8.03D-14 1.00D-09 XBig12= 1.44D-14 4.08D-09.
      3 vectors produced by pass245 Test12= 8.03D-14 1.00D-09 XBig12= 9.13D-15 3.39D-09.
      3 vectors produced by pass246 Test12= 8.03D-14 1.00D-09 XBig12= 8.02D-15 2.86D-09.
      3 vectors produced by pass247 Test12= 8.03D-14 1.00D-09 XBig12= 9.42D-15 3.17D-09.
      3 vectors produced by pass248 Test12= 8.03D-14 1.00D-09 XBig12= 1.05D-14 3.93D-09.
      3 vectors produced by pass249 Test12= 8.03D-14 1.00D-09 XBig12= 8.05D-15 3.10D-09.
      3 vectors produced by pass250 Test12= 8.03D-14 1.00D-09 XBig12= 6.92D-15 3.03D-09.
      3 vectors produced by pass251 Test12= 8.03D-14 1.00D-09 XBig12= 9.74D-15 3.05D-09.
      3 vectors produced by pass252 Test12= 8.03D-14 1.00D-09 XBig12= 7.22D-15 2.93D-09.
      3 vectors produced by pass253 Test12= 8.03D-14 1.00D-09 XBig12= 1.11D-14 4.11D-09.
      3 vectors produced by pass254 Test12= 8.03D-14 1.00D-09 XBig12= 8.15D-15 2.85D-09.
      3 vectors produced by pass255 Test12= 8.03D-14 1.00D-09 XBig12= 9.73D-15 3.25D-09.
      3 vectors produced by pass256 Test12= 8.03D-14 1.00D-09 XBig12= 9.55D-15 3.36D-09.
      3 vectors produced by pass257 Test12= 8.03D-14 1.00D-09 XBig12= 1.43D-14 3.69D-09.
      3 vectors produced by pass258 Test12= 8.03D-14 1.00D-09 XBig12= 8.47D-15 3.05D-09.
      3 vectors produced by pass259 Test12= 8.03D-14 1.00D-09 XBig12= 1.29D-14 3.93D-09.
      3 vectors produced by pass260 Test12= 8.03D-14 1.00D-09 XBig12= 7.49D-15 2.93D-09.
      3 vectors produced by pass261 Test12= 8.03D-14 1.00D-09 XBig12= 4.08D-15 2.07D-09.
      3 vectors produced by pass262 Test12= 8.03D-14 1.00D-09 XBig12= 1.04D-14 3.45D-09.
      3 vectors produced by pass263 Test12= 8.03D-14 1.00D-09 XBig12= 5.26D-15 2.31D-09.
      3 vectors produced by pass264 Test12= 8.03D-14 1.00D-09 XBig12= 8.95D-15 3.32D-09.
      3 vectors produced by pass265 Test12= 8.03D-14 1.00D-09 XBig12= 5.53D-15 2.79D-09.
      3 vectors produced by pass266 Test12= 8.03D-14 1.00D-09 XBig12= 1.05D-14 3.40D-09.
      3 vectors produced by pass267 Test12= 8.03D-14 1.00D-09 XBig12= 1.52D-14 4.15D-09.
      3 vectors produced by pass268 Test12= 8.03D-14 1.00D-09 XBig12= 1.01D-14 3.27D-09.
      3 vectors produced by pass269 Test12= 8.03D-14 1.00D-09 XBig12= 1.15D-14 3.45D-09.
      3 vectors produced by pass270 Test12= 8.03D-14 1.00D-09 XBig12= 1.22D-14 3.71D-09.
      3 vectors produced by pass271 Test12= 8.03D-14 1.00D-09 XBig12= 6.97D-15 3.26D-09.
      3 vectors produced by pass272 Test12= 8.03D-14 1.00D-09 XBig12= 1.15D-14 3.32D-09.
      3 vectors produced by pass273 Test12= 8.03D-14 1.00D-09 XBig12= 1.03D-14 3.23D-09.
      3 vectors produced by pass274 Test12= 8.03D-14 1.00D-09 XBig12= 7.92D-15 2.96D-09.
      3 vectors produced by pass275 Test12= 8.03D-14 1.00D-09 XBig12= 9.01D-15 3.52D-09.
      3 vectors produced by pass276 Test12= 8.03D-14 1.00D-09 XBig12= 1.26D-14 3.92D-09.
      3 vectors produced by pass277 Test12= 8.03D-14 1.00D-09 XBig12= 4.62D-15 2.24D-09.
      3 vectors produced by pass278 Test12= 8.03D-14 1.00D-09 XBig12= 8.85D-15 2.98D-09.
      3 vectors produced by pass279 Test12= 8.03D-14 1.00D-09 XBig12= 5.29D-15 2.54D-09.
      3 vectors produced by pass280 Test12= 8.03D-14 1.00D-09 XBig12= 7.11D-15 2.93D-09.
      3 vectors produced by pass281 Test12= 8.03D-14 1.00D-09 XBig12= 7.74D-15 2.73D-09.
      3 vectors produced by pass282 Test12= 8.03D-14 1.00D-09 XBig12= 8.47D-15 2.83D-09.
      3 vectors produced by pass283 Test12= 8.03D-14 1.00D-09 XBig12= 9.42D-15 3.39D-09.
      3 vectors produced by pass284 Test12= 8.03D-14 1.00D-09 XBig12= 8.95D-15 3.16D-09.
      3 vectors produced by pass285 Test12= 8.03D-14 1.00D-09 XBig12= 9.58D-15 3.52D-09.
      3 vectors produced by pass286 Test12= 8.03D-14 1.00D-09 XBig12= 6.91D-15 2.63D-09.
      3 vectors produced by pass287 Test12= 8.03D-14 1.00D-09 XBig12= 7.31D-15 2.70D-09.
      3 vectors produced by pass288 Test12= 8.03D-14 1.00D-09 XBig12= 9.42D-15 3.08D-09.
      3 vectors produced by pass289 Test12= 8.03D-14 1.00D-09 XBig12= 7.64D-15 2.95D-09.
      3 vectors produced by pass290 Test12= 8.03D-14 1.00D-09 XBig12= 8.25D-15 2.64D-09.
      3 vectors produced by pass291 Test12= 8.03D-14 1.00D-09 XBig12= 8.85D-15 3.24D-09.
      3 vectors produced by pass292 Test12= 8.03D-14 1.00D-09 XBig12= 1.04D-14 2.99D-09.
      3 vectors produced by pass293 Test12= 8.03D-14 1.00D-09 XBig12= 8.94D-15 4.31D-09.
      3 vectors produced by pass294 Test12= 8.03D-14 1.00D-09 XBig12= 5.85D-15 2.81D-09.
      3 vectors produced by pass295 Test12= 8.03D-14 1.00D-09 XBig12= 1.31D-14 3.51D-09.
      3 vectors produced by pass296 Test12= 8.03D-14 1.00D-09 XBig12= 8.99D-15 2.94D-09.
      3 vectors produced by pass297 Test12= 8.03D-14 1.00D-09 XBig12= 4.25D-15 1.96D-09.
      3 vectors produced by pass298 Test12= 8.03D-14 1.00D-09 XBig12= 1.40D-14 3.75D-09.
      3 vectors produced by pass299 Test12= 8.03D-14 1.00D-09 XBig12= 6.18D-15 2.33D-09.
      3 vectors produced by pass300 Test12= 8.03D-14 1.00D-09 XBig12= 6.46D-15 2.60D-09.
      3 vectors produced by pass301 Test12= 8.03D-14 1.00D-09 XBig12= 9.97D-15 3.23D-09.
      3 vectors produced by pass302 Test12= 8.03D-14 1.00D-09 XBig12= 9.72D-15 3.10D-09.
      3 vectors produced by pass303 Test12= 8.03D-14 1.00D-09 XBig12= 8.95D-15 2.77D-09.
      3 vectors produced by pass304 Test12= 8.03D-14 1.00D-09 XBig12= 9.17D-15 3.12D-09.
      3 vectors produced by pass305 Test12= 8.03D-14 1.00D-09 XBig12= 5.05D-15 2.28D-09.
      3 vectors produced by pass306 Test12= 8.03D-14 1.00D-09 XBig12= 6.73D-15 2.78D-09.
      3 vectors produced by pass307 Test12= 8.03D-14 1.00D-09 XBig12= 1.06D-14 3.21D-09.
      3 vectors produced by pass308 Test12= 8.03D-14 1.00D-09 XBig12= 6.55D-15 2.75D-09.
      3 vectors produced by pass309 Test12= 8.03D-14 1.00D-09 XBig12= 7.53D-15 2.69D-09.
      3 vectors produced by pass310 Test12= 8.03D-14 1.00D-09 XBig12= 5.62D-15 2.34D-09.
      3 vectors produced by pass311 Test12= 8.03D-14 1.00D-09 XBig12= 8.38D-15 2.87D-09.
      3 vectors produced by pass312 Test12= 8.03D-14 1.00D-09 XBig12= 4.03D-15 2.10D-09.
      3 vectors produced by pass313 Test12= 8.03D-14 1.00D-09 XBig12= 8.37D-15 2.91D-09.
      3 vectors produced by pass314 Test12= 8.03D-14 1.00D-09 XBig12= 7.84D-15 3.31D-09.
      3 vectors produced by pass315 Test12= 8.03D-14 1.00D-09 XBig12= 3.81D-15 2.13D-09.
      3 vectors produced by pass316 Test12= 8.03D-14 1.00D-09 XBig12= 1.01D-14 3.89D-09.
      3 vectors produced by pass317 Test12= 8.03D-14 1.00D-09 XBig12= 5.45D-15 2.52D-09.
      3 vectors produced by pass318 Test12= 8.03D-14 1.00D-09 XBig12= 5.98D-15 2.88D-09.
      3 vectors produced by pass319 Test12= 8.03D-14 1.00D-09 XBig12= 6.56D-15 2.90D-09.
      3 vectors produced by pass320 Test12= 8.03D-14 1.00D-09 XBig12= 6.82D-15 2.72D-09.
      3 vectors produced by pass321 Test12= 8.03D-14 1.00D-09 XBig12= 8.13D-15 3.48D-09.
      3 vectors produced by pass322 Test12= 8.03D-14 1.00D-09 XBig12= 5.69D-15 2.66D-09.
      3 vectors produced by pass323 Test12= 8.03D-14 1.00D-09 XBig12= 4.71D-15 2.31D-09.
      3 vectors produced by pass324 Test12= 8.03D-14 1.00D-09 XBig12= 6.28D-15 3.12D-09.
      3 vectors produced by pass325 Test12= 8.03D-14 1.00D-09 XBig12= 9.31D-15 4.39D-09.
      3 vectors produced by pass326 Test12= 8.03D-14 1.00D-09 XBig12= 7.58D-15 2.78D-09.
      3 vectors produced by pass327 Test12= 8.03D-14 1.00D-09 XBig12= 9.41D-15 3.06D-09.
      3 vectors produced by pass328 Test12= 8.03D-14 1.00D-09 XBig12= 4.78D-15 2.21D-09.
      3 vectors produced by pass329 Test12= 8.03D-14 1.00D-09 XBig12= 1.15D-14 4.53D-09.
      3 vectors produced by pass330 Test12= 8.03D-14 1.00D-09 XBig12= 5.24D-15 2.22D-09.
      3 vectors produced by pass331 Test12= 8.03D-14 1.00D-09 XBig12= 6.64D-15 2.61D-09.
      3 vectors produced by pass332 Test12= 8.03D-14 1.00D-09 XBig12= 5.81D-15 2.86D-09.
      3 vectors produced by pass333 Test12= 8.03D-14 1.00D-09 XBig12= 7.57D-15 2.68D-09.
      3 vectors produced by pass334 Test12= 8.03D-14 1.00D-09 XBig12= 2.95D-15 1.63D-09.
      3 vectors produced by pass335 Test12= 8.03D-14 1.00D-09 XBig12= 1.06D-14 3.07D-09.
      3 vectors produced by pass336 Test12= 8.03D-14 1.00D-09 XBig12= 4.61D-15 2.06D-09.
      3 vectors produced by pass337 Test12= 8.03D-14 1.00D-09 XBig12= 5.28D-15 2.46D-09.
      3 vectors produced by pass338 Test12= 8.03D-14 1.00D-09 XBig12= 4.35D-15 2.52D-09.
      3 vectors produced by pass339 Test12= 8.03D-14 1.00D-09 XBig12= 8.00D-15 2.66D-09.
      3 vectors produced by pass340 Test12= 8.03D-14 1.00D-09 XBig12= 2.96D-15 1.68D-09.
      3 vectors produced by pass341 Test12= 8.03D-14 1.00D-09 XBig12= 1.11D-14 3.15D-09.
      3 vectors produced by pass342 Test12= 8.03D-14 1.00D-09 XBig12= 8.16D-15 2.93D-09.
      3 vectors produced by pass343 Test12= 8.03D-14 1.00D-09 XBig12= 9.52D-15 2.92D-09.
      3 vectors produced by pass344 Test12= 8.03D-14 1.00D-09 XBig12= 5.01D-15 2.28D-09.
      3 vectors produced by pass345 Test12= 8.03D-14 1.00D-09 XBig12= 7.68D-15 2.71D-09.
      3 vectors produced by pass346 Test12= 8.03D-14 1.00D-09 XBig12= 1.06D-14 3.58D-09.
      3 vectors produced by pass347 Test12= 8.03D-14 1.00D-09 XBig12= 1.05D-14 3.61D-09.
      3 vectors produced by pass348 Test12= 8.03D-14 1.00D-09 XBig12= 7.96D-15 2.99D-09.
      3 vectors produced by pass349 Test12= 8.03D-14 1.00D-09 XBig12= 3.94D-15 2.06D-09.
      3 vectors produced by pass350 Test12= 8.03D-14 1.00D-09 XBig12= 8.93D-15 2.91D-09.
      3 vectors produced by pass351 Test12= 8.03D-14 1.00D-09 XBig12= 7.31D-15 3.15D-09.
      3 vectors produced by pass352 Test12= 8.03D-14 1.00D-09 XBig12= 8.41D-15 2.73D-09.
      3 vectors produced by pass353 Test12= 8.03D-14 1.00D-09 XBig12= 4.99D-15 2.56D-09.
      3 vectors produced by pass354 Test12= 8.03D-14 1.00D-09 XBig12= 8.65D-15 2.84D-09.
      3 vectors produced by pass355 Test12= 8.03D-14 1.00D-09 XBig12= 5.18D-15 2.19D-09.
      3 vectors produced by pass356 Test12= 8.03D-14 1.00D-09 XBig12= 4.66D-15 2.00D-09.
      3 vectors produced by pass357 Test12= 8.03D-14 1.00D-09 XBig12= 7.23D-15 2.86D-09.
      3 vectors produced by pass358 Test12= 8.03D-14 1.00D-09 XBig12= 4.03D-15 2.20D-09.
      3 vectors produced by pass359 Test12= 8.03D-14 1.00D-09 XBig12= 4.87D-15 2.25D-09.
      3 vectors produced by pass360 Test12= 8.03D-14 1.00D-09 XBig12= 9.93D-15 3.06D-09.
      3 vectors produced by pass361 Test12= 8.03D-14 1.00D-09 XBig12= 3.34D-15 1.88D-09.
      3 vectors produced by pass362 Test12= 8.03D-14 1.00D-09 XBig12= 7.07D-15 2.33D-09.
      3 vectors produced by pass363 Test12= 8.03D-14 1.00D-09 XBig12= 3.89D-15 1.76D-09.
      3 vectors produced by pass364 Test12= 8.03D-14 1.00D-09 XBig12= 2.11D-15 1.52D-09.
      3 vectors produced by pass365 Test12= 8.03D-14 1.00D-09 XBig12= 7.67D-15 3.07D-09.
      3 vectors produced by pass366 Test12= 8.03D-14 1.00D-09 XBig12= 7.36D-15 2.65D-09.
      3 vectors produced by pass367 Test12= 8.03D-14 1.00D-09 XBig12= 4.68D-15 2.72D-09.
      3 vectors produced by pass368 Test12= 8.03D-14 1.00D-09 XBig12= 4.47D-15 2.32D-09.
      3 vectors produced by pass369 Test12= 8.03D-14 1.00D-09 XBig12= 8.40D-15 3.17D-09.
      3 vectors produced by pass370 Test12= 8.03D-14 1.00D-09 XBig12= 8.65D-15 2.71D-09.
      3 vectors produced by pass371 Test12= 8.03D-14 1.00D-09 XBig12= 5.03D-15 2.09D-09.
      3 vectors produced by pass372 Test12= 8.03D-14 1.00D-09 XBig12= 8.02D-15 2.85D-09.
      3 vectors produced by pass373 Test12= 8.03D-14 1.00D-09 XBig12= 6.64D-15 2.86D-09.
      3 vectors produced by pass374 Test12= 8.03D-14 1.00D-09 XBig12= 3.57D-15 1.70D-09.
      3 vectors produced by pass375 Test12= 8.03D-14 1.00D-09 XBig12= 9.20D-15 2.86D-09.
      3 vectors produced by pass376 Test12= 8.03D-14 1.00D-09 XBig12= 8.88D-15 2.78D-09.
      3 vectors produced by pass377 Test12= 8.03D-14 1.00D-09 XBig12= 5.66D-15 2.07D-09.
      3 vectors produced by pass378 Test12= 8.03D-14 1.00D-09 XBig12= 5.27D-15 2.07D-09.
      3 vectors produced by pass379 Test12= 8.03D-14 1.00D-09 XBig12= 7.26D-15 3.19D-09.
      3 vectors produced by pass380 Test12= 8.03D-14 1.00D-09 XBig12= 5.70D-15 2.59D-09.
      3 vectors produced by pass381 Test12= 8.03D-14 1.00D-09 XBig12= 5.26D-15 2.36D-09.
      3 vectors produced by pass382 Test12= 8.03D-14 1.00D-09 XBig12= 5.34D-15 2.43D-09.
      2 vectors produced by pass383 Test12= 8.03D-14 1.00D-09 XBig12= 2.93D-15 1.57D-09.
 InvSVY:  IOpt=1 It=  1 EMax= 1.55D-15
 Solved reduced A of dimension  3176 with   114 vectors.
 End of Minotr F.D. properties file   721 does not exist.
 End of Minotr F.D. properties file   722 does not exist.
 End of Minotr F.D. properties file   788 does not exist.

 **********************************************************************

            Population analysis using the SCF density.

 **********************************************************************

 Orbital symmetries:
[...]
 23,-0.00345472,0.00039935,0.00345866,0.00570241,0.00001349,-0.00340713
 ,-0.00189901,-0.00108577,0.00515737,0.00620282,-0.00031470,-0.02210955
 ,0.00658062,0.00046196,0.03736394,-0.01550267,0.00130713,-0.05428614,-
 0.02853112,-0.00048799,0.01923800,0.00221649,-0.00115964,-0.00692075,-
 0.00986706,0.00037592,-0.00740040,0.00260422,0.00053037,0.00520127,0.0
 0109005,-0.00048012,-0.00034338,-0.00478945,0.00003950,0.00216417,0.00
 241366,-0.00019833,-0.00321918,0.00191842,0.00022285,0.00007950,0.0000
 0783,0.00004988,-0.00005291,-0.00008524,-0.00002152,-0.00663459,-0.009
 86568,-0.00060186,-0.11874137,0.01493316,-0.00313205,-0.36421642,0.069
 10667,-0.00190728,0.00002386,0.00035603,0.00009327,0.00000076,0.000102
 77,0.00000961,-0.00001119,0.00006858,0.00004685,-0.00007921,0.00005136
 ,0.00001988,-0.00006232,-0.00015058,0.00002584,-0.00041403,-0.00033771
 ,-0.00004688,0.00051522,-0.00012659,0.00002035,-0.00003661,0.00003639,
 0.00007058,-0.00006268,0.00003439,0.00003252,-0.01156987,0.03841826,0.
 00011065,0.70022787,-0.00159959,-0.00056557,-0.00001736,0.00014304,-0.
 00089439,0.00014255,0.00061065,-0.00142355,0.00000389,0.00120602,0.002
 15593,-0.00004643,-0.00563586,-0.00508885,-0.00003931,-0.00300164,-0.0
 0254418,-0.00045193,-0.00620338,-0.00449159,0.00067286,0.01693279,-0.0
 0251270,-0.00070172,-0.02387606,-0.04799723,-0.00158205,-0.00561856,0.
 02702445,0.00063041,-0.01379341,-0.00921708,0.00023811,0.00374933,0.00
 862882,-0.00006777,0.00756635,-0.00221243,-0.00063216,-0.00432800,-0.0
 0173372,0.00043241,0.00052632,0.00415966,-0.00007125,-0.00300247,-0.00
 195250,0.00022802,0.00295424,-0.00245307,-0.00018603,-0.00000241,0.000
 02569,-0.00001449,0.00001737,0.00002049,0.00000045,0.00045766,0.012796
 62,-0.00056156,0.03945562,-0.22370030,-0.00236882,0.02326552,-0.132372
 02,-0.00281817,-0.00034438,-0.00011961,-0.00006055,0.00003586,-0.00006
 296,-0.00000542,0.00003358,-0.00002814,-0.00002011,0.00006452,-0.00003
 362,-0.00000643,-0.00002589,0.00003792,-0.00002747,0.00027838,-0.00006
 104,0.00007956,-0.00020797,0.00011794,-0.00001400,0.00000648,-0.000021
 73,-0.00003439,0.00000495,0.00001067,0.00001045,0.01715006,-0.01296363
 ,0.00096116,0.05729359,0.61875116,0.00008221,0.00002348,0.00021467,-0.
 00006776,0.00010764,-0.00023454,-0.00004392,-0.00026355,-0.00034367,0.
 00011438,-0.00017659,-0.00081235,0.00013538,0.00002519,-0.00087409,-0.
 00082527,0.00058641,0.00692384,-0.00004331,-0.00000987,-0.00077956,0.0
 0007509,-0.00015927,-0.00197209,0.00006134,-0.00344343,0.00537483,-0.0
 0033081,0.00090255,0.00401746,0.00007122,-0.00045149,0.00393483,-0.000
 07012,0.00011599,0.00021695,0.00005539,-0.00000237,0.00007040,-0.00007
 395,-0.00003606,-0.00059389,0.00000428,0.00001879,0.00014309,0.0000104
 1,0.00002658,0.00020379,-0.00001007,-0.00001605,-0.00007564,0.00001095
 ,-0.00000476,-0.00002509,-0.00000399,-0.00000349,0.00008453,-0.0008941
 4,-0.00011365,0.00452170,-0.00106100,-0.00344169,-0.06029554,-0.004749
 30,-0.00195146,-0.05857998,-0.00003237,0.00000891,-0.00015901,-0.00000
 397,0.00000154,-0.00000053,0.00000478,0.00000067,0.00000322,-0.0000029
 4,0.00000160,-0.00003311,0.00000418,-0.00000347,0.00005793,-0.00003965
 ,-0.00003408,-0.00009875,0.00001056,-0.00000323,0.00000926,0.00001184,
 0.00000970,0.00001125,0.00000257,0.00000002,0.00000111,-0.00049591,0.0
 0263374,-0.00007409,0.01446980,0.01444894,0.13259222,-0.00002755,-0.00
 027800,0.00002135,0.00005468,0.00002679,0.00003123,-0.00006083,0.00096
 890,-0.00026301,0.00113582,0.00090935,0.00014958,-0.01759235,0.0098061
 4,-0.00245411,-0.00216347,-0.00426439,-0.00011654,-0.00044174,-0.00011
 616,-0.00000877,-0.00019296,0.00014044,0.00002207,0.00057883,-0.000587
 29,0.00017094,-0.00000638,-0.00008425,-0.00000732,-0.00002737,0.000004
 73,0.00000105,-0.00001887,0.00003567,0.00001240,0.00006937,0.00013263,
 0.00002655,-0.00001479,0.00000630,-0.00000758,0.00000089,0.00001403,0.
 00000605,-0.00002116,-0.00004519,0.00000159,0.00001317,-0.00001166,-0.
 00000530,-0.00003431,-0.00004978,-0.00000308,0.00001097,-0.00093019,0.
 00011796,-0.30182364,0.08362382,-0.02747557,0.00171667,0.00030986,-0.0
 0066879,0.00007713,0.00014896,0.00004715,-0.00000836,0.00000745,0.0000
 0158,-0.00000529,0.00000643,-0.00000059,-0.00001355,0.00000562,0.00000
 688,-0.00000349,-0.00000516,-0.00000365,-0.00000939,0.00000452,0.00000
 158,0.00006213,-0.00004423,-0.00002420,-0.00002036,-0.00002645,0.00000
 644,-0.00002665,-0.00002542,0.00000672,0.00000653,0.00000154,0.0000070
 7,-0.00184084,-0.00060842,-0.00049055,-0.00014908,-0.00013942,-0.00006
 559,0.31984916,0.00044539,-0.00000594,0.00001899,-0.00016722,0.0003068
 9,-0.00004477,-0.00062673,0.00061530,-0.00011794,0.00007966,0.00139343
 ,-0.00026315,-0.01971470,0.01057760,-0.00234174,-0.00336931,-0.0028739
 7,0.00015987,-0.00028816,-0.00012773,0.00002557,-0.00014715,0.00016713
 ,-0.00003146,-0.00037158,-0.00077846,-0.00002729,-0.00008612,-0.000145
 68,-0.00000102,-0.00003032,0.00004189,0.00001402,-0.00001852,0.0000055
 1,-0.00000235,0.00001511,0.00010285,-0.00000843,-0.00001458,0.00001703
 ,-0.00000052,0.00000681,0.00001841,0.00001072,0.00000093,-0.00000692,-
 0.00001053,0.00002023,-0.00000859,-0.00000495,0.00001578,-0.00000495,0
 .00000769,0.00063111,-0.00028810,0.00011260,0.08148336,-0.08557001,0.0
 0977293,-0.00020450,-0.00556867,0.00042358,0.00012450,-0.00049134,-0.0
 0004014,-0.00000277,-0.00000355,0.00000107,-0.00000379,-0.00000205,-0.
 00000156,-0.00000042,0.00000209,0.00000617,0.00000020,0.00000206,-0.00
 000522,0.00000345,0.00000021,0.00000076,0.00007695,-0.00002894,0.00002
 332,-0.00002187,0.00001716,-0.00000030,-0.00000780,-0.00001386,-0.0000
 0154,0.00000695,-0.00000434,-0.00000210,0.03020155,-0.00712203,0.00319
 523,0.00124954,0.00054583,0.00010977,-0.08923797,0.08843496,-0.0002472
 2,-0.00002862,-0.00017710,0.00014389,-0.00013816,0.00000243,-0.0000320
 5,0.00021493,0.00059697,0.00047754,-0.00009516,-0.00230876,-0.00166772
 ,-0.00013698,0.00226235,-0.00013387,-0.00035145,0.00416998,-0.00001951
 ,-0.00001095,0.00030693,-0.00001111,0.00004353,-0.00057071,0.00031076,
 0.00025546,-0.00098809,0.00001653,0.00001315,0.00015407,-0.00000508,0.
 00000009,0.00000919,0.00001294,0.00000587,-0.00001017,-0.00003903,-0.0
 0001398,-0.00031027,0.00000016,0.00000085,0.00005577,0.00000651,0.0000
 0449,0.00000205,-0.00000457,0.00000215,-0.00000357,0.00000558,-0.00000
 720,0.00000223,-0.00001121,0.00000718,0.00010749,-0.00004779,-0.000037
 06,0.00030538,-0.02727954,0.01083080,-0.03740101,-0.00066120,0.0005353
 5,0.00842827,-0.00001010,0.00008675,-0.00046410,0.00000095,-0.00000054
 ,-0.00000177,0.00000057,0.00000008,-0.00000320,-0.00000299,0.00000300,
 -0.00000279,0.00000038,0.00000012,-0.00000107,-0.00000104,0.00000076,-
 0.00000277,0.00002933,0.00000553,0.00006388,-0.00000733,0.00000925,-0.
 00000465,-0.00001014,0.00000239,-0.00000139,-0.00000113,-0.00000315,-0
 .00000500,-0.00154848,-0.00024100,0.00346536,-0.00019804,-0.00008600,0
 .00043957,0.03034288,-0.01072221,0.02729181,0.00017483,0.00003770,0.00
 005869,-0.00009400,0.00014560,-0.00003893,-0.00014060,-0.00019145,0.00
 005730,0.00024982,-0.00003524,-0.00001788,0.00094464,0.00197938,-0.000
 81142,0.00016762,0.00088587,0.00007291,-0.00054702,0.00018092,0.000007
 25,0.00000096,-0.00148682,-0.00018320,-0.00489484,0.00364528,-0.000548
 24,0.00011323,-0.00002865,-0.00000480,0.00000843,0.00005557,0.00001298
 ,-0.00002606,0.00001815,-0.00000254,0.00009576,-0.00018215,0.00001959,
 0.00001271,-0.00001971,-0.00000214,-0.00003185,0.00001587,0.00000176,-
 0.00010140,0.00005198,0.00001503,0.00000105,-0.00003895,-0.00000203,0.
 00003137,0.00001682,0.00000427,0.00000214,-0.00001893,-0.00001264,0.00
 677633,0.00537503,0.00017656,-0.01693247,-0.01976783,-0.00146963,-0.00
 013726,0.00028263,0.00001564,-0.00003681,0.00001362,0.00000155,-0.0000
 0673,0.00000759,0.00000048,-0.00000337,-0.00000156,0.00000262,-0.00000
 938,-0.00000381,0.00000090,-0.00000635,-0.00000209,0.00000028,0.000013
 65,-0.00000981,-0.00000925,0.00000653,-0.00000383,-0.00000571,-0.00000
 671,-0.00000436,0.00000597,0.00000009,0.00000721,0.00001013,-0.2275697
 9,-0.13420152,-0.01311292,0.00148628,-0.00100233,0.00018639,0.00094305
 ,-0.00017963,0.00060735,0.23972289,-0.00005904,-0.00050463,0.00006923,
 0.00018503,-0.00013911,0.00004266,0.00004146,0.00018397,-0.00004152,-0
 .00133292,0.00012049,-0.00014344,0.00265334,-0.00453064,0.00069914,0.0
 0051493,-0.00037710,0.00002702,0.00012082,-0.00015233,0.00000398,0.000
 47157,0.00059072,0.00003203,0.00282623,-0.00026197,0.00029888,0.000019
 35,0.00020175,0.00001449,-0.00006806,-0.00003624,0.00000139,0.00003276
 ,0.00005036,0.00000627,0.00003750,0.00009329,-0.00001725,-0.00002239,-
 0.00000833,0.00000053,0.00000359,0.00001034,-0.00000481,0.00000985,-0.
 00005211,0.00000443,0.00001033,0.00000838,-0.00000021,-0.00013661,-0.0
 0007865,0.00000321,0.00004158,-0.00003301,0.00000886,-0.02549247,-0.01
 596686,-0.00176958,0.00945562,0.01059141,0.00069761,-0.00030611,-0.000
 02670,-0.00001328,0.00000436,0.00000221,-0.00000145,0.00000016,0.00000
 382,0.00000067,-0.00000718,-0.00000170,-0.00000405,0.00000153,-0.00000
 395,0.00000223,-0.00000643,0.00000421,0.00000029,-0.00000297,0.0000275
 3,-0.00001629,-0.00001460,-0.00001900,0.00000004,-0.00000051,-0.000003
 84,-0.00000034,0.00000019,-0.00000004,0.00000240,-0.13191136,-0.162183
 09,-0.00846414,-0.00022809,0.00112390,-0.00004960,0.00026387,0.0008638
 5,-0.00015661,0.14346974,0.17066327,0.00007677,-0.00012093,-0.00063555
 ,-0.00002170,0.00000610,0.00016383,0.00003030,-0.00004546,-0.00064538,
 -0.00013231,0.00001491,0.00044101,-0.00074954,0.00054891,0.00861784,0.
 00016476,-0.00012310,-0.00082531,-0.00004763,0.00002351,0.00001215,-0.
 00008383,-0.00021729,0.00047193,-0.00052445,0.00076728,0.00452827,0.00
 010434,0.00002840,-0.00008470,-0.00004839,-0.00001788,0.00003057,0.000
 03618,0.00002559,-0.00000942,-0.00004306,-0.00002234,-0.00009230,-0.00
 001664,-0.00000362,-0.00000145,0.00000678,0.00000880,-0.00000895,0.000
 00880,0.00001020,-0.00002395,-0.00000873,-0.00000938,0.00001668,-0.000
 00788,-0.00002014,-0.00006581,-0.00000831,0.00002553,0.00016505,0.0009
 0268,0.00156704,0.00322875,-0.00270251,-0.00162644,0.00221398,-0.00009
 436,-0.00001219,-0.00011927,-0.00000168,0.00000102,0.00000906,-0.00000
 027,0.00000027,0.00000373,-0.00000248,0.00000204,0.00000196,-0.0000005
 4,0.00000217,0.00000647,-0.00000063,0.00000058,0.00000215,0.00002417,0
 .00002743,0.00007465,0.00001787,0.00000178,-0.00000608,0.00000959,-0.0
 0001862,0.00000079,0.00000114,-0.00000237,0.00000187,-0.01281114,-0.00
 937928,-0.03549137,0.00036960,-0.00007940,-0.00210783,0.00061496,-0.00
 024777,-0.00543920,0.01495014,0.00877583,0.02527394,0.00003126,0.00002
 017,-0.00000130,0.00005963,0.00002774,0.00000033,-0.00014792,0.0001251
 4,-0.00000542,-0.00002476,-0.00004995,0.00000602,0.00019596,-0.0000044
 3,0.00001780,0.00056227,0.00043096,0.00002329,0.00020806,0.00003381,-0
 .00000363,-0.00029943,0.00042389,0.00001972,-0.00024948,0.00270706,-0.
 00004359,-0.00421028,0.00300033,-0.00015130,0.00002203,-0.00137598,-0.
 00005925,-0.00051351,0.00006966,0.00009443,-0.00010979,0.00003977,0.00
 000065,0.00008114,-0.00014309,-0.00000653,-0.00008268,-0.00006907,0.00
 000037,0.00005734,0.00006412,-0.00000516,-0.00007628,0.00004678,0.0000
 0591,-0.00000074,-0.00000680,-0.00000056,0.00000361,0.00000415,-0.0000
 0016,-0.00004957,-0.00029212,0.00000345,0.01026535,0.00881839,0.000521
 69,-0.01696512,-0.02490282,-0.00125221,-0.00003448,0.00004688,-0.00001
 122,0.00000202,0.00001299,0.00000228,-0.00000320,0.00000093,0.00000137
 ,-0.00000529,-0.00000524,0.00000434,-0.00001759,-0.00001635,0.00000067
 ,-0.00000915,0.00001107,-0.00002013,0.00001501,-0.00001199,-0.00000300
 ,0.00000019,0.00000078,0.00000521,-0.00000399,0.00000495,0.00000917,0.
 00110637,-0.00025833,0.00010914,-0.16988536,-0.13371010,-0.00746476,0.
 00000325,-0.00002400,0.00000150,-0.00016393,-0.00054871,-0.00000951,0.
 17937558,0.00000412,-0.00005671,0.00000739,-0.00015477,0.00004074,0.00
 000439,0.00017770,-0.00053374,0.00003536,0.00004757,0.00002870,0.00001
 203,0.00003431,0.00010722,-0.00000823,-0.00154246,0.00001109,-0.000219
 59,-0.00025338,-0.00010815,0.00001138,0.00084520,0.00020061,0.00003470
 ,0.00362475,-0.00509677,0.00016555,0.00224338,0.00057880,-0.00030117,-
 0.00009850,0.00031524,-0.00000540,0.00014561,0.00012364,0.00001832,0.0
 0017165,-0.00001922,-0.00001487,-0.00005649,0.00001162,0.00000830,-0.0
 0001658,0.00007443,0.00000052,-0.00006567,-0.00006610,0.00001321,0.000
 06294,-0.00001443,-0.00000818,0.00000411,-0.00001154,-0.00000217,0.000
 01302,-0.00003603,0.00000660,0.00026255,-0.00016451,0.00001818,-0.0204
 8748,-0.01659189,-0.00138221,0.00623285,0.00744498,0.00024460,-0.00001
 637,0.00000033,-0.00000802,-0.00000723,0.00000401,0.00000017,-0.000009
 93,-0.00000041,0.00000104,-0.00000229,-0.00000505,-0.00000153,-0.00000
 204,0.00000755,-0.00000042,0.00002654,-0.00002865,-0.00000207,-0.00001
 401,-0.00002011,0.00000200,-0.00001961,-0.00001732,0.00000421,0.000007
 70,0.00000004,0.00000224,-0.00093636,0.00152639,-0.00007195,-0.1363684
 0,-0.22003946,-0.00859780,0.00003403,-0.00004408,0.00000285,0.00095502
 ,-0.00016258,0.00011124,0.14530714,0.23150550,0.00001279,0.00001553,-0
 .00001488,-0.00000826,-0.00002430,-0.00006675,0.00002717,-0.00000451,-
 0.00000942,-0.00001845,-0.00002776,0.00004033,0.00005005,0.00007549,-0
 .00005410,-0.00010739,-0.00006445,0.00032916,0.00001982,0.00001997,-0.
 00055847,-0.00011825,0.00014659,-0.00064022,0.00027404,0.00006886,0.00
 387434,-0.00019742,-0.00018408,0.00939381,0.00003628,-0.00015000,0.000
 37293,-0.00015532,-0.00002522,-0.00096830,-0.00003611,0.00002097,0.000
 16398,0.00001478,-0.00000451,-0.00009183,-0.00000904,-0.00002140,0.000
 09103,0.00003353,0.00000924,0.00007548,-0.00001840,0.00002254,-0.00001
 492,-0.00000010,-0.00000198,-0.00000094,0.00000011,0.00000022,0.000005
 03,-0.00002241,-0.00011654,-0.00013935,-0.00018715,-0.00116462,0.00251
 924,0.00035632,-0.00052855,0.00367554,0.00002279,-0.00000531,0.0002821
 1,-0.00000183,0.00000036,-0.00001883,-0.00000052,-0.00000054,-0.000001
 65,-0.00000142,-0.00000043,-0.00001352,-0.00000014,-0.00000113,0.00001
 809,0.00001178,0.00000287,0.00000195,-0.00001289,-0.00000257,0.0000010
 7,-0.00000247,0.00000446,0.00000424,0.00000085,0.00000381,0.00000145,0
 .00009501,0.00014302,-0.00169543,-0.00823680,-0.00812650,-0.03565874,-
 0.00000695,0.00000213,0.00008245,0.00002340,-0.00001264,0.00016726,0.0
 0807245,0.00965873,0.02481296,0.00007596,-0.00000934,0.00000670,0.0000
 6492,0.00005806,-0.00001748,-0.00017699,-0.00031542,0.00002712,0.00001
 729,-0.00008357,0.00001421,-0.00014441,-0.00002856,-0.00000728,0.00021
 475,-0.00013486,0.00000812,0.00064987,-0.00065520,-0.00008949,-0.00332
 339,-0.00315348,0.00004462,-0.00063963,-0.00031194,-0.00000042,0.01002
 627,-0.02080319,-0.00085216,0.00152066,0.00002045,-0.00011275,0.000010
 02,0.00035200,-0.00000721,0.00028954,-0.00003931,-0.00001433,-0.000076
 87,-0.00002488,0.00000458,0.00002741,0.00006641,-0.00000058,-0.0000768
 1,0.00004174,0.00000616,0.00002276,-0.00007830,-0.00000205,0.00001539,
 0.00000052,0.00000253,-0.00000530,-0.00000206,-0.00000189,-0.00047228,
 0.00012517,-0.00005130,-0.00551513,-0.00021832,-0.00026410,-0.08093958
 ,0.07597984,0.00249879,-0.00029563,0.00066978,0.00006261,-0.00002082,-
 0.00000287,0.00000171,0.00000352,-0.00000222,0.00000096,-0.00000184,0.
 00000460,-0.00000028,0.00000290,0.00000215,-0.00000065,-0.00000243,0.0
 0000272,0.00000758,0.00000491,0.00000718,-0.00000183,0.00000173,0.0000
 0199,0.00000027,-0.00000014,0.00000250,0.00000221,0.00058139,0.0012702
 0,0.00007118,-0.00664634,0.03073916,0.00096806,-0.00001922,0.00015561,
 -0.00001769,-0.00004280,-0.00002640,-0.00000248,0.00086348,-0.00014863
 ,0.00009018,0.08400686,0.00006293,-0.00001780,0.00000703,0.00007010,0.
 00009095,0.00000213,-0.00016962,-0.00043408,0.00003153,-0.00000241,-0.
 00006607,0.00000842,-0.00010542,0.00003970,-0.00000588,0.00016242,-0.0
 0017585,0.00000325,0.00099426,-0.00012114,-0.00017656,-0.00426872,-0.0
 0180165,0.00008944,-0.00044634,0.00060750,0.00005312,0.00881481,-0.017
 29010,-0.00081982,0.00097128,0.00110232,-0.00003112,-0.00040211,0.0000
 2276,0.00001512,0.00003251,0.00006588,0.00000530,0.00009652,-0.0000694
 1,-0.00000476,-0.00002289,-0.00007494,-0.00000196,-0.00004632,0.000103
 00,0.00000864,-0.00008785,-0.00003638,0.00000654,0.00001458,-0.0000154
 3,0.00000025,0.00000692,-0.00000721,0.00000160,0.00017338,0.00008214,0
 .00002959,0.00051141,0.00162878,-0.00026702,0.07838413,-0.30881226,-0.
 00843054,-0.00092612,0.00006297,0.00008362,-0.00002064,0.00001897,0.00
 000158,-0.00000689,0.00000110,0.00000399,-0.00000937,-0.00000060,0.000
 00169,-0.00001618,-0.00000497,0.00000131,-0.00000031,0.00000278,-0.000
 02217,0.00000982,-0.00001803,0.,-0.00000904,-0.00000610,0.00000861,0.0
 0000059,0.00000575,0.00001167,-0.00012648,-0.00020600,-0.00003791,-0.0
 0043726,-0.00290970,-0.00025963,0.00000288,-0.00002299,0.00000447,0.00
 003469,0.00000237,-0.00000243,0.00022227,0.00103587,0.00027226,-0.0834
 6153,0.32721785,-0.00000587,0.00000975,-0.00003886,-0.00000234,-0.0000
 5324,-0.00028180,-0.00003271,0.00002377,0.00027565,0.00000923,0.000013
 65,0.00002147,-0.00001746,-0.00000308,0.00015522,0.00005408,-0.0000401
 7,-0.00057338,0.00013448,-0.00007102,0.00057455,-0.00028739,0.00003023
 ,0.00352647,0.00020283,0.00016789,-0.00093400,-0.00030604,-0.00124368,
 0.00230703,0.00008359,0.00022074,-0.00190766,-0.00008080,-0.00013580,-
 0.00015995,-0.00006687,0.00005623,-0.00001259,0.00005807,0.00001319,0.
 00000712,-0.00000708,-0.00005124,0.00000944,0.00001874,0.00002072,0.00
 005284,-0.00003328,0.00002806,-0.00002610,-0.00000769,0.00001190,0.000
 08123,-0.00000131,0.00000118,-0.00000012,0.00009719,-0.00000648,-0.000
 57767,-0.00019952,-0.00024205,0.00905625,0.00331857,-0.00842909,-0.034
 77971,-0.00001692,-0.00001316,0.00029214,0.00000077,0.00000066,0.00002
 001,-0.00000175,0.00000422,-0.00000045,-0.00000077,-0.00000030,0.00000
 752,-0.00000156,-0.00000059,-0.00000100,0.00000764,-0.00000266,-0.0000
 0619,0.00001641,-0.00000487,0.00000635,-0.00000083,0.00000303,0.000001
 23,-0.00000165,-0.00000095,-0.00000089,-0.00004420,-0.00014114,0.00044
 009,-0.00064567,0.00017049,0.00389788,0.00000558,-0.00000941,-0.000050
 55,-0.00000984,0.00000400,0.00012464,0.00013795,0.00026063,-0.00596509
 ,-0.00237359,0.00940861,0.02445885\\-0.00000107,-0.00000324,-0.0000029
 2,-0.00000103,-0.00000083,-0.00000292,0.00000045,0.00000229,-0.0000020
 1,0.00000561,0.00000308,-0.00000315,-0.00000527,0.00000268,-0.00000306
 ,0.00000346,0.00000450,-0.00000069,0.00000045,0.00000174,0.00000005,0.
 00000303,0.00000094,0.00000047,-0.00000117,0.00000120,0.00000013,-0.00
 000097,-0.00000502,0.00000223,-0.00000064,0.00000145,0.00000312,-0.000
 00287,-0.00000301,0.00000313,-0.00000062,-0.00000159,0.00000049,-0.000
 00014,0.00000010,0.00000340,-0.00000189,-0.00000381,0.00000369,0.00000
 261,-0.00000452,0.00000045,0.00000070,-0.00000223,0.00000178,0.0000023
 6,0.00000065,-0.00000420,0.00000198,0.00000234,-0.00000475,0.00000295,
 -0.00000305,-0.00000131,-0.00000671,-0.00000348,-0.00000024,-0.0000071
 9,0.00000260,0.00000234,-0.00000093,-0.00000086,0.00000368,-0.00000088
 ,-0.00000230,0.00000391,0.00000186,-0.00000100,-0.00000221,0.00000069,
 -0.00000252,0.00000098,-0.00000014,-0.00000316,0.00000357,0.00000805,-
 0.00000081,0.00000128,-0.00000554,0.00000376,-0.00000237,0.00000210,-0
 .00000114,-0.00000325,0.00000129,-0.00000103,-0.00000268,0.00000003,0.
 00000716,-0.00000144,0.00000530,0.00000186,0.00000129,0.00000036,0.000
 00231,-0.00000285,-0.00000124,0.00000297,-0.00000094,-0.00000201,0.000
 00148,0.00000163,-0.00000297,0.00000049,0.00000337\\\@


 YOU KNOW YOU'RE A TEACHER WHEN YOU SAY 2, WRITE 3, AND MEAN 4.
 -- RONALD ANSTROM, HIGH SCHOOL TEACHER, UNDERWOOD, N.D. 1974
 Job cpu time:       2 days 21 hours 28 minutes  0.2 seconds.
 File lengths (MBytes):  RWF=   7906 Int=      0 D2E=      0 Chk=     39 Scr=      1
 Normal termination of Gaussian 09 at Sun Feb  2 02:13:18 2020.
