 Entering Gaussian System, Link 0=g09
 Initial command:
 /usr/local/Cluster-Apps/gaussian/g09/l1.exe "/rds/user/am2145/hpc-work/scratch/19184584/Gau-20297.inp" -scrdir="/rds/user/am2145/hpc-work/scratch/19184584/"
 Entering Link 1 = /usr/local/Cluster-Apps/gaussian/g09/l1.exe PID=     20298.
  
 Copyright (c) 1988,1990,1992,1993,1995,1998,2003,2009,2013,
            Gaussian, Inc.  All Rights Reserved.
  
 This is part of the Gaussian(R) 09 program.  It is based on
 the Gaussian(R) 03 system (copyright 2003, Gaussian, Inc.),
 the Gaussian(R) 98 system (copyright 1998, Gaussian, Inc.),
 the Gaussian(R) 94 system (copyright 1995, Gaussian, Inc.),
 the Gaussian 92(TM) system (copyright 1992, Gaussian, Inc.),
 the Gaussian 90(TM) system (copyright 1990, Gaussian, Inc.),
 the Gaussian 88(TM) system (copyright 1988, Gaussian, Inc.),
 the Gaussian 86(TM) system (copyright 1986, Carnegie Mellon
 University), and the Gaussian 82(TM) system (copyright 1983,
 Carnegie Mellon University). Gaussian is a federally registered
 trademark of Gaussian, Inc.
  
 This software contains proprietary and confidential information,
 including trade secrets, belonging to Gaussian, Inc.
  
 This software is provided under written license and may be
 used, copied, transmitted, or stored only in accord with that
 written license.
  
 The following legend is applicable only to US Government
 contracts under FAR:
  
                    RESTRICTED RIGHTS LEGEND
  
 Use, reproduction and disclosure by the US Government is
 subject to restrictions as set forth in subparagraphs (a)
 and (c) of the Commercial Computer Software - Restricted
 Rights clause in FAR 52.227-19.
  
 Gaussian, Inc.
 340 Quinnipiac St., Bldg. 40, Wallingford CT 06492
  
  
 ---------------------------------------------------------------
 Warning -- This program may not be used in any manner that
 competes with the business of Gaussian, Inc. or will provide
 assistance to any competitor of Gaussian, Inc.  The licensee
 of this program is prohibited from giving any competitor of
 Gaussian, Inc. access to this program.  By using this program,
 the user acknowledges that Gaussian, Inc. is engaged in the
 business of creating and licensing software in the field of
 computational chemistry and represents and warrants to the
 licensee that it is not a competitor of Gaussian, Inc. and that
 it will not use this program in any manner prohibited above.
 ---------------------------------------------------------------
  

 Cite this work as:
 Gaussian 09, Revision D.01,
 M. J. Frisch, G. W. Trucks, H. B. Schlegel, G. E. Scuseria, 
 M. A. Robb, J. R. Cheeseman, G. Scalmani, V. Barone, B. Mennucci, 
 G. A. Petersson, H. Nakatsuji, M. Caricato, X. Li, H. P. Hratchian, 
 A. F. Izmaylov, J. Bloino, G. Zheng, J. L. Sonnenberg, M. Hada, 
 M. Ehara, K. Toyota, R. Fukuda, J. Hasegawa, M. Ishida, T. Nakajima, 
 Y. Honda, O. Kitao, H. Nakai, T. Vreven, J. A. Montgomery, Jr., 
 J. E. Peralta, F. Ogliaro, M. Bearpark, J. J. Heyd, E. Brothers, 
 K. N. Kudin, V. N. Staroverov, T. Keith, R. Kobayashi, J. Normand, 
 K. Raghavachari, A. Rendell, J. C. Burant, S. S. Iyengar, J. Tomasi, 
 M. Cossi, N. Rega, J. M. Millam, M. Klene, J. E. Knox, J. B. Cross, 
 V. Bakken, C. Adamo, J. Jaramillo, R. Gomperts, R. E. Stratmann, 
 O. Yazyev, A. J. Austin, R. Cammi, C. Pomelli, J. W. Ochterski, 
 R. L. Martin, K. Morokuma, V. G. Zakrzewski, G. A. Voth, 
 P. Salvador, J. J. Dannenberg, S. Dapprich, A. D. Daniels, 
 O. Farkas, J. B. Foresman, J. V. Ortiz, J. Cioslowski, 
 and D. J. Fox, Gaussian, Inc., Wallingford CT, 2013.
 
 ******************************************
 Gaussian 09:  ES64L-G09RevD.01 24-Apr-2013
                 1-Feb-2020 
 ******************************************
 %NProcShared=20
 Will use up to   20 processors via shared memory.
 %mem=64GB
 %Chk=AS2a_Hmigcloseloss_guess.chk
 --------------------------------------------------
 #n opt=(ts,calcfc,noeigen) freq b3lyp/6-311+g(d,p)
 --------------------------------------------------
 1/5=1,10=4,11=1,14=-1,18=20,26=3,38=1/1,3;
 2/9=110,12=2,17=6,18=5,40=1/2;
 3/5=4,6=6,7=111,11=2,16=1,25=1,30=1,71=2,74=-5,140=1/1,2,3;
 4//1;
 5/5=2,38=5/2;
 8/6=4,10=90,11=11/1;
 11/6=1,8=1,9=11,15=111,16=1/1,2,10;
 10/6=1,13=1/2;
 6/7=2,8=2,9=2,10=2,28=1/1;
 7/10=1,18=20,25=1/1,2,3,16;
 1/5=1,10=4,11=1,14=-1,18=20,26=3/3(2);
 2/9=110/2;
 99//99;
 2/9=110/2;
 3/5=4,6=6,7=111,11=2,16=1,25=1,30=1,71=1,74=-5/1,2,3;
 4/5=5,16=3,69=1/1;
 5/5=2,38=5/2;
 7//1,2,3,16;
 1/5=1,11=1,14=-1,18=20,26=3/3(-5);
 2/9=110/2;
 6/7=2,8=2,9=2,10=2,19=2,28=1/1;
 99/9=1/99;
 ------------------------
 AS2a_Hmigcloseloss_guess
 ------------------------
 Symbolic Z-matrix:
 Charge =  0 Multiplicity = 2
 C                     1.52071   3.24939  -0.07611 
 C                     0.29425   2.49778   0.00332 
 C                     0.44523   1.1333    0.08451 
 C                     2.78742   2.67317  -0.09731 
 C                     2.94336   1.25086  -0.0287 
 C                     1.73523   0.5806    0.07948 
 C                    -0.49117   0.00436   0.10989 
 C                     0.28385  -1.1577    0.12599 
 C                     1.63889  -0.81185   0.10398 
 C                    -0.15795  -2.47829   0.06126 
 C                    -1.55656  -2.60914   0.01787 
 C                    -2.40252  -1.46057   0.00827 
 C                    -1.86848  -0.10111   0.03748 
 C                    -3.81779  -1.58819  -0.05341 
 C                    -4.62946  -0.47893  -0.1004 
 C                    -2.72679   1.06     -0.03413 
 C                    -4.09624   0.82676  -0.09761 
 H                    -1.08223   4.16085  -0.14585 
 H                     1.4502    4.33103  -0.13167 
 H                     3.65393   3.32153  -0.17559 
 C                     4.08648   0.37204  -0.09108 
 C                     2.69391  -1.68476   0.01344 
 C                     0.93396  -3.44461   0.00661 
 H                    -2.02904  -3.58526  -0.02803 
 H                    -4.25378  -2.58142  -0.06762 
 H                    -4.77513   1.67117  -0.14975 
 H                    -5.70534  -0.60442  -0.14742 
 C                    -2.26422   2.44676  -0.06738 
 C                    -1.04369   3.08381  -0.01553 
 H                    -1.11373   3.7172    2.00392 
 H                    -3.10084   3.13787  -0.13482 
 C                     3.97141  -1.01816  -0.07342 
 C                     2.26778  -3.07815  -0.01788 
 H                     5.08077   0.79963  -0.1704 
 H                     4.8815   -1.60557  -0.14128 
 H                     3.01381  -3.8644   -0.07465 
 H                     0.69404  -4.50238  -0.03156 
 
 Add virtual bond connecting atoms H30        and H18        Dist= 4.15D+00.
 Add virtual bond connecting atoms H30        and C29        Dist= 4.00D+00.

 GradGradGradGradGradGradGradGradGradGradGradGradGradGradGradGradGradGrad
 Berny optimization.
 Initialization pass.
                           ----------------------------
                           !    Initial Parameters    !
                           ! (Angstroms and Degrees)  !
 --------------------------                            --------------------------
 ! Name  Definition              Value          Derivative Info.                !
 --------------------------------------------------------------------------------
 ! R1    R(1,2)                  1.4406         calculate D2E/DX2 analytically  !
 ! R2    R(1,4)                  1.3918         calculate D2E/DX2 analytically  !
 ! R3    R(1,19)                 1.0854         calculate D2E/DX2 analytically  !
 ! R4    R(2,3)                  1.3752         calculate D2E/DX2 analytically  !
 ! R5    R(2,29)                 1.4608         calculate D2E/DX2 analytically  !
 ! R6    R(3,6)                  1.4034         calculate D2E/DX2 analytically  !
 ! R7    R(3,7)                  1.467          calculate D2E/DX2 analytically  !
 ! R8    R(4,5)                  1.4325         calculate D2E/DX2 analytically  !
 ! R9    R(4,20)                 1.0851         calculate D2E/DX2 analytically  !
 ! R10   R(5,6)                  1.3858         calculate D2E/DX2 analytically  !
 ! R11   R(5,21)                 1.4432         calculate D2E/DX2 analytically  !
 ! R12   R(6,9)                  1.396          calculate D2E/DX2 analytically  !
 ! R13   R(7,8)                  1.3969         calculate D2E/DX2 analytically  !
 ! R14   R(7,13)                 1.3832         calculate D2E/DX2 analytically  !
 ! R15   R(8,9)                  1.3987         calculate D2E/DX2 analytically  !
 ! R16   R(8,10)                 1.394          calculate D2E/DX2 analytically  !
 ! R17   R(9,22)                 1.3723         calculate D2E/DX2 analytically  !
 ! R18   R(10,11)                1.4054         calculate D2E/DX2 analytically  !
 ! R19   R(10,23)                1.4591         calculate D2E/DX2 analytically  !
 ! R20   R(11,12)                1.4265         calculate D2E/DX2 analytically  !
 ! R21   R(11,24)                1.0854         calculate D2E/DX2 analytically  !
 ! R22   R(12,13)                1.4609         calculate D2E/DX2 analytically  !
 ! R23   R(12,14)                1.4224         calculate D2E/DX2 analytically  !
 ! R24   R(13,16)                1.4457         calculate D2E/DX2 analytically  !
 ! R25   R(14,15)                1.3753         calculate D2E/DX2 analytically  !
 ! R26   R(14,25)                1.0848         calculate D2E/DX2 analytically  !
 ! R27   R(15,17)                1.4104         calculate D2E/DX2 analytically  !
 ! R28   R(15,27)                1.0842         calculate D2E/DX2 analytically  !
 ! R29   R(16,17)                1.3906         calculate D2E/DX2 analytically  !
 ! R30   R(16,28)                1.4623         calculate D2E/DX2 analytically  !
 ! R31   R(17,26)                1.0847         calculate D2E/DX2 analytically  !
 ! R32   R(18,29)                1.0856         calculate D2E/DX2 analytically  !
 ! R33   R(18,30)                2.1953         calculate D2E/DX2 analytically  !
 ! R34   R(21,32)                1.3951         calculate D2E/DX2 analytically  !
 ! R35   R(21,34)                1.0852         calculate D2E/DX2 analytically  !
 ! R36   R(22,32)                1.4436         calculate D2E/DX2 analytically  !
 ! R37   R(22,33)                1.4574         calculate D2E/DX2 analytically  !
 ! R38   R(23,33)                1.3835         calculate D2E/DX2 analytically  !
 ! R39   R(23,37)                1.0853         calculate D2E/DX2 analytically  !
 ! R40   R(28,29)                1.3778         calculate D2E/DX2 analytically  !
 ! R41   R(28,31)                1.0873         calculate D2E/DX2 analytically  !
 ! R42   R(29,30)                2.1176         calculate D2E/DX2 analytically  !
 ! R43   R(32,35)                1.0853         calculate D2E/DX2 analytically  !
 ! R44   R(33,36)                1.0853         calculate D2E/DX2 analytically  !
 ! A1    A(2,1,4)              124.033          calculate D2E/DX2 analytically  !
 ! A2    A(2,1,19)             117.8689         calculate D2E/DX2 analytically  !
 ! A3    A(4,1,19)             118.0958         calculate D2E/DX2 analytically  !
 ! A4    A(1,2,3)              115.3053         calculate D2E/DX2 analytically  !
 ! A5    A(1,2,29)             124.7314         calculate D2E/DX2 analytically  !
 ! A6    A(3,2,29)             119.958          calculate D2E/DX2 analytically  !
 ! A7    A(2,3,6)              119.4361         calculate D2E/DX2 analytically  !
 ! A8    A(2,3,7)              133.9884         calculate D2E/DX2 analytically  !
 ! A9    A(6,3,7)              106.4824         calculate D2E/DX2 analytically  !
 ! A10   A(1,4,5)              120.6258         calculate D2E/DX2 analytically  !
 ! A11   A(1,4,20)             118.7204         calculate D2E/DX2 analytically  !
 ! A12   A(5,4,20)             120.6517         calculate D2E/DX2 analytically  !
 ! A13   A(4,5,6)              112.8958         calculate D2E/DX2 analytically  !
 ! A14   A(4,5,21)             133.5315         calculate D2E/DX2 analytically  !
 ! A15   A(6,5,21)             113.538          calculate D2E/DX2 analytically  !
 ! A16   A(3,6,5)              127.6707         calculate D2E/DX2 analytically  !
 ! A17   A(3,6,9)              109.2278         calculate D2E/DX2 analytically  !
 ! A18   A(5,6,9)              122.9534         calculate D2E/DX2 analytically  !
 ! A19   A(3,7,8)              106.6334         calculate D2E/DX2 analytically  !
 ! A20   A(3,7,13)             133.8967         calculate D2E/DX2 analytically  !
 ! A21   A(8,7,13)             119.3152         calculate D2E/DX2 analytically  !
 ! A22   A(7,8,9)              109.3679         calculate D2E/DX2 analytically  !
 ! A23   A(7,8,10)             127.7121         calculate D2E/DX2 analytically  !
 ! A24   A(9,8,10)             122.7214         calculate D2E/DX2 analytically  !
 ! A25   A(6,9,8)              108.2873         calculate D2E/DX2 analytically  !
 ! A26   A(6,9,22)             125.4688         calculate D2E/DX2 analytically  !
 ! A27   A(8,9,22)             126.0555         calculate D2E/DX2 analytically  !
 ! A28   A(8,10,11)            113.8928         calculate D2E/DX2 analytically  !
 ! A29   A(8,10,23)            113.0757         calculate D2E/DX2 analytically  !
 ! A30   A(11,10,23)           132.993          calculate D2E/DX2 analytically  !
 ! A31   A(10,11,12)           121.0247         calculate D2E/DX2 analytically  !
 ! A32   A(10,11,24)           121.2136         calculate D2E/DX2 analytically  !
 ! A33   A(12,11,24)           117.7522         calculate D2E/DX2 analytically  !
 ! A34   A(11,12,13)           122.1635         calculate D2E/DX2 analytically  !
 ! A35   A(11,12,14)           121.2063         calculate D2E/DX2 analytically  !
 ! A36   A(13,12,14)           116.622          calculate D2E/DX2 analytically  !
 ! A37   A(7,13,12)            115.8486         calculate D2E/DX2 analytically  !
 ! A38   A(7,13,16)            122.1755         calculate D2E/DX2 analytically  !
 ! A39   A(12,13,16)           121.963          calculate D2E/DX2 analytically  !
 ! A40   A(12,14,15)           121.0877         calculate D2E/DX2 analytically  !
 ! A41   A(12,14,25)           118.857          calculate D2E/DX2 analytically  !
 ! A42   A(15,14,25)           120.0547         calculate D2E/DX2 analytically  !
 ! A43   A(14,15,17)           121.5668         calculate D2E/DX2 analytically  !
 ! A44   A(14,15,27)           119.589          calculate D2E/DX2 analytically  !
 ! A45   A(17,15,27)           118.8429         calculate D2E/DX2 analytically  !
 ! A46   A(13,16,17)           116.8862         calculate D2E/DX2 analytically  !
 ! A47   A(13,16,28)           125.1            calculate D2E/DX2 analytically  !
 ! A48   A(17,16,28)           118.0052         calculate D2E/DX2 analytically  !
 ! A49   A(15,17,16)           121.8488         calculate D2E/DX2 analytically  !
 ! A50   A(15,17,26)           118.9442         calculate D2E/DX2 analytically  !
 ! A51   A(16,17,26)           119.2068         calculate D2E/DX2 analytically  !
 ! A52   A(5,21,32)            122.7463         calculate D2E/DX2 analytically  !
 ! A53   A(5,21,34)            119.2693         calculate D2E/DX2 analytically  !
 ! A54   A(32,21,34)           117.9777         calculate D2E/DX2 analytically  !
 ! A55   A(9,22,32)            112.9912         calculate D2E/DX2 analytically  !
 ! A56   A(9,22,33)            112.6296         calculate D2E/DX2 analytically  !
 ! A57   A(32,22,33)           134.3416         calculate D2E/DX2 analytically  !
 ! A58   A(10,23,33)           123.1424         calculate D2E/DX2 analytically  !
 ! A59   A(10,23,37)           118.7734         calculate D2E/DX2 analytically  !
 ! A60   A(33,23,37)           118.0779         calculate D2E/DX2 analytically  !
 ! A61   A(16,28,29)           135.881          calculate D2E/DX2 analytically  !
 ! A62   A(16,28,31)           111.1508         calculate D2E/DX2 analytically  !
 ! A63   A(29,28,31)           112.9602         calculate D2E/DX2 analytically  !
 ! A64   A(2,29,18)            115.6            calculate D2E/DX2 analytically  !
 ! A65   A(2,29,28)            128.7833         calculate D2E/DX2 analytically  !
 ! A66   A(2,29,30)             97.9311         calculate D2E/DX2 analytically  !
 ! A67   A(18,29,28)           115.01           calculate D2E/DX2 analytically  !
 ! A68   A(28,29,30)            98.3309         calculate D2E/DX2 analytically  !
 ! A69   A(21,32,22)           122.2704         calculate D2E/DX2 analytically  !
 ! A70   A(21,32,35)           117.9945         calculate D2E/DX2 analytically  !
 ! A71   A(22,32,35)           119.73           calculate D2E/DX2 analytically  !
 ! A72   A(22,33,23)           122.3276         calculate D2E/DX2 analytically  !
 ! A73   A(22,33,36)           119.5209         calculate D2E/DX2 analytically  !
 ! A74   A(23,33,36)           118.1472         calculate D2E/DX2 analytically  !
 ! D1    D(4,1,2,3)              1.1701         calculate D2E/DX2 analytically  !
 ! D2    D(4,1,2,29)          -177.9862         calculate D2E/DX2 analytically  !
 ! D3    D(19,1,2,3)          -179.398          calculate D2E/DX2 analytically  !
 ! D4    D(19,1,2,29)            1.4457         calculate D2E/DX2 analytically  !
 ! D5    D(2,1,4,5)             -0.4841         calculate D2E/DX2 analytically  !
 ! D6    D(2,1,4,20)           178.9851         calculate D2E/DX2 analytically  !
 ! D7    D(19,1,4,5)          -179.9149         calculate D2E/DX2 analytically  !
 ! D8    D(19,1,4,20)           -0.4456         calculate D2E/DX2 analytically  !
 ! D9    D(1,2,3,6)             -0.2502         calculate D2E/DX2 analytically  !
 ! D10   D(1,2,3,7)           -176.2102         calculate D2E/DX2 analytically  !
 ! D11   D(29,2,3,6)           178.9494         calculate D2E/DX2 analytically  !
 ! D12   D(29,2,3,7)             2.9894         calculate D2E/DX2 analytically  !
 ! D13   D(1,2,29,18)            2.9319         calculate D2E/DX2 analytically  !
 ! D14   D(1,2,29,28)          173.4663         calculate D2E/DX2 analytically  !
 ! D15   D(1,2,29,30)          -79.0995         calculate D2E/DX2 analytically  !
 ! D16   D(3,2,29,18)         -176.1877         calculate D2E/DX2 analytically  !
 ! D17   D(3,2,29,28)           -5.6533         calculate D2E/DX2 analytically  !
 ! D18   D(3,2,29,30)          101.7809         calculate D2E/DX2 analytically  !
 ! D19   D(2,3,6,5)             -1.4972         calculate D2E/DX2 analytically  !
 ! D20   D(2,3,6,9)           -177.1334         calculate D2E/DX2 analytically  !
 ! D21   D(7,3,6,5)            175.4726         calculate D2E/DX2 analytically  !
 ! D22   D(7,3,6,9)             -0.1636         calculate D2E/DX2 analytically  !
 ! D23   D(2,3,7,8)            176.6452         calculate D2E/DX2 analytically  !
 ! D24   D(2,3,7,13)             1.3758         calculate D2E/DX2 analytically  !
 ! D25   D(6,3,7,8)              0.314          calculate D2E/DX2 analytically  !
 ! D26   D(6,3,7,13)          -174.9554         calculate D2E/DX2 analytically  !
 ! D27   D(1,4,5,6)             -1.0602         calculate D2E/DX2 analytically  !
 ! D28   D(1,4,5,21)           176.6018         calculate D2E/DX2 analytically  !
 ! D29   D(20,4,5,6)           179.4809         calculate D2E/DX2 analytically  !
 ! D30   D(20,4,5,21)           -2.8571         calculate D2E/DX2 analytically  !
 ! D31   D(4,5,6,3)              2.1117         calculate D2E/DX2 analytically  !
 ! D32   D(4,5,6,9)            177.2001         calculate D2E/DX2 analytically  !
 ! D33   D(21,5,6,3)          -176.0396         calculate D2E/DX2 analytically  !
 ! D34   D(21,5,6,9)            -0.9512         calculate D2E/DX2 analytically  !
 ! D35   D(4,5,21,32)         -176.3027         calculate D2E/DX2 analytically  !
 ! D36   D(4,5,21,34)            2.7375         calculate D2E/DX2 analytically  !
 ! D37   D(6,5,21,32)            1.348          calculate D2E/DX2 analytically  !
 ! D38   D(6,5,21,34)         -179.6118         calculate D2E/DX2 analytically  !
 ! D39   D(3,6,9,8)             -0.0491         calculate D2E/DX2 analytically  !
 ! D40   D(3,6,9,22)           175.2017         calculate D2E/DX2 analytically  !
 ! D41   D(5,6,9,8)           -175.9332         calculate D2E/DX2 analytically  !
 ! D42   D(5,6,9,22)            -0.6823         calculate D2E/DX2 analytically  !
 ! D43   D(3,7,8,9)             -0.3507         calculate D2E/DX2 analytically  !
 ! D44   D(3,7,8,10)          -175.2858         calculate D2E/DX2 analytically  !
 ! D45   D(13,7,8,9)           175.7413         calculate D2E/DX2 analytically  !
 ! D46   D(13,7,8,10)            0.8061         calculate D2E/DX2 analytically  !
 ! D47   D(3,7,13,12)          175.9089         calculate D2E/DX2 analytically  !
 ! D48   D(3,7,13,16)           -2.8032         calculate D2E/DX2 analytically  !
 ! D49   D(8,7,13,12)            1.1085         calculate D2E/DX2 analytically  !
 ! D50   D(8,7,13,16)         -177.6036         calculate D2E/DX2 analytically  !
 ! D51   D(7,8,9,6)              0.2559         calculate D2E/DX2 analytically  !
 ! D52   D(7,8,9,22)          -174.9597         calculate D2E/DX2 analytically  !
 ! D53   D(10,8,9,6)           175.4941         calculate D2E/DX2 analytically  !
 ! D54   D(10,8,9,22)            0.2785         calculate D2E/DX2 analytically  !
 ! D55   D(7,8,10,11)           -2.1392         calculate D2E/DX2 analytically  !
 ! D56   D(7,8,10,23)          175.9032         calculate D2E/DX2 analytically  !
 ! D57   D(9,8,10,11)         -176.4578         calculate D2E/DX2 analytically  !
 ! D58   D(9,8,10,23)            1.5846         calculate D2E/DX2 analytically  !
 ! D59   D(6,9,22,32)            1.7934         calculate D2E/DX2 analytically  !
 ! D60   D(6,9,22,33)         -176.3028         calculate D2E/DX2 analytically  !
 ! D61   D(8,9,22,32)          176.2132         calculate D2E/DX2 analytically  !
 ! D62   D(8,9,22,33)           -1.8829         calculate D2E/DX2 analytically  !
 ! D63   D(8,10,11,12)           1.5134         calculate D2E/DX2 analytically  !
 ! D64   D(8,10,11,24)        -179.6345         calculate D2E/DX2 analytically  !
 ! D65   D(23,10,11,12)       -176.0241         calculate D2E/DX2 analytically  !
 ! D66   D(23,10,11,24)          2.8279         calculate D2E/DX2 analytically  !
 ! D67   D(8,10,23,33)          -1.7893         calculate D2E/DX2 analytically  !
 ! D68   D(8,10,23,37)         179.142          calculate D2E/DX2 analytically  !
 ! D69   D(11,10,23,33)        175.7634         calculate D2E/DX2 analytically  !
 ! D70   D(11,10,23,37)         -3.3053         calculate D2E/DX2 analytically  !
 ! D71   D(10,11,12,13)          0.2367         calculate D2E/DX2 analytically  !
 ! D72   D(10,11,12,14)        179.1603         calculate D2E/DX2 analytically  !
 ! D73   D(24,11,12,13)       -178.6539         calculate D2E/DX2 analytically  !
 ! D74   D(24,11,12,14)          0.2697         calculate D2E/DX2 analytically  !
 ! D75   D(11,12,13,7)          -1.6032         calculate D2E/DX2 analytically  !
 ! D76   D(11,12,13,16)        177.1119         calculate D2E/DX2 analytically  !
 ! D77   D(14,12,13,7)         179.4266         calculate D2E/DX2 analytically  !
 ! D78   D(14,12,13,16)         -1.8583         calculate D2E/DX2 analytically  !
 ! D79   D(11,12,14,15)       -178.156          calculate D2E/DX2 analytically  !
 ! D80   D(11,12,14,25)          1.5681         calculate D2E/DX2 analytically  !
 ! D81   D(13,12,14,15)          0.8247         calculate D2E/DX2 analytically  !
 ! D82   D(13,12,14,25)       -179.4512         calculate D2E/DX2 analytically  !
 ! D83   D(7,13,16,17)        -179.735          calculate D2E/DX2 analytically  !
 ! D84   D(7,13,16,28)           1.3577         calculate D2E/DX2 analytically  !
 ! D85   D(12,13,16,17)          1.6311         calculate D2E/DX2 analytically  !
 ! D86   D(12,13,16,28)       -177.2761         calculate D2E/DX2 analytically  !
 ! D87   D(12,14,15,17)          0.3855         calculate D2E/DX2 analytically  !
 ! D88   D(12,14,15,27)        179.9751         calculate D2E/DX2 analytically  !
 ! D89   D(25,14,15,17)       -179.3353         calculate D2E/DX2 analytically  !
 ! D90   D(25,14,15,27)          0.2542         calculate D2E/DX2 analytically  !
 ! D91   D(14,15,17,16)         -0.6421         calculate D2E/DX2 analytically  !
 ! D92   D(14,15,17,26)        179.1564         calculate D2E/DX2 analytically  !
 ! D93   D(27,15,17,16)        179.7654         calculate D2E/DX2 analytically  !
 ! D94   D(27,15,17,26)         -0.4361         calculate D2E/DX2 analytically  !
 ! D95   D(13,16,17,15)         -0.3651         calculate D2E/DX2 analytically  !
 ! D96   D(13,16,17,26)        179.8369         calculate D2E/DX2 analytically  !
 ! D97   D(28,16,17,15)        178.6222         calculate D2E/DX2 analytically  !
 ! D98   D(28,16,17,26)         -1.1757         calculate D2E/DX2 analytically  !
 ! D99   D(13,16,28,29)         -1.8918         calculate D2E/DX2 analytically  !
 ! D100  D(13,16,28,31)        179.2454         calculate D2E/DX2 analytically  !
 ! D101  D(17,16,28,29)        179.2121         calculate D2E/DX2 analytically  !
 ! D102  D(17,16,28,31)          0.3494         calculate D2E/DX2 analytically  !
 ! D103  D(5,21,32,22)          -0.2088         calculate D2E/DX2 analytically  !
 ! D104  D(5,21,32,35)         178.9656         calculate D2E/DX2 analytically  !
 ! D105  D(34,21,32,22)       -179.2608         calculate D2E/DX2 analytically  !
 ! D106  D(34,21,32,35)         -0.0863         calculate D2E/DX2 analytically  !
 ! D107  D(9,22,32,21)          -1.3277         calculate D2E/DX2 analytically  !
 ! D108  D(9,22,32,35)         179.5117         calculate D2E/DX2 analytically  !
 ! D109  D(33,22,32,21)        176.2149         calculate D2E/DX2 analytically  !
 ! D110  D(33,22,32,35)         -2.9457         calculate D2E/DX2 analytically  !
 ! D111  D(9,22,33,23)           1.605          calculate D2E/DX2 analytically  !
 ! D112  D(9,22,33,36)        -179.1631         calculate D2E/DX2 analytically  !
 ! D113  D(32,22,33,23)       -175.9441         calculate D2E/DX2 analytically  !
 ! D114  D(32,22,33,36)          3.2878         calculate D2E/DX2 analytically  !
 ! D115  D(10,23,33,22)          0.1985         calculate D2E/DX2 analytically  !
 ! D116  D(10,23,33,36)       -179.0434         calculate D2E/DX2 analytically  !
 ! D117  D(37,23,33,22)        179.2733         calculate D2E/DX2 analytically  !
 ! D118  D(37,23,33,36)          0.0314         calculate D2E/DX2 analytically  !
 ! D119  D(16,28,29,2)           4.8862         calculate D2E/DX2 analytically  !
 ! D120  D(16,28,29,18)        175.467          calculate D2E/DX2 analytically  !
 ! D121  D(16,28,29,30)       -102.3651         calculate D2E/DX2 analytically  !
 ! D122  D(31,28,29,2)        -176.2656         calculate D2E/DX2 analytically  !
 ! D123  D(31,28,29,18)         -5.6849         calculate D2E/DX2 analytically  !
 ! D124  D(31,28,29,30)         76.483          calculate D2E/DX2 analytically  !
 --------------------------------------------------------------------------------
 Trust Radius=3.00D-01 FncErr=1.00D-07 GrdErr=1.00D-06
 Number of steps in this run=    222 maximum allowed number of steps=    222.
 Search for a saddle point of order  1.
 GradGradGradGradGradGradGradGradGradGradGradGradGradGradGradGradGradGrad

                          Input orientation:                          
 ---------------------------------------------------------------------
 Center     Atomic      Atomic             Coordinates (Angstroms)
 Number     Number       Type             X           Y           Z
 ---------------------------------------------------------------------
      1          6           0        1.520710    3.249390   -0.076110
      2          6           0        0.294250    2.497780    0.003320
      3          6           0        0.445230    1.133300    0.084510
      4          6           0        2.787420    2.673170   -0.097310
      5          6           0        2.943360    1.250860   -0.028700
      6          6           0        1.735230    0.580600    0.079480
      7          6           0       -0.491170    0.004360    0.109890
      8          6           0        0.283850   -1.157700    0.125990
      9          6           0        1.638890   -0.811850    0.103980
     10          6           0       -0.157950   -2.478290    0.061260
     11          6           0       -1.556560   -2.609140    0.017870
     12          6           0       -2.402520   -1.460570    0.008270
     13          6           0       -1.868480   -0.101110    0.037480
     14          6           0       -3.817790   -1.588190   -0.053410
     15          6           0       -4.629460   -0.478930   -0.100400
     16          6           0       -2.726790    1.060000   -0.034130
     17          6           0       -4.096240    0.826760   -0.097610
     18          1           0       -1.082230    4.160850   -0.145850
     19          1           0        1.450200    4.331030   -0.131670
     20          1           0        3.653930    3.321530   -0.175590
     21          6           0        4.086480    0.372040   -0.091080
     22          6           0        2.693910   -1.684760    0.013440
     23          6           0        0.933960   -3.444610    0.006610
     24          1           0       -2.029040   -3.585260   -0.028030
     25          1           0       -4.253780   -2.581420   -0.067620
     26          1           0       -4.775130    1.671170   -0.149750
     27          1           0       -5.705340   -0.604420   -0.147420
     28          6           0       -2.264220    2.446760   -0.067380
     29          6           0       -1.043690    3.083810   -0.015530
     30          1           0       -1.113730    3.717200    2.003920
     31          1           0       -3.100840    3.137870   -0.134820
     32          6           0        3.971410   -1.018160   -0.073420
     33          6           0        2.267780   -3.078150   -0.017880
     34          1           0        5.080770    0.799630   -0.170400
     35          1           0        4.881500   -1.605570   -0.141280
     36          1           0        3.013810   -3.864400   -0.074650
     37          1           0        0.694040   -4.502380   -0.031560
 ---------------------------------------------------------------------
                    Distance matrix (angstroms):
                    1          2          3          4          5
     1  C    0.000000
     2  C    1.440636   0.000000
     3  C    2.379137   1.375206   0.000000
     4  C    1.391773   2.501357   2.808934   0.000000
     5  C    2.453631   2.928074   2.503456   1.432477   0.000000
     6  C    2.681915   2.399542   1.403425   2.348874   1.385832
     7  C    3.822627   2.616369   1.466968   4.232568   3.656360
     8  C    4.581824   3.657552   2.297051   4.581844   3.591390
     9  C    4.066948   3.573771   2.282282   3.674915   2.444181
    10  C    5.970183   4.996910   3.661687   5.936151   4.851059
    11  C    6.618217   5.431974   4.244698   6.840046   5.928832
    12  C    6.130463   4.789690   3.852746   6.635844   5.994302
    13  C    4.767113   3.381242   2.622829   5.421458   4.998600
    14  C    7.204324   5.797175   5.059533   7.860656   7.333073
    15  C    7.192048   5.754518   5.327847   8.058899   7.768199
    16  C    4.778750   3.345937   3.175084   5.745678   5.673364
    17  C    6.117166   4.698819   4.555446   7.126991   7.052700
    18  H    2.758790   2.163966   3.398861   4.146051   4.968616
    19  H    1.085359   2.171462   3.358895   2.130220   3.424555
    20  H    2.136756   3.463816   3.892526   1.085052   2.194120
    21  C    3.855197   4.348412   3.724117   2.642498   1.443239
    22  C    5.072500   4.822044   3.605978   4.360340   2.946501
    23  C    6.720175   5.976725   4.604583   6.393227   5.107482
    24  H    7.701654   6.511684   5.329117   7.897533   6.936340
    25  H    8.206287   6.818202   5.991910   8.785789   8.153938
    26  H    6.491056   5.138611   5.253222   7.628821   7.730873
    27  H    8.189795   6.755845   6.395543   9.103410   8.846252
    28  C    3.869107   2.559955   3.014858   5.056800   5.343273
    29  C    2.570454   1.460777   2.455887   3.853922   4.388217
    30  H    3.389048   2.733458   3.576455   4.552377   5.164722
    31  H    4.623268   3.457663   4.079341   5.906688   6.332805
    32  C    4.921171   5.088146   4.133723   3.876638   2.491453
    33  C    6.371755   5.914919   4.590042   5.775294   4.381421
    34  H    4.322527   5.081797   4.654519   2.962254   2.189111
    35  H    5.905065   6.156399   5.218513   4.763898   3.453730
    36  H    7.268793   6.919496   5.621382   6.541528   5.115951
    37  H    7.795852   7.011654   5.642364   7.474964   6.177315
                    6          7          8          9         10
     6  C    0.000000
     7  C    2.299964   0.000000
     8  C    2.265028   1.396889   0.000000
     9  C    1.395994   2.281094   1.398653   0.000000
    10  C    3.597398   2.505384   1.394036   2.451016   0.000000
    11  C    4.584116   2.823811   2.346375   3.667229   1.405388
    12  C    4.614371   2.410312   2.705951   4.094263   2.465088
    13  C    3.667863   1.383239   2.399321   3.579276   2.928731
    14  C    5.962998   3.691786   4.128069   5.513876   3.768270
    15  C    6.454784   4.171718   4.965138   6.280511   4.900814
    16  C    4.489137   2.476513   3.742698   4.752058   4.373504
    17  C    5.839349   3.703502   4.813862   5.968031   5.143804
    18  H    4.561474   4.206087   5.497913   5.674033   6.706368
    19  H    3.767168   4.748404   5.617198   5.151733   6.999300
    20  H    3.355468   5.316669   5.613545   4.606884   6.944382
    21  C    2.366636   4.596788   4.104536   2.725865   5.114956
    22  C    2.460749   3.606545   2.469585   1.372311   2.960588
    23  C    4.104834   3.733237   2.380515   2.727239   1.459119
    24  H    5.615664   3.907613   3.356520   4.600320   2.175852
    25  H    6.774087   4.568917   4.759680   6.155029   4.099155
    26  H    6.605049   4.604127   5.802742   6.882545   6.211352
    27  H    7.537761   5.255891   6.020903   7.351459   5.859050
    28  C    4.415849   3.023318   4.418392   5.087452   5.358082
    29  C    3.741321   3.131137   4.446661   4.731457   5.632707
    30  H    4.653848   4.214275   5.407819   5.630185   6.562891
    31  H    5.474772   4.085235   5.475041   6.174330   6.343524
    32  C    2.753164   4.581896   3.695583   2.348336   4.381978
    33  C    3.698586   4.138840   2.764924   2.355094   2.500052
    34  H    3.362001   5.635382   5.189357   3.810340   6.184061
    35  H    3.837589   5.614316   4.627138   3.347337   5.118468
    36  H    4.627802   5.223624   3.849567   3.352667   3.464078
    37  H    5.189710   4.662128   3.373420   3.811971   2.198054
                   11         12         13         14         15
    11  C    0.000000
    12  C    1.426518   0.000000
    13  C    2.527428   1.460884   0.000000
    14  C    2.482052   1.422350   2.453462   0.000000
    15  C    3.740922   2.436122   2.790120   1.375309   0.000000
    16  C    3.851588   2.541697   1.445683   2.864186   2.448030
    17  C    4.274192   2.848118   2.417045   2.431352   1.410375
    18  H    6.788561   5.776442   4.337753   6.367362   5.840588
    19  H    7.564980   6.957418   5.539505   7.924330   7.752352
    20  H    7.896802   7.718994   6.500529   8.941302   9.113929
    21  C    6.383040   6.743549   5.975111   8.143795   8.757388
    22  C    4.349827   5.101361   4.829485   6.512759   7.422852
    23  C    2.626942   3.881819   4.362753   5.101865   6.305422
    24  H    1.085428   2.157571   3.488463   2.681149   4.051754
    25  H    2.698717   2.165462   3.442766   1.084802   2.136042
    26  H    5.358017   3.932181   3.409493   3.398413   2.155594
    27  H    4.610705   3.415531   3.874146   2.130607   1.084194
    28  C    5.105896   3.910509   2.580552   4.323725   3.762328
    29  C    5.716103   4.743245   3.290411   5.433659   5.055499
    30  H    6.645530   5.696745   4.360737   6.300136   5.864813
    31  H    5.952835   4.653362   3.469782   4.780825   3.926717
    32  C    5.753086   6.389787   5.912495   7.810056   8.617799
    33  C    3.853158   4.942565   5.096516   6.265413   7.371206
    34  H    7.463867   7.819211   7.010465   9.214106   9.794293
    35  H    6.517753   7.286998   6.917918   8.699751   9.577544
    36  H    4.740519   5.926374   6.165361   7.200857   8.359524
    37  H    2.941428   4.340838   5.093373   5.371182   6.673271
                   16         17         18         19         20
    16  C    0.000000
    17  C    1.390620   0.000000
    18  H    3.511742   4.494746   0.000000
    19  H    5.306260   6.560798   2.538181   0.000000
    20  H    6.771124   8.142180   4.810047   2.424344   0.000000
    21  C    6.848152   8.195347   6.408872   4.756598   2.982236
    22  C    6.076180   7.240594   6.961017   6.144721   5.101011
    23  C    5.804676   6.599877   7.869643   7.793985   7.294661
    24  H    4.697375   4.872790   7.804649   8.647745   8.945483
    25  H    3.948767   3.411951   7.451379   8.962224   9.868554
    26  H    2.140699   1.084730   4.453766   6.769780   8.589145
    27  H    3.413926   2.154057   6.639348   8.692564  10.149375
    28  C    1.462252   2.445733   2.083594   4.165516   5.983430
    29  C    2.632295   3.797245   1.085580   2.790794   4.706354
    30  H    3.717031   4.654722   2.195297   3.392826   5.257129
    31  H    2.113669   2.516632   2.263050   4.704849   6.757389
    32  C    7.013286   8.275947   7.236482   5.913859   4.352487
    33  C    6.486161   7.466956   7.977598   7.455021   6.549976
    34  H    7.813089   9.177339   7.020041   5.064911   2.897564
    35  H    8.062433   9.301503   8.295643   6.856904   5.077836
    36  H    7.563455   8.518235   9.010397   8.343453   7.215091
    37  H    6.530096   7.165953   8.844193   8.866281   8.366317
                   21         22         23         24         25
    21  C    0.000000
    22  C    2.486082   0.000000
    23  C    4.951237   2.488884   0.000000
    24  H    7.284489   5.091157   2.966539   0.000000
    25  H    8.847791   7.005781   5.259587   2.441051   0.000000
    26  H    8.956523   8.189961   7.667422   5.931769   4.285216
    27  H    9.840548   8.469971   7.222929   4.734432   2.453961
    28  C    6.681049   6.454382   6.703885   6.036731   5.407490
    29  C    5.803279   6.058857   6.821426   6.741481   6.511699
    30  H    6.528499   6.902268   7.711926   7.634955   7.336471
    31  H    7.701253   7.540482   7.721959   6.808865   5.834729
    32  C    1.395066   1.443574   3.888466   6.526673   8.372429
    33  C    3.900877   1.457430   1.383462   4.326653   6.540639
    34  H    1.085236   3.450086   5.936408   8.354456   9.928539
    35  H    2.132022   2.194484   4.357409   7.189406   9.187549
    36  H    4.370162   2.204751   2.123347   5.050785   7.379970
    37  H    5.939037   3.455501   1.085309   2.873375   5.307759
                   26         27         28         29         30
    26  H    0.000000
    27  H    2.458375   0.000000
    28  C    2.629257   4.599719   0.000000
    29  C    3.992144   5.945706   1.377757   0.000000
    30  H    4.714911   6.662398   2.688481   2.117609   0.000000
    31  H    2.225911   4.559420   1.087251   2.061315   2.976313
    32  C    9.150972   9.685874   7.133638   6.479254   7.252422
    33  C    8.495647   8.349058   7.146055   6.995398   7.854875
    34  H    9.894381  10.877134   7.528116   6.538385   7.184129
    35  H   10.197431  10.634074   8.215117   7.557379   8.299189
    36  H    9.555928   9.308939   8.227296   8.046392   8.879060
    37  H    8.248546   7.493970   7.552690   7.782689   8.658678
                   31         32         33         34         35
    31  H    0.000000
    32  C    8.203236   0.000000
    33  C    8.214296   2.673761   0.000000
    34  H    8.509252   2.131770   4.793053   0.000000
    35  H    9.285366   1.085320   3.002541   2.413616   0.000000
    36  H    9.296470   3.003012   1.085344   5.102418   2.931726
    37  H    8.531424   4.783586   2.122564   6.882876   5.092972
                   36         37
    36  H    0.000000
    37  H    2.406285   0.000000
 Stoichiometry    C24H13(2)
 Framework group  C1[X(C24H13)]
 Deg. of freedom   105
 Full point group                 C1      NOp   1
 Largest Abelian subgroup         C1      NOp   1
 Largest concise Abelian subgroup C1      NOp   1
                         Standard orientation:                         
 ---------------------------------------------------------------------
 Center     Atomic      Atomic             Coordinates (Angstroms)
 Number     Number       Type             X           Y           Z
 ---------------------------------------------------------------------
      1          6           0        1.520711    3.249390   -0.076111
      2          6           0        0.294251    2.497780    0.003319
      3          6           0        0.445231    1.133300    0.084509
      4          6           0        2.787421    2.673170   -0.097311
      5          6           0        2.943361    1.250860   -0.028701
      6          6           0        1.735231    0.580600    0.079479
      7          6           0       -0.491169    0.004360    0.109889
      8          6           0        0.283851   -1.157700    0.125989
      9          6           0        1.638891   -0.811850    0.103979
     10          6           0       -0.157949   -2.478290    0.061259
     11          6           0       -1.556559   -2.609140    0.017869
     12          6           0       -2.402519   -1.460570    0.008269
     13          6           0       -1.868479   -0.101110    0.037479
     14          6           0       -3.817789   -1.588190   -0.053411
     15          6           0       -4.629459   -0.478930   -0.100401
     16          6           0       -2.726789    1.060000   -0.034131
     17          6           0       -4.096239    0.826760   -0.097611
     18          1           0       -1.082229    4.160850   -0.145851
     19          1           0        1.450201    4.331030   -0.131671
     20          1           0        3.653931    3.321530   -0.175591
     21          6           0        4.086481    0.372040   -0.091081
     22          6           0        2.693911   -1.684760    0.013439
     23          6           0        0.933961   -3.444610    0.006609
     24          1           0       -2.029039   -3.585260   -0.028031
     25          1           0       -4.253779   -2.581420   -0.067621
     26          1           0       -4.775129    1.671170   -0.149751
     27          1           0       -5.705339   -0.604420   -0.147421
     28          6           0       -2.264219    2.446760   -0.067381
     29          6           0       -1.043689    3.083810   -0.015531
     30          1           0       -1.113729    3.717200    2.003919
     31          1           0       -3.100839    3.137870   -0.134821
     32          6           0        3.971411   -1.018160   -0.073421
     33          6           0        2.267781   -3.078150   -0.017881
     34          1           0        5.080771    0.799630   -0.170401
     35          1           0        4.881501   -1.605570   -0.141281
     36          1           0        3.013811   -3.864400   -0.074651
     37          1           0        0.694041   -4.502380   -0.031561
 ---------------------------------------------------------------------
 Rotational constants (GHZ):      0.4162889      0.2580507      0.1598671
 Standard basis: 6-311+G(d,p) (5D, 7F)
 There are   630 symmetry adapted cartesian basis functions of A   symmetry.
 There are   606 symmetry adapted basis functions of A   symmetry.
   606 basis functions,   968 primitive gaussians,   630 cartesian basis functions
    79 alpha electrons       78 beta electrons
       nuclear repulsion energy      1838.2655756788 Hartrees.
 NAtoms=   37 NActive=   37 NUniq=   37 SFac= 1.00D+00 NAtFMM=   60 NAOKFM=F Big=F
 Integral buffers will be    131072 words long.
 Raffenetti 2 integral format.
 Two-electron integral symmetry is turned on.
 One-electron integrals computed using PRISM.
 NBasis=   606 RedAO= T EigKep=  1.04D-06  NBF=   606
 NBsUse=   589 1.00D-06 EigRej=  6.87D-07 NBFU=   589
 ExpMin= 4.38D-02 ExpMax= 4.56D+03 ExpMxC= 6.82D+02 IAcc=2 IRadAn=         4 AccDes= 0.00D+00
 Harris functional with IExCor=  402 and IRadAn=       4 diagonalized for initial guess.
 HarFok:  IExCor=  402 AccDes= 0.00D+00 IRadAn=         4 IDoV= 1 UseB2=F ITyADJ=14
 ICtDFT=  3500011 ScaDFX=  1.000000  1.000000  1.000000  1.000000
 FoFCou: FMM=F IPFlag=           0 FMFlag=      100000 FMFlg1=           0
         NFxFlg=           0 DoJE=T BraDBF=F KetDBF=T FulRan=T
         wScrn=  0.000000 ICntrl=     500 IOpCl=  0 I1Cent=   200000004 NGrid=           0
         NMat0=    1 NMatS0=      1 NMatT0=    0 NMatD0=    1 NMtDS0=    0 NMtDT0=    0
 Petite list used in FoFCou.
 Initial guess <Sx>= 0.0000 <Sy>= 0.0000 <Sz>= 0.5000 <S**2>= 0.7500 S= 0.5000
 Requested convergence on RMS density matrix=1.00D-08 within 128 cycles.
 Requested convergence on MAX density matrix=1.00D-06.
 Requested convergence on             energy=1.00D-06.
 No special actions if energy rises.
 Restarting incremental Fock formation.
 SCF Done:  E(UB3LYP) =  -922.511820835     A.U. after   26 cycles
            NFock= 26  Conv=0.22D-08     -V/T= 2.0044
 <Sx>= 0.0000 <Sy>= 0.0000 <Sz>= 0.5000 <S**2>= 0.7755 S= 0.5127
 <L.S>= 0.000000000000E+00
 Annihilation of the first spin contaminant:
 S**2 before annihilation     0.7755,   after     0.7502
 DoSCS=F DFT=T ScalE2(SS,OS)=  1.000000  1.000000
 Range of M.O.s used for correlation:     1   589
 NBasis=   606 NAE=    79 NBE=    78 NFC=     0 NFV=     0
 NROrb=    589 NOA=    79 NOB=    78 NVA=   510 NVB=   511

 **** Warning!!: The largest alpha MO coefficient is  0.15620776D+03


 **** Warning!!: The largest beta MO coefficient is  0.15248534D+03

 Symmetrizing basis deriv contribution to polar:
 IMax=3 JMax=2 DiffMx= 0.00D+00
 G2DrvN: will do    38 centers at a time, making    1 passes.
 Calling FoFCou, ICntrl=  3107 FMM=F I1Cent=   0 AccDes= 0.00D+00.
 End of G2Drv F.D. properties file   721 does not exist.
 End of G2Drv F.D. properties file   722 does not exist.
 End of G2Drv F.D. properties file   788 does not exist.
          IDoAtm=1111111111111111111111111111111111111
          Differentiating once with respect to nuclear coordinates.
          There are   114 degrees of freedom in the 1st order CPHF.  IDoFFX=6 NUNeed=     0.
    108 vectors produced by pass  0 Test12= 8.01D-14 1.00D-09 XBig12= 5.98D-01 1.33D-01.
 AX will form   108 AO Fock derivatives at one time.
    108 vectors produced by pass  1 Test12= 8.01D-14 1.00D-09 XBig12= 1.46D-01 6.19D-02.
    108 vectors produced by pass  2 Test12= 8.01D-14 1.00D-09 XBig12= 2.18D-03 6.36D-03.
    108 vectors produced by pass  3 Test12= 8.01D-14 1.00D-09 XBig12= 2.39D-05 8.12D-04.
    108 vectors produced by pass  4 Test12= 8.01D-14 1.00D-09 XBig12= 1.94D-07 5.00D-05.
    108 vectors produced by pass  5 Test12= 8.01D-14 1.00D-09 XBig12= 1.04D-09 2.12D-06.
    108 vectors produced by pass  6 Test12= 8.01D-14 1.00D-09 XBig12= 6.05D-11 4.51D-07.
    108 vectors produced by pass  7 Test12= 8.01D-14 1.00D-09 XBig12= 1.25D-11 1.78D-07.
    107 vectors produced by pass  8 Test12= 8.01D-14 1.00D-09 XBig12= 1.01D-12 4.74D-08.
     70 vectors produced by pass  9 Test12= 8.01D-14 1.00D-09 XBig12= 1.33D-14 6.34D-09.
     37 vectors produced by pass 10 Test12= 8.01D-14 1.00D-09 XBig12= 1.22D-15 2.07D-09.
     37 vectors produced by pass 11 Test12= 8.01D-14 1.00D-09 XBig12= 3.89D-13 3.40D-08.
     37 vectors produced by pass 12 Test12= 8.01D-14 1.00D-09 XBig12= 2.39D-12 8.25D-08.
     37 vectors produced by pass 13 Test12= 8.01D-14 1.00D-09 XBig12= 5.82D-13 3.94D-08.
     37 vectors produced by pass 14 Test12= 8.01D-14 1.00D-09 XBig12= 3.71D-13 2.66D-08.
     37 vectors produced by pass 15 Test12= 8.01D-14 1.00D-09 XBig12= 2.51D-13 2.95D-08.
     37 vectors produced by pass 16 Test12= 8.01D-14 1.00D-09 XBig12= 1.66D-13 1.93D-08.
     37 vectors produced by pass 17 Test12= 8.01D-14 1.00D-09 XBig12= 3.30D-13 3.07D-08.
     36 vectors produced by pass 18 Test12= 8.01D-14 1.00D-09 XBig12= 1.25D-13 1.45D-08.
     36 vectors produced by pass 19 Test12= 8.01D-14 1.00D-09 XBig12= 1.99D-13 2.00D-08.
     36 vectors produced by pass 20 Test12= 8.01D-14 1.00D-09 XBig12= 3.49D-13 2.47D-08.
     33 vectors produced by pass 21 Test12= 8.01D-14 1.00D-09 XBig12= 1.19D-13 1.79D-08.
     31 vectors produced by pass 22 Test12= 8.01D-14 1.00D-09 XBig12= 1.18D-13 1.36D-08.
     31 vectors produced by pass 23 Test12= 8.01D-14 1.00D-09 XBig12= 2.06D-13 1.93D-08.
     24 vectors produced by pass 24 Test12= 8.01D-14 1.00D-09 XBig12= 7.00D-14 1.13D-08.
     23 vectors produced by pass 25 Test12= 8.01D-14 1.00D-09 XBig12= 6.68D-14 1.17D-08.
     23 vectors produced by pass 26 Test12= 8.01D-14 1.00D-09 XBig12= 1.57D-13 1.71D-08.
     23 vectors produced by pass 27 Test12= 8.01D-14 1.00D-09 XBig12= 7.79D-14 1.18D-08.
     23 vectors produced by pass 28 Test12= 8.01D-14 1.00D-09 XBig12= 1.20D-13 1.50D-08.
     22 vectors produced by pass 29 Test12= 8.01D-14 1.00D-09 XBig12= 7.76D-14 1.44D-08.
     22 vectors produced by pass 30 Test12= 8.01D-14 1.00D-09 XBig12= 9.18D-14 1.34D-08.
     22 vectors produced by pass 31 Test12= 8.01D-14 1.00D-09 XBig12= 1.20D-13 1.59D-08.
     18 vectors produced by pass 32 Test12= 8.01D-14 1.00D-09 XBig12= 5.82D-14 1.06D-08.
     18 vectors produced by pass 33 Test12= 8.01D-14 1.00D-09 XBig12= 6.02D-14 9.26D-09.
     18 vectors produced by pass 34 Test12= 8.01D-14 1.00D-09 XBig12= 1.12D-13 1.70D-08.
     16 vectors produced by pass 35 Test12= 8.01D-14 1.00D-09 XBig12= 6.25D-14 1.02D-08.
     16 vectors produced by pass 36 Test12= 8.01D-14 1.00D-09 XBig12= 6.48D-14 1.04D-08.
     16 vectors produced by pass 37 Test12= 8.01D-14 1.00D-09 XBig12= 1.21D-13 1.38D-08.
     16 vectors produced by pass 38 Test12= 8.01D-14 1.00D-09 XBig12= 4.66D-14 9.20D-09.
     16 vectors produced by pass 39 Test12= 8.01D-14 1.00D-09 XBig12= 9.00D-14 1.09D-08.
     15 vectors produced by pass 40 Test12= 8.01D-14 1.00D-09 XBig12= 5.16D-14 9.15D-09.
     15 vectors produced by pass 41 Test12= 8.01D-14 1.00D-09 XBig12= 1.12D-13 1.53D-08.
     15 vectors produced by pass 42 Test12= 8.01D-14 1.00D-09 XBig12= 8.86D-14 1.03D-08.
     13 vectors produced by pass 43 Test12= 8.01D-14 1.00D-09 XBig12= 5.30D-14 8.93D-09.
     13 vectors produced by pass 44 Test12= 8.01D-14 1.00D-09 XBig12= 6.77D-14 1.18D-08.
     13 vectors produced by pass 45 Test12= 8.01D-14 1.00D-09 XBig12= 8.75D-14 1.18D-08.
     12 vectors produced by pass 46 Test12= 8.01D-14 1.00D-09 XBig12= 6.02D-14 9.57D-09.
     12 vectors produced by pass 47 Test12= 8.01D-14 1.00D-09 XBig12= 6.35D-14 9.89D-09.
     12 vectors produced by pass 48 Test12= 8.01D-14 1.00D-09 XBig12= 8.17D-14 1.17D-08.
     12 vectors produced by pass 49 Test12= 8.01D-14 1.00D-09 XBig12= 6.59D-14 9.50D-09.
      9 vectors produced by pass 50 Test12= 8.01D-14 1.00D-09 XBig12= 5.40D-14 9.77D-09.
      6 vectors produced by pass 51 Test12= 8.01D-14 1.00D-09 XBig12= 3.13D-14 7.19D-09.
      6 vectors produced by pass 52 Test12= 8.01D-14 1.00D-09 XBig12= 7.71D-14 1.29D-08.
      6 vectors produced by pass 53 Test12= 8.01D-14 1.00D-09 XBig12= 5.64D-14 9.76D-09.
      6 vectors produced by pass 54 Test12= 8.01D-14 1.00D-09 XBig12= 2.76D-14 6.72D-09.
      6 vectors produced by pass 55 Test12= 8.01D-14 1.00D-09 XBig12= 3.65D-14 7.36D-09.
      6 vectors produced by pass 56 Test12= 8.01D-14 1.00D-09 XBig12= 3.39D-14 7.20D-09.
      6 vectors produced by pass 57 Test12= 8.01D-14 1.00D-09 XBig12= 6.75D-14 1.08D-08.
      6 vectors produced by pass 58 Test12= 8.01D-14 1.00D-09 XBig12= 3.65D-14 6.59D-09.
      6 vectors produced by pass 59 Test12= 8.01D-14 1.00D-09 XBig12= 6.42D-14 1.10D-08.
      6 vectors produced by pass 60 Test12= 8.01D-14 1.00D-09 XBig12= 5.20D-14 8.62D-09.
      6 vectors produced by pass 61 Test12= 8.01D-14 1.00D-09 XBig12= 6.63D-14 1.01D-08.
      6 vectors produced by pass 62 Test12= 8.01D-14 1.00D-09 XBig12= 3.13D-14 6.61D-09.
      6 vectors produced by pass 63 Test12= 8.01D-14 1.00D-09 XBig12= 5.96D-14 8.96D-09.
      4 vectors produced by pass 64 Test12= 8.01D-14 1.00D-09 XBig12= 2.04D-14 6.23D-09.
      4 vectors produced by pass 65 Test12= 8.01D-14 1.00D-09 XBig12= 4.02D-14 7.25D-09.
      4 vectors produced by pass 66 Test12= 8.01D-14 1.00D-09 XBig12= 5.12D-14 7.65D-09.
      4 vectors produced by pass 67 Test12= 8.01D-14 1.00D-09 XBig12= 4.17D-14 7.57D-09.
      4 vectors produced by pass 68 Test12= 8.01D-14 1.00D-09 XBig12= 5.33D-14 9.64D-09.
      4 vectors produced by pass 69 Test12= 8.01D-14 1.00D-09 XBig12= 6.05D-14 1.28D-08.
      4 vectors produced by pass 70 Test12= 8.01D-14 1.00D-09 XBig12= 4.57D-14 8.38D-09.
      4 vectors produced by pass 71 Test12= 8.01D-14 1.00D-09 XBig12= 4.62D-14 7.78D-09.
      4 vectors produced by pass 72 Test12= 8.01D-14 1.00D-09 XBig12= 2.81D-14 6.27D-09.
      4 vectors produced by pass 73 Test12= 8.01D-14 1.00D-09 XBig12= 3.23D-14 6.53D-09.
      4 vectors produced by pass 74 Test12= 8.01D-14 1.00D-09 XBig12= 4.35D-14 8.21D-09.
      4 vectors produced by pass 75 Test12= 8.01D-14 1.00D-09 XBig12= 4.78D-14 8.27D-09.
      4 vectors produced by pass 76 Test12= 8.01D-14 1.00D-09 XBig12= 4.78D-14 9.26D-09.
      4 vectors produced by pass 77 Test12= 8.01D-14 1.00D-09 XBig12= 4.38D-14 8.02D-09.
      4 vectors produced by pass 78 Test12= 8.01D-14 1.00D-09 XBig12= 4.92D-14 7.37D-09.
      4 vectors produced by pass 79 Test12= 8.01D-14 1.00D-09 XBig12= 3.45D-14 7.57D-09.
      4 vectors produced by pass 80 Test12= 8.01D-14 1.00D-09 XBig12= 3.00D-14 6.51D-09.
      4 vectors produced by pass 81 Test12= 8.01D-14 1.00D-09 XBig12= 1.94D-14 4.95D-09.
      4 vectors produced by pass 82 Test12= 8.01D-14 1.00D-09 XBig12= 5.16D-14 7.88D-09.
      4 vectors produced by pass 83 Test12= 8.01D-14 1.00D-09 XBig12= 4.71D-14 8.89D-09.
      4 vectors produced by pass 84 Test12= 8.01D-14 1.00D-09 XBig12= 1.33D-14 3.96D-09.
      4 vectors produced by pass 85 Test12= 8.01D-14 1.00D-09 XBig12= 3.74D-14 6.33D-09.
      4 vectors produced by pass 86 Test12= 8.01D-14 1.00D-09 XBig12= 2.64D-14 6.03D-09.
      4 vectors produced by pass 87 Test12= 8.01D-14 1.00D-09 XBig12= 6.14D-14 1.01D-08.
      4 vectors produced by pass 88 Test12= 8.01D-14 1.00D-09 XBig12= 1.88D-14 5.72D-09.
      4 vectors produced by pass 89 Test12= 8.01D-14 1.00D-09 XBig12= 3.82D-14 7.37D-09.
      4 vectors produced by pass 90 Test12= 8.01D-14 1.00D-09 XBig12= 3.50D-14 7.93D-09.
      4 vectors produced by pass 91 Test12= 8.01D-14 1.00D-09 XBig12= 4.89D-14 7.91D-09.
      4 vectors produced by pass 92 Test12= 8.01D-14 1.00D-09 XBig12= 6.79D-14 1.01D-08.
      4 vectors produced by pass 93 Test12= 8.01D-14 1.00D-09 XBig12= 3.60D-14 6.81D-09.
      4 vectors produced by pass 94 Test12= 8.01D-14 1.00D-09 XBig12= 5.54D-14 9.78D-09.
      4 vectors produced by pass 95 Test12= 8.01D-14 1.00D-09 XBig12= 1.74D-14 4.28D-09.
      4 vectors produced by pass 96 Test12= 8.01D-14 1.00D-09 XBig12= 3.74D-14 6.97D-09.
      4 vectors produced by pass 97 Test12= 8.01D-14 1.00D-09 XBig12= 1.49D-14 4.28D-09.
      4 vectors produced by pass 98 Test12= 8.01D-14 1.00D-09 XBig12= 4.58D-14 7.56D-09.
      4 vectors produced by pass 99 Test12= 8.01D-14 1.00D-09 XBig12= 3.84D-14 7.66D-09.
      4 vectors produced by pass100 Test12= 8.01D-14 1.00D-09 XBig12= 2.38D-14 5.73D-09.
      4 vectors produced by pass101 Test12= 8.01D-14 1.00D-09 XBig12= 2.49D-14 5.48D-09.
      4 vectors produced by pass102 Test12= 8.01D-14 1.00D-09 XBig12= 4.89D-14 8.69D-09.
      4 vectors produced by pass103 Test12= 8.01D-14 1.00D-09 XBig12= 2.33D-14 5.82D-09.
      4 vectors produced by pass104 Test12= 8.01D-14 1.00D-09 XBig12= 4.34D-14 9.72D-09.
      4 vectors produced by pass105 Test12= 8.01D-14 1.00D-09 XBig12= 3.68D-14 7.13D-09.
      4 vectors produced by pass106 Test12= 8.01D-14 1.00D-09 XBig12= 5.21D-14 8.11D-09.
      4 vectors produced by pass107 Test12= 8.01D-14 1.00D-09 XBig12= 1.50D-14 4.38D-09.
      4 vectors produced by pass108 Test12= 8.01D-14 1.00D-09 XBig12= 1.85D-14 4.72D-09.
      4 vectors produced by pass109 Test12= 8.01D-14 1.00D-09 XBig12= 3.26D-14 6.40D-09.
      4 vectors produced by pass110 Test12= 8.01D-14 1.00D-09 XBig12= 3.47D-14 6.91D-09.
      4 vectors produced by pass111 Test12= 8.01D-14 1.00D-09 XBig12= 3.41D-14 5.98D-09.
      4 vectors produced by pass112 Test12= 8.01D-14 1.00D-09 XBig12= 1.83D-14 5.06D-09.
      4 vectors produced by pass113 Test12= 8.01D-14 1.00D-09 XBig12= 3.83D-14 6.99D-09.
      4 vectors produced by pass114 Test12= 8.01D-14 1.00D-09 XBig12= 3.58D-14 7.86D-09.
      4 vectors produced by pass115 Test12= 8.01D-14 1.00D-09 XBig12= 3.45D-14 6.69D-09.
      4 vectors produced by pass116 Test12= 8.01D-14 1.00D-09 XBig12= 2.39D-14 4.89D-09.
      4 vectors produced by pass117 Test12= 8.01D-14 1.00D-09 XBig12= 3.65D-14 7.35D-09.
      4 vectors produced by pass118 Test12= 8.01D-14 1.00D-09 XBig12= 2.46D-14 5.89D-09.
      4 vectors produced by pass119 Test12= 8.01D-14 1.00D-09 XBig12= 3.79D-14 7.58D-09.
      4 vectors produced by pass120 Test12= 8.01D-14 1.00D-09 XBig12= 2.54D-14 6.11D-09.
      4 vectors produced by pass121 Test12= 8.01D-14 1.00D-09 XBig12= 3.97D-14 7.08D-09.
      4 vectors produced by pass122 Test12= 8.01D-14 1.00D-09 XBig12= 2.36D-14 5.12D-09.
      4 vectors produced by pass123 Test12= 8.01D-14 1.00D-09 XBig12= 3.78D-14 6.74D-09.
      4 vectors produced by pass124 Test12= 8.01D-14 1.00D-09 XBig12= 4.41D-14 7.59D-09.
      4 vectors produced by pass125 Test12= 8.01D-14 1.00D-09 XBig12= 3.85D-14 8.01D-09.
      4 vectors produced by pass126 Test12= 8.01D-14 1.00D-09 XBig12= 2.81D-14 5.98D-09.
      4 vectors produced by pass127 Test12= 8.01D-14 1.00D-09 XBig12= 2.75D-14 5.40D-09.
      4 vectors produced by pass128 Test12= 8.01D-14 1.00D-09 XBig12= 3.04D-14 6.43D-09.
      4 vectors produced by pass129 Test12= 8.01D-14 1.00D-09 XBig12= 3.54D-14 7.56D-09.
      4 vectors produced by pass130 Test12= 8.01D-14 1.00D-09 XBig12= 9.60D-15 3.52D-09.
      4 vectors produced by pass131 Test12= 8.01D-14 1.00D-09 XBig12= 3.70D-14 8.18D-09.
      4 vectors produced by pass132 Test12= 8.01D-14 1.00D-09 XBig12= 3.28D-14 6.45D-09.
      4 vectors produced by pass133 Test12= 8.01D-14 1.00D-09 XBig12= 2.87D-14 6.26D-09.
      4 vectors produced by pass134 Test12= 8.01D-14 1.00D-09 XBig12= 1.58D-14 4.81D-09.
      4 vectors produced by pass135 Test12= 8.01D-14 1.00D-09 XBig12= 3.18D-14 5.52D-09.
      4 vectors produced by pass136 Test12= 8.01D-14 1.00D-09 XBig12= 2.47D-14 5.30D-09.
      4 vectors produced by pass137 Test12= 8.01D-14 1.00D-09 XBig12= 2.57D-14 6.58D-09.
      4 vectors produced by pass138 Test12= 8.01D-14 1.00D-09 XBig12= 1.74D-14 4.90D-09.
      4 vectors produced by pass139 Test12= 8.01D-14 1.00D-09 XBig12= 1.96D-14 5.08D-09.
      4 vectors produced by pass140 Test12= 8.01D-14 1.00D-09 XBig12= 2.94D-14 6.93D-09.
      4 vectors produced by pass141 Test12= 8.01D-14 1.00D-09 XBig12= 1.65D-14 4.30D-09.
      4 vectors produced by pass142 Test12= 8.01D-14 1.00D-09 XBig12= 2.76D-14 5.68D-09.
      4 vectors produced by pass143 Test12= 8.01D-14 1.00D-09 XBig12= 1.95D-14 5.31D-09.
      4 vectors produced by pass144 Test12= 8.01D-14 1.00D-09 XBig12= 2.73D-14 5.86D-09.
      4 vectors produced by pass145 Test12= 8.01D-14 1.00D-09 XBig12= 3.07D-14 6.66D-09.
      4 vectors produced by pass146 Test12= 8.01D-14 1.00D-09 XBig12= 2.37D-14 5.95D-09.
      4 vectors produced by pass147 Test12= 8.01D-14 1.00D-09 XBig12= 2.96D-14 6.78D-09.
      4 vectors produced by pass148 Test12= 8.01D-14 1.00D-09 XBig12= 2.36D-14 5.08D-09.
      4 vectors produced by pass149 Test12= 8.01D-14 1.00D-09 XBig12= 1.45D-14 4.08D-09.
      4 vectors produced by pass150 Test12= 8.01D-14 1.00D-09 XBig12= 2.40D-14 5.12D-09.
      4 vectors produced by pass151 Test12= 8.01D-14 1.00D-09 XBig12= 2.01D-14 5.22D-09.
      4 vectors produced by pass152 Test12= 8.01D-14 1.00D-09 XBig12= 3.49D-14 7.07D-09.
      4 vectors produced by pass153 Test12= 8.01D-14 1.00D-09 XBig12= 2.32D-14 5.36D-09.
      4 vectors produced by pass154 Test12= 8.01D-14 1.00D-09 XBig12= 2.18D-14 5.52D-09.
      4 vectors produced by pass155 Test12= 8.01D-14 1.00D-09 XBig12= 3.21D-14 6.94D-09.
      4 vectors produced by pass156 Test12= 8.01D-14 1.00D-09 XBig12= 8.79D-15 4.03D-09.
      4 vectors produced by pass157 Test12= 8.01D-14 1.00D-09 XBig12= 2.62D-14 6.02D-09.
      4 vectors produced by pass158 Test12= 8.01D-14 1.00D-09 XBig12= 2.01D-14 5.42D-09.
      4 vectors produced by pass159 Test12= 8.01D-14 1.00D-09 XBig12= 2.16D-14 5.86D-09.
      4 vectors produced by pass160 Test12= 8.01D-14 1.00D-09 XBig12= 2.74D-14 6.90D-09.
      4 vectors produced by pass161 Test12= 8.01D-14 1.00D-09 XBig12= 1.59D-14 3.96D-09.
      4 vectors produced by pass162 Test12= 8.01D-14 1.00D-09 XBig12= 1.74D-14 4.83D-09.
      4 vectors produced by pass163 Test12= 8.01D-14 1.00D-09 XBig12= 1.34D-14 4.14D-09.
      4 vectors produced by pass164 Test12= 8.01D-14 1.00D-09 XBig12= 5.50D-15 2.48D-09.
      4 vectors produced by pass165 Test12= 8.01D-14 1.00D-09 XBig12= 2.72D-14 6.79D-09.
      4 vectors produced by pass166 Test12= 8.01D-14 1.00D-09 XBig12= 1.70D-14 5.72D-09.
      4 vectors produced by pass167 Test12= 8.01D-14 1.00D-09 XBig12= 1.36D-14 4.28D-09.
      4 vectors produced by pass168 Test12= 8.01D-14 1.00D-09 XBig12= 2.94D-14 6.25D-09.
      4 vectors produced by pass169 Test12= 8.01D-14 1.00D-09 XBig12= 1.17D-14 4.24D-09.
      4 vectors produced by pass170 Test12= 8.01D-14 1.00D-09 XBig12= 1.80D-14 4.71D-09.
      4 vectors produced by pass171 Test12= 8.01D-14 1.00D-09 XBig12= 1.27D-14 4.21D-09.
      4 vectors produced by pass172 Test12= 8.01D-14 1.00D-09 XBig12= 9.67D-15 3.95D-09.
      4 vectors produced by pass173 Test12= 8.01D-14 1.00D-09 XBig12= 1.46D-14 4.13D-09.
      4 vectors produced by pass174 Test12= 8.01D-14 1.00D-09 XBig12= 3.03D-14 6.84D-09.
      4 vectors produced by pass175 Test12= 8.01D-14 1.00D-09 XBig12= 1.72D-14 4.25D-09.
      4 vectors produced by pass176 Test12= 8.01D-14 1.00D-09 XBig12= 1.70D-14 4.89D-09.
      4 vectors produced by pass177 Test12= 8.01D-14 1.00D-09 XBig12= 2.17D-14 5.30D-09.
      4 vectors produced by pass178 Test12= 8.01D-14 1.00D-09 XBig12= 1.21D-14 3.68D-09.
      4 vectors produced by pass179 Test12= 8.01D-14 1.00D-09 XBig12= 1.78D-14 4.45D-09.
      4 vectors produced by pass180 Test12= 8.01D-14 1.00D-09 XBig12= 1.50D-14 4.27D-09.
      4 vectors produced by pass181 Test12= 8.01D-14 1.00D-09 XBig12= 1.45D-14 4.76D-09.
      4 vectors produced by pass182 Test12= 8.01D-14 1.00D-09 XBig12= 2.38D-14 5.16D-09.
      4 vectors produced by pass183 Test12= 8.01D-14 1.00D-09 XBig12= 1.42D-14 3.97D-09.
      4 vectors produced by pass184 Test12= 8.01D-14 1.00D-09 XBig12= 2.42D-14 5.05D-09.
      4 vectors produced by pass185 Test12= 8.01D-14 1.00D-09 XBig12= 3.01D-14 5.59D-09.
      4 vectors produced by pass186 Test12= 8.01D-14 1.00D-09 XBig12= 1.78D-14 4.94D-09.
      4 vectors produced by pass187 Test12= 8.01D-14 1.00D-09 XBig12= 1.79D-14 5.01D-09.
      4 vectors produced by pass188 Test12= 8.01D-14 1.00D-09 XBig12= 2.33D-14 6.04D-09.
      4 vectors produced by pass189 Test12= 8.01D-14 1.00D-09 XBig12= 1.27D-14 3.86D-09.
      4 vectors produced by pass190 Test12= 8.01D-14 1.00D-09 XBig12= 1.58D-14 4.38D-09.
      4 vectors produced by pass191 Test12= 8.01D-14 1.00D-09 XBig12= 1.17D-14 3.37D-09.
      4 vectors produced by pass192 Test12= 8.01D-14 1.00D-09 XBig12= 1.95D-14 4.46D-09.
      4 vectors produced by pass193 Test12= 8.01D-14 1.00D-09 XBig12= 1.22D-14 4.01D-09.
      4 vectors produced by pass194 Test12= 8.01D-14 1.00D-09 XBig12= 1.95D-14 4.49D-09.
      4 vectors produced by pass195 Test12= 8.01D-14 1.00D-09 XBig12= 1.17D-14 4.51D-09.
      4 vectors produced by pass196 Test12= 8.01D-14 1.00D-09 XBig12= 1.91D-14 4.77D-09.
      4 vectors produced by pass197 Test12= 8.01D-14 1.00D-09 XBig12= 1.83D-14 4.82D-09.
      4 vectors produced by pass198 Test12= 8.01D-14 1.00D-09 XBig12= 1.64D-14 4.10D-09.
      4 vectors produced by pass199 Test12= 8.01D-14 1.00D-09 XBig12= 1.54D-14 4.18D-09.
      4 vectors produced by pass200 Test12= 8.01D-14 1.00D-09 XBig12= 2.05D-14 5.95D-09.
      4 vectors produced by pass201 Test12= 8.01D-14 1.00D-09 XBig12= 1.68D-14 4.28D-09.
      4 vectors produced by pass202 Test12= 8.01D-14 1.00D-09 XBig12= 1.13D-14 4.22D-09.
      4 vectors produced by pass203 Test12= 8.01D-14 1.00D-09 XBig12= 2.01D-14 4.43D-09.
      4 vectors produced by pass204 Test12= 8.01D-14 1.00D-09 XBig12= 1.03D-14 3.45D-09.
      4 vectors produced by pass205 Test12= 8.01D-14 1.00D-09 XBig12= 1.61D-14 4.23D-09.
      4 vectors produced by pass206 Test12= 8.01D-14 1.00D-09 XBig12= 1.11D-14 3.95D-09.
      4 vectors produced by pass207 Test12= 8.01D-14 1.00D-09 XBig12= 1.84D-14 5.00D-09.
      4 vectors produced by pass208 Test12= 8.01D-14 1.00D-09 XBig12= 1.41D-14 4.19D-09.
      4 vectors produced by pass209 Test12= 8.01D-14 1.00D-09 XBig12= 1.74D-14 4.60D-09.
      4 vectors produced by pass210 Test12= 8.01D-14 1.00D-09 XBig12= 2.22D-14 5.25D-09.
      4 vectors produced by pass211 Test12= 8.01D-14 1.00D-09 XBig12= 1.09D-14 3.60D-09.
      4 vectors produced by pass212 Test12= 8.01D-14 1.00D-09 XBig12= 1.37D-14 3.81D-09.
      4 vectors produced by pass213 Test12= 8.01D-14 1.00D-09 XBig12= 1.55D-14 4.28D-09.
      4 vectors produced by pass214 Test12= 8.01D-14 1.00D-09 XBig12= 9.46D-15 3.88D-09.
      4 vectors produced by pass215 Test12= 8.01D-14 1.00D-09 XBig12= 1.10D-14 3.34D-09.
      4 vectors produced by pass216 Test12= 8.01D-14 1.00D-09 XBig12= 1.62D-14 4.28D-09.
      4 vectors produced by pass217 Test12= 8.01D-14 1.00D-09 XBig12= 1.05D-14 3.36D-09.
      4 vectors produced by pass218 Test12= 8.01D-14 1.00D-09 XBig12= 1.08D-14 3.65D-09.
      4 vectors produced by pass219 Test12= 8.01D-14 1.00D-09 XBig12= 1.84D-14 4.23D-09.
      4 vectors produced by pass220 Test12= 8.01D-14 1.00D-09 XBig12= 1.11D-14 3.86D-09.
      4 vectors produced by pass221 Test12= 8.01D-14 1.00D-09 XBig12= 1.74D-14 4.33D-09.
      4 vectors produced by pass222 Test12= 8.01D-14 1.00D-09 XBig12= 1.16D-14 3.70D-09.
      4 vectors produced by pass223 Test12= 8.01D-14 1.00D-09 XBig12= 1.20D-14 4.28D-09.
      4 vectors produced by pass224 Test12= 8.01D-14 1.00D-09 XBig12= 1.81D-14 4.32D-09.
      4 vectors produced by pass225 Test12= 8.01D-14 1.00D-09 XBig12= 9.08D-15 3.07D-09.
      4 vectors produced by pass226 Test12= 8.01D-14 1.00D-09 XBig12= 2.30D-14 5.07D-09.
      4 vectors produced by pass227 Test12= 8.01D-14 1.00D-09 XBig12= 1.41D-14 3.60D-09.
      4 vectors produced by pass228 Test12= 8.01D-14 1.00D-09 XBig12= 1.69D-14 4.10D-09.
      4 vectors produced by pass229 Test12= 8.01D-14 1.00D-09 XBig12= 9.41D-15 3.14D-09.
      4 vectors produced by pass230 Test12= 8.01D-14 1.00D-09 XBig12= 1.34D-14 3.81D-09.
      4 vectors produced by pass231 Test12= 8.01D-14 1.00D-09 XBig12= 1.58D-14 3.93D-09.
      4 vectors produced by pass232 Test12= 8.01D-14 1.00D-09 XBig12= 7.27D-15 3.40D-09.
      4 vectors produced by pass233 Test12= 8.01D-14 1.00D-09 XBig12= 1.39D-14 3.84D-09.
      4 vectors produced by pass234 Test12= 8.01D-14 1.00D-09 XBig12= 5.70D-15 2.56D-09.
      4 vectors produced by pass235 Test12= 8.01D-14 1.00D-09 XBig12= 2.25D-14 4.99D-09.
      4 vectors produced by pass236 Test12= 8.01D-14 1.00D-09 XBig12= 8.85D-15 3.51D-09.
      4 vectors produced by pass237 Test12= 8.01D-14 1.00D-09 XBig12= 1.05D-14 3.28D-09.
      4 vectors produced by pass238 Test12= 8.01D-14 1.00D-09 XBig12= 1.01D-14 3.32D-09.
      4 vectors produced by pass239 Test12= 8.01D-14 1.00D-09 XBig12= 1.47D-14 4.31D-09.
      4 vectors produced by pass240 Test12= 8.01D-14 1.00D-09 XBig12= 1.58D-14 4.20D-09.
      4 vectors produced by pass241 Test12= 8.01D-14 1.00D-09 XBig12= 1.51D-14 4.61D-09.
      4 vectors produced by pass242 Test12= 8.01D-14 1.00D-09 XBig12= 2.23D-14 4.71D-09.
      4 vectors produced by pass243 Test12= 8.01D-14 1.00D-09 XBig12= 9.19D-15 3.16D-09.
      4 vectors produced by pass244 Test12= 8.01D-14 1.00D-09 XBig12= 1.66D-14 4.55D-09.
      4 vectors produced by pass245 Test12= 8.01D-14 1.00D-09 XBig12= 1.26D-14 3.85D-09.
      4 vectors produced by pass246 Test12= 8.01D-14 1.00D-09 XBig12= 2.04D-14 4.80D-09.
      4 vectors produced by pass247 Test12= 8.01D-14 1.00D-09 XBig12= 1.45D-14 3.65D-09.
      4 vectors produced by pass248 Test12= 8.01D-14 1.00D-09 XBig12= 1.49D-14 4.16D-09.
      4 vectors produced by pass249 Test12= 8.01D-14 1.00D-09 XBig12= 1.56D-14 4.65D-09.
      4 vectors produced by pass250 Test12= 8.01D-14 1.00D-09 XBig12= 1.24D-14 3.45D-09.
      4 vectors produced by pass251 Test12= 8.01D-14 1.00D-09 XBig12= 1.80D-14 4.97D-09.
      4 vectors produced by pass252 Test12= 8.01D-14 1.00D-09 XBig12= 1.91D-14 4.71D-09.
      4 vectors produced by pass253 Test12= 8.01D-14 1.00D-09 XBig12= 9.17D-15 3.13D-09.
      4 vectors produced by pass254 Test12= 8.01D-14 1.00D-09 XBig12= 1.58D-14 4.78D-09.
      4 vectors produced by pass255 Test12= 8.01D-14 1.00D-09 XBig12= 7.91D-15 2.83D-09.
      4 vectors produced by pass256 Test12= 8.01D-14 1.00D-09 XBig12= 1.16D-14 3.68D-09.
      4 vectors produced by pass257 Test12= 8.01D-14 1.00D-09 XBig12= 1.18D-14 3.84D-09.
      4 vectors produced by pass258 Test12= 8.01D-14 1.00D-09 XBig12= 1.33D-14 4.73D-09.
      4 vectors produced by pass259 Test12= 8.01D-14 1.00D-09 XBig12= 1.40D-14 4.00D-09.
      4 vectors produced by pass260 Test12= 8.01D-14 1.00D-09 XBig12= 1.43D-14 3.95D-09.
      4 vectors produced by pass261 Test12= 8.01D-14 1.00D-09 XBig12= 1.19D-14 3.91D-09.
      4 vectors produced by pass262 Test12= 8.01D-14 1.00D-09 XBig12= 8.33D-15 2.96D-09.
      4 vectors produced by pass263 Test12= 8.01D-14 1.00D-09 XBig12= 1.24D-14 3.72D-09.
      4 vectors produced by pass264 Test12= 8.01D-14 1.00D-09 XBig12= 9.38D-15 3.31D-09.
      4 vectors produced by pass265 Test12= 8.01D-14 1.00D-09 XBig12= 5.80D-15 2.68D-09.
      4 vectors produced by pass266 Test12= 8.01D-14 1.00D-09 XBig12= 6.66D-15 3.06D-09.
      4 vectors produced by pass267 Test12= 8.01D-14 1.00D-09 XBig12= 1.10D-14 3.55D-09.
      4 vectors produced by pass268 Test12= 8.01D-14 1.00D-09 XBig12= 1.02D-14 3.20D-09.
      4 vectors produced by pass269 Test12= 8.01D-14 1.00D-09 XBig12= 6.48D-15 2.83D-09.
      4 vectors produced by pass270 Test12= 8.01D-14 1.00D-09 XBig12= 7.93D-15 3.29D-09.
      4 vectors produced by pass271 Test12= 8.01D-14 1.00D-09 XBig12= 1.35D-14 3.91D-09.
      4 vectors produced by pass272 Test12= 8.01D-14 1.00D-09 XBig12= 1.62D-14 4.07D-09.
      4 vectors produced by pass273 Test12= 8.01D-14 1.00D-09 XBig12= 5.37D-15 2.47D-09.
      4 vectors produced by pass274 Test12= 8.01D-14 1.00D-09 XBig12= 1.24D-14 3.74D-09.
      4 vectors produced by pass275 Test12= 8.01D-14 1.00D-09 XBig12= 8.53D-15 3.28D-09.
      4 vectors produced by pass276 Test12= 8.01D-14 1.00D-09 XBig12= 1.25D-14 3.80D-09.
      4 vectors produced by pass277 Test12= 8.01D-14 1.00D-09 XBig12= 9.34D-15 3.73D-09.
      4 vectors produced by pass278 Test12= 8.01D-14 1.00D-09 XBig12= 1.14D-14 3.71D-09.
      4 vectors produced by pass279 Test12= 8.01D-14 1.00D-09 XBig12= 8.85D-15 3.20D-09.
      4 vectors produced by pass280 Test12= 8.01D-14 1.00D-09 XBig12= 1.29D-14 3.41D-09.
      4 vectors produced by pass281 Test12= 8.01D-14 1.00D-09 XBig12= 6.89D-15 2.98D-09.
      4 vectors produced by pass282 Test12= 8.01D-14 1.00D-09 XBig12= 1.65D-14 4.49D-09.
      4 vectors produced by pass283 Test12= 8.01D-14 1.00D-09 XBig12= 1.04D-14 3.09D-09.
      4 vectors produced by pass284 Test12= 8.01D-14 1.00D-09 XBig12= 9.81D-15 3.34D-09.
      4 vectors produced by pass285 Test12= 8.01D-14 1.00D-09 XBig12= 7.40D-15 2.90D-09.
      4 vectors produced by pass286 Test12= 8.01D-14 1.00D-09 XBig12= 1.44D-14 3.98D-09.
      4 vectors produced by pass287 Test12= 8.01D-14 1.00D-09 XBig12= 8.77D-15 2.98D-09.
      4 vectors produced by pass288 Test12= 8.01D-14 1.00D-09 XBig12= 1.26D-14 3.79D-09.
      4 vectors produced by pass289 Test12= 8.01D-14 1.00D-09 XBig12= 1.04D-14 3.40D-09.
      4 vectors produced by pass290 Test12= 8.01D-14 1.00D-09 XBig12= 1.27D-14 4.09D-09.
      4 vectors produced by pass291 Test12= 8.01D-14 1.00D-09 XBig12= 9.14D-15 3.27D-09.
      4 vectors produced by pass292 Test12= 8.01D-14 1.00D-09 XBig12= 1.14D-14 4.91D-09.
      4 vectors produced by pass293 Test12= 8.01D-14 1.00D-09 XBig12= 7.43D-15 3.24D-09.
      4 vectors produced by pass294 Test12= 8.01D-14 1.00D-09 XBig12= 8.61D-15 2.86D-09.
      4 vectors produced by pass295 Test12= 8.01D-14 1.00D-09 XBig12= 1.05D-14 3.44D-09.
      4 vectors produced by pass296 Test12= 8.01D-14 1.00D-09 XBig12= 1.02D-14 3.19D-09.
      4 vectors produced by pass297 Test12= 8.01D-14 1.00D-09 XBig12= 1.10D-14 3.23D-09.
      4 vectors produced by pass298 Test12= 8.01D-14 1.00D-09 XBig12= 1.03D-14 4.10D-09.
      4 vectors produced by pass299 Test12= 8.01D-14 1.00D-09 XBig12= 1.32D-14 3.77D-09.
      4 vectors produced by pass300 Test12= 8.01D-14 1.00D-09 XBig12= 1.04D-14 3.90D-09.
      4 vectors produced by pass301 Test12= 8.01D-14 1.00D-09 XBig12= 1.00D-14 3.40D-09.
      4 vectors produced by pass302 Test12= 8.01D-14 1.00D-09 XBig12= 7.30D-15 2.99D-09.
      4 vectors produced by pass303 Test12= 8.01D-14 1.00D-09 XBig12= 8.41D-15 3.09D-09.
      4 vectors produced by pass304 Test12= 8.01D-14 1.00D-09 XBig12= 9.36D-15 3.23D-09.
      4 vectors produced by pass305 Test12= 8.01D-14 1.00D-09 XBig12= 1.13D-14 4.71D-09.
      4 vectors produced by pass306 Test12= 8.01D-14 1.00D-09 XBig12= 8.36D-15 3.00D-09.
      4 vectors produced by pass307 Test12= 8.01D-14 1.00D-09 XBig12= 7.71D-15 3.44D-09.
      4 vectors produced by pass308 Test12= 8.01D-14 1.00D-09 XBig12= 9.48D-15 3.35D-09.
      4 vectors produced by pass309 Test12= 8.01D-14 1.00D-09 XBig12= 7.93D-15 2.87D-09.
      4 vectors produced by pass310 Test12= 8.01D-14 1.00D-09 XBig12= 7.52D-15 2.85D-09.
      4 vectors produced by pass311 Test12= 8.01D-14 1.00D-09 XBig12= 1.08D-14 3.54D-09.
      4 vectors produced by pass312 Test12= 8.01D-14 1.00D-09 XBig12= 8.82D-15 3.10D-09.
      4 vectors produced by pass313 Test12= 8.01D-14 1.00D-09 XBig12= 8.67D-15 3.30D-09.
      4 vectors produced by pass314 Test12= 8.01D-14 1.00D-09 XBig12= 7.37D-15 2.81D-09.
      4 vectors produced by pass315 Test12= 8.01D-14 1.00D-09 XBig12= 7.34D-15 2.93D-09.
      4 vectors produced by pass316 Test12= 8.01D-14 1.00D-09 XBig12= 1.34D-14 3.77D-09.
      3 vectors produced by pass317 Test12= 8.01D-14 1.00D-09 XBig12= 4.86D-15 2.64D-09.
      3 vectors produced by pass318 Test12= 8.01D-14 1.00D-09 XBig12= 1.15D-14 3.38D-09.
      3 vectors produced by pass319 Test12= 8.01D-14 1.00D-09 XBig12= 9.88D-15 3.25D-09.
      3 vectors produced by pass320 Test12= 8.01D-14 1.00D-09 XBig12= 5.06D-15 2.20D-09.
      3 vectors produced by pass321 Test12= 8.01D-14 1.00D-09 XBig12= 6.81D-15 2.57D-09.
      3 vectors produced by pass322 Test12= 8.01D-14 1.00D-09 XBig12= 7.09D-15 2.72D-09.
      3 vectors produced by pass323 Test12= 8.01D-14 1.00D-09 XBig12= 5.58D-15 2.55D-09.
      3 vectors produced by pass324 Test12= 8.01D-14 1.00D-09 XBig12= 1.06D-14 3.59D-09.
      3 vectors produced by pass325 Test12= 8.01D-14 1.00D-09 XBig12= 1.12D-14 3.16D-09.
      3 vectors produced by pass326 Test12= 8.01D-14 1.00D-09 XBig12= 1.05D-14 2.96D-09.
      3 vectors produced by pass327 Test12= 8.01D-14 1.00D-09 XBig12= 6.24D-15 2.76D-09.
      3 vectors produced by pass328 Test12= 8.01D-14 1.00D-09 XBig12= 7.60D-15 2.70D-09.
      3 vectors produced by pass329 Test12= 8.01D-14 1.00D-09 XBig12= 9.84D-15 3.16D-09.
      3 vectors produced by pass330 Test12= 8.01D-14 1.00D-09 XBig12= 5.53D-15 2.26D-09.
      3 vectors produced by pass331 Test12= 8.01D-14 1.00D-09 XBig12= 1.04D-14 3.20D-09.
      3 vectors produced by pass332 Test12= 8.01D-14 1.00D-09 XBig12= 4.80D-15 2.17D-09.
      3 vectors produced by pass333 Test12= 8.01D-14 1.00D-09 XBig12= 6.81D-15 3.64D-09.
      3 vectors produced by pass334 Test12= 8.01D-14 1.00D-09 XBig12= 8.61D-15 2.98D-09.
      3 vectors produced by pass335 Test12= 8.01D-14 1.00D-09 XBig12= 6.91D-15 3.01D-09.
      3 vectors produced by pass336 Test12= 8.01D-14 1.00D-09 XBig12= 1.03D-14 3.11D-09.
      3 vectors produced by pass337 Test12= 8.01D-14 1.00D-09 XBig12= 5.90D-15 3.00D-09.
      3 vectors produced by pass338 Test12= 8.01D-14 1.00D-09 XBig12= 1.27D-14 3.68D-09.
      3 vectors produced by pass339 Test12= 8.01D-14 1.00D-09 XBig12= 4.88D-15 2.27D-09.
      3 vectors produced by pass340 Test12= 8.01D-14 1.00D-09 XBig12= 8.98D-15 2.84D-09.
      3 vectors produced by pass341 Test12= 8.01D-14 1.00D-09 XBig12= 1.15D-14 3.53D-09.
      3 vectors produced by pass342 Test12= 8.01D-14 1.00D-09 XBig12= 5.97D-15 2.65D-09.
      3 vectors produced by pass343 Test12= 8.01D-14 1.00D-09 XBig12= 9.48D-15 3.02D-09.
      3 vectors produced by pass344 Test12= 8.01D-14 1.00D-09 XBig12= 1.05D-14 3.08D-09.
      3 vectors produced by pass345 Test12= 8.01D-14 1.00D-09 XBig12= 5.45D-15 2.07D-09.
      3 vectors produced by pass346 Test12= 8.01D-14 1.00D-09 XBig12= 7.39D-15 2.67D-09.
      3 vectors produced by pass347 Test12= 8.01D-14 1.00D-09 XBig12= 9.73D-15 2.91D-09.
      3 vectors produced by pass348 Test12= 8.01D-14 1.00D-09 XBig12= 1.43D-14 4.32D-09.
      3 vectors produced by pass349 Test12= 8.01D-14 1.00D-09 XBig12= 8.59D-15 3.62D-09.
      3 vectors produced by pass350 Test12= 8.01D-14 1.00D-09 XBig12= 5.55D-15 2.67D-09.
      3 vectors produced by pass351 Test12= 8.01D-14 1.00D-09 XBig12= 6.68D-15 2.80D-09.
      3 vectors produced by pass352 Test12= 8.01D-14 1.00D-09 XBig12= 9.50D-15 3.48D-09.
      3 vectors produced by pass353 Test12= 8.01D-14 1.00D-09 XBig12= 5.93D-15 2.74D-09.
      3 vectors produced by pass354 Test12= 8.01D-14 1.00D-09 XBig12= 7.63D-15 3.24D-09.
      3 vectors produced by pass355 Test12= 8.01D-14 1.00D-09 XBig12= 8.96D-15 2.96D-09.
      3 vectors produced by pass356 Test12= 8.01D-14 1.00D-09 XBig12= 1.04D-14 3.39D-09.
      3 vectors produced by pass357 Test12= 8.01D-14 1.00D-09 XBig12= 8.14D-15 2.96D-09.
      3 vectors produced by pass358 Test12= 8.01D-14 1.00D-09 XBig12= 7.62D-15 3.02D-09.
      3 vectors produced by pass359 Test12= 8.01D-14 1.00D-09 XBig12= 8.17D-15 2.78D-09.
      3 vectors produced by pass360 Test12= 8.01D-14 1.00D-09 XBig12= 9.74D-15 3.26D-09.
      3 vectors produced by pass361 Test12= 8.01D-14 1.00D-09 XBig12= 4.55D-15 2.16D-09.
      3 vectors produced by pass362 Test12= 8.01D-14 1.00D-09 XBig12= 1.07D-14 3.10D-09.
      3 vectors produced by pass363 Test12= 8.01D-14 1.00D-09 XBig12= 6.48D-15 2.71D-09.
      3 vectors produced by pass364 Test12= 8.01D-14 1.00D-09 XBig12= 5.00D-15 2.47D-09.
      3 vectors produced by pass365 Test12= 8.01D-14 1.00D-09 XBig12= 7.24D-15 2.54D-09.
      3 vectors produced by pass366 Test12= 8.01D-14 1.00D-09 XBig12= 5.92D-15 2.77D-09.
      3 vectors produced by pass367 Test12= 8.01D-14 1.00D-09 XBig12= 8.48D-15 3.26D-09.
      3 vectors produced by pass368 Test12= 8.01D-14 1.00D-09 XBig12= 1.44D-14 3.99D-09.
      3 vectors produced by pass369 Test12= 8.01D-14 1.00D-09 XBig12= 8.53D-15 3.57D-09.
      3 vectors produced by pass370 Test12= 8.01D-14 1.00D-09 XBig12= 6.81D-15 2.46D-09.
[...]
 ,0.00373052,-0.00493463,-0.00041658,-0.00394041,0.00189202,0.00184363,
 0.00550004,-0.00595723,0.00008118,-0.02113954,-0.00703280,-0.00040371,
 0.03332582,0.02140997,-0.00122260,-0.05457266,0.02356902,0.00306550,0.
 01788576,-0.00120330,0.00094887,-0.00635901,0.00905175,0.00002536,-0.0
 0728451,-0.00267683,-0.00058322,0.00484991,-0.00079422,0.00031346,-0.0
 0081598,0.00440796,-0.00008703,0.00273915,-0.00188888,0.00046954,-0.00
 271760,-0.00230671,-0.00022639,-0.00000853,0.00002034,0.00000120,0.000
 07493,0.00001567,-0.00002623,-0.00004957,0.00007559,0.00004296,-0.0069
 5377,0.00859461,0.00136624,-0.11448426,-0.00739209,0.00487500,-0.34513
 787,-0.08276527,0.00664017,-0.00000747,-0.00037444,-0.00019386,-0.0000
 2722,-0.00010732,-0.00002653,-0.00009519,-0.00000083,-0.00002106,-0.00
 005804,0.00011052,0.00000081,-0.00003819,-0.00006521,-0.00005230,-0.00
 028415,0.00041274,-0.00019144,0.00009107,0.00005353,0.00010618,0.00002
 424,0.00008122,-0.00000333,-0.00699878,-0.03650338,-0.00164031,0.69053
 601,0.00164078,-0.00057073,-0.00000956,-0.00023979,-0.00045264,0.00009
 197,-0.00031958,-0.00180980,-0.00004898,-0.00147473,0.00211222,0.00006
 263,0.00674075,-0.00488263,-0.00045234,0.00261988,-0.00248781,-0.00063
 808,0.00654627,-0.00450588,0.00069409,-0.01762439,-0.00439308,-0.00092
 248,0.02929378,-0.04565155,-0.00473908,0.00098639,0.02920927,0.0019480
 8,0.01458583,-0.00857034,-0.00039699,-0.00433982,0.00880812,0.00019001
 ,-0.00775602,-0.00230864,-0.00071339,0.00441501,-0.00166131,0.00035502
 ,-0.00073501,0.00413968,-0.00009405,0.00300482,-0.00210343,0.00033035,
 -0.00267167,-0.00284218,-0.00017092,0.00001000,0.00000688,0.00002595,-
 0.00000752,0.00003098,-0.00001866,-0.00001665,0.00002385,0.00001404,-0
 .00204522,0.01360609,-0.00019243,-0.02970086,-0.21695899,-0.00801332,-
 0.03693890,-0.13903275,-0.00509403,0.00029643,-0.00015270,-0.00015528,
 -0.00004580,-0.00007223,-0.00002662,-0.00007239,-0.00002121,0.00000403
 ,0.00002445,0.00003061,-0.00000601,0.00026105,0.00043816,0.00005296,-0
 .00026223,-0.00028016,-0.00023807,0.00002830,0.00004484,0.00009048,0.0
 0000209,0.00003823,-0.00000202,-0.01648938,-0.01645527,0.00085529,-0.0
 5475898,0.60236603,-0.00017408,0.00001612,0.00010873,0.00020705,0.0001
 8483,-0.00035447,-0.00003743,-0.00048306,-0.00034160,-0.00011021,-0.00
 019135,-0.00069163,-0.00001242,-0.00002190,-0.00098531,0.00118238,0.00
 036926,0.00675849,0.00016497,0.00005884,-0.00067491,-0.00009203,-0.000
 19621,-0.00189756,0.00041928,-0.00653316,0.00548179,0.00171687,0.00143
 508,0.00354461,0.00023061,-0.00095421,0.00353484,0.00005118,0.00024929
 ,0.00046317,-0.00013762,-0.00002833,-0.00007406,0.00009571,-0.00006591
 ,-0.00051070,0.00000550,0.00007098,0.00009404,-0.00002699,-0.00003225,
 0.00023675,-0.00002667,-0.00005965,-0.00011385,0.00000676,-0.00000343,
 -0.00001474,-0.00000765,-0.00000002,-0.00001449,0.00000723,-0.00001417
 ,0.00008910,0.00133124,0.00006547,0.00431972,0.00196421,-0.00988660,-0
 .06088265,0.01161564,-0.00271848,-0.05914202,0.00003464,0.00001270,-0.
 00018346,0.00000311,0.00000273,0.00000854,-0.00000046,-0.00000229,-0.0
 0000491,0.00000024,-0.00000483,0.00005267,0.00004395,0.00001733,-0.000
 07488,-0.00001116,-0.00003336,0.00012872,-0.00001081,-0.00000542,-0.00
 000338,0.00000235,-0.00000229,0.00000318,-0.00029352,0.00338968,-0.000
 39725,-0.03422772,0.03538631,0.13692587,-0.00003496,0.00026222,-0.0000
 2866,-0.00003261,0.00003933,-0.00003111,-0.00005276,-0.00111167,0.0003
 2491,0.00115543,-0.00072776,-0.00029439,-0.01776866,-0.01205274,0.0029
 3666,-0.00290158,0.00435822,0.00045372,-0.00048174,0.00015943,-0.00001
 049,-0.00011983,-0.00017664,-0.00002881,0.00042410,0.00064664,-0.00020
 347,-0.00002855,0.00008023,0.00001125,-0.00001308,-0.00001948,-0.00000
 146,-0.00008177,-0.00005024,-0.00001304,0.00009659,-0.00012093,-0.0000
 3957,0.00004539,-0.00004616,0.00001609,0.00001176,0.00005231,-0.000002
 68,0.00004824,0.00007430,0.,-0.00005102,-0.00001712,-0.00000217,-0.000
 02580,0.00002671,0.00000314,-0.00003697,0.00004632,0.00001555,-0.00008
 609,0.00093170,-0.00006729,-0.28689160,-0.09906142,0.03217927,0.001726
 54,0.00029870,0.00084965,0.00009089,-0.00008359,-0.00006186,-0.0000086
 3,-0.00000682,-0.00000097,-0.00000498,-0.00000644,-0.00000086,-0.00000
 258,0.00000407,0.00000108,-0.00000854,-0.00000055,-0.00000107,-0.00006
 808,-0.00002318,0.00001573,0.00017168,0.00000726,-0.00002518,-0.000018
 88,0.00000243,0.00000294,-0.00001056,-0.00000032,0.00000347,0.00037390
 ,0.00124350,0.00035832,-0.00002244,0.00008017,0.00008060,0.30366345,-0
 .00047043,-0.00005630,0.00002357,0.00020170,0.00028864,-0.00002471,0.0
 0055699,0.00068077,-0.00010675,-0.00025515,0.00123121,-0.00010435,0.01
 732752,0.01158723,-0.00248930,0.00349544,-0.00233039,-0.00014014,0.000
 32714,-0.00012751,0.00002991,0.00004299,0.00017601,-0.00001023,0.00057
 995,-0.00065761,-0.00004690,0.00013099,-0.00011820,-0.00000668,-0.0000
 1250,0.00006541,0.00000881,0.00009196,0.00001497,0.00000664,-0.0000791
 2,0.00010039,-0.00001279,-0.00007169,0.00005137,-0.00000746,-0.0000021
 4,-0.00007279,0.00000203,-0.00005635,-0.00008969,-0.00000105,0.0000499
 8,0.00004444,0.00000203,0.00001157,-0.00000951,-0.00000126,-0.00001503
 ,-0.00000365,0.00000194,-0.00058263,-0.00030765,0.00007707,-0.09669043
 ,-0.09924160,0.01301440,0.00069659,-0.00548893,-0.00008138,-0.00008818
 ,-0.00050250,-0.00004691,0.00000100,-0.00000421,-0.00000124,0.00000225
 ,-0.00000147,0.00000101,-0.00000057,0.00000348,-0.00000019,-0.00000304
 ,-0.00000088,0.00000010,0.00005151,0.00007473,-0.00000610,-0.00014719,
 -0.00002387,0.00003068,-0.00000061,-0.00000624,-0.00001750,-0.00000250
 ,0.00000186,0.00000042,-0.02930241,-0.00974390,0.00379299,-0.00125023,
 0.00049154,0.00017888,0.10543304,0.10324944,0.00021310,-0.00001303,-0.
 00016897,-0.00018113,-0.00007737,-0.00007230,0.00015308,0.00030032,0.0
 0073590,-0.00054571,0.00001003,-0.00233797,0.00284435,0.00074761,0.001
 95158,0.00048275,-0.00062246,0.00443560,0.00000435,-0.00006015,0.00022
 066,0.00004819,0.00008795,-0.00056638,-0.00037433,0.00009665,-0.000938
 24,-0.00000509,-0.00002282,0.00014605,0.00000170,0.00000397,0.00000966
 ,-0.00002600,-0.00002022,-0.00001149,0.00008723,0.00002274,-0.00032075
 ,0.00003183,-0.00000455,0.00005998,-0.00001311,0.00003199,-0.00000299,
 0.00000607,0.00004303,0.00001230,-0.00002075,-0.00001942,-0.00000266,0
 .00000433,0.00000131,0.00002818,0.00001352,0.00000528,0.00012422,0.000
 03860,-0.00009676,0.00031187,0.03196253,0.01408100,-0.03833311,0.00083
 097,0.00004879,0.00811916,-0.00004115,0.00009844,-0.00043773,-0.000000
 62,-0.00000107,-0.00000308,-0.00000055,0.00000037,0.00000127,-0.000001
 32,-0.00000012,0.00000320,0.00000127,0.00000122,-0.00000329,-0.0000224
 9,-0.00006184,-0.00003389,0.00005024,-0.00000305,0.00003135,0.00000644
 ,0.00000632,0.00001498,0.00000182,0.00000053,-0.00000199,0.00068241,-0
 .00056648,0.00318891,0.00020558,-0.00005304,0.00048974,-0.03561182,-0.
 01400027,0.02861686,0.00018050,0.00001388,-0.00009482,-0.00007713,-0.0
 0016705,0.00002866,-0.00008756,0.00019106,-0.00007466,0.00014773,0.000
 04504,0.00005413,0.00135858,-0.00152898,0.00095433,0.00024643,-0.00083
 773,-0.00010876,-0.00057407,-0.00023529,-0.00001661,-0.00006535,0.0013
 9242,0.00027149,-0.00443377,-0.00392480,0.00073479,0.00012263,0.000023
 54,-0.00000859,-0.00003174,-0.00004839,-0.00001315,-0.00000559,-0.0000
 4707,-0.00001362,0.00009762,0.00017472,-0.00001704,0.00003523,0.000016
 79,0.00000430,-0.00004756,0.00000265,-0.00000504,-0.00005189,-0.000001
 15,-0.00000945,-0.00000450,0.00002408,-0.00000013,-0.00000468,0.000007
 84,-0.00000391,0.00002116,-0.00000735,-0.00000788,0.00000376,0.0000246
 2,0.00002063,0.00469846,-0.00356536,-0.00020130,-0.01726229,0.01700103
 ,0.00288429,-0.00016523,-0.00026955,-0.00002585,-0.00003645,-0.0000164
 1,-0.00000016,-0.00000770,-0.00000866,0.00000113,-0.00001263,0.0000063
 5,0.00000284,-0.00000633,0.00000090,-0.00000052,-0.00003824,-0.0000603
 9,-0.00000997,0.00003025,0.00003300,0.00002682,0.00000151,0.00000087,-
 0.00000553,-0.00000661,0.00000744,-0.00000033,-0.24952902,0.12482239,0
 .02700471,0.00132455,0.00089843,-0.00027110,0.00094467,0.00015853,-0.0
 0083882,0.26345224,0.00014340,-0.00048545,0.00006047,-0.00020807,-0.00
 017799,0.00001259,0.00000832,0.00021493,-0.00000336,0.00127155,0.00030
 368,-0.00015371,-0.00196001,-0.00505417,0.00029732,-0.00056208,-0.0004
 2548,0.00004964,-0.00022385,-0.00021519,-0.00000179,-0.00048826,0.0007
 1946,0.00006967,-0.00331756,-0.00091447,0.00028339,-0.00004187,0.00018
 659,0.00002342,0.00009028,-0.00005434,0.00000183,-0.00006351,0.0000357
 6,-0.00000205,0.00001588,0.00009501,-0.00000600,0.00007823,-0.00001821
 ,0.00000368,-0.00002302,0.00005956,-0.00000102,0.00000453,0.00002566,-
 0.00000172,-0.00003073,-0.00002528,-0.00000171,-0.00000263,-0.00000400
 ,-0.00000051,0.00014450,-0.00006015,0.00000115,-0.00003558,-0.00003785
 ,0.00000420,0.02694695,-0.01414819,-0.00345002,-0.01202592,0.01160355,
 0.00171323,0.00028848,-0.00004403,-0.00002239,-0.00000698,-0.00000057,
 -0.00000095,-0.00000042,0.00000200,-0.00000061,-0.00000396,-0.00000283
 ,-0.00000050,0.00000473,0.00000218,0.00000019,-0.00002155,-0.00006529,
 -0.00000784,0.00002358,0.00003861,-0.00000838,0.00000983,0.00000386,0.
 00000970,0.00000765,0.00000227,0.00000010,0.12239539,-0.13736560,-0.01
 596194,0.00036055,0.00114532,0.00004208,-0.00020930,0.00080349,0.00002
 822,-0.13312172,0.14410169,0.00000651,-0.00010924,-0.00067774,-0.00009
 478,-0.00000174,0.00019141,0.00003638,-0.00007599,-0.00061898,0.000131
 31,0.00008943,0.00044278,0.00086924,0.00011043,0.00835971,-0.00034910,
 -0.00010281,-0.00073508,0.00002967,0.00006173,-0.00008824,0.00015272,-
 0.00026397,0.00040958,0.00069204,0.00087021,0.00479622,-0.00016291,0.0
 0002860,-0.00010874,0.00009435,-0.00003181,0.00002139,-0.00010201,0.00
 001365,-0.00003712,0.00004974,-0.00001903,-0.00007751,0.00009481,-0.00
 003428,0.00000279,-0.00000582,0.00008987,-0.00001708,0.00004951,0.0000
 5838,0.00000282,-0.00006144,-0.00005209,0.00000103,0.00000019,0.000000
 67,-0.00000250,0.00000937,-0.00000709,-0.00006196,0.00000912,0.0000150
 8,0.00017448,-0.00005081,0.00112171,0.00319476,0.00337151,-0.00165240,
 0.00223181,0.00013906,0.00000106,-0.00012069,0.00000374,0.00000096,0.0
 0001533,0.00000118,0.,0.00001101,-0.00000126,-0.00000124,0.00002605,0.
 00000043,0.00000138,0.00000231,-0.00002673,-0.00004979,-0.00001358,0.0
 0005392,-0.00000327,0.00007314,0.00000378,0.00000635,0.00001426,0.0000
 0049,-0.00000209,-0.00000555,0.02654136,-0.01723745,-0.03845725,-0.000
 49490,-0.00001521,-0.00209801,-0.00082870,-0.00005363,-0.00529217,-0.0
 3022505,0.01710286,0.02812819,0.00001628,-0.00001928,-0.00000310,0.000
 08572,-0.00003531,0.00000092,-0.00010266,-0.00008196,0.00000344,-0.000
 01411,0.00003178,-0.00000085,0.00019981,0.00003954,-0.00002681,0.00051
 054,-0.00039586,-0.00002826,0.00019288,-0.00004655,-0.00001460,-0.0001
 9476,-0.00046930,-0.00006626,0.00012272,-0.00239609,0.00003330,-0.0039
 1766,-0.00321759,0.00042791,-0.00001994,0.00132732,0.00012719,-0.00043
 686,-0.00010636,-0.00011868,-0.00011462,-0.00005217,0.00000858,0.00004
 253,0.00015409,-0.00000164,-0.00008560,0.00002830,-0.00000268,0.000039
 08,-0.00005484,0.00001189,-0.00003485,-0.00003294,-0.00000039,0.000005
 26,0.00000116,-0.00000192,-0.00000151,0.00000697,0.00000139,0.00000411
 ,-0.00000137,0.00000007,-0.00006938,0.00028733,0.,0.00968686,-0.007209
 26,-0.00101770,-0.01819878,0.02291911,0.00287967,-0.00003482,-0.000049
 76,0.00001579,0.00000028,-0.00001298,-0.00000178,-0.00000603,0.0000081
 0,-0.00000225,-0.00001670,0.00001452,0.00000078,0.00000643,0.00000305,
 -0.00000593,-0.00003004,-0.00000055,0.00001830,-0.00000275,-0.00000057
 ,-0.00000790,-0.00000344,0.00000832,0.00000002,0.00095311,0.00034607,-
 0.00017124,-0.18523247,0.13470819,0.01834599,0.00000329,0.00002469,0.0
 0000227,-0.00017588,0.00053219,0.00005365,0.19603101,-0.00000671,-0.00
 005741,0.00000837,0.00016460,0.00004606,0.00001680,-0.00014422,-0.0005
 5634,0.00004051,-0.00004041,0.00001266,0.00001407,-0.00004139,0.000091
 44,0.00001041,0.00153943,0.00011881,-0.00032832,0.00030436,-0.00010132
 ,0.00002787,-0.00088655,0.00012762,0.00008620,-0.00319048,-0.00566704,
 -0.00010422,-0.00262256,0.00022384,-0.00062998,0.00011155,0.00042825,-
 0.00000093,-0.00016086,0.00013180,0.00006696,-0.00020442,-0.00006167,-
 0.00003017,0.00004412,0.00004154,0.00000952,-0.00000293,0.00006390,-0.
 00000795,0.00005259,-0.00005964,0.00001538,-0.00004656,-0.00002222,-0.
 00000474,0.00002291,-0.00001757,-0.00000016,-0.00000164,-0.00001143,-0
 .00000145,-0.00000850,-0.00003838,0.00000382,-0.00023016,-0.00019060,0
 .00001635,0.02186580,-0.01534696,-0.00292300,-0.00795274,0.00834025,0.
 00076530,0.00001768,-0.00000276,-0.00002183,0.00000703,0.00000316,0.00
 000145,0.00000139,-0.00000301,0.00000067,0.00000039,0.00000611,-0.0000
 0180,0.00002574,-0.00001119,-0.00000669,-0.00005334,-0.00001937,-0.000
 00007,0.00000901,0.00000240,0.00000971,0.00000986,0.00000234,-0.000001
 30,0.00078829,0.00153051,0.00001707,0.13759165,-0.20203628,-0.01950509
 ,-0.00003114,-0.00004705,-0.00000073,-0.00096629,-0.00024486,0.0001475
 3,-0.14604775,0.21227738,-0.00001281,0.00002025,-0.00002359,0.00001672
 ,-0.00002236,-0.00007152,-0.00004542,-0.00003861,-0.00000102,0.0000227
 0,-0.00002754,0.00004690,-0.00008384,0.00008970,-0.00007025,0.00019478
 ,-0.00005645,0.00029955,0.00000990,0.00000834,-0.00057962,0.00004733,0
 .00028465,-0.00062248,-0.00039023,-0.00030739,0.00387405,0.00048014,-0
 .00045618,0.00931145,0.00000417,-0.00019838,0.00037447,0.00013377,0.00
 002224,-0.00096523,0.00003538,0.00002417,0.00019054,-0.00000486,-0.000
 01450,-0.00008748,0.00000775,-0.00001044,0.00008591,-0.00002747,0.0000
 1224,0.00008350,0.00001065,0.00001778,-0.00001076,0.00000145,-0.000000
 89,0.00001180,0.00000045,-0.00000206,-0.00000163,-0.00000056,-0.000002
 36,0.00000360,0.00002829,-0.00015413,-0.00014954,0.00094650,-0.0018624
 1,0.00240300,-0.00009803,-0.00108019,0.00354351,-0.00001807,-0.0000112
 9,0.00028284,0.00000050,0.00000101,-0.00001755,0.00000152,-0.00000135,
 -0.00001909,0.00000006,-0.00000162,0.00002088,0.00000437,-0.00000434,-
 0.00001044,-0.00000438,-0.00000406,0.00001012,0.00000253,0.00000077,0.
 00000347,0.00000102,-0.00000013,-0.00000517,-0.00012625,0.00028308,-0.
 00157872,0.01931339,-0.01875247,-0.03755962,0.00000855,-0.00000368,0.0
 0008487,-0.00005141,-0.00007862,0.00017651,-0.02010370,0.02173421,0.02
 694717,0.00007551,0.00002372,-0.00000948,0.00008374,-0.00007257,-0.000
 00481,-0.00023213,0.00034965,-0.00002349,0.00000844,0.00009039,-0.0000
 0934,-0.00017835,0.00000773,0.00001300,0.00022114,0.00018831,-0.000021
 08,0.00070135,0.00077878,0.00014011,-0.00384653,0.00311829,0.00025881,
 -0.00075085,0.00022576,-0.00000449,0.00941502,0.02255270,0.00175579,0.
 00148455,-0.00021204,0.00000563,-0.00002871,-0.00036494,-0.00000964,0.
 00030236,0.00003659,0.00001820,-0.00005058,0.00003513,0.00000280,0.000
 01450,-0.00004755,-0.00000044,-0.00006717,-0.00002287,-0.00001569,0.00
 000869,0.00007667,0.00000236,-0.00000036,0.00000009,-0.00000096,0.0000
 1761,0.00000445,0.00000173,-0.00000461,0.00000132,0.00000203,-0.000425
 55,-0.00018077,0.00004608,-0.00537287,-0.00040027,0.00068918,-0.070062
 57,-0.05711450,-0.00339319,-0.00033180,-0.00066431,-0.00005627,-0.0000
 1907,0.00000029,-0.00000002,-0.00000435,-0.00000349,0.00000023,0.00000
 037,-0.00000143,-0.00000032,-0.00000559,-0.00003669,0.00000099,0.00000
 749,0.00001208,0.00000211,0.00000370,0.00000011,0.00000015,0.00000045,
 -0.00000038,-0.00000093,0.00068543,-0.00117404,-0.00013419,-0.00478021
 ,-0.03064367,-0.00206967,-0.00000420,-0.00015361,0.00001026,-0.0000411
 2,0.00002102,0.00000940,0.00079293,0.00008226,-0.00030488,0.07238333,-
 0.00004759,-0.00001893,0.00001033,-0.00008311,0.00007300,0.00002554,0.
 00018987,-0.00039701,0.00001495,0.00000289,-0.00006265,0.00000451,0.00
 009652,0.00004603,-0.00000855,-0.00012015,-0.00019432,0.00002141,-0.00
 094004,-0.00016721,-0.00022634,0.00416157,-0.00142887,-0.00015395,0.00
 041370,0.00068257,0.00011306,-0.00690964,-0.01569960,-0.00142954,-0.00
 067327,0.00097117,0.00009585,0.00035621,0.00002034,0.00001395,0.000020
 52,0.00004215,0.00001252,-0.00010392,-0.00007143,-0.00000768,0.0000374
 2,-0.00007198,0.00000310,0.00000723,0.00007468,0.00001024,0.00007919,-
 0.00002447,0.00000655,0.00000390,-0.00000972,0.00000309,-0.00001276,-0
 .00001783,-0.00000689,-0.00000659,-0.00000792,0.00000035,-0.00019494,0
 .00005825,0.00006717,-0.00099055,0.00162091,-0.00054766,-0.05994467,-0
 .31842523,-0.01944716,0.00089897,-0.00000520,0.00007233,0.00001772,0.0
 0002048,-0.00000045,0.00001175,-0.00000438,0.00000033,0.00001628,-0.00
 000616,0.00000063,0.00001976,0.00002007,-0.00000351,-0.00001782,-0.000
 00116,-0.00001120,0.00000588,0.00000079,0.00000811,0.00000801,-0.00000
 644,-0.00000190,0.00017897,-0.00024342,-0.00008607,0.00028164,-0.00524
 221,-0.00073758,-0.00000110,-0.00003105,0.00000762,-0.00003938,0.00000
 032,-0.00000678,-0.00021027,0.00104703,0.00059300,0.06348779,0.3374594
 0,0.00003296,0.00001546,-0.00004101,-0.00003347,-0.00005710,-0.0002661
 6,0.00005670,-0.00000720,0.00024398,-0.00002534,0.00002809,0.00002749,
 0.00003442,-0.00002021,0.00015251,-0.00008677,-0.00005794,-0.00060286,
 -0.00021406,-0.00015673,0.00055965,0.00068570,-0.00017925,0.00355352,-
 0.00016440,0.00023958,-0.00091091,0.00003480,-0.00270589,0.00225638,-0
 .00023090,0.00033719,-0.00179457,0.00009616,-0.00013293,-0.00019163,0.
 00006183,0.00007691,-0.00004598,-0.00006570,0.00000307,0.00002001,0.00
 001361,-0.00005268,0.00001643,-0.00002560,0.00003070,0.00005586,0.0000
 2921,0.00002371,-0.00002073,-0.00000114,0.00000028,0.00000177,0.000003
 57,0.00000704,0.00008477,0.00000096,0.00000254,0.00000048,-0.00013185,
 0.00002615,-0.00057937,0.00055761,-0.00051017,0.00902079,-0.00446297,-
 0.01956052,-0.03582029,0.00007164,0.00000880,0.00029997,0.00000211,0.0
 0000176,0.00001100,0.00000288,-0.00000066,-0.00000098,0.00000181,-0.00
 000149,0.00000095,0.00000191,0.00000318,-0.00000344,0.00000698,-0.0000
 0767,-0.00000226,0.00000028,0.00000126,0.00000260,-0.00000020,-0.00000
 223,0.00000274,0.00006374,-0.00016312,0.00047326,0.00093072,0.00065180
 ,0.00377955,-0.00000735,-0.00000794,-0.00005932,0.00001557,-0.00000061
 ,0.00013661,-0.00035545,0.00057622,-0.00598043,0.00310000,0.02159061,0
 .02561965\\-0.00000186,0.00000121,0.00000136,-0.00000110,-0.00000060,0
 .00000146,-0.00000005,0.00000037,0.00000028,-0.00000051,0.00000118,0.0
 0000037,-0.00000158,0.00000093,-0.00000062,0.00000004,0.00000033,-0.00
 000104,-0.00000001,-0.00000077,-0.00000012,0.00000092,0.00000009,-0.00
 000154,0.00000049,0.00000069,-0.00000198,0.00000149,0.00000088,-0.0000
 0147,0.00000134,-0.00000113,-0.00000088,0.00000036,-0.00000060,0.00000
 023,0.00000066,-0.00000062,0.00000087,0.00000069,-0.00000167,0.0000008
 0,-0.00000003,-0.00000191,0.00000190,-0.00000037,-0.00000147,0.0000020
 3,-0.00000036,-0.00000162,0.00000250,-0.00000178,-0.00000032,0.0000031
 6,-0.00000201,0.00000079,0.00000198,-0.00000146,0.00000175,0.00000022,
 0.00000021,0.00000256,-0.00000175,-0.00000029,0.00000206,-0.00000237,0
 .00000093,-0.00000007,-0.00000264,0.00000164,-0.00000086,-0.00000144,0
 .00000115,-0.00000176,0.00000034,-0.00000075,-0.00000191,0.00000338,0.
 00000020,-0.00000232,0.00000236,-0.00000158,-0.00000074,0.00000263,-0.
 00000098,-0.00000021,0.00000260,-0.00000059,-0.00000175,0.00000289,-0.
 00000142,-0.00000121,0.00000349,0.00000063,0.00000113,-0.00000261,0.00
 000218,0.00000099,-0.00000310,-0.00000045,0.00000250,-0.00000213,0.000
 00061,0.00000223,-0.00000360,0.00000174,0.00000148,-0.00000416,0.00000
 189,0.00000037,-0.00000341\\\@


 SIC AS THE CAWSE OF EWERY THING IS, SIC WILBE THE EFFECT.
 -- PROVERBS AND REASONS OF THE YEAR 1585
           AS REPRINTED IN PAISLEY MAGAZINE 1828.
 Job cpu time:       3 days 11 hours 17 minutes 30.9 seconds.
 File lengths (MBytes):  RWF=   7872 Int=      0 D2E=      0 Chk=     39 Scr=      1
 Normal termination of Gaussian 09 at Sun Feb  2 04:04:18 2020.
