 Entering Gaussian System, Link 0=/share/apps/gaussian16/g16/g16
 Initial command:
 /share/apps/gaussian16/g16/l1.exe "/home/am2145//scratch/3608/Gau-38526.inp" -scrdir="/home/am2145//scratch/3608/"
 Entering Link 1 = /share/apps/gaussian16/g16/l1.exe PID=     38527.
  
 Copyright (c) 1988,1990,1992,1993,1995,1998,2003,2009,2016,
            Gaussian, Inc.  All Rights Reserved.
  
 This is part of the Gaussian(R) 16 program.  It is based on
 the Gaussian(R) 09 system (copyright 2009, Gaussian, Inc.),
 the Gaussian(R) 03 system (copyright 2003, Gaussian, Inc.),
 the Gaussian(R) 98 system (copyright 1998, Gaussian, Inc.),
 the Gaussian(R) 94 system (copyright 1995, Gaussian, Inc.),
 the Gaussian 92(TM) system (copyright 1992, Gaussian, Inc.),
 the Gaussian 90(TM) system (copyright 1990, Gaussian, Inc.),
 the Gaussian 88(TM) system (copyright 1988, Gaussian, Inc.),
 the Gaussian 86(TM) system (copyright 1986, Carnegie Mellon
 University), and the Gaussian 82(TM) system (copyright 1983,
 Carnegie Mellon University). Gaussian is a federally registered
 trademark of Gaussian, Inc.
  
 This software contains proprietary and confidential information,
 including trade secrets, belonging to Gaussian, Inc.
  
 This software is provided under written license and may be
 used, copied, transmitted, or stored only in accord with that
 written license.
  
 The following legend is applicable only to US Government
 contracts under FAR:
  
                    RESTRICTED RIGHTS LEGEND
  
 Use, reproduction and disclosure by the US Government is
 subject to restrictions as set forth in subparagraphs (a)
 and (c) of the Commercial Computer Software - Restricted
 Rights clause in FAR 52.227-19.
  
 Gaussian, Inc.
 340 Quinnipiac St., Bldg. 40, Wallingford CT 06492
  
  
 ---------------------------------------------------------------
 Warning -- This program may not be used in any manner that
 competes with the business of Gaussian, Inc. or will provide
 assistance to any competitor of Gaussian, Inc.  The licensee
 of this program is prohibited from giving any competitor of
 Gaussian, Inc. access to this program.  By using this program,
 the user acknowledges that Gaussian, Inc. is engaged in the
 business of creating and licensing software in the field of
 computational chemistry and represents and warrants to the
 licensee that it is not a competitor of Gaussian, Inc. and that
 it will not use this program in any manner prohibited above.
 ---------------------------------------------------------------
  

 Cite this work as:
 Gaussian 16, Revision A.03,
 M. J. Frisch, G. W. Trucks, H. B. Schlegel, G. E. Scuseria, 
 M. A. Robb, J. R. Cheeseman, G. Scalmani, V. Barone, 
 G. A. Petersson, H. Nakatsuji, X. Li, M. Caricato, A. V. Marenich, 
 J. Bloino, B. G. Janesko, R. Gomperts, B. Mennucci, H. P. Hratchian, 
 J. V. Ortiz, A. F. Izmaylov, J. L. Sonnenberg, D. Williams-Young, 
 F. Ding, F. Lipparini, F. Egidi, J. Goings, B. Peng, A. Petrone, 
 T. Henderson, D. Ranasinghe, V. G. Zakrzewski, J. Gao, N. Rega, 
 G. Zheng, W. Liang, M. Hada, M. Ehara, K. Toyota, R. Fukuda, 
 J. Hasegawa, M. Ishida, T. Nakajima, Y. Honda, O. Kitao, H. Nakai, 
 T. Vreven, K. Throssell, J. A. Montgomery, Jr., J. E. Peralta, 
 F. Ogliaro, M. J. Bearpark, J. J. Heyd, E. N. Brothers, K. N. Kudin, 
 V. N. Staroverov, T. A. Keith, R. Kobayashi, J. Normand, 
 K. Raghavachari, A. P. Rendell, J. C. Burant, S. S. Iyengar, 
 J. Tomasi, M. Cossi, J. M. Millam, M. Klene, C. Adamo, R. Cammi, 
 J. W. Ochterski, R. L. Martin, K. Morokuma, O. Farkas, 
 J. B. Foresman, and D. J. Fox, Gaussian, Inc., Wallingford CT, 2016.
 
 ******************************************
 Gaussian 16:  ES64L-G16RevA.03 25-Dec-2016
                29-Mar-2019 
 ******************************************
 %nprocshared=20
 Will use up to   20 processors via shared memory.
 %mem=100GB
 %chk=7-memb-TS5d.chk
 ---------------------------------------------------------------------
 # opt=(ts,modredundant,noeigen) freq b3lyp/6-311+g(d,p) int=grid=fine
 ---------------------------------------------------------------------
 1/5=1,11=1,18=120,26=3,38=1/1,3;
 2/9=110,12=2,17=6,18=5,40=1/2;
 3/5=4,6=6,7=111,11=2,25=1,30=1,71=1,74=-5,75=-4/1,2,3;
 4//1;
 5/5=2,38=5/2;
 6/7=2,8=2,9=2,10=2,28=1/1;
 7//1,2,3,16;
 1/5=1,11=1,18=20,26=3/3(2);
 2/9=110/2;
 99//99;
 2/9=110/2;
 3/5=4,6=6,7=111,11=2,25=1,30=1,71=1,74=-5,75=-4/1,2,3;
 4/5=5,16=3,69=1/1;
 5/5=2,38=5/2;
 7//1,2,3,16;
 1/5=1,11=1,18=20,26=3/3(-5);
 2/9=110/2;
 6/7=2,8=2,9=2,10=2,19=2,28=1/1;
 99/9=1/99;
 -----------
 7-memb-TS5d
 -----------
 Symbolic Z-matrix:
 Charge =  0 Multiplicity = 2
 C                    -1.553     3.23094  -0.11673 
 C                    -0.31229   2.50868   0.14288 
 C                    -0.45224   1.1287    0.24748 
 C                    -2.79755   2.63226  -0.19376 
 C                    -2.93953   1.21157  -0.03391 
 C                    -1.7397    0.56381   0.22614 
 C                     0.49706   0.0171    0.27046 
 C                    -0.26467  -1.15836   0.28253 
 C                    -1.62673  -0.83008   0.24557 
 C                     0.19374  -2.46487   0.10702 
 C                     1.59063  -2.57816   0.01343 
 C                     2.4232   -1.42111   0.02088 
 C                     1.87418  -0.07082   0.10654 
 C                     3.83586  -1.53669  -0.10651 
 C                     4.63307  -0.42033  -0.18378 
 C                     2.71507   1.09383  -0.03139 
 C                     4.07977   0.87904  -0.16285 
 H                    -0.36531   2.98499   1.94244 
 H                    -1.48501   4.30523  -0.25311 
 H                    -3.66283   3.25134  -0.40674 
 C                    -4.06004   0.32511  -0.20926 
 C                    -2.65606  -1.71034   0.00718 
 C                    -0.87676  -3.44313  -0.04138 
 H                     2.06834  -3.54541  -0.10734 
 H                     4.27803  -2.52626  -0.15237 
 H                     4.74228   1.732    -0.26468 
 H                     5.70703  -0.53203  -0.28184 
 C                     2.23269   2.48297  -0.08934 
 C                     1.01946   3.0955   -0.0393 
 H                     1.03569   4.17717  -0.14019 
 H                     3.05887   3.1763   -0.22865 
 C                    -3.92911  -1.06433  -0.19079 
 C                    -2.21321  -3.09326  -0.095 
 H                    -5.04308   0.74368  -0.39953 
 H                    -4.81588  -1.66437  -0.36835 
 H                    -2.94562  -3.87978  -0.2466 
 H                    -0.61561  -4.49102  -0.14976 
 
 Add virtual bond connecting atoms H18        and C2         Dist= 3.52D+00.
 The following ModRedundant input section has been read:
 

 GradGradGradGradGradGradGradGradGradGradGradGradGradGradGradGradGradGrad
 Berny optimization.
 Initialization pass.
                           ----------------------------
                           !    Initial Parameters    !
                           ! (Angstroms and Degrees)  !
 --------------------------                            --------------------------
 ! Name  Definition              Value          Derivative Info.                !
 --------------------------------------------------------------------------------
 ! R1    R(1,2)                  1.4589         estimate D2E/DX2                !
 ! R2    R(1,4)                  1.3832         estimate D2E/DX2                !
 ! R3    R(1,19)                 1.085          estimate D2E/DX2                !
 ! R4    R(2,3)                  1.391          estimate D2E/DX2                !
 ! R5    R(2,18)                 1.8623         estimate D2E/DX2                !
 ! R6    R(2,29)                 1.4667         estimate D2E/DX2                !
 ! R7    R(3,6)                  1.4061         estimate D2E/DX2                !
 ! R8    R(3,7)                  1.462          estimate D2E/DX2                !
 ! R9    R(4,5)                  1.4367         estimate D2E/DX2                !
 ! R10   R(4,20)                 1.085          estimate D2E/DX2                !
 ! R11   R(5,6)                  1.3881         estimate D2E/DX2                !
 ! R12   R(5,21)                 1.4395         estimate D2E/DX2                !
 ! R13   R(6,9)                  1.3986         estimate D2E/DX2                !
 ! R14   R(7,8)                  1.4007         estimate D2E/DX2                !
 ! R15   R(7,13)                 1.3896         estimate D2E/DX2                !
 ! R16   R(8,9)                  1.4016         estimate D2E/DX2                !
 ! R17   R(8,10)                 1.3957         estimate D2E/DX2                !
 ! R18   R(9,22)                 1.3752         estimate D2E/DX2                !
 ! R19   R(10,11)                1.4046         estimate D2E/DX2                !
 ! R20   R(10,23)                1.4577         estimate D2E/DX2                !
 ! R21   R(11,12)                1.4255         estimate D2E/DX2                !
 ! R22   R(11,24)                1.0855         estimate D2E/DX2                !
 ! R23   R(12,13)                1.4602         estimate D2E/DX2                !
 ! R24   R(12,14)                1.4231         estimate D2E/DX2                !
 ! R25   R(13,16)                1.4431         estimate D2E/DX2                !
 ! R26   R(14,15)                1.374          estimate D2E/DX2                !
 ! R27   R(14,25)                1.0848         estimate D2E/DX2                !
 ! R28   R(15,17)                1.4124         estimate D2E/DX2                !
 ! R29   R(15,27)                1.0842         estimate D2E/DX2                !
 ! R30   R(16,17)                1.3877         estimate D2E/DX2                !
 ! R31   R(16,28)                1.4716         estimate D2E/DX2                !
 ! R32   R(17,26)                1.0848         estimate D2E/DX2                !
 ! R33   R(21,32)                1.3957         estimate D2E/DX2                !
 ! R34   R(21,34)                1.0852         estimate D2E/DX2                !
 ! R35   R(22,32)                1.4412         estimate D2E/DX2                !
 ! R36   R(22,33)                1.4557         estimate D2E/DX2                !
 ! R37   R(23,33)                1.3825         estimate D2E/DX2                !
 ! R38   R(23,37)                1.0854         estimate D2E/DX2                !
 ! R39   R(28,29)                1.36           estimate D2E/DX2                !
 ! R40   R(28,31)                1.0875         estimate D2E/DX2                !
 ! R41   R(29,30)                1.0865         estimate D2E/DX2                !
 ! R42   R(32,35)                1.0853         estimate D2E/DX2                !
 ! R43   R(33,36)                1.0854         estimate D2E/DX2                !
 ! A1    A(2,1,4)              124.113          estimate D2E/DX2                !
 ! A2    A(2,1,19)             117.3375         estimate D2E/DX2                !
 ! A3    A(4,1,19)             118.5492         estimate D2E/DX2                !
 ! A4    A(1,2,3)              114.7691         estimate D2E/DX2                !
 ! A5    A(1,2,18)              91.2101         estimate D2E/DX2                !
 ! A6    A(1,2,29)             123.5061         estimate D2E/DX2                !
 ! A7    A(3,2,18)             100.2655         estimate D2E/DX2                !
 ! A8    A(3,2,29)             119.8437         estimate D2E/DX2                !
 ! A9    A(18,2,29)             92.4956         estimate D2E/DX2                !
 ! A10   A(2,3,6)              119.3105         estimate D2E/DX2                !
 ! A11   A(2,3,7)              133.6441         estimate D2E/DX2                !
 ! A12   A(6,3,7)              106.8171         estimate D2E/DX2                !
 ! A13   A(1,4,5)              120.712          estimate D2E/DX2                !
 ! A14   A(1,4,20)             118.7838         estimate D2E/DX2                !
 ! A15   A(5,4,20)             120.4795         estimate D2E/DX2                !
 ! A16   A(4,5,6)              113.3834         estimate D2E/DX2                !
 ! A17   A(4,5,21)             132.2475         estimate D2E/DX2                !
 ! A18   A(6,5,21)             114.0972         estimate D2E/DX2                !
 ! A19   A(3,6,5)              127.3589         estimate D2E/DX2                !
 ! A20   A(3,6,9)              109.0394         estimate D2E/DX2                !
 ! A21   A(5,6,9)              122.5143         estimate D2E/DX2                !
 ! A22   A(3,7,8)              106.564          estimate D2E/DX2                !
 ! A23   A(3,7,13)             133.6093         estimate D2E/DX2                !
 ! A24   A(8,7,13)             119.1327         estimate D2E/DX2                !
 ! A25   A(7,8,9)              109.372          estimate D2E/DX2                !
 ! A26   A(7,8,10)             127.2909         estimate D2E/DX2                !
 ! A27   A(9,8,10)             122.3534         estimate D2E/DX2                !
 ! A28   A(6,9,8)              108.1981         estimate D2E/DX2                !
 ! A29   A(6,9,22)             125.1043         estimate D2E/DX2                !
 ! A30   A(8,9,22)             125.5947         estimate D2E/DX2                !
 ! A31   A(8,10,11)            114.2382         estimate D2E/DX2                !
 ! A32   A(8,10,23)            113.5667         estimate D2E/DX2                !
 ! A33   A(11,10,23)           132.0218         estimate D2E/DX2                !
 ! A34   A(10,11,12)           121.0002         estimate D2E/DX2                !
 ! A35   A(10,11,24)           121.1272         estimate D2E/DX2                !
 ! A36   A(12,11,24)           117.827          estimate D2E/DX2                !
 ! A37   A(11,12,13)           122.0942         estimate D2E/DX2                !
 ! A38   A(11,12,14)           120.8902         estimate D2E/DX2                !
 ! A39   A(13,12,14)           116.9751         estimate D2E/DX2                !
 ! A40   A(7,13,12)            115.9795         estimate D2E/DX2                !
 ! A41   A(7,13,16)            122.525          estimate D2E/DX2                !
 ! A42   A(12,13,16)           121.4411         estimate D2E/DX2                !
 ! A43   A(12,14,15)           120.9986         estimate D2E/DX2                !
 ! A44   A(12,14,25)           118.8469         estimate D2E/DX2                !
 ! A45   A(15,14,25)           120.1517         estimate D2E/DX2                !
 ! A46   A(14,15,17)           121.2888         estimate D2E/DX2                !
 ! A47   A(14,15,27)           119.7439         estimate D2E/DX2                !
 ! A48   A(17,15,27)           118.9571         estimate D2E/DX2                !
 ! A49   A(13,16,17)           117.2042         estimate D2E/DX2                !
 ! A50   A(13,16,28)           125.0691         estimate D2E/DX2                !
 ! A51   A(17,16,28)           117.6916         estimate D2E/DX2                !
 ! A52   A(15,17,16)           121.9397         estimate D2E/DX2                !
 ! A53   A(15,17,26)           118.8624         estimate D2E/DX2                !
 ! A54   A(16,17,26)           119.1938         estimate D2E/DX2                !
 ! A55   A(5,21,32)            122.5757         estimate D2E/DX2                !
 ! A56   A(5,21,34)            119.2716         estimate D2E/DX2                !
 ! A57   A(32,21,34)           118.115          estimate D2E/DX2                !
 ! A58   A(9,22,32)            113.4563         estimate D2E/DX2                !
 ! A59   A(9,22,33)            113.1138         estimate D2E/DX2                !
 ! A60   A(32,22,33)           133.2272         estimate D2E/DX2                !
 ! A61   A(10,23,33)           122.9565         estimate D2E/DX2                !
 ! A62   A(10,23,37)           118.7762         estimate D2E/DX2                !
 ! A63   A(33,23,37)           118.2319         estimate D2E/DX2                !
 ! A64   A(16,28,29)           135.733          estimate D2E/DX2                !
 ! A65   A(16,28,31)           110.9662         estimate D2E/DX2                !
 ! A66   A(29,28,31)           113.2835         estimate D2E/DX2                !
 ! A67   A(2,29,28)            129.3739         estimate D2E/DX2                !
 ! A68   A(2,29,30)            115.0517         estimate D2E/DX2                !
 ! A69   A(28,29,30)           115.5722         estimate D2E/DX2                !
 ! A70   A(21,32,22)           122.0655         estimate D2E/DX2                !
 ! A71   A(21,32,35)           118.1361         estimate D2E/DX2                !
 ! A72   A(22,32,35)           119.7601         estimate D2E/DX2                !
 ! A73   A(22,33,23)           122.125          estimate D2E/DX2                !
 ! A74   A(22,33,36)           119.5349         estimate D2E/DX2                !
 ! A75   A(23,33,36)           118.3169         estimate D2E/DX2                !
 ! D1    D(4,1,2,3)              3.0619         estimate D2E/DX2                !
 ! D2    D(4,1,2,18)           -98.8293         estimate D2E/DX2                !
 ! D3    D(4,1,2,29)           167.374          estimate D2E/DX2                !
 ! D4    D(19,1,2,3)          -177.1582         estimate D2E/DX2                !
 ! D5    D(19,1,2,18)           80.9505         estimate D2E/DX2                !
 ! D6    D(19,1,2,29)          -12.8462         estimate D2E/DX2                !
 ! D7    D(2,1,4,5)             -0.8569         estimate D2E/DX2                !
 ! D8    D(2,1,4,20)          -179.0559         estimate D2E/DX2                !
 ! D9    D(19,1,4,5)           179.3658         estimate D2E/DX2                !
 ! D10   D(19,1,4,20)            1.1667         estimate D2E/DX2                !
 ! D11   D(1,2,3,6)             -5.8799         estimate D2E/DX2                !
 ! D12   D(1,2,3,7)            167.8183         estimate D2E/DX2                !
 ! D13   D(18,2,3,6)            90.2741         estimate D2E/DX2                !
 ! D14   D(18,2,3,7)           -96.0277         estimate D2E/DX2                !
 ! D15   D(29,2,3,6)          -170.8136         estimate D2E/DX2                !
 ! D16   D(29,2,3,7)             2.8846         estimate D2E/DX2                !
 ! D17   D(1,2,29,28)         -165.8048         estimate D2E/DX2                !
 ! D18   D(1,2,29,30)           14.7666         estimate D2E/DX2                !
 ! D19   D(3,2,29,28)           -2.2477         estimate D2E/DX2                !
 ! D20   D(3,2,29,30)          178.3236         estimate D2E/DX2                !
 ! D21   D(18,2,29,28)         101.088          estimate D2E/DX2                !
 ! D22   D(18,2,29,30)         -78.3407         estimate D2E/DX2                !
 ! D23   D(2,3,6,5)              7.5145         estimate D2E/DX2                !
 ! D24   D(2,3,6,9)            175.7042         estimate D2E/DX2                !
 ! D25   D(7,3,6,5)           -167.7256         estimate D2E/DX2                !
 ! D26   D(7,3,6,9)              0.4641         estimate D2E/DX2                !
 ! D27   D(2,3,7,8)           -175.1449         estimate D2E/DX2                !
 ! D28   D(2,3,7,13)            -5.1453         estimate D2E/DX2                !
 ! D29   D(6,3,7,8)             -0.8835         estimate D2E/DX2                !
 ! D30   D(6,3,7,13)           169.1162         estimate D2E/DX2                !
 ! D31   D(1,4,5,6)              1.4647         estimate D2E/DX2                !
 ! D32   D(1,4,5,21)          -172.0649         estimate D2E/DX2                !
 ! D33   D(20,4,5,6)           179.6331         estimate D2E/DX2                !
 ! D34   D(20,4,5,21)            6.1036         estimate D2E/DX2                !
 ! D35   D(4,5,6,3)             -4.9025         estimate D2E/DX2                !
 ! D36   D(4,5,6,9)           -171.6385         estimate D2E/DX2                !
 ! D37   D(21,5,6,3)           169.8544         estimate D2E/DX2                !
 ! D38   D(21,5,6,9)             3.1183         estimate D2E/DX2                !
 ! D39   D(4,5,21,32)          170.1656         estimate D2E/DX2                !
 ! D40   D(4,5,21,34)           -7.5584         estimate D2E/DX2                !
 ! D41   D(6,5,21,32)           -3.3282         estimate D2E/DX2                !
 ! D42   D(6,5,21,34)          178.9478         estimate D2E/DX2                !
 ! D43   D(3,6,9,8)              0.1345         estimate D2E/DX2                !
 ! D44   D(3,6,9,22)          -168.3872         estimate D2E/DX2                !
 ! D45   D(5,6,9,8)            169.0111         estimate D2E/DX2                !
 ! D46   D(5,6,9,22)             0.4894         estimate D2E/DX2                !
 ! D47   D(3,7,8,9)              0.9828         estimate D2E/DX2                !
 ! D48   D(3,7,8,10)           169.7315         estimate D2E/DX2                !
 ! D49   D(13,7,8,9)          -170.741          estimate D2E/DX2                !
 ! D50   D(13,7,8,10)           -1.9923         estimate D2E/DX2                !
 ! D51   D(3,7,13,12)         -171.7918         estimate D2E/DX2                !
 ! D52   D(3,7,13,16)            5.5584         estimate D2E/DX2                !
 ! D53   D(8,7,13,12)           -2.7769         estimate D2E/DX2                !
 ! D54   D(8,7,13,16)          174.5733         estimate D2E/DX2                !
 ! D55   D(7,8,9,6)             -0.7139         estimate D2E/DX2                !
 ! D56   D(7,8,9,22)           167.7369         estimate D2E/DX2                !
 ! D57   D(10,8,9,6)          -170.1255         estimate D2E/DX2                !
 ! D58   D(10,8,9,22)           -1.6747         estimate D2E/DX2                !
 ! D59   D(7,8,10,11)            5.2176         estimate D2E/DX2                !
 ! D60   D(7,8,10,23)         -170.5832         estimate D2E/DX2                !
 ! D61   D(9,8,10,11)          172.6324         estimate D2E/DX2                !
 ! D62   D(9,8,10,23)           -3.1684         estimate D2E/DX2                !
 ! D63   D(6,9,22,32)           -3.7641         estimate D2E/DX2                !
 ! D64   D(6,9,22,33)          171.7607         estimate D2E/DX2                !
 ! D65   D(8,9,22,32)         -170.3209         estimate D2E/DX2                !
 ! D66   D(8,9,22,33)            5.204          estimate D2E/DX2                !
 ! D67   D(8,10,11,12)          -3.5581         estimate D2E/DX2                !
 ! D68   D(8,10,11,24)         178.9509         estimate D2E/DX2                !
 ! D69   D(23,10,11,12)        171.2584         estimate D2E/DX2                !
 ! D70   D(23,10,11,24)         -6.2325         estimate D2E/DX2                !
 ! D71   D(8,10,23,33)           4.2123         estimate D2E/DX2                !
 ! D72   D(8,10,23,37)        -177.9911         estimate D2E/DX2                !
 ! D73   D(11,10,23,33)       -170.6312         estimate D2E/DX2                !
 ! D74   D(11,10,23,37)          7.1655         estimate D2E/DX2                !
 ! D75   D(10,11,12,13)         -0.8569         estimate D2E/DX2                !
 ! D76   D(10,11,12,14)       -178.471          estimate D2E/DX2                !
 ! D77   D(24,11,12,13)        176.7145         estimate D2E/DX2                !
 ! D78   D(24,11,12,14)         -0.8996         estimate D2E/DX2                !
 ! D79   D(11,12,13,7)           4.1433         estimate D2E/DX2                !
 ! D80   D(11,12,13,16)       -173.238          estimate D2E/DX2                !
 ! D81   D(14,12,13,7)        -178.154          estimate D2E/DX2                !
 ! D82   D(14,12,13,16)          4.4647         estimate D2E/DX2                !
 ! D83   D(11,12,14,15)        175.8863         estimate D2E/DX2                !
 ! D84   D(11,12,14,25)         -3.494          estimate D2E/DX2                !
 ! D85   D(13,12,14,15)         -1.8457         estimate D2E/DX2                !
 ! D86   D(13,12,14,25)        178.7739         estimate D2E/DX2                !
 ! D87   D(7,13,16,17)         178.7553         estimate D2E/DX2                !
 ! D88   D(7,13,16,28)          -3.4562         estimate D2E/DX2                !
 ! D89   D(12,13,16,17)         -4.0368         estimate D2E/DX2                !
 ! D90   D(12,13,16,28)        173.7517         estimate D2E/DX2                !
 ! D91   D(12,14,15,17)         -1.0994         estimate D2E/DX2                !
 ! D92   D(12,14,15,27)       -179.9204         estimate D2E/DX2                !
 ! D93   D(25,14,15,17)        178.273          estimate D2E/DX2                !
 ! D94   D(25,14,15,27)         -0.5481         estimate D2E/DX2                !
 ! D95   D(14,15,17,16)          1.5858         estimate D2E/DX2                !
 ! D96   D(14,15,17,26)       -177.6664         estimate D2E/DX2                !
 ! D97   D(27,15,17,16)       -179.584          estimate D2E/DX2                !
 ! D98   D(27,15,17,26)          1.1637         estimate D2E/DX2                !
 ! D99   D(13,16,17,15)          0.9907         estimate D2E/DX2                !
 ! D100  D(13,16,17,26)       -179.7595         estimate D2E/DX2                !
 ! D101  D(28,16,17,15)       -176.9652         estimate D2E/DX2                !
 ! D102  D(28,16,17,26)          2.2846         estimate D2E/DX2                !
 ! D103  D(13,16,28,29)          0.2288         estimate D2E/DX2                !
 ! D104  D(13,16,28,31)       -178.0996         estimate D2E/DX2                !
 ! D105  D(17,16,28,29)        178.0075         estimate D2E/DX2                !
 ! D106  D(17,16,28,31)         -0.321          estimate D2E/DX2                !
 ! D107  D(5,21,32,22)           0.0455         estimate D2E/DX2                !
 ! D108  D(5,21,32,35)        -177.6965         estimate D2E/DX2                !
 ! D109  D(34,21,32,22)        177.7945         estimate D2E/DX2                !
 ! D110  D(34,21,32,35)          0.0525         estimate D2E/DX2                !
 ! D111  D(9,22,32,21)           3.4265         estimate D2E/DX2                !
 ! D112  D(9,22,32,35)        -178.8672         estimate D2E/DX2                !
 ! D113  D(33,22,32,21)       -170.9213         estimate D2E/DX2                !
 ! D114  D(33,22,32,35)          6.7849         estimate D2E/DX2                !
 ! D115  D(9,22,33,23)          -3.9747         estimate D2E/DX2                !
 ! D116  D(9,22,33,36)         177.8104         estimate D2E/DX2                !
 ! D117  D(32,22,33,23)        170.3878         estimate D2E/DX2                !
 ! D118  D(32,22,33,36)         -7.8272         estimate D2E/DX2                !
 ! D119  D(10,23,33,22)         -0.637          estimate D2E/DX2                !
 ! D120  D(10,23,33,36)        177.5988         estimate D2E/DX2                !
 ! D121  D(37,23,33,22)       -178.445          estimate D2E/DX2                !
 ! D122  D(37,23,33,36)         -0.2092         estimate D2E/DX2                !
 ! D123  D(16,28,29,2)           2.0961         estimate D2E/DX2                !
 ! D124  D(16,28,29,30)       -178.4778         estimate D2E/DX2                !
 ! D125  D(31,28,29,2)        -179.6032         estimate D2E/DX2                !
 ! D126  D(31,28,29,30)         -0.177          estimate D2E/DX2                !
 --------------------------------------------------------------------------------
 Trust Radius=3.00D-01 FncErr=1.00D-07 GrdErr=1.00D-06 EigMax=2.50D+02 EigMin=1.00D-04
 Number of steps in this run=    222 maximum allowed number of steps=    222.
 Search for a saddle point of order  1.
 GradGradGradGradGradGradGradGradGradGradGradGradGradGradGradGradGradGrad

                          Input orientation:                          
 ---------------------------------------------------------------------
 Center     Atomic      Atomic             Coordinates (Angstroms)
 Number     Number       Type             X           Y           Z
 ---------------------------------------------------------------------
      1          6           0       -1.553001    3.230935   -0.116728
      2          6           0       -0.312287    2.508678    0.142876
      3          6           0       -0.452237    1.128699    0.247477
      4          6           0       -2.797545    2.632263   -0.193755
      5          6           0       -2.939527    1.211571   -0.033911
      6          6           0       -1.739701    0.563808    0.226143
      7          6           0        0.497060    0.017097    0.270455
      8          6           0       -0.264666   -1.158357    0.282528
      9          6           0       -1.626727   -0.830079    0.245571
     10          6           0        0.193740   -2.464865    0.107023
     11          6           0        1.590627   -2.578159    0.013429
     12          6           0        2.423201   -1.421112    0.020883
     13          6           0        1.874177   -0.070823    0.106539
     14          6           0        3.835862   -1.536688   -0.106513
     15          6           0        4.633065   -0.420330   -0.183783
     16          6           0        2.715070    1.093831   -0.031391
     17          6           0        4.079773    0.879036   -0.162846
     18          1           0       -0.365305    2.984986    1.942438
     19          1           0       -1.485006    4.305227   -0.253105
     20          1           0       -3.662825    3.251341   -0.406740
     21          6           0       -4.060043    0.325114   -0.209262
     22          6           0       -2.656057   -1.710335    0.007184
     23          6           0       -0.876758   -3.443132   -0.041380
     24          1           0        2.068336   -3.545412   -0.107341
     25          1           0        4.278033   -2.526261   -0.152368
     26          1           0        4.742284    1.731996   -0.264679
     27          1           0        5.707031   -0.532029   -0.281839
     28          6           0        2.232689    2.482967   -0.089339
     29          6           0        1.019459    3.095502   -0.039298
     30          1           0        1.035692    4.177171   -0.140194
     31          1           0        3.058874    3.176297   -0.228647
     32          6           0       -3.929114   -1.064331   -0.190788
     33          6           0       -2.213213   -3.093264   -0.094997
     34          1           0       -5.043077    0.743675   -0.399531
     35          1           0       -4.815881   -1.664369   -0.368352
     36          1           0       -2.945619   -3.879778   -0.246600
     37          1           0       -0.615612   -4.491023   -0.149755
 ---------------------------------------------------------------------
                    Distance matrix (angstroms):
                    1          2          3          4          5
     1  C    0.000000
     2  C    1.458911   0.000000
     3  C    2.400775   1.390996   0.000000
     4  C    1.383196   2.510996   2.820613   0.000000
     5  C    2.450948   2.935325   2.504528   1.436689   0.000000
     6  C    2.695549   2.413910   1.406101   2.360901   1.388095
     7  C    3.831634   2.622841   1.461968   4.231903   3.650964
     8  C    4.591851   3.670002   2.295003   4.583789   3.587698
     9  C    4.077810   3.589651   2.283909   3.681254   2.443336
    10  C    5.961821   4.999348   3.653863   5.917683   4.832536
    11  C    6.606430   5.432656   4.238970   6.815239   5.906487
    12  C    6.121328   4.789679   3.849808   6.613026   5.974351
    13  C    4.764137   3.381682   2.621244   5.405723   4.983574
    14  C    7.195150   5.799510   5.061362   7.835168   7.311915
    15  C    7.183568   5.756935   5.333458   8.033205   7.747884
    16  C    4.773984   3.346200   3.179751   5.725562   5.655823
    17  C    6.104236   4.694613   4.557391   7.097342   7.028355
    18  H    2.389828   1.862285   2.515204   3.256305   3.698321
    19  H    1.085046   2.181664   3.377503   2.127226   3.425549
    20  H    2.129761   3.475591   3.904034   1.085048   2.196093
    21  C    3.838961   4.351738   3.724329   2.630034   1.439483
    22  C    5.064409   4.828223   3.602038   4.349546   2.935912
    23  C    6.708662   5.981356   4.600576   6.373623   5.091300
    24  H    7.683297   6.510144   5.322264   7.864346   6.907458
    25  H    8.194360   6.819737   5.991165   8.756477   8.128874
    26  H    6.472968   5.130110   5.254457   7.593717   7.702877
    27  H    8.178950   6.757105   6.401154   9.074597   8.824091
    28  C    3.858971   2.555678   3.025940   5.033532   5.326475
    29  C    2.577186   1.466662   2.473144   3.848112   4.384381
    30  H    2.756310   2.163572   3.414294   4.133197   4.960690
    31  H    4.613556   3.456656   4.092341   5.881737   6.314973
    32  C    4.909247   5.095013   4.134021   3.865911   2.486689
    33  C    6.358604   5.920461   4.587297   5.756115   4.366104
    34  H    4.295005   5.078367   4.652169   2.941347   2.185756
    35  H    5.888438   6.161009   5.217458   4.750285   3.450157
    36  H    7.246964   6.920874   5.616574   6.513939   5.095793
    37  H    7.778716   7.012379   5.636112   7.450099   6.159024
                    6          7          8          9         10
     6  C    0.000000
     7  C    2.303032   0.000000
     8  C    2.268206   1.400737   0.000000
     9  C    1.398593   2.286656   1.401550   0.000000
    10  C    3.595170   2.505763   1.395672   2.450678   0.000000
    11  C    4.583480   2.827951   2.351673   3.668929   1.404596
    12  C    4.616470   2.416764   2.713324   4.098990   2.463196
    13  C    3.671127   1.389622   2.405899   3.584987   2.924945
    14  C    5.967382   3.701885   4.136281   5.519342   3.764593
    15  C    6.461324   4.183804   4.974927   6.287864   4.896151
    16  C    4.493577   2.483956   3.748296   4.757030   4.363551
    17  C    5.840972   3.710326   4.819074   5.970931   5.133786
    18  H    3.270586   3.513910   4.464608   4.361796   5.777729
    19  H    3.780577   4.752974   5.623778   5.161408   6.984413
    20  H    3.364785   5.312586   5.609636   4.607515   6.914626
    21  C    2.372876   4.592624   4.104562   2.731734   5.096929
    22  C    2.461580   3.604924   2.469665   1.375209   2.949682
    23  C    4.107531   3.736014   2.387419   2.733650   1.457737
    24  H    5.612312   3.911919   3.360495   4.599029   2.174315
    25  H    6.775317   4.576375   4.764075   6.156426   4.092982
    26  H    6.604673   4.609683   5.807161   6.883958   6.200085
    27  H    7.544052   5.267862   6.030917   7.358736   5.855207
    28  C    4.422961   3.036836   4.431062   5.097404   5.355083
    29  C    3.754051   3.137742   4.455094   4.742746   5.623247
    30  H    4.570930   4.214851   5.507947   5.684175   6.699749
    31  H    5.482541   4.097870   5.486023   6.183105   6.335959
    32  C    2.760108   4.579656   3.696086   2.355052   4.364414
    33  C    3.701556   4.141676   2.771863   2.362617   2.495821
    34  H    3.366914   5.627603   5.188077   3.816321   6.162433
    35  H    3.844617   5.609166   4.625284   3.353154   5.095398
    36  H    4.628518   5.225420   3.856633   3.358924   3.461590
    37  H    5.191935   4.662377   3.378860   3.818527   2.196885
                   11         12         13         14         15
    11  C    0.000000
    12  C    1.425480   0.000000
    13  C    2.525035   1.460152   0.000000
    14  C    2.477928   1.423095   2.458121   0.000000
    15  C    3.735177   2.434533   2.796052   1.373957   0.000000
    16  C    3.840559   2.532362   1.443102   2.860323   2.448390
    17  C    4.263698   2.840540   2.416496   2.428660   1.412417
    18  H    6.204460   5.557143   4.209961   6.503348   6.410982
    19  H    7.543975   6.938307   5.528406   7.903233   7.730879
    20  H    7.858649   7.684685   6.477547   8.902003   9.074837
    21  C    6.356780   6.718238   5.955792   8.113087   8.725048
    22  C    4.334453   5.087504   4.818806   6.495236   7.404855
    23  C    2.615181   3.870681   4.354537   5.084049   6.286156
    24  H    1.085527   2.157550   3.486576   2.675653   4.043491
    25  H    2.693016   2.166050   3.445973   1.084838   2.135879
    26  H    5.346749   3.924510   3.407931   3.395720   2.156613
    27  H    4.606367   3.415501   3.879989   2.131045   1.084202
    28  C    5.102725   3.910278   2.586260   4.327596   3.768270
    29  C    5.702582   4.730107   3.282899   5.421608   5.043818
    30  H    6.779826   5.769913   4.336979   6.363197   5.837808
    31  H    5.943746   4.647851   3.472700   4.778164   3.926298
    32  C    5.727209   6.365847   5.895222   7.779786   8.586367
    33  C    3.840090   4.930097   5.087487   6.246148   7.350101
    34  H    7.430420   7.785137   6.983403   9.171776   9.748291
    35  H    6.482601   7.253619   6.893605   8.656646   9.532276
    36  H    4.726453   5.911076   6.153314   7.176223   8.331157
    37  H    2.924580   4.322945   5.079656   5.342807   6.642312
                   16         17         18         19         20
    16  C    0.000000
    17  C    1.387743   0.000000
    18  H    4.118395   5.350324   0.000000
    19  H    5.291773   6.535572   2.795921   0.000000
    20  H    6.743388   8.101552   4.057489   2.424289   0.000000
    21  C    6.820903   8.158774   5.035456   4.740679   2.959659
    22  C    6.059195   7.218390   5.571247   6.134011   5.079679
    23  C    5.786654   6.577468   6.746689   7.775079   7.260277
    24  H    4.684721   4.860525   7.264317   8.618586   8.895600
    25  H    3.944940   3.411080   7.504841   8.938232   9.823574
    26  H    2.138054   1.084819   5.703404   6.738011   8.542508
    27  H    3.414378   2.157135   7.361390   8.667483  10.105627
    28  C    1.471648   2.447390   3.336123   4.143514   5.953841
    29  C    2.623327   3.780676   2.420137   2.789533   4.699264
    30  H    3.512710   4.488278   2.778750   2.526473   4.796277
    31  H    2.119853   2.514751   4.058967   4.682086   6.724477
    32  C    6.987721   8.241343   5.800720   5.899975   4.329269
    33  C    6.467131   7.442140   6.671659   7.435923   6.515564
    34  H    7.774766   9.126924   5.691208   5.036463   2.862435
    35  H    8.027231   9.254394   6.838412   6.836965   5.049279
    36  H    7.538335   8.485839   7.653424   8.314309   7.168883
    37  H    6.503695   7.133326   7.767280   8.839714   8.324407
                   21         22         23         24         25
    21  C    0.000000
    22  C    2.482152   0.000000
    23  C    4.935703   2.484119   0.000000
    24  H    7.249027   5.069567   2.947608   0.000000
    25  H    8.812326   6.983752   5.236873   2.433815   0.000000
    26  H    8.914222   8.164496   7.642346   5.918259   4.284962
    27  H    9.804881   8.450632   7.202681   4.727687   2.456778
    28  C    6.653509   6.441501   6.692504   6.030646   5.411078
    29  C    5.788374   6.050425   6.808038   6.723579   6.498870
    30  H    6.388241   6.950788   7.857242   7.791388   7.446403
    31  H    7.668677   7.522980   7.703318   6.795385   5.831924
    32  C    1.395722   1.441245   3.872711   6.490927   8.336425
    33  C    3.887048   1.455694   1.382532   4.305375   6.516215
    34  H    1.085243   3.447528   5.917418   8.309864   9.881127
    35  H    2.134161   2.192711   4.334466   7.141351   9.137219
    36  H    4.350224   2.203346   2.124373   5.027021   7.349968
    37  H    5.921387   3.452575   1.085365   2.845972   5.273335
                   26         27         28         29         30
    26  H    0.000000
    27  H    2.461065   0.000000
    28  C    2.625408   4.604162   0.000000
    29  C    3.971067   5.932212   1.360011   0.000000
    30  H    4.442207   6.634609   2.075022   1.086486   0.000000
    31  H    2.218372   4.557109   1.087518   2.049779   2.258946
    32  C    9.111424   9.651266   7.110656   6.466493   7.219778
    33  C    8.467046   8.326170   7.131650   6.982413   7.963457
    34  H    9.836069  10.826176   7.487198   6.512695   6.986242
    35  H   10.144189  10.584014   8.182945   7.537628   8.271430
    36  H    9.518203   9.277770   8.205128   8.026167   8.987580
    37  H    8.212565   7.461025   7.533459   7.761509   8.824085
                   31         32         33         34         35
    31  H    0.000000
    32  C    8.174126   0.000000
    33  C    8.192689   2.658959   0.000000
    34  H    8.460996   2.133863   4.777339   0.000000
    35  H    9.244638   1.085325   2.981668   2.418939   0.000000
    36  H    9.265120   2.982804   1.085360   5.079275   2.901851
    37  H    8.502698   4.766885   2.123454   6.860532   5.067545
                   36         37
    36  H    0.000000
    37  H    2.410795   0.000000
 Stoichiometry    C24H13(2)
 Framework group  C1[X(C24H13)]
 Deg. of freedom   105
 Full point group                 C1      NOp   1
 Largest Abelian subgroup         C1      NOp   1
 Largest concise Abelian subgroup C1      NOp   1
                         Standard orientation:                         
 ---------------------------------------------------------------------
 Center     Atomic      Atomic             Coordinates (Angstroms)
 Number     Number       Type             X           Y           Z
 ---------------------------------------------------------------------
      1          6           0       -1.553001    3.230935   -0.116728
      2          6           0       -0.312287    2.508678    0.142876
      3          6           0       -0.452237    1.128699    0.247477
      4          6           0       -2.797545    2.632263   -0.193755
      5          6           0       -2.939527    1.211571   -0.033911
      6          6           0       -1.739701    0.563808    0.226143
      7          6           0        0.497060    0.017097    0.270455
      8          6           0       -0.264666   -1.158357    0.282528
      9          6           0       -1.626727   -0.830079    0.245571
     10          6           0        0.193740   -2.464865    0.107023
     11          6           0        1.590627   -2.578159    0.013429
     12          6           0        2.423201   -1.421112    0.020883
     13          6           0        1.874177   -0.070823    0.106539
     14          6           0        3.835862   -1.536688   -0.106513
     15          6           0        4.633065   -0.420330   -0.183783
     16          6           0        2.715070    1.093831   -0.031391
     17          6           0        4.079773    0.879036   -0.162846
     18          1           0       -0.365305    2.984986    1.942438
     19          1           0       -1.485006    4.305227   -0.253105
     20          1           0       -3.662825    3.251341   -0.406740
     21          6           0       -4.060043    0.325114   -0.209262
     22          6           0       -2.656057   -1.710335    0.007184
     23          6           0       -0.876758   -3.443132   -0.041380
     24          1           0        2.068336   -3.545412   -0.107341
     25          1           0        4.278033   -2.526261   -0.152368
     26          1           0        4.742284    1.731996   -0.264679
     27          1           0        5.707031   -0.532029   -0.281839
     28          6           0        2.232689    2.482967   -0.089339
     29          6           0        1.019459    3.095502   -0.039298
     30          1           0        1.035692    4.177171   -0.140194
     31          1           0        3.058874    3.176297   -0.228647
     32          6           0       -3.929114   -1.064331   -0.190788
     33          6           0       -2.213213   -3.093264   -0.094997
     34          1           0       -5.043077    0.743675   -0.399531
     35          1           0       -4.815881   -1.664369   -0.368352
     36          1           0       -2.945619   -3.879778   -0.246600
     37          1           0       -0.615612   -4.491023   -0.149755
 ---------------------------------------------------------------------
 Rotational constants (GHZ):           0.4172634           0.2591183           0.1610528
 Standard basis: 6-311+G(d,p) (5D, 7F)
 There are   630 symmetry adapted cartesian basis functions of A   symmetry.
 There are   606 symmetry adapted basis functions of A   symmetry.
   606 basis functions,   968 primitive gaussians,   630 cartesian basis functions
    79 alpha electrons       78 beta electrons
       nuclear repulsion energy      1841.0814665565 Hartrees.
 NAtoms=   37 NActive=   37 NUniq=   37 SFac= 1.00D+00 NAtFMM=   60 NAOKFM=F Big=F
 Integral buffers will be    131072 words long.
 Raffenetti 2 integral format.
 Two-electron integral symmetry is turned on.
 One-electron integrals computed using PRISM.
 NBasis=   606 RedAO= T EigKep=  1.29D-06  NBF=   606
 NBsUse=   589 1.00D-06 EigRej=  9.03D-07 NBFU=   589
 ExpMin= 4.38D-02 ExpMax= 4.56D+03 ExpMxC= 6.82D+02 IAcc=2 IRadAn=         4 AccDes= 0.00D+00
 Harris functional with IExCor=  402 and IRadAn=       4 diagonalized for initial guess.
 HarFok:  IExCor=  402 AccDes= 0.00D+00 IRadAn=         4 IDoV= 1 UseB2=F ITyADJ=14
 ICtDFT=  3500011 ScaDFX=  1.000000  1.000000  1.000000  1.000000
 FoFCou: FMM=F IPFlag=           0 FMFlag=      100000 FMFlg1=           0
         NFxFlg=           0 DoJE=T BraDBF=F KetDBF=T FulRan=T
         wScrn=  0.000000 ICntrl=       500 IOpCl=  0 I1Cent=   200000004 NGrid=           0
         NMat0=    1 NMatS0=      1 NMatT0=    0 NMatD0=    1 NMtDS0=    0 NMtDT0=    0
 Petite list used in FoFCou.
 Initial guess <Sx>= 0.0000 <Sy>= 0.0000 <Sz>= 0.5000 <S**2>= 0.7500 S= 0.5000
 Requested convergence on RMS density matrix=1.00D-08 within 128 cycles.
 Requested convergence on MAX density matrix=1.00D-06.
 Requested convergence on             energy=1.00D-06.
 No special actions if energy rises.
 Restarting incremental Fock formation.
 SCF Done:  E(UB3LYP) =  -922.506075535     A.U. after   28 cycles
            NFock= 28  Conv=0.55D-08     -V/T= 2.0045
 <Sx>= 0.0000 <Sy>= 0.0000 <Sz>= 0.5000 <S**2>= 0.7788 S= 0.5143
 <L.S>=  0.00000000000    
 Annihilation of the first spin contaminant:
 S**2 before annihilation     0.7788,   after     0.7503

 **********************************************************************

            Population analysis using the SCF density.

 **********************************************************************

 Orbital symmetries:
 Alpha Orbitals:
       Occupied  (A) (A) (A) (A) (A) (A) (A) (A) (A) (A) (A) (A)
                 (A) (A) (A) (A) (A) (A) (A) (A) (A) (A) (A) (A)
                 (A) (A) (A) (A) (A) (A) (A) (A) (A) (A) (A) (A)
                 (A) (A) (A) (A) (A) (A) (A) (A) (A) (A) (A) (A)
                 (A) (A) (A) (A) (A) (A) (A) (A) (A) (A) (A) (A)
                 (A) (A) (A) (A) (A) (A) (A) (A) (A) (A) (A) (A)
                 (A) (A) (A) (A) (A) (A) (A)
       Virtual   (A) (A) (A) (A) (A) (A) (A) (A) (A) (A) (A) (A)
                 (A) (A) (A) (A) (A) (A) (A) (A) (A) (A) (A) (A)
                 (A) (A) (A) (A) (A) (A) (A) (A) (A) (A) (A) (A)
                 (A) (A) (A) (A) (A) (A) (A) (A) (A) (A) (A) (A)
                 (A) (A) (A) (A) (A) (A) (A) (A) (A) (A) (A) (A)
                 (A) (A) (A) (A) (A) (A) (A) (A) (A) (A) (A) (A)
                 (A) (A) (A) (A) (A) (A) (A) (A) (A) (A) (A) (A)
                 (A) (A) (A) (A) (A) (A) (A) (A) (A) (A) (A) (A)
                 (A) (A) (A) (A) (A) (A) (A) (A) (A) (A) (A) (A)
                 (A) (A) (A) (A) (A) (A) (A) (A) (A) (A) (A) (A)
                 (A) (A) (A) (A) (A) (A) (A) (A) (A) (A) (A) (A)
                 (A) (A) (A) (A) (A) (A) (A) (A) (A) (A) (A) (A)
                 (A) (A) (A) (A) (A) (A) (A) (A) (A) (A) (A) (A)
                 (A) (A) (A) (A) (A) (A) (A) (A) (A) (A) (A) (A)
                 (A) (A) (A) (A) (A) (A) (A) (A) (A) (A) (A) (A)
                 (A) (A) (A) (A) (A) (A) (A) (A) (A) (A) (A) (A)
                 (A) (A) (A) (A) (A) (A) (A) (A) (A) (A) (A) (A)
                 (A) (A) (A) (A) (A) (A) (A) (A) (A) (A) (A) (A)
                 (A) (A) (A) (A) (A) (A) (A) (A) (A) (A) (A) (A)
                 (A) (A) (A) (A) (A) (A) (A) (A) (A) (A) (A) (A)
                 (A) (A) (A) (A) (A) (A) (A) (A) (A) (A) (A) (A)
                 (A) (A) (A) (A) (A) (A) (A) (A) (A) (A) (A) (A)
                 (A) (A) (A) (A) (A) (A) (A) (A) (A) (A) (A) (A)
                 (A) (A) (A) (A) (A) (A) (A) (A) (A) (A) (A) (A)
                 (A) (A) (A) (A) (A) (A) (A) (A) (A) (A) (A) (A)
                 (A) (A) (A) (A) (A) (A) (A) (A) (A) (A) (A) (A)
                 (A) (A) (A) (A) (A) (A) (A) (A) (A) (A) (A) (A)
                 (A) (A) (A) (A) (A) (A) (A) (A) (A) (A) (A) (A)
                 (A) (A) (A) (A) (A) (A) (A) (A) (A) (A) (A) (A)
                 (A) (A) (A) (A) (A) (A) (A) (A) (A) (A) (A) (A)
                 (A) (A) (A) (A) (A) (A) (A) (A) (A) (A) (A) (A)
                 (A) (A) (A) (A) (A) (A) (A) (A) (A) (A) (A) (A)
                 (A) (A) (A) (A) (A) (A) (A) (A) (A) (A) (A) (A)
                 (A) (A) (A) (A) (A) (A) (A) (A) (A) (A) (A) (A)
                 (A) (A) (A) (A) (A) (A) (A) (A) (A) (A) (A) (A)
                 (A) (A) (A) (A) (A) (A) (A) (A) (A) (A) (A) (A)
                 (A) (A) (A) (A) (A) (A) (A) (A) (A) (A) (A) (A)
                 (A) (A) (A) (A) (A) (A) (A) (A) (A) (A) (A) (A)
                 (A) (A) (A) (A) (A) (A) (A) (A) (A) (A) (A) (A)
                 (A) (A) (A) (A) (A) (A) (A) (A) (A) (A) (A) (A)
                 (A) (A) (A) (A) (A) (A) (A) (A) (A) (A) (A) (A)
                 (A) (A) (A) (A) (A) (A) (A) (A) (A) (A) (A) (A)
                 (A) (A) (A) (A) (A) (A)
 Beta  Orbitals:
       Occupied  (A) (A) (A) (A) (A) (A) (A) (A) (A) (A) (A) (A)
                 (A) (A) (A) (A) (A) (A) (A) (A) (A) (A) (A) (A)
                 (A) (A) (A) (A) (A) (A) (A) (A) (A) (A) (A) (A)
                 (A) (A) (A) (A) (A) (A) (A) (A) (A) (A) (A) (A)
                 (A) (A) (A) (A) (A) (A) (A) (A) (A) (A) (A) (A)
                 (A) (A) (A) (A) (A) (A) (A) (A) (A) (A) (A) (A)
                 (A) (A) (A) (A) (A) (A)
       Virtual   (A) (A) (A) (A) (A) (A) (A) (A) (A) (A) (A) (A)
                 (A) (A) (A) (A) (A) (A) (A) (A) (A) (A) (A) (A)
                 (A) (A) (A) (A) (A) (A) (A) (A) (A) (A) (A) (A)
                 (A) (A) (A) (A) (A) (A) (A) (A) (A) (A) (A) (A)
                 (A) (A) (A) (A) (A) (A) (A) (A) (A) (A) (A) (A)
                 (A) (A) (A) (A) (A) (A) (A) (A) (A) (A) (A) (A)
                 (A) (A) (A) (A) (A) (A) (A) (A) (A) (A) (A) (A)
                 (A) (A) (A) (A) (A) (A) (A) (A) (A) (A) (A) (A)
                 (A) (A) (A) (A) (A) (A) (A) (A) (A) (A) (A) (A)
                 (A) (A) (A) (A) (A) (A) (A) (A) (A) (A) (A) (A)
                 (A) (A) (A) (A) (A) (A) (A) (A) (A) (A) (A) (A)
                 (A) (A) (A) (A) (A) (A) (A) (A) (A) (A) (A) (A)
                 (A) (A) (A) (A) (A) (A) (A) (A) (A) (A) (A) (A)
                 (A) (A) (A) (A) (A) (A) (A) (A) (A) (A) (A) (A)
                 (A) (A) (A) (A) (A) (A) (A) (A) (A) (A) (A) (A)
                 (A) (A) (A) (A) (A) (A) (A) (A) (A) (A) (A) (A)
                 (A) (A) (A) (A) (A) (A) (A) (A) (A) (A) (A) (A)
                 (A) (A) (A) (A) (A) (A) (A) (A) (A) (A) (A) (A)
                 (A) (A) (A) (A) (A) (A) (A) (A) (A) (A) (A) (A)
                 (A) (A) (A) (A) (A) (A) (A) (A) (A) (A) (A) (A)
                 (A) (A) (A) (A) (A) (A) (A) (A) (A) (A) (A) (A)
                 (A) (A) (A) (A) (A) (A) (A) (A) (A) (A) (A) (A)
                 (A) (A) (A) (A) (A) (A) (A) (A) (A) (A) (A) (A)
                 (A) (A) (A) (A) (A) (A) (A) (A) (A) (A) (A) (A)
                 (A) (A) (A) (A) (A) (A) (A) (A) (A) (A) (A) (A)
                 (A) (A) (A) (A) (A) (A) (A) (A) (A) (A) (A) (A)
                 (A) (A) (A) (A) (A) (A) (A) (A) (A) (A) (A) (A)
                 (A) (A) (A) (A) (A) (A) (A) (A) (A) (A) (A) (A)
                 (A) (A) (A) (A) (A) (A) (A) (A) (A) (A) (A) (A)
                 (A) (A) (A) (A) (A) (A) (A) (A) (A) (A) (A) (A)
                 (A) (A) (A) (A) (A) (A) (A) (A) (A) (A) (A) (A)
                 (A) (A) (A) (A) (A) (A) (A) (A) (A) (A) (A) (A)
                 (A) (A) (A) (A) (A) (A) (A) (A) (A) (A) (A) (A)
                 (A) (A) (A) (A) (A) (A) (A) (A) (A) (A) (A) (A)
                 (A) (A) (A) (A) (A) (A) (A) (A) (A) (A) (A) (A)
                 (A) (A) (A) (A) (A) (A) (A) (A) (A) (A) (A) (A)
                 (A) (A) (A) (A) (A) (A) (A) (A) (A) (A) (A) (A)
                 (A) (A) (A) (A) (A) (A) (A) (A) (A) (A) (A) (A)
                 (A) (A) (A) (A) (A) (A) (A) (A) (A) (A) (A) (A)
                 (A) (A) (A) (A) (A) (A) (A) (A) (A) (A) (A) (A)
                 (A) (A) (A) (A) (A) (A) (A) (A) (A) (A) (A) (A)
                 (A) (A) (A) (A) (A) (A) (A) (A) (A) (A) (A) (A)
                 (A) (A) (A) (A) (A) (A) (A)
 The electronic state is 2-A.
 Alpha  occ. eigenvalues --  -10.21906 -10.20483 -10.20168 -10.19982 -10.19809
 Alpha  occ. eigenvalues --  -10.19769 -10.19746 -10.19605 -10.19530 -10.19505
 Alpha  occ. eigenvalues --  -10.19465 -10.19462 -10.19445 -10.19385 -10.19357
 Alpha  occ. eigenvalues --  -10.19114 -10.19034 -10.18727 -10.18434 -10.18399
 Alpha  occ. eigenvalues --  -10.18269 -10.17042 -10.16987 -10.16877  -0.92684
 Alpha  occ. eigenvalues --   -0.88282  -0.86892  -0.84333  -0.82110  -0.81961
 Alpha  occ. eigenvalues --   -0.78998  -0.77481  -0.75894  -0.73297  -0.73026
 Alpha  occ. eigenvalues --   -0.71253  -0.66992  -0.65705  -0.63883  -0.62788
 Alpha  occ. eigenvalues --   -0.60290  -0.59843  -0.57207  -0.56692  -0.53744
 Alpha  occ. eigenvalues --   -0.52003  -0.51316  -0.50095  -0.49513  -0.47679
 Alpha  occ. eigenvalues --   -0.46776  -0.45708  -0.44721  -0.44538  -0.44146
 Alpha  occ. eigenvalues --   -0.43786  -0.42637  -0.42500  -0.40882  -0.40601
 Alpha  occ. eigenvalues --   -0.40160  -0.39942  -0.39580  -0.38001  -0.36988
 Alpha  occ. eigenvalues --   -0.35855  -0.35500  -0.34954  -0.33895  -0.33627
 Alpha  occ. eigenvalues --   -0.33204  -0.32720  -0.29563  -0.28507  -0.26318
 Alpha  occ. eigenvalues --   -0.24247  -0.23915  -0.21804  -0.19439
 Alpha virt. eigenvalues --   -0.08865  -0.07613  -0.04331  -0.02691  -0.00612
 Alpha virt. eigenvalues --    0.00066   0.00616   0.00773   0.01214   0.01755
 Alpha virt. eigenvalues --    0.01877   0.03168   0.03346   0.03590   0.03667
 Alpha virt. eigenvalues --    0.03996   0.04969   0.05168   0.05463   0.05505
 Alpha virt. eigenvalues --    0.05814   0.06925   0.07487   0.08090   0.08117
 Alpha virt. eigenvalues --    0.08289   0.08675   0.08994   0.09269   0.10177
 Alpha virt. eigenvalues --    0.10339   0.10695   0.10730   0.11180   0.11372
 Alpha virt. eigenvalues --    0.12143   0.12646   0.12707   0.13230   0.13656
 Alpha virt. eigenvalues --    0.13988   0.14420   0.14481   0.15210   0.15645
 Alpha virt. eigenvalues --    0.16184   0.16593   0.16676   0.16975   0.17063
 Alpha virt. eigenvalues --    0.17199   0.17389   0.17564   0.17725   0.18182
 Alpha virt. eigenvalues --    0.18259   0.18330   0.18897   0.18980   0.19202
 Alpha virt. eigenvalues --    0.19657   0.19932   0.20135   0.20362   0.20660
 Alpha virt. eigenvalues --    0.20876   0.21225   0.21566   0.22023   0.22091
 Alpha virt. eigenvalues --    0.22579   0.22760   0.23161   0.23240   0.23533
 Alpha virt. eigenvalues --    0.23783   0.23928   0.24139   0.24336   0.24811
 Alpha virt. eigenvalues --    0.25034   0.25117   0.25499   0.25844   0.26216
 Alpha virt. eigenvalues --    0.26396   0.26764   0.27379   0.27587   0.28122
 Alpha virt. eigenvalues --    0.28508   0.28741   0.28863   0.29243   0.29374
 Alpha virt. eigenvalues --    0.29853   0.30324   0.31241   0.31514   0.31768
 Alpha virt. eigenvalues --    0.31958   0.32345   0.32793   0.33546   0.33784
 Alpha virt. eigenvalues --    0.34332   0.34672   0.34942   0.35456   0.36146
 Alpha virt. eigenvalues --    0.36997   0.37444   0.38398   0.39009   0.39165
 Alpha virt. eigenvalues --    0.39307   0.40176   0.40526   0.40972   0.42309
 Alpha virt. eigenvalues --    0.42734   0.44890   0.45248   0.45780   0.46406
 Alpha virt. eigenvalues --    0.47236   0.47677   0.48364   0.48730   0.49617
 Alpha virt. eigenvalues --    0.51180   0.51681   0.51974   0.52204   0.53336
 Alpha virt. eigenvalues --    0.53471   0.54258   0.54354   0.55078   0.55135
 Alpha virt. eigenvalues --    0.55914   0.56359   0.56614   0.56794   0.57201
 Alpha virt. eigenvalues --    0.57599   0.58015   0.58770   0.59059   0.59525
 Alpha virt. eigenvalues --    0.60065   0.60165   0.60894   0.61163   0.61387
 Alpha virt. eigenvalues --    0.62461   0.63020   0.63484   0.64103   0.64996
 Alpha virt. eigenvalues --    0.65155   0.65649   0.66772   0.66888   0.67488
 Alpha virt. eigenvalues --    0.67656   0.68456   0.68671   0.69233   0.69887
 Alpha virt. eigenvalues --    0.70171   0.70625   0.70752   0.71226   0.71716
 Alpha virt. eigenvalues --    0.72038   0.72360   0.72904   0.73435   0.73685
 Alpha virt. eigenvalues --    0.74235   0.75104   0.75593   0.75874   0.76168
 Alpha virt. eigenvalues --    0.76347   0.76863   0.77442   0.78673   0.80616
 Alpha virt. eigenvalues --    0.82359   0.82940   0.83405   0.83928   0.84448
 Alpha virt. eigenvalues --    0.84883   0.85879   0.86942   0.87194   0.87457
 Alpha virt. eigenvalues --    0.88451   0.88834   0.89157   0.90152   0.90900
 Alpha virt. eigenvalues --    0.91057   0.92125   0.92703   0.92947   0.93156
 Alpha virt. eigenvalues --    0.93641   0.93873   0.94358   0.94502   0.94848
 Alpha virt. eigenvalues --    0.95375   0.95557   0.96313   0.96821   0.97619
 Alpha virt. eigenvalues --    0.99169   0.99689   1.00064   1.00431   1.01573
 Alpha virt. eigenvalues --    1.01960   1.02441   1.03277   1.03597   1.05049
 Alpha virt. eigenvalues --    1.05262   1.05869   1.06058   1.07140   1.07368
 Alpha virt. eigenvalues --    1.08779   1.09918   1.10636   1.11343   1.11599
 Alpha virt. eigenvalues --    1.13440   1.14771   1.15555   1.17029   1.18358
 Alpha virt. eigenvalues --    1.18933   1.20845   1.22318   1.23782   1.24630
 Alpha virt. eigenvalues --    1.26037   1.28080   1.29204   1.31415   1.32909
 Alpha virt. eigenvalues --    1.34326   1.36840   1.38043   1.38484   1.39664
 Alpha virt. eigenvalues --    1.40183   1.42748   1.44993   1.45237   1.45890
 Alpha virt. eigenvalues --    1.46318   1.47757   1.48444   1.48937   1.49781
 Alpha virt. eigenvalues --    1.50350   1.50652   1.51218   1.51317   1.51648
 Alpha virt. eigenvalues --    1.52948   1.54358   1.55154   1.56273   1.56464
 Alpha virt. eigenvalues --    1.56962   1.57724   1.58232   1.59930   1.60496
 Alpha virt. eigenvalues --    1.62021   1.63096   1.63939   1.64803   1.66614
 Alpha virt. eigenvalues --    1.67422   1.67923   1.68516   1.69288   1.70976
 Alpha virt. eigenvalues --    1.71449   1.71878   1.73367   1.73706   1.74522
 Alpha virt. eigenvalues --    1.74968   1.75665   1.76532   1.77406   1.78288
 Alpha virt. eigenvalues --    1.79125   1.80390   1.81089   1.81857   1.82358
 Alpha virt. eigenvalues --    1.83179   1.83718   1.85095   1.85150   1.85565
 Alpha virt. eigenvalues --    1.86484   1.87030   1.87270   1.88458   1.88850
 Alpha virt. eigenvalues --    1.89502   1.90401   1.91092   1.92340   1.93013
 Alpha virt. eigenvalues --    1.93642   1.93958   1.94660   1.95823   1.96825
 Alpha virt. eigenvalues --    1.97916   1.98496   1.99522   2.00517   2.01813
 Alpha virt. eigenvalues --    2.02344   2.02758   2.04390   2.04468   2.06149
 Alpha virt. eigenvalues --    2.06737   2.07950   2.08588   2.09900   2.10975
 Alpha virt. eigenvalues --    2.12199   2.12658   2.14084   2.14795   2.16121
 Alpha virt. eigenvalues --    2.18124   2.18544   2.20230   2.21043   2.22664
 Alpha virt. eigenvalues --    2.23310   2.24057   2.24186   2.25464   2.27611
 Alpha virt. eigenvalues --    2.29253   2.29581   2.32215   2.35729   2.36203
 Alpha virt. eigenvalues --    2.37746   2.40677   2.40863   2.41739   2.42366
 Alpha virt. eigenvalues --    2.44811   2.45713   2.47387   2.48732   2.50521
 Alpha virt. eigenvalues --    2.53172   2.54293   2.55674   2.57245   2.57876
 Alpha virt. eigenvalues --    2.59140   2.60351   2.62097   2.63623   2.64948
 Alpha virt. eigenvalues --    2.66385   2.67298   2.68663   2.69699   2.69926
 Alpha virt. eigenvalues --    2.71290   2.71629   2.72233   2.72839   2.73250
 Alpha virt. eigenvalues --    2.73950   2.74920   2.74942   2.75051   2.75914
 Alpha virt. eigenvalues --    2.76305   2.76505   2.76676   2.77657   2.78011
 Alpha virt. eigenvalues --    2.78700   2.79643   2.80944   2.81638   2.82765
 Alpha virt. eigenvalues --    2.83270   2.84363   2.85068   2.85991   2.87258
 Alpha virt. eigenvalues --    2.87390   2.89816   2.91193   2.91982   2.92389
 Alpha virt. eigenvalues --    2.93400   2.94023   2.98066   3.00298   3.02102
 Alpha virt. eigenvalues --    3.02340   3.03422   3.05542   3.08123   3.09588
 Alpha virt. eigenvalues --    3.11872   3.13209   3.14444   3.17309   3.18495
 Alpha virt. eigenvalues --    3.19118   3.21266   3.22315   3.23639   3.24649
 Alpha virt. eigenvalues --    3.28900   3.31195   3.33198   3.36566   3.37549
 Alpha virt. eigenvalues --    3.38697   3.40017   3.41627   3.42615   3.42961
 Alpha virt. eigenvalues --    3.44816   3.46038   3.47722   3.48929   3.49878
 Alpha virt. eigenvalues --    3.52563   3.55390   3.57670   3.60029   3.61094
 Alpha virt. eigenvalues --    3.64811   3.66224   3.71011   3.81474   3.82535
 Alpha virt. eigenvalues --    3.83904   3.88209   4.02869   4.04845   4.05255
 Alpha virt. eigenvalues --    4.05568   4.06239   4.06989   4.11538   4.19636
 Alpha virt. eigenvalues --    4.24660   4.27527   4.35101   4.47808   4.73377
 Alpha virt. eigenvalues --    4.74418   4.76692   4.79332   4.81176   4.84731
 Alpha virt. eigenvalues --    4.88825  23.38081  23.64975  23.73066  23.79477
 Alpha virt. eigenvalues --   23.82387  23.83940  23.86397  23.88373  23.93555
 Alpha virt. eigenvalues --   23.93847  23.97532  23.98755  24.04008  24.06746
 Alpha virt. eigenvalues --   24.08174  24.08564  24.09909  24.10362  24.11873
 Alpha virt. eigenvalues --   24.12300  24.16691  24.17752  24.20190  24.20696
  Beta  occ. eigenvalues --  -10.22025 -10.20435 -10.20167 -10.19999 -10.19783
  Beta  occ. eigenvalues --  -10.19709 -10.19656 -10.19604 -10.19536 -10.19472
  Beta  occ. eigenvalues --  -10.19456 -10.19454 -10.19437 -10.19389 -10.19387
  Beta  occ. eigenvalues --  -10.18955 -10.18831 -10.18776 -10.18438 -10.18403
  Beta  occ. eigenvalues --  -10.18273 -10.17077 -10.16976 -10.16842  -0.92563
  Beta  occ. eigenvalues --   -0.88238  -0.86813  -0.84248  -0.82115  -0.81896
  Beta  occ. eigenvalues --   -0.78951  -0.77457  -0.75841  -0.73139  -0.73004
  Beta  occ. eigenvalues --   -0.71191  -0.66906  -0.65655  -0.63859  -0.62718
  Beta  occ. eigenvalues --   -0.60222  -0.59805  -0.57166  -0.56669  -0.53663
  Beta  occ. eigenvalues --   -0.51985  -0.51291  -0.50064  -0.49482  -0.47642
  Beta  occ. eigenvalues --   -0.46739  -0.45667  -0.44696  -0.44285  -0.43906
  Beta  occ. eigenvalues --   -0.43701  -0.42601  -0.42452  -0.40832  -0.40582
  Beta  occ. eigenvalues --   -0.39922  -0.39760  -0.38905  -0.37986  -0.36955
  Beta  occ. eigenvalues --   -0.35739  -0.35157  -0.34894  -0.33862  -0.33433
  Beta  occ. eigenvalues --   -0.32904  -0.32483  -0.29144  -0.28021  -0.26120
  Beta  occ. eigenvalues --   -0.23372  -0.23270  -0.19919
  Beta virt. eigenvalues --   -0.10716  -0.08011  -0.05513  -0.04195  -0.02469
  Beta virt. eigenvalues --   -0.00453   0.00141   0.00615   0.00815   0.01355
  Beta virt. eigenvalues --    0.01756   0.01888   0.03202   0.03366   0.03629
  Beta virt. eigenvalues --    0.03753   0.04046   0.04996   0.05208   0.05471
  Beta virt. eigenvalues --    0.05509   0.05818   0.06937   0.07584   0.08095
  Beta virt. eigenvalues --    0.08111   0.08319   0.08808   0.09107   0.09374
  Beta virt. eigenvalues --    0.10290   0.10455   0.10729   0.10760   0.11259
  Beta virt. eigenvalues --    0.11368   0.12364   0.12659   0.12786   0.13235
  Beta virt. eigenvalues --    0.13838   0.14037   0.14451   0.14497   0.15260
  Beta virt. eigenvalues --    0.16033   0.16241   0.16643   0.16855   0.16991
  Beta virt. eigenvalues --    0.17082   0.17218   0.17438   0.17663   0.17806
  Beta virt. eigenvalues --    0.18203   0.18312   0.18459   0.18941   0.19040
  Beta virt. eigenvalues --    0.19257   0.19720   0.20080   0.20246   0.20393
  Beta virt. eigenvalues --    0.20768   0.20971   0.21399   0.21588   0.22037
  Beta virt. eigenvalues --    0.22213   0.22673   0.22947   0.23181   0.23338
  Beta virt. eigenvalues --    0.23558   0.23849   0.23957   0.24156   0.24427
  Beta virt. eigenvalues --    0.24806   0.25045   0.25230   0.25579   0.25896
  Beta virt. eigenvalues --    0.26225   0.26480   0.26913   0.27543   0.27667
  Beta virt. eigenvalues --    0.28141   0.28554   0.28778   0.28965   0.29266
  Beta virt. eigenvalues --    0.29405   0.29910   0.30442   0.31310   0.31614
  Beta virt. eigenvalues --    0.31810   0.31994   0.32338   0.32825   0.33533
  Beta virt. eigenvalues --    0.33980   0.34410   0.34785   0.35057   0.35566
  Beta virt. eigenvalues --    0.36200   0.37032   0.37560   0.38408   0.39035
  Beta virt. eigenvalues --    0.39261   0.39357   0.40233   0.40574   0.41024
  Beta virt. eigenvalues --    0.42400   0.42768   0.44959   0.45602   0.46402
  Beta virt. eigenvalues --    0.47289   0.47685   0.48170   0.48495   0.48973
  Beta virt. eigenvalues --    0.49650   0.51228   0.51759   0.51994   0.52311
  Beta virt. eigenvalues --    0.53355   0.53546   0.54311   0.54605   0.55120
  Beta virt. eigenvalues --    0.55174   0.55940   0.56409   0.56678   0.57021
  Beta virt. eigenvalues --    0.57419   0.57676   0.58045   0.58839   0.59153
  Beta virt. eigenvalues --    0.59560   0.60136   0.60231   0.60946   0.61201
  Beta virt. eigenvalues --    0.61488   0.62691   0.63108   0.63619   0.64118
  Beta virt. eigenvalues --    0.65049   0.65175   0.65723   0.66830   0.67031
  Beta virt. eigenvalues --    0.67641   0.67843   0.68538   0.68847   0.69349
  Beta virt. eigenvalues --    0.69955   0.70229   0.70670   0.70934   0.71282
  Beta virt. eigenvalues --    0.71798   0.72094   0.72419   0.72935   0.73506
  Beta virt. eigenvalues --    0.73755   0.74339   0.75131   0.75620   0.75898
  Beta virt. eigenvalues --    0.76275   0.76429   0.77034   0.77506   0.78815
  Beta virt. eigenvalues --    0.80870   0.82380   0.82997   0.83475   0.83925
  Beta virt. eigenvalues --    0.84615   0.84960   0.85968   0.86971   0.87320
  Beta virt. eigenvalues --    0.87521   0.88641   0.88905   0.89246   0.90433
  Beta virt. eigenvalues --    0.90964   0.91227   0.92183   0.92824   0.93026
  Beta virt. eigenvalues --    0.93338   0.93723   0.94093   0.94440   0.94567
  Beta virt. eigenvalues --    0.94902   0.95403   0.95587   0.96400   0.96968
  Beta virt. eigenvalues --    0.97931   0.99271   0.99790   1.00284   1.00531
  Beta virt. eigenvalues --    1.01678   1.02002   1.02495   1.03352   1.03750
  Beta virt. eigenvalues --    1.05182   1.05344   1.05967   1.06132   1.07240
  Beta virt. eigenvalues --    1.07597   1.08845   1.10030   1.10685   1.11406
  Beta virt. eigenvalues --    1.11935   1.13567   1.14830   1.15642   1.17409
  Beta virt. eigenvalues --    1.18706   1.19165   1.21038   1.22453   1.23860
  Beta virt. eigenvalues --    1.24706   1.26254   1.28320   1.29306   1.31687
  Beta virt. eigenvalues --    1.33069   1.34535   1.36943   1.38093   1.38710
  Beta virt. eigenvalues --    1.40049   1.40308   1.43270   1.45122   1.45402
  Beta virt. eigenvalues --    1.45930   1.46831   1.48122   1.48614   1.49025
  Beta virt. eigenvalues --    1.49987   1.50437   1.50936   1.51332   1.51472
  Beta virt. eigenvalues --    1.52153   1.53396   1.54847   1.55298   1.56349
  Beta virt. eigenvalues --    1.56493   1.57402   1.57869   1.58371   1.60587
  Beta virt. eigenvalues --    1.61071   1.62090   1.63171   1.64139   1.66004
  Beta virt. eigenvalues --    1.66664   1.67547   1.68137   1.68924   1.69353
  Beta virt. eigenvalues --    1.71332   1.72121   1.72674   1.73473   1.73820
  Beta virt. eigenvalues --    1.74648   1.75235   1.75804   1.77487   1.78386
  Beta virt. eigenvalues --    1.79189   1.79677   1.80799   1.81971   1.82238
  Beta virt. eigenvalues --    1.82531   1.83377   1.83981   1.85151   1.85383
  Beta virt. eigenvalues --    1.86081   1.86661   1.87394   1.87424   1.88720
  Beta virt. eigenvalues --    1.89231   1.89684   1.90554   1.91258   1.92501
  Beta virt. eigenvalues --    1.93530   1.94174   1.94341   1.95118   1.95928
  Beta virt. eigenvalues --    1.96989   1.98232   1.98638   1.99602   2.00875
  Beta virt. eigenvalues --    2.02124   2.02462   2.03064   2.04444   2.04611
  Beta virt. eigenvalues --    2.06239   2.06929   2.08058   2.09845   2.10598
  Beta virt. eigenvalues --    2.11315   2.12406   2.12781   2.14213   2.14904
  Beta virt. eigenvalues --    2.16304   2.18371   2.18625   2.20310   2.21113
  Beta virt. eigenvalues --    2.22936   2.23388   2.24120   2.24441   2.25868
  Beta virt. eigenvalues --    2.27686   2.29287   2.29632   2.32264   2.35764
  Beta virt. eigenvalues --    2.36305   2.37799   2.40712   2.41012   2.41800
  Beta virt. eigenvalues --    2.42396   2.44851   2.45858   2.47453   2.48779
  Beta virt. eigenvalues --    2.50616   2.53535   2.55431   2.56161   2.57533
  Beta virt. eigenvalues --    2.57926   2.59475   2.62156   2.62459   2.64227
  Beta virt. eigenvalues --    2.64996   2.66668   2.68235   2.68931   2.69753
  Beta virt. eigenvalues --    2.70260   2.71306   2.72104   2.72272   2.72870
  Beta virt. eigenvalues --    2.73296   2.74042   2.74935   2.75048   2.75354
  Beta virt. eigenvalues --    2.75954   2.76346   2.76577   2.77317   2.78003
  Beta virt. eigenvalues --    2.78057   2.78745   2.80153   2.80983   2.81729
  Beta virt. eigenvalues --    2.82895   2.83323   2.84450   2.85107   2.86019
  Beta virt. eigenvalues --    2.87352   2.87927   2.89889   2.91232   2.92208
  Beta virt. eigenvalues --    2.92655   2.93454   2.94135   2.98278   3.00649
  Beta virt. eigenvalues --    3.02346   3.02525   3.03627   3.05658   3.08512
  Beta virt. eigenvalues --    3.09632   3.12125   3.13275   3.15125   3.17428
  Beta virt. eigenvalues --    3.18609   3.19182   3.21317   3.22381   3.23681
  Beta virt. eigenvalues --    3.24676   3.28965   3.31232   3.33247   3.36584
  Beta virt. eigenvalues --    3.37582   3.38749   3.40051   3.41643   3.42633
  Beta virt. eigenvalues --    3.42982   3.44893   3.46068   3.47757   3.48971
  Beta virt. eigenvalues --    3.49924   3.52564   3.55405   3.57691   3.60073
  Beta virt. eigenvalues --    3.61101   3.64864   3.66276   3.71088   3.81566
  Beta virt. eigenvalues --    3.82580   3.83955   3.88268   4.02894   4.04874
  Beta virt. eigenvalues --    4.05281   4.05592   4.06287   4.07010   4.11541
  Beta virt. eigenvalues --    4.19660   4.24670   4.27573   4.35157   4.47826
  Beta virt. eigenvalues --    4.73418   4.74478   4.76768   4.79420   4.81237
  Beta virt. eigenvalues --    4.84813   4.88860  23.38107  23.64989  23.73087
  Beta virt. eigenvalues --   23.79489  23.82418  23.83956  23.86419  23.88404
  Beta virt. eigenvalues --   23.93562  23.93858  23.97570  23.98773  24.04040
  Beta virt. eigenvalues --   24.06797  24.08173  24.08577  24.09918  24.10430
  Beta virt. eigenvalues --   24.11886  24.12316  24.16721  24.17749  24.20197
  Beta virt. eigenvalues --   24.20713
          Condensed to atoms (all electrons):
               1          2          3          4          5          6
     1  C   11.935868  -3.488218  -1.356761  -0.464780  -0.565946   2.313578
     2  C   -3.488218  13.513010   1.389712  -0.666052  -0.341188  -1.308357
     3  C   -1.356761   1.389712   8.914355   1.464493   0.089362  -0.171620
     4  C   -0.464780  -0.666052   1.464493  12.271784  -2.195516  -2.429164
     5  C   -0.565946  -0.341188   0.089362  -2.195516  10.688784   0.550442
     6  C    2.313578  -1.308357  -0.171620  -2.429164   0.550442   9.348010
     7  C   -0.521161   0.563376  -0.218662   0.103214   0.140584  -0.380745
     8  C    0.037001  -0.253615   0.037384   0.291449   0.411494  -0.402329
     9  C    0.131218   0.294341  -0.588985  -1.846271  -0.490239   1.057449
    10  C   -0.134600   0.065851  -0.936222  -0.076276  -0.143433   0.502847
    11  C   -0.071005   0.096332   0.039030   0.011885  -0.063826  -0.028974
    12  C   -0.011112  -0.302489  -0.180667  -0.046262   0.113237  -0.152508
    13  C   -0.545058   0.036219   0.798071   0.455720   0.055937  -0.205160
    14  C    0.013565  -0.034577   0.323193  -0.005356   0.050475  -0.042248
    15  C   -0.040678  -0.085488   0.131721   0.011786   0.004211  -0.068659
    16  C   -0.558339   0.020711   0.264563  -0.094672   0.023221  -0.240792
    17  C   -0.023451  -0.608475  -0.700236  -0.005859  -0.042205   0.065566
    18  H   -0.394389   0.546009   0.150425   0.065242  -0.008625  -0.097717
    19  H    0.375955  -0.092652   0.017525  -0.005655  -0.028186  -0.017208
    20  H   -0.003918  -0.019580  -0.013429   0.360100  -0.057754   0.034291
    21  C   -0.250949   0.684091  -1.452211  -1.247805  -1.700373  -0.317896
    22  C    0.085630  -0.438572   0.219823   0.800424   0.241171   0.144439
    23  C    0.229865  -0.202691   0.137512  -0.185962  -0.152559  -0.311263
    24  H   -0.000023  -0.000339  -0.000269  -0.000090  -0.000141   0.003007
    25  H   -0.000056  -0.000727  -0.000222   0.000009   0.000091   0.000310
    26  H    0.000932   0.005817   0.000817  -0.000131  -0.000193  -0.000959
    27  H    0.000037   0.000111  -0.000117  -0.000005  -0.000010   0.000006
    28  C   -0.325950  -1.557069  -0.081213   0.173470  -0.080117  -0.697880
    29  C    0.304803  -2.058641  -1.980614  -0.390180   0.051070  -1.024925
    30  H    0.065504  -0.052699   0.016685   0.020932   0.009765  -0.001061
    31  H    0.000457  -0.009730  -0.016630  -0.001368  -0.000271   0.002912
    32  C   -0.187809   0.369179  -0.679797  -0.485132  -1.681610   0.831014
    33  C   -0.116848  -0.189743   0.364793   0.478918   0.850338  -0.920184
    34  H    0.004061   0.010535  -0.012154   0.017678  -0.103999   0.019516
    35  H   -0.001189   0.001668  -0.003431   0.006867  -0.015771  -0.006049
    36  H    0.000387  -0.000450   0.003412  -0.000731   0.004297  -0.011257
    37  H   -0.000106  -0.000083   0.002469   0.000081   0.000279  -0.002422
               7          8          9         10         11         12
     1  C   -0.521161   0.037001   0.131218  -0.134600  -0.071005  -0.011112
     2  C    0.563376  -0.253615   0.294341   0.065851   0.096332  -0.302489
     3  C   -0.218662   0.037384  -0.588985  -0.936222   0.039030  -0.180667
     4  C    0.103214   0.291449  -1.846271  -0.076276   0.011885  -0.046262
     5  C    0.140584   0.411494  -0.490239  -0.143433  -0.063826   0.113237
     6  C   -0.380745  -0.402329   1.057449   0.502847  -0.028974  -0.152508
     7  C    7.774133  -0.287706  -0.946749   1.073768   0.820598  -0.261437
     8  C   -0.287706   7.038093   0.132270   0.319980   0.033032  -0.196839
     9  C   -0.946749   0.132270   9.019702  -0.695434  -0.789896  -0.420193
    10  C    1.073768   0.319980  -0.695434  11.953537   0.949052  -1.089495
    11  C    0.820598   0.033032  -0.789896   0.949052   8.037983   0.804337
    12  C   -0.261437  -0.196839  -0.420193  -1.089495   0.804337  11.704392
    13  C    0.736928  -0.439185  -0.724891  -1.020606   0.712163  -0.428505
    14  C   -0.484147  -0.726571   0.072604  -0.608667  -1.609872  -1.386644
    15  C   -0.262369  -0.250171  -0.086483  -0.618813  -0.705991  -1.097414
    16  C   -0.511405  -0.186379  -0.478750  -0.769971  -0.588162  -1.096034
    17  C   -0.496185   0.527487  -0.064144   0.195632   0.028028   2.139603
    18  H    0.036658  -0.015176  -0.025752  -0.006681   0.002345  -0.008509
    19  H   -0.005137   0.000910  -0.001230   0.000101  -0.000021  -0.000012
    20  H   -0.001709   0.002057  -0.003217  -0.000141  -0.000043   0.000069
    21  C   -0.077299  -0.806702   1.142581   0.201703  -0.057334   0.023696
    22  C   -0.184424  -0.093930   0.765330   0.444934  -0.320803  -0.229879
    23  C   -1.639311   0.508941   2.454960  -2.925575  -1.741801  -0.442553
    24  H   -0.017068   0.020538  -0.005081  -0.046553   0.341615  -0.048250
    25  H   -0.007182   0.004452   0.001462   0.049188   0.099455  -0.098261
    26  H   -0.003319   0.001884  -0.000185  -0.002454  -0.003196  -0.021472
    27  H    0.004068   0.001893   0.000143   0.003665   0.008394   0.050318
    28  C    0.765402  -0.235973  -0.024922  -0.236636  -0.065296  -1.266706
    29  C    0.359155   0.122450   0.094322   0.144801  -0.078543  -0.121851
    30  H   -0.000953  -0.001015   0.002250  -0.000249   0.000206  -0.001104
    31  H   -0.010224   0.005165   0.000108   0.001446   0.000650   0.020545
    32  C    0.246180  -1.095612  -0.655219   0.582870   0.222545  -0.049270
    33  C   -0.090350   1.407816  -1.434581  -1.427733  -0.019907  -0.382638
    34  H    0.003869  -0.001215  -0.001524   0.002178   0.000213   0.000109
    35  H    0.003637  -0.010647   0.016810   0.009952  -0.000046  -0.000316
    36  H   -0.002188  -0.000699   0.043334  -0.029590   0.001848   0.003349
    37  H   -0.003320   0.030984  -0.016613  -0.080602   0.062811   0.018698
              13         14         15         16         17         18
     1  C   -0.545058   0.013565  -0.040678  -0.558339  -0.023451  -0.394389
     2  C    0.036219  -0.034577  -0.085488   0.020711  -0.608475   0.546009
     3  C    0.798071   0.323193   0.131721   0.264563  -0.700236   0.150425
     4  C    0.455720  -0.005356   0.011786  -0.094672  -0.005859   0.065242
     5  C    0.055937   0.050475   0.004211   0.023221  -0.042205  -0.008625
     6  C   -0.205160  -0.042248  -0.068659  -0.240792   0.065566  -0.097717
     7  C    0.736928  -0.484147  -0.262369  -0.511405  -0.496185   0.036658
     8  C   -0.439185  -0.726571  -0.250171  -0.186379   0.527487  -0.015176
     9  C   -0.724891   0.072604  -0.086483  -0.478750  -0.064144  -0.025752
    10  C   -1.020606  -0.608667  -0.618813  -0.769971   0.195632  -0.006681
    11  C    0.712163  -1.609872  -0.705991  -0.588162   0.028028   0.002345
    12  C   -0.428505  -1.386644  -1.097414  -1.096034   2.139603  -0.008509
    13  C    8.063139  -0.231862   0.786277   0.998263  -1.237925   0.013909
    14  C   -0.231862  10.358380   1.123623   1.436421  -1.726336   0.000278
    15  C    0.786277   1.123623   7.297928  -0.043173   0.418626   0.003146
    16  C    0.998263   1.436421  -0.043173  11.020285  -1.854051  -0.002045
    17  C   -1.237925  -1.726336   0.418626  -1.854051  10.818675  -0.013944
    18  H    0.013909   0.000278   0.003146  -0.002045  -0.013944   0.951004
    19  H    0.003075  -0.000014  -0.000026   0.004355   0.000406  -0.002865
    20  H   -0.000275  -0.000002  -0.000003   0.000552   0.000059  -0.000541
    21  C   -0.137588  -0.002276  -0.004105   0.083610   0.016395  -0.018975
    22  C   -0.121504  -0.140401  -0.014877   0.052529   0.034959  -0.002095
    23  C   -1.169052   0.143614  -0.170701  -0.201937   0.036178  -0.004513
    24  H   -0.029352   0.045187   0.015963  -0.003061   0.008928  -0.000000
    25  H    0.006636   0.384952  -0.065351  -0.018583  -0.027812  -0.000000
    26  H    0.012607  -0.039647  -0.017020  -0.154260   0.398548   0.000001
    27  H   -0.003725  -0.052404   0.371872   0.014943  -0.063057  -0.000000
    28  C    0.127474  -0.370702  -0.155356  -0.485035  -1.641906  -0.011813
    29  C   -0.712175  -0.061086  -0.063068  -0.875436  -0.364657  -0.202215
    30  H   -0.008667  -0.000215  -0.000221  -0.016825  -0.009722  -0.003976
    31  H   -0.014879   0.000704   0.041692  -0.095600   0.169054  -0.000371
    32  C   -0.024337  -0.002983   0.004009  -0.008801  -0.020447   0.002752
    33  C    0.357351  -0.135476  -0.008201  -0.107510  -0.005736   0.000886
    34  H   -0.000124   0.000006   0.000001  -0.000031  -0.000009  -0.000001
[...]
 0.00060395,-0.00346902,-0.00220686,-0.00256270,0.00461722,0.00663825,0
 .00003562,-0.02140711,0.00693386,0.00068840,0.03364985,-0.01990199,0.0
 0157032,-0.05449279,-0.02454153,-0.00514923,0.01816368,0.00138467,-0.0
 0119822,-0.00630027,-0.00894406,-0.00017559,-0.00668550,0.00259450,0.0
 0078932,0.00489406,0.00091335,-0.00040198,-0.00071547,-0.00453547,0.00
 011092,0.00266411,0.00148281,-0.00060839,-0.00288763,0.00228681,0.0003
 1773,-0.00014906,0.00009664,-0.00044266,0.00006702,-0.00001444,0.00006
 643,-0.00004106,-0.00007896,-0.00002474,-0.00683314,-0.00899978,-0.002
 17369,-0.11411940,0.00951966,-0.00669219,-0.34860630,0.08117394,-0.010
 56021,0.00000452,0.00036227,0.00027226,-0.00001945,0.00010570,0.000038
 07,-0.00009384,0.00000242,0.00002086,-0.00005881,-0.00011284,0.0000008
 4,-0.00038712,0.00042013,-0.00003848,0.00016995,-0.00061892,-0.0000828
 3,-0.00000506,-0.00003453,0.00000329,0.00001974,-0.00007069,0.00001749
 ,-0.00837741,0.03701952,0.00252245,0.68979774,-0.00152058,-0.00065869,
 -0.00032735,0.00002080,-0.00052864,-0.00052157,-0.00032877,-0.00130418
 ,0.00016013,0.00142681,0.00205436,0.00020136,-0.00695277,-0.00480348,-
 0.00072462,-0.00245104,-0.00234508,-0.00102271,-0.00560724,-0.00524118
 ,0.00073598,0.01779577,-0.00410355,-0.00111691,-0.02784334,-0.04495397
 ,-0.00742689,-0.00207030,0.02858777,0.00296969,-0.01428808,-0.00852199
 ,-0.00076823,0.00410193,0.00850191,0.00035398,0.00712863,-0.00214489,-
 0.00090676,-0.00437835,-0.00174018,0.00045507,0.00066593,0.00420927,-0
 .00012854,-0.00307619,-0.00170716,0.00042722,0.00284878,-0.00279731,-0
 .00024920,0.00018687,-0.00009277,0.00038303,0.00001238,0.00002771,-0.0
 0001241,0.00001809,0.00002012,-0.00001084,0.00208227,0.01376390,-0.000
 14742,0.03165619,-0.21778794,-0.01316927,0.03568448,-0.13726956,-0.007
 84238,-0.00030861,-0.00013502,-0.00020241,0.00004059,-0.00006817,-0.00
 004003,0.00007173,-0.00002268,0.00001343,-0.00002632,0.00003296,-0.000
 00818,0.00008168,0.00007089,0.00004051,-0.00000806,-0.00006098,0.00013
 733,-0.00002051,-0.00000534,-0.00000940,0.00000174,0.00003098,-0.00000
 686,0.01698115,-0.01647894,0.00132296,0.05136392,0.60171365,0.00014995
 ,0.00002039,0.00010591,-0.00023336,0.00022980,-0.00011780,0.00006242,-
 0.00068046,-0.00034343,0.00020210,-0.00021139,-0.00072331,0.00006616,-
 0.00006268,-0.00094819,-0.00179249,0.00038118,0.00625918,-0.00030336,0
 .00006948,-0.00052469,0.00028850,-0.00007671,-0.00228669,-0.00074426,-
 0.01016017,0.00542693,-0.00299334,0.00199109,0.00387346,-0.00035684,-0
 .00144164,0.00343950,-0.00003124,0.00037410,0.00051404,0.00026690,-0.0
 0004550,-0.00019439,-0.00016223,-0.00012505,-0.00049033,-0.00001000,0.
 00014219,0.00007020,-0.00002468,-0.00006075,0.00028655,0.00007397,-0.0
 0011588,-0.00011015,-0.00000307,-0.00000588,-0.00000268,0.00000626,0.0
 0000057,0.00000149,-0.00001287,-0.00001273,0.00007500,-0.00196674,0.00
 009994,0.00429782,-0.00228359,-0.01572777,-0.06252918,-0.01812175,-0.0
 0423179,-0.06040486,-0.00005509,0.00002259,-0.00018581,-0.00000513,0.0
 0000236,0.00001109,-0.00000098,-0.00000507,-0.00000836,-0.00000067,-0.
 00000587,0.00005510,-0.00006252,0.00004055,-0.00006534,0.00003048,-0.0
 0006209,-0.00001249,-0.00001016,-0.00001189,-0.00002035,-0.00000159,-0
 .00000344,0.00000287,0.00033101,0.00497872,0.00003942,0.05224841,0.055
 89980,0.14325478,0.00003726,-0.00027334,0.00004176,-0.00005982,-0.0000
 1997,-0.00003145,-0.00001492,0.00107332,-0.00045594,0.00103722,0.00077
 954,0.00047758,-0.01729383,0.01177554,-0.00427171,-0.00274331,-0.00425
 956,-0.00081536,-0.00048260,-0.00014375,0.00001983,-0.00010260,0.00014
 647,0.00006049,0.00035855,-0.00064854,0.00027250,-0.00003441,-0.000075
 65,-0.00002301,-0.00000894,0.00001935,0.00000122,-0.00008288,0.0000490
 5,0.00001692,0.00011348,0.00011317,0.00005563,0.00004841,0.00004380,-0
 .00002226,0.00000637,-0.00005496,0.00000426,0.00004756,-0.00007532,0.0
 0000599,-0.00005320,0.00001791,0.00000026,0.00002779,-0.00000315,0.000
 01356,-0.00003253,-0.00004333,-0.00002488,-0.00007589,-0.00092087,0.00
 009648,-0.28349163,0.09597722,-0.04831451,0.00187751,-0.00021642,-0.00
 126623,0.00008540,0.00007430,0.00009313,-0.00000861,0.00000694,0.00000
 193,-0.00000515,0.00000639,0.00000102,-0.00000336,-0.00000436,-0.00000
 135,-0.00000825,0.00000021,0.00000165,-0.00005916,0.00003905,0.0000100
 3,0.00013794,-0.00001397,0.00004710,-0.00002313,-0.00002650,-0.0000034
 5,-0.00001037,-0.00000149,-0.00000625,0.00017649,-0.00097032,-0.000589
 58,-0.00000852,-0.00006872,-0.00012245,0.29986926,0.00046905,-0.000037
 25,0.00003921,-0.00018368,0.00022357,-0.00009135,-0.00052640,0.0007224
 9,-0.00020402,0.00019117,0.00126008,-0.00016672,-0.01742538,0.01142765
 ,-0.00377120,-0.00347686,-0.00240292,-0.00030966,-0.00032767,-0.000119
 77,0.00005127,-0.00005614,0.00016736,-0.00001796,-0.00055631,-0.000660
 28,-0.00006722,-0.00013265,-0.00012151,-0.00000786,0.00001031,0.000062
 25,0.00001109,-0.00008495,0.00001417,0.00000690,0.00007747,0.00010145,
 -0.00001278,0.00006579,0.00004825,-0.00000804,-0.00000018,-0.00006656,
 0.00000112,0.00005732,-0.00008507,0.00000024,-0.00004698,0.00003998,0.
 00000311,0.00001035,0.00001490,0.00006207,0.00001615,-0.00000253,0.000
 00584,0.00057143,-0.00030132,0.00014473,0.09402048,-0.09762285,0.01901
 718,-0.00059763,-0.00550536,-0.00024091,0.00010437,-0.00049704,-0.0000
 7020,-0.00000113,-0.00000407,-0.00000127,-0.00000244,-0.00000153,0.000
 00180,0.00000020,0.00000329,-0.00000064,0.00000323,-0.00000093,0.00000
 025,-0.00006194,0.00007973,0.00000159,0.00012995,-0.00004513,0.0000188
 4,-0.00001143,-0.00000845,0.00000288,0.00000305,0.00000143,-0.00000225
 ,0.02911692,-0.00936109,0.00569622,0.00123546,0.00049647,0.00025281,-0
 .10253895,0.10143093,-0.00036862,-0.00003901,-0.00019134,0.00026740,-0
 .00005882,0.00007982,-0.00028853,0.00036077,0.00066211,0.00089260,0.00
 008050,-0.00237785,-0.00474081,0.00106654,0.00129527,-0.00075282,-0.00
 106419,0.00456760,0.00002567,-0.00013159,0.00018791,-0.00003295,0.0001
 3139,-0.00054893,0.00054675,0.00020909,-0.00086296,0.00001224,-0.00001
 251,0.00014360,0.00000838,0.00000961,0.00000873,0.00003596,-0.00004424
 ,-0.00001272,-0.00014722,0.00003714,-0.00029041,-0.00004992,-0.0000054
 6,0.00005846,0.00002277,0.00004723,-0.00000458,-0.00000981,0.00007335,
 0.00000508,0.00003087,-0.00002642,-0.00000248,0.00001094,-0.00001557,-
 0.00007399,-0.00002499,0.00001009,0.00012980,-0.00008130,-0.00014353,0
 .00030015,-0.04786811,0.02090535,-0.04355111,-0.00124074,-0.00002878,0
 .00784177,0.00003867,0.00014172,-0.00041480,0.00000110,-0.00000112,-0.
 00000394,0.00000072,0.00000050,0.00000152,0.00000241,-0.00000009,0.000
 00237,-0.00000200,0.00000206,-0.00000347,0.00007751,-0.00011142,-0.000
 02598,-0.00010369,0.00003423,0.00002767,-0.00000439,-0.00000013,0.0000
 2691,-0.00000299,0.00000123,-0.00000046,-0.00069454,-0.00111022,0.0030
 9911,-0.00027094,-0.00010402,0.00044185,0.05349539,-0.02031693,0.03450
 531,0.00016725,0.00001844,0.00012376,-0.00008791,0.00013151,-0.0000460
 4,-0.00006785,-0.00017613,0.00008629,0.00018884,-0.00004637,-0.0000620
 2,0.00147389,0.00161928,-0.00139607,0.00017733,0.00086394,0.00019317,-
 0.00058684,0.00024107,0.00001471,-0.00005202,-0.00136343,-0.00039657,-
 0.00439020,0.00379007,-0.00109219,0.00009192,-0.00003644,0.00000779,-0
 .00001207,0.00004637,0.00002032,-0.00001679,0.00004514,0.00001110,0.00
 011476,-0.00016948,0.00003067,0.00003623,-0.00001470,-0.00000289,-0.00
 004595,-0.00000344,0.00000548,-0.00006190,-0.00000230,0.00001353,-0.00
 000131,-0.00002165,-0.00000020,0.00000177,0.00000977,0.00001680,0.0000
 2212,0.00001119,0.00001058,0.00000592,-0.00002464,-0.00002361,0.005047
 72,0.00368122,0.00039629,-0.01670326,-0.01731516,-0.00448838,-0.000126
 88,0.00027581,0.00004898,-0.00003598,0.00001587,-0.00000003,-0.0000075
 9,0.00000842,-0.00000152,-0.00001260,-0.00000650,-0.00000392,-0.000006
 21,-0.00000088,0.00000081,-0.00003304,0.00005695,0.00000507,0.00003433
 ,-0.00002708,-0.00001117,-0.00000382,-0.00001057,0.00000155,-0.0000067
 8,-0.00000742,0.00000148,-0.24173773,-0.12448160,-0.04106499,0.0012912
 7,-0.00092017,0.00040558,0.00078098,-0.00018153,0.00123345,0.25476801,
 -0.00013487,-0.00049106,0.00009543,0.00019606,-0.00011699,0.00006113,-
 0.00000944,0.00016247,-0.00001168,-0.00124213,0.00027938,-0.00026228,0
 .00197602,-0.00505854,0.00034495,0.00054755,-0.00040122,0.00011331,0.0
 0022089,-0.00020368,-0.00000351,0.00048055,0.00069870,0.00010615,0.003
 23608,-0.00081210,0.00033208,0.00004310,0.00019069,0.00003390,-0.00008
 678,-0.00005103,-0.00000113,0.00005531,0.00003456,0.00000444,-0.000014
 17,0.00008972,-0.00000820,-0.00006873,-0.00001647,0.00000167,0.0000210
 4,0.00005101,-0.00000014,-0.00000213,0.00002133,-0.00000475,0.00002590
 ,-0.00002022,-0.00000276,-0.00000272,-0.00000254,-0.00003006,-0.000142
 29,-0.00006085,-0.00000732,0.00003480,-0.00003598,0.00000540,-0.026361
 03,-0.01424515,-0.00538697,0.01149979,0.01147104,0.00256201,-0.0003002
 3,-0.00004434,-0.00003119,0.00000644,-0.00000004,-0.00000136,0.0000003
 8,0.00000224,-0.00000102,0.00000387,-0.00000277,-0.00000078,-0.0000048
 5,0.00000202,0.00000021,0.00003295,-0.00006309,0.00000462,-0.00003737,
 0.00004524,-0.00001497,0.00000344,-0.00000257,0.00000048,-0.00000785,0
 .00000212,0.00000180,-0.12229112,-0.14059971,-0.02546465,-0.00033516,0
 .00112930,0.00010912,0.00020583,0.00082410,0.00009452,0.13300918,0.147
 45827,-0.00000179,-0.00017960,-0.00057064,0.00009660,-0.00005429,0.000
 10509,-0.00004313,-0.00004960,-0.00058092,-0.00020826,0.00015328,0.000
 34825,-0.00128525,0.00000486,0.00803614,0.00048690,-0.00007951,-0.0007
 1703,-0.00003766,0.00007110,-0.00006213,-0.00019323,-0.00039148,0.0003
 5541,-0.00104492,0.00111588,0.00473900,0.00022572,0.00004472,-0.000092
 32,-0.00011994,-0.00004450,0.00002616,0.00013045,0.00001338,-0.0000385
 3,-0.00008628,-0.00003485,-0.00008055,-0.00012482,-0.00004569,0.000008
 54,0.00000899,0.00012058,-0.00001797,-0.00007206,0.00009192,0.00000714
 ,0.00008843,-0.00006737,0.00000002,-0.00000248,0.00001652,0.00003842,-
 0.00000849,-0.00001384,-0.00004780,-0.00002167,0.00001562,0.00014517,-
 0.00019098,0.00147811,0.00331101,-0.00470087,-0.00253759,0.00178371,-0
 .00019371,0.00000660,-0.00014123,-0.00000583,0.00000145,0.00001373,-0.
 00000166,0.00000012,0.00000952,0.00000159,-0.00000200,0.00002393,-0.00
 000099,0.00000208,0.00000200,0.00006611,-0.00009291,-0.00001234,-0.000
 09520,0.00001769,0.00008516,-0.00000199,0.00000017,-0.00000549,-0.0000
 0108,-0.00000250,-0.00000284,-0.04043514,-0.02721578,-0.04315952,0.000
 73421,0.00001966,-0.00209748,0.00123273,-0.00001398,-0.00504847,0.0459
 0002,0.02746512,0.03329526,0.00001765,0.00002267,0.00001811,0.00008747
 ,0.00002066,-0.00001938,-0.00010882,0.00009791,0.00001186,-0.00002168,
 -0.00003758,-0.00000112,0.00018893,-0.00002967,0.00004266,0.00053468,0
 .00039704,0.00004776,0.00019383,0.00004720,0.00002174,-0.00021071,0.00
 044015,0.00009665,0.00002179,0.00245078,-0.00005127,-0.00393098,0.0032
 2060,-0.00064807,-0.00001352,-0.00132684,-0.00018828,-0.00043276,0.000
 09985,0.00016513,-0.00011548,0.00004758,-0.00001161,0.00003989,-0.0001
 5305,0.00000363,-0.00008220,-0.00002602,0.00000098,0.00003285,0.000057
 73,-0.00001521,-0.00003310,0.00003202,0.00000038,-0.00000116,0.0000000
 6,-0.00001421,-0.00000168,-0.00000599,-0.00000189,0.00000446,0.0000018
 0,-0.00000159,-0.00006452,-0.00027992,-0.00000308,0.00978028,0.0075748
 4,0.00161994,-0.01791698,-0.02308854,-0.00448364,-0.00003599,0.0000508
 7,-0.00002406,0.00000034,0.00001303,0.00000253,-0.00000566,-0.00000819
 ,0.00000317,-0.00001685,-0.00001457,-0.00000106,0.00002062,-0.00001145
 ,0.00000393,-0.00003806,0.00001468,0.00001071,0.00000641,-0.00000358,-
 0.00000368,-0.00000384,-0.00000844,0.00000154,0.00096539,-0.00034715,0
 .00026003,-0.18072302,-0.13285175,-0.02801713,0.00000373,-0.00002453,-
 0.00000408,-0.00016606,-0.00053620,-0.00007973,0.19123896,-0.00000169,
 -0.00006170,0.00000741,-0.00016299,0.00005456,0.00004699,0.00015082,-0
 .00055755,0.00002432,0.00004536,0.00003068,0.00002329,0.00002885,0.000
 06925,-0.00000532,-0.00148554,0.00011339,-0.00045205,-0.00030828,-0.00
 009381,0.00004083,0.00087104,0.00010820,0.00014378,0.00323966,-0.00551
 105,-0.00026363,0.00260072,0.00035397,-0.00098225,-0.00011475,0.000425
 62,0.00000174,0.00017035,0.00013070,0.00010057,0.00020576,-0.00005907,
 -0.00003996,-0.00004818,0.00003596,0.00001587,0.00000031,0.00006918,-0
 .00001249,-0.00005649,-0.00005424,0.00001808,0.00005203,-0.00002530,-0
 .00000571,0.00000198,0.00000222,-0.00000167,0.00000174,-0.00000983,-0.
 00000539,0.00000801,-0.00003725,0.00000671,0.00024392,-0.00016414,0.00
 004237,-0.02144436,-0.01531281,-0.00439321,0.00756010,0.00822243,0.001
 14155,-0.00001864,-0.00000103,-0.00003336,-0.00000707,0.00000307,0.000
 00219,-0.00000123,-0.00000321,0.00000122,-0.00000057,0.00000606,-0.000
 00257,-0.00001141,-0.00001782,0.00000269,0.00003501,-0.00001417,-0.000
 00031,-0.00002195,-0.00001729,0.00000214,-0.00001032,0.00000175,-0.000
 00105,-0.00082140,0.00150682,0.00004519,-0.13553635,-0.20309873,-0.030
 48403,0.00003110,-0.00004595,-0.00000196,0.00094572,-0.00023477,0.0001
 9815,0.14399773,0.21321308,0.00002574,0.00002534,-0.00000671,-0.000022
 96,-0.00002691,-0.00007179,0.00006865,-0.00005515,-0.00001364,-0.00003
 618,-0.00004442,0.00004658,0.00012291,0.00013032,-0.00005845,-0.000264
 64,-0.00008224,0.00029423,-0.00000650,0.00004090,-0.00056644,-0.000116
 33,0.00040121,-0.00060437,0.00059119,-0.00050545,0.00392117,-0.0007588
 9,-0.00071250,0.00921215,0.00002535,-0.00027843,0.00034811,-0.00018855
 ,0.00001965,-0.00094200,-0.00006897,0.00003301,0.00018740,0.00001608,-
 0.00001677,-0.00008788,-0.00000967,-0.00002587,0.00009024,0.00004562,0
 .00002146,0.00007496,-0.00002501,0.00002920,-0.00001037,-0.00000428,0.
 00000544,-0.00001117,0.00000017,-0.00000298,-0.00000184,-0.00000010,-0
 .00000322,0.00000613,-0.00003425,-0.00022727,-0.00016712,-0.00146799,-
 0.00284849,0.00204919,0.00013665,-0.00162008,0.00345684,0.00002186,-0.
 00001742,0.00027587,-0.00000031,0.00000181,-0.00001797,-0.00000242,-0.
 00000183,-0.00001841,-0.00000066,-0.00000253,0.00001953,0.00000208,-0.
 00000729,-0.00000403,-0.00000343,0.00000031,0.00000676,-0.00000096,0.0
 0000032,0.00001155,-0.00000112,-0.00000089,-0.00000395,0.00019782,0.00
 044062,-0.00158803,-0.02949028,-0.02939675,-0.04096580,-0.00001333,-0.
 00000632,0.00008511,0.00008626,-0.00010022,0.00020402,0.03071331,0.033
 93500,0.03072656,0.00006648,-0.00002259,0.00000440,0.00008058,0.000051
 10,0.00001605,-0.00024346,-0.00032989,0.00000030,0.00000611,-0.0000881
 0,0.00001417,-0.00018732,-0.00000524,-0.00002891,0.00023930,-0.0001763
 5,0.00004388,0.00070048,-0.00075478,-0.00018999,-0.00369283,-0.0031219
 1,-0.00043884,-0.00073440,-0.00024224,-0.00000072,0.00965866,-0.021986
 95,-0.00257308,0.00148313,0.00018037,0.00001049,-0.00002443,0.00036139
 ,0.00002265,0.00029376,-0.00003711,-0.00002536,-0.00005817,-0.00003488
 ,-0.00000550,0.00001537,0.00005355,0.00000132,-0.00007231,0.00002797,0
 .00001955,0.00001559,-0.00007757,-0.00000280,0.00000345,0.00000277,0.0
 0001207,0.00001794,-0.00000466,0.00000111,-0.00000433,-0.00000173,-0.0
 0000187,-0.00042792,0.00017953,-0.00006619,-0.00534105,0.00032957,-0.0
 0106292,-0.07233572,0.06145169,0.00556366,-0.00031485,0.00066722,0.000
 08110,-0.00001925,-0.00000098,-0.00000022,-0.00000410,0.00000360,-0.00
 000046,0.00000101,0.00000192,0.00000062,-0.00000351,0.00002973,-0.0000
 0506,0.00001145,-0.00001071,-0.00000217,-0.00000111,-0.00000054,0.0000
 0029,0.00000085,0.00000080,0.00000081,0.00065082,0.00120083,0.00021197
 ,-0.00519627,0.03055103,0.00318381,-0.00000484,0.00015408,-0.00001438,
 -0.00003952,-0.00002210,-0.00001458,0.00078578,-0.00013900,0.00046316,
 0.07467461,0.00004641,-0.00001690,0.00002595,0.00008214,0.00006572,0.0
 0003925,-0.00019348,-0.00040325,0.00000542,-0.00001561,-0.00007391,0.0
 0000679,-0.00011025,0.00006347,-0.00002554,0.00014890,-0.00019323,0.00
 002792,0.00092446,-0.00014900,-0.00030013,-0.00414253,-0.00150114,-0.0
 0031811,-0.00044799,0.00064584,0.00018558,0.00738515,-0.01577843,-0.00
 215249,0.00070169,0.00096950,0.00016967,-0.00035439,0.00003492,0.00002
 854,-0.00000048,0.00003751,0.00001048,0.00008995,-0.00007205,-0.000012
 93,-0.00003188,-0.00006218,0.00000503,-0.00002227,0.00007345,0.0000135
 0,-0.00007172,-0.00003120,0.00000765,0.00000168,-0.00000026,-0.0000206
 1,0.00001451,-0.00001693,-0.00000806,0.00000678,-0.00000792,0.00000033
 ,0.00017448,0.00005758,0.00010284,0.00094904,0.00168915,-0.00084592,0.
 06415125,-0.31442727,-0.02934257,-0.00089916,-0.00000007,0.00008534,-0
 .00001852,0.00002024,-0.00000126,-0.00001136,-0.00000448,0.00000050,-0
 .00001616,-0.00000576,0.00000098,-0.00000498,0.00001385,-0.00000183,0.
 00001008,0.00000993,0.00001006,-0.00000305,-0.00001195,-0.00000047,-0.
 00000880,-0.00000637,-0.00000107,-0.00015739,-0.00021270,-0.00011993,-
 0.00019249,-0.00476886,-0.00108391,-0.00000002,-0.00002850,0.00001068,
 0.00003954,0.00000096,-0.00001153,0.00016628,0.00097275,0.00089841,-0.
 06818982,0.33311751,-0.00006088,0.00003372,-0.00004538,0.00005628,-0.0
 0008582,-0.00023904,-0.00007484,-0.00001236,0.00023320,0.00004394,0.00
 005526,0.00002654,-0.00005195,-0.00005418,0.00016116,0.00012342,-0.000
 05861,-0.00061307,0.00027920,-0.00022829,0.00048703,-0.00097936,-0.000
 36857,0.00358641,0.00022256,0.00032221,-0.00084347,0.00019875,-0.00405
 341,0.00200672,0.00033712,0.00048861,-0.00178498,-0.00013113,-0.000166
 31,-0.00020233,-0.00007149,0.00010142,-0.00002893,0.00008437,0.0000049
 9,0.00001935,-0.00001454,-0.00006904,0.00001555,0.00002953,0.00003840,
 0.00005417,-0.00003938,0.00003015,-0.00001927,-0.00000192,-0.00000272,
 -0.00001410,-0.00001154,0.00001204,0.00008193,-0.00000052,0.00000301,0
 .00000048,0.00018980,0.00005764,-0.00056660,-0.00091177,-0.00079476,0.
 00892994,0.00702412,-0.02952146,-0.03772730,-0.00011375,0.00001512,0.0
 0030719,-0.00000326,0.00000240,0.00001183,-0.00000362,-0.00000098,-0.0
 0000066,-0.00000275,-0.00000196,0.00000085,0.00000549,0.00000185,-0.00
 000320,-0.00001210,-0.00000605,0.00000119,0.00000192,-0.00000115,0.000
 00062,0.00000005,-0.00000243,0.00000365,-0.00006272,-0.00024640,0.0004
 3070,-0.00136396,0.00102261,0.00387613,0.00001229,-0.00000786,-0.00005
 667,-0.00002409,-0.00000333,0.00013757,0.00054503,0.00088484,-0.005876
 43,-0.00521832,0.03261144,0.02764922\\-0.00000743,0.00000222,0.0000023
 4,0.00000568,-0.00000691,0.00001075,0.00000382,-0.00000391,-0.00001743
 ,0.00000188,0.00000617,0.00000777,-0.00000166,-0.00000268,-0.00000058,
 0.00000025,-0.00000020,-0.00000241,-0.00000294,0.00000188,0.00001129,0
 .00000093,-0.00000167,-0.00000087,-0.00000101,0.00000019,-0.00000447,-
 0.00000252,0.00000007,0.00000126,0.00000020,-0.00000073,-0.00000482,-0
 .00000066,0.00000050,-0.00000236,0.00000277,-0.00000045,-0.00000059,0.
 00000064,-0.00000051,0.00000122,-0.00000061,-0.00000179,-0.00000090,0.
 00000125,-0.00000256,0.00000774,-0.00000012,0.00000034,0.00000036,-0.0
 0000240,0.00000552,-0.00000365,0.00000118,0.00000083,0.00000163,0.0000
 0108,0.00000065,-0.00000096,0.00000091,0.00000166,-0.00000306,0.000000
 49,-0.00000052,-0.00000031,0.00000012,0.00000066,-0.00000202,-0.000000
 57,-0.00000045,0.00000041,-0.00000058,-0.00000086,0.00000004,0.0000001
 2,-0.00000110,-0.00000097,-0.00000016,-0.00000120,-0.00000105,-0.00000
 245,0.00000091,-0.00000686,0.00000406,-0.00000058,-0.00000071,0.000000
 83,0.00000021,-0.00000007,0.00000087,-0.00000063,0.00000036,-0.0000003
 8,0.00000105,0.00000152,-0.00000158,0.00000058,0.00000853,-0.00000008,
 0.00000091,0.00000050,-0.00000062,0.00000115,0.00000091,-0.00000052,0.
 00000094,-0.00000155,-0.00000079,0.00000030,-0.00000094\\\@


 LIFE IS SO UNCERTAIN - EAT DESSERT FIRST.
 Job cpu time:       0 days 17 hours 58 minutes 16.9 seconds.
 Elapsed time:       0 days  0 hours 53 minutes 54.4 seconds.
 File lengths (MBytes):  RWF=   2401 Int=      0 D2E=      0 Chk=     42 Scr=      1
 Normal termination of Gaussian 16 at Fri Mar 29 16:33:54 2019.
