 Entering Gaussian System, Link 0=/share/apps/gaussian16/g16/g16
 Initial command:
 /share/apps/gaussian16/g16/l1.exe "/home/am2145//scratch/3609/Gau-26275.inp" -scrdir="/home/am2145//scratch/3609/"
 Entering Link 1 = /share/apps/gaussian16/g16/l1.exe PID=     26276.
  
 Copyright (c) 1988,1990,1992,1993,1995,1998,2003,2009,2016,
            Gaussian, Inc.  All Rights Reserved.
  
 This is part of the Gaussian(R) 16 program.  It is based on
 the Gaussian(R) 09 system (copyright 2009, Gaussian, Inc.),
 the Gaussian(R) 03 system (copyright 2003, Gaussian, Inc.),
 the Gaussian(R) 98 system (copyright 1998, Gaussian, Inc.),
 the Gaussian(R) 94 system (copyright 1995, Gaussian, Inc.),
 the Gaussian 92(TM) system (copyright 1992, Gaussian, Inc.),
 the Gaussian 90(TM) system (copyright 1990, Gaussian, Inc.),
 the Gaussian 88(TM) system (copyright 1988, Gaussian, Inc.),
 the Gaussian 86(TM) system (copyright 1986, Carnegie Mellon
 University), and the Gaussian 82(TM) system (copyright 1983,
 Carnegie Mellon University). Gaussian is a federally registered
 trademark of Gaussian, Inc.
  
 This software contains proprietary and confidential information,
 including trade secrets, belonging to Gaussian, Inc.
  
 This software is provided under written license and may be
 used, copied, transmitted, or stored only in accord with that
 written license.
  
 The following legend is applicable only to US Government
 contracts under FAR:
  
                    RESTRICTED RIGHTS LEGEND
  
 Use, reproduction and disclosure by the US Government is
 subject to restrictions as set forth in subparagraphs (a)
 and (c) of the Commercial Computer Software - Restricted
 Rights clause in FAR 52.227-19.
  
 Gaussian, Inc.
 340 Quinnipiac St., Bldg. 40, Wallingford CT 06492
  
  
 ---------------------------------------------------------------
 Warning -- This program may not be used in any manner that
 competes with the business of Gaussian, Inc. or will provide
 assistance to any competitor of Gaussian, Inc.  The licensee
 of this program is prohibited from giving any competitor of
 Gaussian, Inc. access to this program.  By using this program,
 the user acknowledges that Gaussian, Inc. is engaged in the
 business of creating and licensing software in the field of
 computational chemistry and represents and warrants to the
 licensee that it is not a competitor of Gaussian, Inc. and that
 it will not use this program in any manner prohibited above.
 ---------------------------------------------------------------
  

 Cite this work as:
 Gaussian 16, Revision A.03,
 M. J. Frisch, G. W. Trucks, H. B. Schlegel, G. E. Scuseria, 
 M. A. Robb, J. R. Cheeseman, G. Scalmani, V. Barone, 
 G. A. Petersson, H. Nakatsuji, X. Li, M. Caricato, A. V. Marenich, 
 J. Bloino, B. G. Janesko, R. Gomperts, B. Mennucci, H. P. Hratchian, 
 J. V. Ortiz, A. F. Izmaylov, J. L. Sonnenberg, D. Williams-Young, 
 F. Ding, F. Lipparini, F. Egidi, J. Goings, B. Peng, A. Petrone, 
 T. Henderson, D. Ranasinghe, V. G. Zakrzewski, J. Gao, N. Rega, 
 G. Zheng, W. Liang, M. Hada, M. Ehara, K. Toyota, R. Fukuda, 
 J. Hasegawa, M. Ishida, T. Nakajima, Y. Honda, O. Kitao, H. Nakai, 
 T. Vreven, K. Throssell, J. A. Montgomery, Jr., J. E. Peralta, 
 F. Ogliaro, M. J. Bearpark, J. J. Heyd, E. N. Brothers, K. N. Kudin, 
 V. N. Staroverov, T. A. Keith, R. Kobayashi, J. Normand, 
 K. Raghavachari, A. P. Rendell, J. C. Burant, S. S. Iyengar, 
 J. Tomasi, M. Cossi, J. M. Millam, M. Klene, C. Adamo, R. Cammi, 
 J. W. Ochterski, R. L. Martin, K. Morokuma, O. Farkas, 
 J. B. Foresman, and D. J. Fox, Gaussian, Inc., Wallingford CT, 2016.
 
 ******************************************
 Gaussian 16:  ES64L-G16RevA.03 25-Dec-2016
                29-Mar-2019 
 ******************************************
 %nprocshared=20
 Will use up to   20 processors via shared memory.
 %mem=100GB
 %chk=7-memb-TSscan-5c.chk
 ---------------------------------------------------------------------
 # opt=(ts,modredundant,noeigen) freq b3lyp/6-311+g(d,p) int=grid=fine
 ---------------------------------------------------------------------
 1/5=1,11=1,18=120,26=3,38=1/1,3;
 2/9=110,12=2,17=6,18=5,40=1/2;
 3/5=4,6=6,7=111,11=2,25=1,30=1,71=1,74=-5,75=-4/1,2,3;
 4//1;
 5/5=2,38=5/2;
 6/7=2,8=2,9=2,10=2,28=1/1;
 7//1,2,3,16;
 1/5=1,11=1,18=20,26=3/3(2);
 2/9=110/2;
 99//99;
 2/9=110/2;
 3/5=4,6=6,7=111,11=2,25=1,30=1,71=1,74=-5,75=-4/1,2,3;
 4/5=5,16=3,69=1/1;
 5/5=2,38=5/2;
 7//1,2,3,16;
 1/5=1,11=1,18=20,26=3/3(-5);
 2/9=110/2;
 6/7=2,8=2,9=2,10=2,19=2,28=1/1;
 99/9=1/99;
 -----------
 7-memb-TS5c
 -----------
 Symbolic Z-matrix:
 Charge =  0 Multiplicity = 2
 C                     1.51886   3.25808  -0.10514 
 C                     0.29755   2.50663   0.03266 
 C                     0.45565   1.14914   0.20966 
 C                     2.7871    2.68494  -0.12666 
 C                     2.94701   1.26841   0.00149 
 C                     1.74866   0.59921   0.2054 
 C                    -0.48002   0.01717   0.2258 
 C                     0.30033  -1.14594   0.22748 
 C                     1.65547  -0.79641   0.21287 
 C                    -0.13852  -2.46003   0.07026 
 C                    -1.53561  -2.59082  -0.02217 
 C                    -2.38325  -1.44525  -0.00138 
 C                    -1.85148  -0.09137   0.1048 
 C                    -3.79388  -1.57522  -0.14216 
 C                    -4.6092   -0.46527  -0.22234 
 C                    -2.72392   1.07654   0.09253 
 C                    -4.09041   0.83609  -0.14387 
 H                     1.44134   4.33354  -0.2304 
 H                     3.64909   3.32801  -0.2712 
 C                     4.08765   0.3946   -0.13436 
 C                     2.70454  -1.66244   0.01795 
 C                     0.94945  -3.4222   -0.0542 
 H                    -2.00162  -3.56361  -0.14375 
 H                    -4.2227   -2.56883  -0.21566 
 H                    -4.76357   1.68193  -0.22825 
 H                    -5.67641  -0.59608  -0.36212 
 C                    -1.0345    3.08757  -0.06882 
 C                    -2.24886   2.4753   -0.0391 
 H                    -1.06415   4.16617  -0.2 
 C                     3.97575  -0.99507  -0.12878 
 C                     2.28236  -3.05189  -0.08423 
 H                     5.07254   0.82702  -0.27881 
 H                     4.87826  -1.5811   -0.27024 
 H                     3.02845  -3.82973  -0.21222 
 H                     0.70768  -4.47517  -0.15772 
 H                    -2.88508   1.20796   1.94013 
 H                    -3.0882    3.15935  -0.13596 
 
 Add virtual bond connecting atoms H36        and C16        Dist= 3.51D+00.
 The following ModRedundant input section has been read:
 

 GradGradGradGradGradGradGradGradGradGradGradGradGradGradGradGradGradGrad
 Berny optimization.
 Initialization pass.
                           ----------------------------
                           !    Initial Parameters    !
                           ! (Angstroms and Degrees)  !
 --------------------------                            --------------------------
 ! Name  Definition              Value          Derivative Info.                !
 --------------------------------------------------------------------------------
 ! R1    R(1,2)                  1.4406         estimate D2E/DX2                !
 ! R2    R(1,4)                  1.3919         estimate D2E/DX2                !
 ! R3    R(1,18)                 1.0855         estimate D2E/DX2                !
 ! R4    R(2,3)                  1.3781         estimate D2E/DX2                !
 ! R5    R(2,27)                 1.4568         estimate D2E/DX2                !
 ! R6    R(3,6)                  1.4051         estimate D2E/DX2                !
 ! R7    R(3,7)                  1.4687         estimate D2E/DX2                !
 ! R8    R(4,5)                  1.4313         estimate D2E/DX2                !
 ! R9    R(4,19)                 1.0851         estimate D2E/DX2                !
 ! R10   R(5,6)                  1.3876         estimate D2E/DX2                !
 ! R11   R(5,20)                 1.4433         estimate D2E/DX2                !
 ! R12   R(6,9)                  1.3987         estimate D2E/DX2                !
 ! R13   R(7,8)                  1.4006         estimate D2E/DX2                !
 ! R14   R(7,13)                 1.3811         estimate D2E/DX2                !
 ! R15   R(8,9)                  1.3996         estimate D2E/DX2                !
 ! R16   R(8,10)                 1.3943         estimate D2E/DX2                !
 ! R17   R(9,21)                 1.3742         estimate D2E/DX2                !
 ! R18   R(10,11)                1.4062         estimate D2E/DX2                !
 ! R19   R(10,22)                1.4577         estimate D2E/DX2                !
 ! R20   R(11,12)                1.4252         estimate D2E/DX2                !
 ! R21   R(11,23)                1.0855         estimate D2E/DX2                !
 ! R22   R(12,13)                1.4584         estimate D2E/DX2                !
 ! R23   R(12,14)                1.4236         estimate D2E/DX2                !
 ! R24   R(13,16)                1.4578         estimate D2E/DX2                !
 ! R25   R(14,15)                1.3795         estimate D2E/DX2                !
 ! R26   R(14,24)                1.0847         estimate D2E/DX2                !
 ! R27   R(15,17)                1.4032         estimate D2E/DX2                !
 ! R28   R(15,26)                1.0842         estimate D2E/DX2                !
 ! R29   R(16,17)                1.4075         estimate D2E/DX2                !
 ! R30   R(16,28)                1.4831         estimate D2E/DX2                !
 ! R31   R(16,36)                1.8593         estimate D2E/DX2                !
 ! R32   R(17,25)                1.0843         estimate D2E/DX2                !
 ! R33   R(20,30)                1.3942         estimate D2E/DX2                !
 ! R34   R(20,32)                1.0853         estimate D2E/DX2                !
 ! R35   R(21,30)                1.4432         estimate D2E/DX2                !
 ! R36   R(21,31)                1.4558         estimate D2E/DX2                !
 ! R37   R(22,31)                1.3837         estimate D2E/DX2                !
 ! R38   R(22,35)                1.0853         estimate D2E/DX2                !
 ! R39   R(27,28)                1.3603         estimate D2E/DX2                !
 ! R40   R(27,29)                1.087          estimate D2E/DX2                !
 ! R41   R(28,37)                1.0871         estimate D2E/DX2                !
 ! R42   R(30,33)                1.0853         estimate D2E/DX2                !
 ! R43   R(31,34)                1.0854         estimate D2E/DX2                !
 ! A1    A(2,1,4)              123.998          estimate D2E/DX2                !
 ! A2    A(2,1,18)             117.8591         estimate D2E/DX2                !
 ! A3    A(4,1,18)             118.1149         estimate D2E/DX2                !
 ! A4    A(1,2,3)              115.3955         estimate D2E/DX2                !
 ! A5    A(1,2,27)             124.0928         estimate D2E/DX2                !
 ! A6    A(3,2,27)             120.4426         estimate D2E/DX2                !
 ! A7    A(2,3,6)              119.3873         estimate D2E/DX2                !
 ! A8    A(2,3,7)              133.4358         estimate D2E/DX2                !
 ! A9    A(6,3,7)              106.5369         estimate D2E/DX2                !
 ! A10   A(1,4,5)              120.5266         estimate D2E/DX2                !
 ! A11   A(1,4,19)             118.8059         estimate D2E/DX2                !
 ! A12   A(5,4,19)             120.6437         estimate D2E/DX2                !
 ! A13   A(4,5,6)              113.2015         estimate D2E/DX2                !
 ! A14   A(4,5,20)             132.7709         estimate D2E/DX2                !
 ! A15   A(6,5,20)             113.8517         estimate D2E/DX2                !
 ! A16   A(3,6,5)              127.3307         estimate D2E/DX2                !
 ! A17   A(3,6,9)              109.2188         estimate D2E/DX2                !
 ! A18   A(5,6,9)              122.6503         estimate D2E/DX2                !
 ! A19   A(3,7,8)              106.5653         estimate D2E/DX2                !
 ! A20   A(3,7,13)             133.8083         estimate D2E/DX2                !
 ! A21   A(8,7,13)             119.2163         estimate D2E/DX2                !
 ! A22   A(7,8,9)              109.3931         estimate D2E/DX2                !
 ! A23   A(7,8,10)             127.3835         estimate D2E/DX2                !
 ! A24   A(9,8,10)             122.6117         estimate D2E/DX2                !
 ! A25   A(6,9,8)              108.2854         estimate D2E/DX2                !
 ! A26   A(6,9,21)             125.251          estimate D2E/DX2                !
 ! A27   A(8,9,21)             125.6789         estimate D2E/DX2                !
 ! A28   A(8,10,11)            114.0641         estimate D2E/DX2                !
 ! A29   A(8,10,22)            113.3778         estimate D2E/DX2                !
 ! A30   A(11,10,22)           132.4149         estimate D2E/DX2                !
 ! A31   A(10,11,12)           121.0081         estimate D2E/DX2                !
 ! A32   A(10,11,23)           121.147          estimate D2E/DX2                !
 ! A33   A(12,11,23)           117.8162         estimate D2E/DX2                !
 ! A34   A(11,12,13)           122.0302         estimate D2E/DX2                !
 ! A35   A(11,12,14)           120.9649         estimate D2E/DX2                !
 ! A36   A(13,12,14)           116.952          estimate D2E/DX2                !
 ! A37   A(7,13,12)            116.1941         estimate D2E/DX2                !
 ! A38   A(7,13,16)            122.1451         estimate D2E/DX2                !
 ! A39   A(12,13,16)           121.6595         estimate D2E/DX2                !
 ! A40   A(12,14,15)           121.1932         estimate D2E/DX2                !
 ! A41   A(12,14,24)           118.8209         estimate D2E/DX2                !
 ! A42   A(15,14,24)           119.9619         estimate D2E/DX2                !
 ! A43   A(14,15,17)           121.6307         estimate D2E/DX2                !
 ! A44   A(14,15,26)           119.4818         estimate D2E/DX2                !
 ! A45   A(17,15,26)           118.8828         estimate D2E/DX2                !
 ! A46   A(13,16,17)           116.4598         estimate D2E/DX2                !
 ! A47   A(13,16,28)           124.3759         estimate D2E/DX2                !
 ! A48   A(13,16,36)            95.747          estimate D2E/DX2                !
 ! A49   A(17,16,28)           117.2073         estimate D2E/DX2                !
 ! A50   A(17,16,36)            95.4415         estimate D2E/DX2                !
 ! A51   A(28,16,36)            92.8256         estimate D2E/DX2                !
 ! A52   A(15,17,16)           121.7894         estimate D2E/DX2                !
 ! A53   A(15,17,25)           119.3144         estimate D2E/DX2                !
 ! A54   A(16,17,25)           118.8518         estimate D2E/DX2                !
 ! A55   A(5,20,30)            122.661          estimate D2E/DX2                !
 ! A56   A(5,20,32)            119.2421         estimate D2E/DX2                !
 ! A57   A(30,20,32)           118.0677         estimate D2E/DX2                !
 ! A58   A(9,21,30)            113.2911         estimate D2E/DX2                !
 ! A59   A(9,21,31)            112.9578         estimate D2E/DX2                !
 ! A60   A(30,21,31)           133.6032         estimate D2E/DX2                !
 ! A61   A(10,22,31)           122.9671         estimate D2E/DX2                !
 ! A62   A(10,22,35)           118.833          estimate D2E/DX2                !
 ! A63   A(31,22,35)           118.1746         estimate D2E/DX2                !
 ! A64   A(2,27,28)            129.4404         estimate D2E/DX2                !
 ! A65   A(2,27,29)            115.4081         estimate D2E/DX2                !
 ! A66   A(28,27,29)           115.1465         estimate D2E/DX2                !
 ! A67   A(16,28,27)           135.4306         estimate D2E/DX2                !
 ! A68   A(16,28,37)           110.7361         estimate D2E/DX2                !
 ! A69   A(27,28,37)           113.8331         estimate D2E/DX2                !
 ! A70   A(20,30,21)           122.1426         estimate D2E/DX2                !
 ! A71   A(20,30,33)           118.0949         estimate D2E/DX2                !
 ! A72   A(21,30,33)           119.7363         estimate D2E/DX2                !
 ! A73   A(21,31,22)           122.226          estimate D2E/DX2                !
 ! A74   A(21,31,34)           119.5334         estimate D2E/DX2                !
 ! A75   A(22,31,34)           118.2244         estimate D2E/DX2                !
 ! D1    D(4,1,2,3)              2.9376         estimate D2E/DX2                !
 ! D2    D(4,1,2,27)          -174.0401         estimate D2E/DX2                !
 ! D3    D(18,1,2,3)          -179.0293         estimate D2E/DX2                !
 ! D4    D(18,1,2,27)            3.993          estimate D2E/DX2                !
 ! D5    D(2,1,4,5)             -0.4673         estimate D2E/DX2                !
 ! D6    D(2,1,4,19)           177.7725         estimate D2E/DX2                !
 ! D7    D(18,1,4,5)          -178.4958         estimate D2E/DX2                !
 ! D8    D(18,1,4,19)           -0.2559         estimate D2E/DX2                !
 ! D9    D(1,2,3,6)             -1.7887         estimate D2E/DX2                !
 ! D10   D(1,2,3,7)           -171.2413         estimate D2E/DX2                !
 ! D11   D(27,2,3,6)           175.3084         estimate D2E/DX2                !
 ! D12   D(27,2,3,7)             5.8557         estimate D2E/DX2                !
 ! D13   D(1,2,27,28)          175.5382         estimate D2E/DX2                !
 ! D14   D(1,2,27,29)           -3.601          estimate D2E/DX2                !
 ! D15   D(3,2,27,28)           -1.2948         estimate D2E/DX2                !
 ! D16   D(3,2,27,29)          179.5659         estimate D2E/DX2                !
 ! D17   D(2,3,6,5)             -1.9396         estimate D2E/DX2                !
 ! D18   D(2,3,6,9)           -171.809          estimate D2E/DX2                !
 ! D19   D(7,3,6,5)            170.0904         estimate D2E/DX2                !
 ! D20   D(7,3,6,9)              0.221          estimate D2E/DX2                !
 ! D21   D(2,3,7,8)            170.3012         estimate D2E/DX2                !
 ! D22   D(2,3,7,13)            -1.9997         estimate D2E/DX2                !
 ! D23   D(6,3,7,8)             -0.1217         estimate D2E/DX2                !
 ! D24   D(6,3,7,13)          -172.4225         estimate D2E/DX2                !
 ! D25   D(1,4,5,6)             -2.934          estimate D2E/DX2                !
 ! D26   D(1,4,5,20)           171.8396         estimate D2E/DX2                !
 ! D27   D(19,4,5,6)           178.8587         estimate D2E/DX2                !
 ! D28   D(19,4,5,20)           -6.3677         estimate D2E/DX2                !
 ! D29   D(4,5,6,3)              4.2889         estimate D2E/DX2                !
 ! D30   D(4,5,6,9)            172.9121         estimate D2E/DX2                !
 ! D31   D(20,5,6,3)          -171.5183         estimate D2E/DX2                !
 ! D32   D(20,5,6,9)            -2.8952         estimate D2E/DX2                !
 ! D33   D(4,5,20,30)         -171.6279         estimate D2E/DX2                !
 ! D34   D(4,5,20,32)            6.3644         estimate D2E/DX2                !
 ! D35   D(6,5,20,30)            3.1197         estimate D2E/DX2                !
 ! D36   D(6,5,20,32)         -178.8879         estimate D2E/DX2                !
 ! D37   D(3,6,9,8)             -0.2384         estimate D2E/DX2                !
 ! D38   D(3,6,9,21)           170.0687         estimate D2E/DX2                !
 ! D39   D(5,6,9,8)           -170.6767         estimate D2E/DX2                !
 ! D40   D(5,6,9,21)            -0.3696         estimate D2E/DX2                !
 ! D41   D(3,7,8,9)             -0.0216         estimate D2E/DX2                !
 ! D42   D(3,7,8,10)          -171.152          estimate D2E/DX2                !
 ! D43   D(13,7,8,9)           173.6184         estimate D2E/DX2                !
 ! D44   D(13,7,8,10)            2.488          estimate D2E/DX2                !
 ! D45   D(3,7,13,12)          172.0924         estimate D2E/DX2                !
 ! D46   D(3,7,13,16)           -8.3162         estimate D2E/DX2                !
 ! D47   D(8,7,13,12)            0.553          estimate D2E/DX2                !
 ! D48   D(8,7,13,16)         -179.8557         estimate D2E/DX2                !
 ! D49   D(7,8,9,6)              0.1588         estimate D2E/DX2                !
 ! D50   D(7,8,9,21)          -170.0961         estimate D2E/DX2                !
 ! D51   D(10,8,9,6)           171.7957         estimate D2E/DX2                !
 ! D52   D(10,8,9,21)            1.5408         estimate D2E/DX2                !
 ! D53   D(7,8,10,11)           -3.8144         estimate D2E/DX2                !
 ! D54   D(7,8,10,22)          172.3849         estimate D2E/DX2                !
 ! D55   D(9,8,10,11)         -173.8718         estimate D2E/DX2                !
 ! D56   D(9,8,10,22)            2.3274         estimate D2E/DX2                !
 ! D57   D(6,9,21,30)            3.319          estimate D2E/DX2                !
 ! D58   D(6,9,21,31)         -172.8727         estimate D2E/DX2                !
 ! D59   D(8,9,21,30)          171.9687         estimate D2E/DX2                !
 ! D60   D(8,9,21,31)           -4.223          estimate D2E/DX2                !
 ! D61   D(8,10,11,12)           2.1658         estimate D2E/DX2                !
 ! D62   D(8,10,11,23)        -179.8271         estimate D2E/DX2                !
 ! D63   D(22,10,11,12)       -173.1067         estimate D2E/DX2                !
 ! D64   D(22,10,11,23)          4.9003         estimate D2E/DX2                !
 ! D65   D(8,10,22,31)          -3.2515         estimate D2E/DX2                !
 ! D66   D(8,10,22,35)         178.613          estimate D2E/DX2                !
 ! D67   D(11,10,22,31)        172.046          estimate D2E/DX2                !
 ! D68   D(11,10,22,35)         -6.0896         estimate D2E/DX2                !
 ! D69   D(10,11,12,13)          0.5011         estimate D2E/DX2                !
 ! D70   D(10,11,12,14)        177.7741         estimate D2E/DX2                !
 ! D71   D(23,11,12,13)       -177.5704         estimate D2E/DX2                !
 ! D72   D(23,11,12,14)         -0.2974         estimate D2E/DX2                !
 ! D73   D(11,12,13,7)          -1.927          estimate D2E/DX2                !
 ! D74   D(11,12,13,16)        178.4795         estimate D2E/DX2                !
 ! D75   D(14,12,13,7)        -179.3037         estimate D2E/DX2                !
 ! D76   D(14,12,13,16)          1.1028         estimate D2E/DX2                !
 ! D77   D(11,12,14,15)       -175.1348         estimate D2E/DX2                !
 ! D78   D(11,12,14,24)          3.0805         estimate D2E/DX2                !
 ! D79   D(13,12,14,15)          2.2717         estimate D2E/DX2                !
 ! D80   D(13,12,14,24)       -179.513          estimate D2E/DX2                !
 ! D81   D(7,13,16,17)         175.0657         estimate D2E/DX2                !
 ! D82   D(7,13,16,28)          11.4772         estimate D2E/DX2                !
 ! D83   D(7,13,16,36)         -85.9275         estimate D2E/DX2                !
 ! D84   D(12,13,16,17)         -5.3651         estimate D2E/DX2                !
 ! D85   D(12,13,16,28)       -168.9536         estimate D2E/DX2                !
 ! D86   D(12,13,16,36)         93.6417         estimate D2E/DX2                !
 ! D87   D(12,14,15,17)         -1.2136         estimate D2E/DX2                !
 ! D88   D(12,14,15,26)        177.9917         estimate D2E/DX2                !
 ! D89   D(24,14,15,17)       -179.4087         estimate D2E/DX2                !
 ! D90   D(24,14,15,26)         -0.2034         estimate D2E/DX2                !
 ! D91   D(14,15,17,16)         -3.4887         estimate D2E/DX2                !
 ! D92   D(14,15,17,25)        178.9637         estimate D2E/DX2                !
 ! D93   D(26,15,17,16)        177.3014         estimate D2E/DX2                !
 ! D94   D(26,15,17,25)         -0.2462         estimate D2E/DX2                !
 ! D95   D(13,16,17,15)          6.5437         estimate D2E/DX2                !
 ! D96   D(13,16,17,25)       -175.8977         estimate D2E/DX2                !
 ! D97   D(28,16,17,15)        171.343          estimate D2E/DX2                !
 ! D98   D(28,16,17,25)        -11.0984         estimate D2E/DX2                !
 ! D99   D(36,16,17,15)        -92.6499         estimate D2E/DX2                !
 ! D100  D(36,16,17,25)         84.9087         estimate D2E/DX2                !
 ! D101  D(13,16,28,27)         -6.3007         estimate D2E/DX2                !
 ! D102  D(13,16,28,37)        173.5426         estimate D2E/DX2                !
 ! D103  D(17,16,28,27)       -169.7774         estimate D2E/DX2                !
 ! D104  D(17,16,28,37)         10.066          estimate D2E/DX2                !
 ! D105  D(36,16,28,27)         92.6299         estimate D2E/DX2                !
 ! D106  D(36,16,28,37)        -87.5268         estimate D2E/DX2                !
 ! D107  D(5,20,30,21)          -0.1841         estimate D2E/DX2                !
 ! D108  D(5,20,30,33)         177.9473         estimate D2E/DX2                !
 ! D109  D(32,20,30,21)       -178.1988         estimate D2E/DX2                !
 ! D110  D(32,20,30,33)         -0.0674         estimate D2E/DX2                !
 ! D111  D(9,21,30,20)          -2.9772         estimate D2E/DX2                !
 ! D112  D(9,21,30,33)         178.9213         estimate D2E/DX2                !
 ! D113  D(31,21,30,20)        172.178          estimate D2E/DX2                !
 ! D114  D(31,21,30,33)         -5.9235         estimate D2E/DX2                !
 ! D115  D(9,21,31,22)           3.1397         estimate D2E/DX2                !
 ! D116  D(9,21,31,34)        -178.3506         estimate D2E/DX2                !
 ! D117  D(30,21,31,22)       -172.0276         estimate D2E/DX2                !
 ! D118  D(30,21,31,34)          6.4821         estimate D2E/DX2                !
 ! D119  D(10,22,31,21)          0.5167         estimate D2E/DX2                !
 ! D120  D(10,22,31,34)       -178.0117         estimate D2E/DX2                !
 ! D121  D(35,22,31,21)        178.6638         estimate D2E/DX2                !
 ! D122  D(35,22,31,34)          0.1354         estimate D2E/DX2                !
 ! D123  D(2,27,28,16)          -0.2244         estimate D2E/DX2                !
 ! D124  D(2,27,28,37)         179.9358         estimate D2E/DX2                !
 ! D125  D(29,27,28,16)        178.9167         estimate D2E/DX2                !
 ! D126  D(29,27,28,37)         -0.9231         estimate D2E/DX2                !
 --------------------------------------------------------------------------------
 Trust Radius=3.00D-01 FncErr=1.00D-07 GrdErr=1.00D-06 EigMax=2.50D+02 EigMin=1.00D-04
 Number of steps in this run=    222 maximum allowed number of steps=    222.
 Search for a saddle point of order  1.
 GradGradGradGradGradGradGradGradGradGradGradGradGradGradGradGradGradGrad

                          Input orientation:                          
 ---------------------------------------------------------------------
 Center     Atomic      Atomic             Coordinates (Angstroms)
 Number     Number       Type             X           Y           Z
 ---------------------------------------------------------------------
      1          6           0        1.518858    3.258080   -0.105135
      2          6           0        0.297552    2.506633    0.032661
      3          6           0        0.455647    1.149138    0.209658
      4          6           0        2.787102    2.684944   -0.126655
      5          6           0        2.947014    1.268408    0.001491
      6          6           0        1.748659    0.599211    0.205398
      7          6           0       -0.480017    0.017166    0.225804
      8          6           0        0.300325   -1.145944    0.227480
      9          6           0        1.655467   -0.796411    0.212866
     10          6           0       -0.138521   -2.460027    0.070258
     11          6           0       -1.535605   -2.590818   -0.022171
     12          6           0       -2.383247   -1.445254   -0.001375
     13          6           0       -1.851478   -0.091370    0.104795
     14          6           0       -3.793877   -1.575216   -0.142159
     15          6           0       -4.609196   -0.465274   -0.222338
     16          6           0       -2.723924    1.076540    0.092530
     17          6           0       -4.090411    0.836089   -0.143873
     18          1           0        1.441337    4.333545   -0.230400
     19          1           0        3.649088    3.328008   -0.271199
     20          6           0        4.087647    0.394599   -0.134356
     21          6           0        2.704539   -1.662444    0.017947
     22          6           0        0.949451   -3.422199   -0.054195
     23          1           0       -2.001619   -3.563611   -0.143745
     24          1           0       -4.222704   -2.568833   -0.215660
     25          1           0       -4.763571    1.681932   -0.228254
     26          1           0       -5.676410   -0.596082   -0.362121
     27          6           0       -1.034504    3.087568   -0.068820
     28          6           0       -2.248862    2.475296   -0.039095
     29          1           0       -1.064145    4.166171   -0.200000
     30          6           0        3.975745   -0.995070   -0.128780
     31          6           0        2.282363   -3.051889   -0.084234
     32          1           0        5.072540    0.827015   -0.278814
     33          1           0        4.878263   -1.581096   -0.270236
     34          1           0        3.028451   -3.829725   -0.212223
     35          1           0        0.707676   -4.475167   -0.157719
     36          1           0       -2.885081    1.207956    1.940126
     37          1           0       -3.088195    3.159354   -0.135960
 ---------------------------------------------------------------------
                    Distance matrix (angstroms):
                    1          2          3          4          5
     1  C    0.000000
     2  C    1.440572   0.000000
     3  C    2.382677   1.378084   0.000000
     4  C    1.391902   2.501007   2.812026   0.000000
     5  C    2.451488   2.924692   2.502892   1.431282   0.000000
     6  C    2.686787   2.402875   1.405104   2.353488   1.387609
     7  C    3.822113   2.615218   1.468703   4.232651   3.655197
     8  C    4.581581   3.657770   2.300401   4.580958   3.589586
     9  C    4.069236   3.575823   2.285769   3.676371   2.444637
    10  C    5.956040   4.985909   3.660402   5.921889   4.840091
    11  C    6.598957   5.417331   4.243360   6.821318   5.915070
    12  C    6.112163   4.775485   3.851587   6.618666   5.981275
    13  C    4.756264   3.372411   2.621580   5.410907   4.988506
    14  C    7.182428   5.782028   5.060073   7.839546   7.317544
    15  C    7.171482   5.742250   5.333440   8.039792   7.755776
    16  C    4.774870   3.343362   3.182556   5.745121   5.674913
    17  C    6.109946   4.698521   4.570517   7.121710   7.052190
    18  H    1.085507   2.171417   3.362393   2.130665   3.422850
    19  H    2.137837   3.464070   3.895737   1.085101   2.192993
    20  C    3.846954   4.342050   3.725466   2.633848   1.443274
    21  C    5.062859   4.814043   3.605449   4.350576   2.940911
    22  C    6.704696   5.965196   4.605495   6.378041   5.098544
    23  H    7.676634   6.493471   5.326636   7.872521   6.917982
    24  H    8.181116   6.801083   5.990924   8.760564   8.134890
    25  H    6.478296   5.134508   5.264587   7.617678   7.725083
    26  H    8.166547   6.743213   6.401160   9.080287   8.830174
    27  C    2.559307   1.456763   2.460815   3.843192   4.377987
    28  C    3.848743   2.547618   3.022407   5.041086   5.334356
    29  H    2.739623   2.159263   3.402951   4.126926   4.952477
    30  C    4.911836   5.081052   4.135609   3.867219   2.489697
    31  C    6.356027   5.903415   4.590413   5.759150   4.371965
    32  H    4.309164   5.071355   4.653823   2.949285   2.188895
    33  H    5.893258   6.146884   5.219579   4.753174   3.453003
    34  H    7.247573   6.904144   5.620176   6.519700   5.103260
    35  H    7.775853   6.996426   5.641923   7.456015   6.166736
    36  H    5.270748   3.931175   3.762771   6.215041   6.146161
    37  H    4.608214   3.452211   4.088916   5.894427   6.326003
                    6          7          8          9         10
     6  C    0.000000
     7  C    2.303517   0.000000
     8  C    2.267978   1.400629   0.000000
     9  C    1.398750   2.285250   1.399570   0.000000
    10  C    3.597033   2.505454   1.394317   2.450785   0.000000
    11  C    4.584153   2.824418   2.349601   3.668526   1.406234
    12  C    4.614677   2.410927   2.709893   4.096109   2.464486
    13  C    3.667153   1.381061   2.399465   3.578746   2.923346
    14  C    5.963944   3.694962   4.133207   5.516152   3.766914
    15  C    6.460527   4.181351   4.976851   6.288486   4.904242
    16  C    4.499398   2.484986   3.755493   4.764608   4.380880
    17  C    5.854301   3.720516   4.831658   5.983931   5.150502
    18  H    3.772216   4.746667   5.615725   5.153522   6.981330
    19  H    3.359332   5.315844   5.610627   4.606482   6.925599
    20  C    2.372375   4.597361   4.104632   2.730305   5.104043
    21  C    2.462504   3.606340   2.467979   1.374248   2.953280
    22  C    4.108267   3.735105   2.383703   2.732132   1.457720
    23  H    5.613873   3.908171   3.358849   4.599874   2.175966
    24  H    6.772811   4.570557   4.762224   6.154511   4.095624
    25  H    6.615851   4.618057   5.817871   6.894985   6.215788
    26  H    7.542046   5.265380   6.030866   7.357116   5.859135
    27  C    3.743409   3.133948   4.448841   4.732926   5.621204
    28  C    4.422629   3.039965   4.436530   5.100131   5.368697
    29  H    4.560638   4.211503   5.501189   5.673973   6.695993
    30  C    2.759224   4.583030   3.695727   2.353694   4.371830
    31  C    3.701251   4.140769   2.767357   2.359756   2.496968
    32  H    3.366681   5.633949   5.188732   3.814925   6.171033
    33  H    3.843747   5.613525   4.625429   3.351945   5.104564
    34  H    4.629012   5.224920   3.852102   3.356602   3.462020
    35  H    5.192765   4.662484   3.376098   3.816921   2.197456
    36  H    4.985118   3.184527   4.315184   5.255235   4.949151
    37  H    5.483248   4.099611   5.490879   6.186444   6.349846
                   11         12         13         14         15
    11  C    0.000000
    12  C    1.425218   0.000000
    13  C    2.522526   1.458442   0.000000
    14  C    2.479040   1.423583   2.456766   0.000000
    15  C    3.742321   2.442137   2.802111   1.379545   0.000000
    16  C    3.856783   2.546434   1.457850   2.869092   2.455724
    17  C    4.276159   2.852935   2.436152   2.429471   1.403154
    18  H    7.540049   6.933571   5.525836   7.894853   7.722544
    19  H    7.872456   7.697136   6.487661   8.913809   9.087939
    20  C    6.367595   6.728686   5.963771   8.123955   8.739691
    21  C    4.340773   5.092456   4.820073   6.500973   7.414963
    22  C    2.620634   3.875304   4.354871   5.090996   6.298431
    23  H    1.085484   2.157161   3.484361   2.676921   4.050349
    24  H    2.694146   2.166091   3.444304   1.084698   2.138780
    25  H    5.358976   3.936586   3.425756   3.399519   2.152756
    26  H    4.608775   3.419964   3.886238   2.133311   1.084249
    27  C    5.700644   4.729707   3.286828   5.418586   5.042289
    28  C    5.116105   3.923034   2.601229   4.336397   3.775143
    29  H    6.775751   5.767805   4.340443   6.357539   5.832510
    30  C    5.738707   6.376180   5.901505   7.791263   8.601782
    31  C    3.846208   4.935186   5.088128   6.253368   7.362285
    32  H    7.444127   7.799291   6.995185   9.187096   9.767764
    33  H    6.497598   7.267755   6.902851   8.673088   9.552970
    34  H    4.733035   5.917485   6.155445   7.185533   8.345854
    35  H    2.932824   4.331122   5.082899   5.354805   6.659771
    36  H    4.483568   3.325776   2.474878   3.592752   3.232417
    37  H    5.957177   4.660202   3.486350   4.786876   3.931772
                   16         17         18         19         20
    16  C    0.000000
    17  C    1.407476   0.000000
    18  H    5.297336   6.545221   0.000000
    19  H    6.768803   8.131772   2.426300   0.000000
    20  C    6.849381   8.189972   4.746312   2.969166   0.000000
    21  C    6.080774   7.241560   6.132637   5.087277   2.483467
    22  C    5.809808   6.598581   7.773324   7.273268   4.941927
    23  H    4.701973   4.870361   8.615482   8.912976   7.262691
    24  H    3.953488   3.408247   8.928852   9.835697   8.823292
    25  H    2.151642   1.084304   6.747736   8.572295   8.944837
    26  H    3.423674   2.148055   8.659151  10.117888   9.816829
    27  C    2.631427   3.796493   2.776393   4.694124   5.787297
    28  C    1.483080   2.467647   4.136092   5.963791   6.670062
    29  H    3.519412   4.500098   2.511250   4.787708   6.385141
    30  C    7.016132   8.271411   5.901499   4.337740   1.394178
    31  C    6.491385   7.465399   7.434603   6.527326   3.890995
    32  H    7.809290   9.163949   5.048141   2.877714   1.085295
    33  H    8.061506   9.289557   6.840835   5.060650   2.132348
    34  H    7.566646   8.511914   8.316143   7.184832   4.355786
    35  H    6.531459   7.157602   8.839511   8.339923   5.927847
    36  H    1.859261   2.436013   5.761804   7.216643   7.320107
    37  H    2.126738   2.530229   4.680203   6.740750   7.690031
                   21         22         23         24         25
    21  C    0.000000
    22  C    2.486418   0.000000
    23  H    5.078238   2.955813   0.000000
    24  H    6.990194   5.244568   2.434743   0.000000
    25  H    8.186460   7.662967   5.928848   4.285055   0.000000
    26  H    8.457061   7.209978   4.728425   2.454885   2.457752
    27  C    6.045708   6.805392   6.721541   6.494694   3.988380
    28  C    6.454481   6.708940   6.044872   5.419452   2.643666
    29  H    6.944295   7.852336   7.786626   7.438886   4.456231
    30  C    1.443219   3.880074   6.505883   8.348583   9.140672
    31  C    1.455758   1.383722   4.314847   6.524302   8.489699
    32  H    3.448609   5.925043   8.327038   9.896329   9.873324
    33  H    2.194252   4.344180   7.160946   9.154573  10.179100
    34  H    2.203407   2.124451   5.037570   7.359967   9.544330
    35  H    3.453944   1.085317   2.858568   5.286408   8.237074
    36  H    6.570983   6.333979   5.281181   4.549811   2.907791
    37  H    7.538514   7.721795   6.810210   5.839999   2.235661
                   26         27         28         29         30
    26  H    0.000000
    27  C    5.933177   0.000000
    28  C    4.613653   1.360304   0.000000
    29  H    6.631616   1.086955   2.070870   0.000000
    30  C    9.663216   6.463290   7.127217   7.214151   0.000000
    31  C    8.333683   6.978164   7.147294   7.956941   2.664588
    32  H   10.843066   6.515381   7.508477   6.986779   2.132009
    33  H   10.600935   7.536432   8.203880   8.267298   1.085346
    34  H    9.287277   8.023535   8.223946   8.982419   2.989916
    35  H    7.472994   7.761318   7.554080   8.821216   4.774116
    36  H    4.043070   3.315636   2.434798   4.080071   7.496975
    37  H    4.566542   2.056042   1.087105   2.261539   8.195031
                   31         32         33         34         35
    31  C    0.000000
    32  H    4.782138   0.000000
    33  H    2.989402   2.415950   0.000000
    34  H    1.085383   5.086056   2.912302   0.000000
    35  H    2.123855   6.868758   5.077608   2.409474   0.000000
    36  H    6.996198   8.269978   8.540142   8.061061   7.043205
    37  H    8.211279   8.488687   9.271157   9.287971   8.526138
                   36         37
    36  H    0.000000
    37  H    2.856456   0.000000
 Stoichiometry    C24H13(2)
 Framework group  C1[X(C24H13)]
 Deg. of freedom   105
 Full point group                 C1      NOp   1
 Largest Abelian subgroup         C1      NOp   1
 Largest concise Abelian subgroup C1      NOp   1
                         Standard orientation:                         
 ---------------------------------------------------------------------
 Center     Atomic      Atomic             Coordinates (Angstroms)
 Number     Number       Type             X           Y           Z
 ---------------------------------------------------------------------
      1          6           0        1.518858    3.258080   -0.105135
      2          6           0        0.297552    2.506633    0.032661
      3          6           0        0.455647    1.149138    0.209658
      4          6           0        2.787102    2.684944   -0.126655
      5          6           0        2.947014    1.268408    0.001491
      6          6           0        1.748659    0.599211    0.205398
      7          6           0       -0.480017    0.017166    0.225804
      8          6           0        0.300325   -1.145944    0.227480
      9          6           0        1.655467   -0.796411    0.212866
     10          6           0       -0.138521   -2.460027    0.070258
     11          6           0       -1.535605   -2.590818   -0.022171
     12          6           0       -2.383247   -1.445254   -0.001375
     13          6           0       -1.851478   -0.091370    0.104795
     14          6           0       -3.793877   -1.575216   -0.142159
     15          6           0       -4.609196   -0.465274   -0.222338
     16          6           0       -2.723924    1.076540    0.092530
     17          6           0       -4.090411    0.836089   -0.143873
     18          1           0        1.441337    4.333545   -0.230400
     19          1           0        3.649088    3.328008   -0.271199
     20          6           0        4.087647    0.394599   -0.134356
     21          6           0        2.704539   -1.662444    0.017947
     22          6           0        0.949451   -3.422199   -0.054195
     23          1           0       -2.001619   -3.563611   -0.143745
     24          1           0       -4.222704   -2.568833   -0.215660
     25          1           0       -4.763571    1.681932   -0.228254
     26          1           0       -5.676410   -0.596081   -0.362121
     27          6           0       -1.034504    3.087568   -0.068820
     28          6           0       -2.248862    2.475296   -0.039095
     29          1           0       -1.064145    4.166171   -0.200000
     30          6           0        3.975745   -0.995070   -0.128780
     31          6           0        2.282363   -3.051889   -0.084234
     32          1           0        5.072540    0.827015   -0.278814
     33          1           0        4.878263   -1.581096   -0.270236
     34          1           0        3.028451   -3.829725   -0.212223
     35          1           0        0.707676   -4.475167   -0.157719
     36          1           0       -2.885081    1.207956    1.940126
     37          1           0       -3.088195    3.159354   -0.135960
 ---------------------------------------------------------------------
 Rotational constants (GHZ):           0.4205328           0.2573969           0.1606409
 Standard basis: 6-311+G(d,p) (5D, 7F)
 There are   630 symmetry adapted cartesian basis functions of A   symmetry.
 There are   606 symmetry adapted basis functions of A   symmetry.
   606 basis functions,   968 primitive gaussians,   630 cartesian basis functions
    79 alpha electrons       78 beta electrons
       nuclear repulsion energy      1840.7717997325 Hartrees.
 NAtoms=   37 NActive=   37 NUniq=   37 SFac= 1.00D+00 NAtFMM=   60 NAOKFM=F Big=F
 Integral buffers will be    131072 words long.
 Raffenetti 2 integral format.
 Two-electron integral symmetry is turned on.
 One-electron integrals computed using PRISM.
 NBasis=   606 RedAO= T EigKep=  1.38D-06  NBF=   606
 NBsUse=   589 1.00D-06 EigRej=  9.49D-07 NBFU=   589
 ExpMin= 4.38D-02 ExpMax= 4.56D+03 ExpMxC= 6.82D+02 IAcc=2 IRadAn=         4 AccDes= 0.00D+00
 Harris functional with IExCor=  402 and IRadAn=       4 diagonalized for initial guess.
 HarFok:  IExCor=  402 AccDes= 0.00D+00 IRadAn=         4 IDoV= 1 UseB2=F ITyADJ=14
 ICtDFT=  3500011 ScaDFX=  1.000000  1.000000  1.000000  1.000000
 FoFCou: FMM=F IPFlag=           0 FMFlag=      100000 FMFlg1=           0
         NFxFlg=           0 DoJE=T BraDBF=F KetDBF=T FulRan=T
         wScrn=  0.000000 ICntrl=       500 IOpCl=  0 I1Cent=   200000004 NGrid=           0
         NMat0=    1 NMatS0=      1 NMatT0=    0 NMatD0=    1 NMtDS0=    0 NMtDT0=    0
 Petite list used in FoFCou.
 Initial guess <Sx>= 0.0000 <Sy>= 0.0000 <Sz>= 0.5000 <S**2>= 0.7500 S= 0.5000
 Requested convergence on RMS density matrix=1.00D-08 within 128 cycles.
 Requested convergence on MAX density matrix=1.00D-06.
 Requested convergence on             energy=1.00D-06.
 No special actions if energy rises.
 Restarting incremental Fock formation.
 SCF Done:  E(UB3LYP) =  -922.506047815     A.U. after   26 cycles
            NFock= 26  Conv=0.84D-08     -V/T= 2.0045
 <Sx>= 0.0000 <Sy>= 0.0000 <Sz>= 0.5000 <S**2>= 0.7925 S= 0.5210
 <L.S>=  0.00000000000    
 Annihilation of the first spin contaminant:
 S**2 before annihilation     0.7925,   after     0.7507

 **********************************************************************

            Population analysis using the SCF density.

 **********************************************************************

 Orbital symmetries:
 Alpha Orbitals:
       Occupied  (A) (A) (A) (A) (A) (A) (A) (A) (A) (A) (A) (A)
                 (A) (A) (A) (A) (A) (A) (A) (A) (A) (A) (A) (A)
                 (A) (A) (A) (A) (A) (A) (A) (A) (A) (A) (A) (A)
                 (A) (A) (A) (A) (A) (A) (A) (A) (A) (A) (A) (A)
                 (A) (A) (A) (A) (A) (A) (A) (A) (A) (A) (A) (A)
                 (A) (A) (A) (A) (A) (A) (A) (A) (A) (A) (A) (A)
                 (A) (A) (A) (A) (A) (A) (A)
       Virtual   (A) (A) (A) (A) (A) (A) (A) (A) (A) (A) (A) (A)
                 (A) (A) (A) (A) (A) (A) (A) (A) (A) (A) (A) (A)
                 (A) (A) (A) (A) (A) (A) (A) (A) (A) (A) (A) (A)
                 (A) (A) (A) (A) (A) (A) (A) (A) (A) (A) (A) (A)
                 (A) (A) (A) (A) (A) (A) (A) (A) (A) (A) (A) (A)
                 (A) (A) (A) (A) (A) (A) (A) (A) (A) (A) (A) (A)
                 (A) (A) (A) (A) (A) (A) (A) (A) (A) (A) (A) (A)
                 (A) (A) (A) (A) (A) (A) (A) (A) (A) (A) (A) (A)
                 (A) (A) (A) (A) (A) (A) (A) (A) (A) (A) (A) (A)
                 (A) (A) (A) (A) (A) (A) (A) (A) (A) (A) (A) (A)
                 (A) (A) (A) (A) (A) (A) (A) (A) (A) (A) (A) (A)
                 (A) (A) (A) (A) (A) (A) (A) (A) (A) (A) (A) (A)
                 (A) (A) (A) (A) (A) (A) (A) (A) (A) (A) (A) (A)
                 (A) (A) (A) (A) (A) (A) (A) (A) (A) (A) (A) (A)
                 (A) (A) (A) (A) (A) (A) (A) (A) (A) (A) (A) (A)
                 (A) (A) (A) (A) (A) (A) (A) (A) (A) (A) (A) (A)
                 (A) (A) (A) (A) (A) (A) (A) (A) (A) (A) (A) (A)
                 (A) (A) (A) (A) (A) (A) (A) (A) (A) (A) (A) (A)
                 (A) (A) (A) (A) (A) (A) (A) (A) (A) (A) (A) (A)
                 (A) (A) (A) (A) (A) (A) (A) (A) (A) (A) (A) (A)
                 (A) (A) (A) (A) (A) (A) (A) (A) (A) (A) (A) (A)
                 (A) (A) (A) (A) (A) (A) (A) (A) (A) (A) (A) (A)
                 (A) (A) (A) (A) (A) (A) (A) (A) (A) (A) (A) (A)
                 (A) (A) (A) (A) (A) (A) (A) (A) (A) (A) (A) (A)
                 (A) (A) (A) (A) (A) (A) (A) (A) (A) (A) (A) (A)
                 (A) (A) (A) (A) (A) (A) (A) (A) (A) (A) (A) (A)
                 (A) (A) (A) (A) (A) (A) (A) (A) (A) (A) (A) (A)
                 (A) (A) (A) (A) (A) (A) (A) (A) (A) (A) (A) (A)
                 (A) (A) (A) (A) (A) (A) (A) (A) (A) (A) (A) (A)
                 (A) (A) (A) (A) (A) (A) (A) (A) (A) (A) (A) (A)
                 (A) (A) (A) (A) (A) (A) (A) (A) (A) (A) (A) (A)
                 (A) (A) (A) (A) (A) (A) (A) (A) (A) (A) (A) (A)
                 (A) (A) (A) (A) (A) (A) (A) (A) (A) (A) (A) (A)
                 (A) (A) (A) (A) (A) (A) (A) (A) (A) (A) (A) (A)
                 (A) (A) (A) (A) (A) (A) (A) (A) (A) (A) (A) (A)
                 (A) (A) (A) (A) (A) (A) (A) (A) (A) (A) (A) (A)
                 (A) (A) (A) (A) (A) (A) (A) (A) (A) (A) (A) (A)
                 (A) (A) (A) (A) (A) (A) (A) (A) (A) (A) (A) (A)
                 (A) (A) (A) (A) (A) (A) (A) (A) (A) (A) (A) (A)
                 (A) (A) (A) (A) (A) (A) (A) (A) (A) (A) (A) (A)
                 (A) (A) (A) (A) (A) (A) (A) (A) (A) (A) (A) (A)
                 (A) (A) (A) (A) (A) (A) (A) (A) (A) (A) (A) (A)
                 (A) (A) (A) (A) (A) (A)
 Beta  Orbitals:
       Occupied  (A) (A) (A) (A) (A) (A) (A) (A) (A) (A) (A) (A)
                 (A) (A) (A) (A) (A) (A) (A) (A) (A) (A) (A) (A)
                 (A) (A) (A) (A) (A) (A) (A) (A) (A) (A) (A) (A)
                 (A) (A) (A) (A) (A) (A) (A) (A) (A) (A) (A) (A)
                 (A) (A) (A) (A) (A) (A) (A) (A) (A) (A) (A) (A)
                 (A) (A) (A) (A) (A) (A) (A) (A) (A) (A) (A) (A)
                 (A) (A) (A) (A) (A) (A)
       Virtual   (A) (A) (A) (A) (A) (A) (A) (A) (A) (A) (A) (A)
                 (A) (A) (A) (A) (A) (A) (A) (A) (A) (A) (A) (A)
                 (A) (A) (A) (A) (A) (A) (A) (A) (A) (A) (A) (A)
                 (A) (A) (A) (A) (A) (A) (A) (A) (A) (A) (A) (A)
                 (A) (A) (A) (A) (A) (A) (A) (A) (A) (A) (A) (A)
                 (A) (A) (A) (A) (A) (A) (A) (A) (A) (A) (A) (A)
                 (A) (A) (A) (A) (A) (A) (A) (A) (A) (A) (A) (A)
                 (A) (A) (A) (A) (A) (A) (A) (A) (A) (A) (A) (A)
                 (A) (A) (A) (A) (A) (A) (A) (A) (A) (A) (A) (A)
                 (A) (A) (A) (A) (A) (A) (A) (A) (A) (A) (A) (A)
                 (A) (A) (A) (A) (A) (A) (A) (A) (A) (A) (A) (A)
                 (A) (A) (A) (A) (A) (A) (A) (A) (A) (A) (A) (A)
                 (A) (A) (A) (A) (A) (A) (A) (A) (A) (A) (A) (A)
                 (A) (A) (A) (A) (A) (A) (A) (A) (A) (A) (A) (A)
                 (A) (A) (A) (A) (A) (A) (A) (A) (A) (A) (A) (A)
                 (A) (A) (A) (A) (A) (A) (A) (A) (A) (A) (A) (A)
                 (A) (A) (A) (A) (A) (A) (A) (A) (A) (A) (A) (A)
                 (A) (A) (A) (A) (A) (A) (A) (A) (A) (A) (A) (A)
                 (A) (A) (A) (A) (A) (A) (A) (A) (A) (A) (A) (A)
                 (A) (A) (A) (A) (A) (A) (A) (A) (A) (A) (A) (A)
                 (A) (A) (A) (A) (A) (A) (A) (A) (A) (A) (A) (A)
                 (A) (A) (A) (A) (A) (A) (A) (A) (A) (A) (A) (A)
                 (A) (A) (A) (A) (A) (A) (A) (A) (A) (A) (A) (A)
                 (A) (A) (A) (A) (A) (A) (A) (A) (A) (A) (A) (A)
                 (A) (A) (A) (A) (A) (A) (A) (A) (A) (A) (A) (A)
                 (A) (A) (A) (A) (A) (A) (A) (A) (A) (A) (A) (A)
                 (A) (A) (A) (A) (A) (A) (A) (A) (A) (A) (A) (A)
                 (A) (A) (A) (A) (A) (A) (A) (A) (A) (A) (A) (A)
                 (A) (A) (A) (A) (A) (A) (A) (A) (A) (A) (A) (A)
                 (A) (A) (A) (A) (A) (A) (A) (A) (A) (A) (A) (A)
                 (A) (A) (A) (A) (A) (A) (A) (A) (A) (A) (A) (A)
                 (A) (A) (A) (A) (A) (A) (A) (A) (A) (A) (A) (A)
                 (A) (A) (A) (A) (A) (A) (A) (A) (A) (A) (A) (A)
                 (A) (A) (A) (A) (A) (A) (A) (A) (A) (A) (A) (A)
                 (A) (A) (A) (A) (A) (A) (A) (A) (A) (A) (A) (A)
                 (A) (A) (A) (A) (A) (A) (A) (A) (A) (A) (A) (A)
                 (A) (A) (A) (A) (A) (A) (A) (A) (A) (A) (A) (A)
                 (A) (A) (A) (A) (A) (A) (A) (A) (A) (A) (A) (A)
                 (A) (A) (A) (A) (A) (A) (A) (A) (A) (A) (A) (A)
                 (A) (A) (A) (A) (A) (A) (A) (A) (A) (A) (A) (A)
                 (A) (A) (A) (A) (A) (A) (A) (A) (A) (A) (A) (A)
                 (A) (A) (A) (A) (A) (A) (A) (A) (A) (A) (A) (A)
                 (A) (A) (A) (A) (A) (A) (A)
 The electronic state is 2-A.
 Alpha  occ. eigenvalues --  -10.21915 -10.20721 -10.20377 -10.20127 -10.20010
 Alpha  occ. eigenvalues --  -10.19785 -10.19548 -10.19496 -10.19477 -10.19475
 Alpha  occ. eigenvalues --  -10.19446 -10.19415 -10.19391 -10.19274 -10.19215
 Alpha  occ. eigenvalues --  -10.19134 -10.18960 -10.18859 -10.18774 -10.18730
 Alpha  occ. eigenvalues --  -10.18404 -10.17011 -10.16934 -10.16905  -0.92630
 Alpha  occ. eigenvalues --   -0.88469  -0.86802  -0.84350  -0.82160  -0.81877
 Alpha  occ. eigenvalues --   -0.79164  -0.77544  -0.75963  -0.73145  -0.73088
 Alpha  occ. eigenvalues --   -0.71330  -0.66861  -0.65910  -0.64008  -0.62754
 Alpha  occ. eigenvalues --   -0.60300  -0.59852  -0.57309  -0.56768  -0.53670
 Alpha  occ. eigenvalues --   -0.52060  -0.51314  -0.50169  -0.49528  -0.47762
 Alpha  occ. eigenvalues --   -0.46818  -0.45705  -0.44803  -0.44323  -0.44144
 Alpha  occ. eigenvalues --   -0.43705  -0.42656  -0.42381  -0.41196  -0.40882
 Alpha  occ. eigenvalues --   -0.40654  -0.39949  -0.38508  -0.38174  -0.37110
 Alpha  occ. eigenvalues --   -0.35739  -0.35542  -0.35075  -0.34234  -0.33761
 Alpha  occ. eigenvalues --   -0.33075  -0.32278  -0.29948  -0.28649  -0.26303
 Alpha  occ. eigenvalues --   -0.23758  -0.23484  -0.22486  -0.19135
 Alpha virt. eigenvalues --   -0.09235  -0.07711  -0.04327  -0.02550  -0.00671
 Alpha virt. eigenvalues --    0.00050   0.00638   0.00698   0.01387   0.01712
 Alpha virt. eigenvalues --    0.01832   0.03189   0.03374   0.03506   0.03523
 Alpha virt. eigenvalues --    0.04020   0.04905   0.05116   0.05381   0.05498
 Alpha virt. eigenvalues --    0.06532   0.06864   0.07438   0.07901   0.08060
 Alpha virt. eigenvalues --    0.08152   0.08583   0.09095   0.09371   0.09774
 Alpha virt. eigenvalues --    0.10456   0.10671   0.10908   0.11310   0.11417
 Alpha virt. eigenvalues --    0.11759   0.12497   0.13105   0.13523   0.13703
 Alpha virt. eigenvalues --    0.14011   0.14437   0.14610   0.14712   0.15489
 Alpha virt. eigenvalues --    0.16335   0.16394   0.16773   0.16823   0.16974
 Alpha virt. eigenvalues --    0.17226   0.17349   0.17427   0.18169   0.18257
 Alpha virt. eigenvalues --    0.18295   0.18507   0.18716   0.18939   0.19122
 Alpha virt. eigenvalues --    0.19709   0.19995   0.20358   0.20552   0.20625
 Alpha virt. eigenvalues --    0.20949   0.21046   0.21581   0.21813   0.22261
 Alpha virt. eigenvalues --    0.22567   0.22675   0.22956   0.23041   0.23510
 Alpha virt. eigenvalues --    0.23737   0.23965   0.24020   0.24317   0.24636
 Alpha virt. eigenvalues --    0.24973   0.25335   0.25658   0.25869   0.26091
 Alpha virt. eigenvalues --    0.26185   0.26414   0.27186   0.27724   0.28087
 Alpha virt. eigenvalues --    0.28301   0.28760   0.28955   0.29176   0.29572
 Alpha virt. eigenvalues --    0.29877   0.30402   0.30897   0.31360   0.31721
 Alpha virt. eigenvalues --    0.31932   0.32412   0.32614   0.33226   0.33935
 Alpha virt. eigenvalues --    0.34075   0.34458   0.35021   0.35823   0.36649
 Alpha virt. eigenvalues --    0.36894   0.37660   0.38379   0.39028   0.39366
 Alpha virt. eigenvalues --    0.39970   0.40493   0.41011   0.41958   0.42586
 Alpha virt. eigenvalues --    0.42967   0.44998   0.45257   0.45594   0.46569
 Alpha virt. eigenvalues --    0.47495   0.47693   0.48253   0.48998   0.49782
 Alpha virt. eigenvalues --    0.51380   0.51844   0.51951   0.52139   0.52804
 Alpha virt. eigenvalues --    0.53645   0.54054   0.54518   0.54788   0.55355
 Alpha virt. eigenvalues --    0.55802   0.56073   0.56412   0.56857   0.57259
 Alpha virt. eigenvalues --    0.57601   0.58316   0.58472   0.58938   0.59652
 Alpha virt. eigenvalues --    0.59900   0.60188   0.60971   0.61574   0.61804
 Alpha virt. eigenvalues --    0.62092   0.62883   0.63397   0.63727   0.64732
 Alpha virt. eigenvalues --    0.65466   0.66038   0.66312   0.66888   0.67169
 Alpha virt. eigenvalues --    0.67557   0.68089   0.68559   0.69301   0.69497
 Alpha virt. eigenvalues --    0.69835   0.70031   0.70693   0.71034   0.71558
 Alpha virt. eigenvalues --    0.72076   0.72430   0.73268   0.73289   0.73947
 Alpha virt. eigenvalues --    0.74337   0.75080   0.75273   0.75582   0.76124
 Alpha virt. eigenvalues --    0.76366   0.77068   0.77501   0.78624   0.79197
 Alpha virt. eigenvalues --    0.82519   0.83042   0.83661   0.84248   0.84737
 Alpha virt. eigenvalues --    0.85275   0.86199   0.86833   0.87093   0.88183
 Alpha virt. eigenvalues --    0.88831   0.88933   0.89392   0.89762   0.91012
 Alpha virt. eigenvalues --    0.91362   0.92338   0.92612   0.92662   0.93507
 Alpha virt. eigenvalues --    0.93745   0.94172   0.94554   0.95081   0.95509
 Alpha virt. eigenvalues --    0.95620   0.95894   0.96431   0.97024   0.97995
 Alpha virt. eigenvalues --    0.98954   0.99703   1.00007   1.01504   1.01712
 Alpha virt. eigenvalues --    1.02083   1.02743   1.04048   1.04625   1.05059
 Alpha virt. eigenvalues --    1.05662   1.06225   1.06771   1.07035   1.07770
 Alpha virt. eigenvalues --    1.08401   1.08815   1.09938   1.11281   1.11979
 Alpha virt. eigenvalues --    1.13605   1.14880   1.16251   1.17312   1.17923
 Alpha virt. eigenvalues --    1.19817   1.20646   1.21566   1.24082   1.25182
 Alpha virt. eigenvalues --    1.26574   1.27525   1.28205   1.31178   1.32558
 Alpha virt. eigenvalues --    1.34456   1.37228   1.38452   1.38995   1.39752
 Alpha virt. eigenvalues --    1.41327   1.42739   1.44834   1.45330   1.46090
 Alpha virt. eigenvalues --    1.47049   1.47312   1.47600   1.48820   1.49758
 Alpha virt. eigenvalues --    1.49848   1.50361   1.51078   1.51528   1.52474
 Alpha virt. eigenvalues --    1.53457   1.53873   1.54417   1.55773   1.56641
 Alpha virt. eigenvalues --    1.57073   1.57821   1.58112   1.59738   1.61446
 Alpha virt. eigenvalues --    1.62235   1.62808   1.63415   1.65348   1.66616
 Alpha virt. eigenvalues --    1.67409   1.67589   1.68520   1.69230   1.70099
 Alpha virt. eigenvalues --    1.72168   1.72934   1.73364   1.74079   1.74673
 Alpha virt. eigenvalues --    1.75106   1.76336   1.76472   1.77227   1.78031
 Alpha virt. eigenvalues --    1.79481   1.80185   1.81057   1.81419   1.82375
 Alpha virt. eigenvalues --    1.82766   1.83648   1.84746   1.85104   1.85280
 Alpha virt. eigenvalues --    1.86196   1.87021   1.87265   1.87697   1.88506
 Alpha virt. eigenvalues --    1.89096   1.89924   1.90920   1.91653   1.91842
 Alpha virt. eigenvalues --    1.93865   1.94591   1.96183   1.96313   1.96801
 Alpha virt. eigenvalues --    1.98434   1.98629   1.99380   2.00793   2.01624
 Alpha virt. eigenvalues --    2.02976   2.03302   2.03965   2.04774   2.05587
 Alpha virt. eigenvalues --    2.06777   2.07907   2.08784   2.10129   2.11328
 Alpha virt. eigenvalues --    2.12537   2.12890   2.13449   2.15117   2.15978
 Alpha virt. eigenvalues --    2.18056   2.18672   2.20067   2.21210   2.22090
 Alpha virt. eigenvalues --    2.22424   2.23856   2.24484   2.25218   2.27717
 Alpha virt. eigenvalues --    2.29427   2.30360   2.31719   2.35468   2.36594
 Alpha virt. eigenvalues --    2.37284   2.40805   2.41580   2.41938   2.42543
 Alpha virt. eigenvalues --    2.44781   2.46385   2.47041   2.48461   2.50890
 Alpha virt. eigenvalues --    2.53016   2.54183   2.56138   2.56569   2.57637
 Alpha virt. eigenvalues --    2.59164   2.60615   2.62362   2.63692   2.65200
 Alpha virt. eigenvalues --    2.66172   2.67010   2.67996   2.69955   2.70717
 Alpha virt. eigenvalues --    2.71328   2.71690   2.72313   2.72732   2.73263
 Alpha virt. eigenvalues --    2.73497   2.74334   2.74864   2.75384   2.75618
 Alpha virt. eigenvalues --    2.75839   2.76655   2.76853   2.77172   2.77861
 Alpha virt. eigenvalues --    2.78655   2.78910   2.80141   2.81581   2.83359
 Alpha virt. eigenvalues --    2.83878   2.84517   2.85494   2.86043   2.86790
 Alpha virt. eigenvalues --    2.87187   2.90145   2.90718   2.91531   2.91741
 Alpha virt. eigenvalues --    2.93173   2.94488   2.97389   3.00868   3.01465
 Alpha virt. eigenvalues --    3.02579   3.02970   3.06056   3.08300   3.10537
 Alpha virt. eigenvalues --    3.12250   3.13131   3.14249   3.17523   3.18273
 Alpha virt. eigenvalues --    3.19441   3.20744   3.22953   3.23586   3.23856
 Alpha virt. eigenvalues --    3.29059   3.31725   3.33481   3.37125   3.37453
 Alpha virt. eigenvalues --    3.39647   3.40162   3.41722   3.42485   3.43153
 Alpha virt. eigenvalues --    3.44944   3.45552   3.47177   3.48634   3.49410
 Alpha virt. eigenvalues --    3.52890   3.55023   3.57497   3.59479   3.61486
 Alpha virt. eigenvalues --    3.65076   3.66448   3.71848   3.80545   3.82594
 Alpha virt. eigenvalues --    3.84605   3.88025   4.01950   4.05111   4.05406
 Alpha virt. eigenvalues --    4.05797   4.06489   4.07033   4.10340   4.20023
 Alpha virt. eigenvalues --    4.23908   4.27474   4.35137   4.47048   4.73523
 Alpha virt. eigenvalues --    4.74597   4.77114   4.77790   4.81659   4.86723
 Alpha virt. eigenvalues --    4.88881  23.37657  23.66732  23.71971  23.79766
 Alpha virt. eigenvalues --   23.81905  23.83891  23.87067  23.89481  23.92968
 Alpha virt. eigenvalues --   23.94263  23.97844  23.98850  24.03989  24.04731
 Alpha virt. eigenvalues --   24.07358  24.08966  24.09850  24.10925  24.11873
 Alpha virt. eigenvalues --   24.12996  24.16389  24.17776  24.19504  24.21118
  Beta  occ. eigenvalues --  -10.22051 -10.20595 -10.20368 -10.20203 -10.19915
  Beta  occ. eigenvalues --  -10.19755 -10.19564 -10.19538 -10.19502 -10.19478
  Beta  occ. eigenvalues --  -10.19456 -10.19397 -10.19376 -10.19356 -10.19229
  Beta  occ. eigenvalues --  -10.19027 -10.18841 -10.18744 -10.18623 -10.18605
  Beta  occ. eigenvalues --  -10.18519 -10.17028 -10.16926 -10.16854  -0.92628
  Beta  occ. eigenvalues --   -0.88343  -0.86794  -0.84271  -0.82129  -0.81871
  Beta  occ. eigenvalues --   -0.79051  -0.77447  -0.75903  -0.73119  -0.73033
  Beta  occ. eigenvalues --   -0.71222  -0.66814  -0.65813  -0.63879  -0.62729
  Beta  occ. eigenvalues --   -0.60267  -0.59831  -0.57286  -0.56670  -0.53668
  Beta  occ. eigenvalues --   -0.52027  -0.51275  -0.50086  -0.49509  -0.47712
  Beta  occ. eigenvalues --   -0.46786  -0.45673  -0.44767  -0.44249  -0.44014
  Beta  occ. eigenvalues --   -0.43697  -0.42629  -0.42353  -0.40891  -0.40637
  Beta  occ. eigenvalues --   -0.40233  -0.39911  -0.38410  -0.38120  -0.37058
  Beta  occ. eigenvalues --   -0.35695  -0.35197  -0.34965  -0.33954  -0.33485
  Beta  occ. eigenvalues --   -0.33050  -0.32270  -0.29240  -0.28090  -0.26200
  Beta  occ. eigenvalues --   -0.23447  -0.23150  -0.20134
  Beta virt. eigenvalues --   -0.09663  -0.08542  -0.06041  -0.04047  -0.02178
  Beta virt. eigenvalues --   -0.00460   0.00155   0.00655   0.00709   0.01407
  Beta virt. eigenvalues --    0.01712   0.01842   0.03213   0.03397   0.03511
  Beta virt. eigenvalues --    0.03563   0.04092   0.04917   0.05196   0.05385
  Beta virt. eigenvalues --    0.05503   0.06576   0.06868   0.07641   0.07941
  Beta virt. eigenvalues --    0.08087   0.08164   0.08683   0.09165   0.09433
  Beta virt. eigenvalues --    0.09889   0.10423   0.10681   0.11001   0.11319
  Beta virt. eigenvalues --    0.11578   0.11829   0.12580   0.13102   0.13720
  Beta virt. eigenvalues --    0.13861   0.14038   0.14446   0.14655   0.14887
  Beta virt. eigenvalues --    0.15586   0.16401   0.16433   0.16836   0.16909
  Beta virt. eigenvalues --    0.17030   0.17279   0.17359   0.17545   0.18285
  Beta virt. eigenvalues --    0.18312   0.18461   0.18621   0.18714   0.18972
  Beta virt. eigenvalues --    0.19154   0.19818   0.20031   0.20423   0.20612
  Beta virt. eigenvalues --    0.20751   0.21065   0.21095   0.21619   0.21853
  Beta virt. eigenvalues --    0.22340   0.22619   0.22716   0.23078   0.23181
  Beta virt. eigenvalues --    0.23575   0.23757   0.23991   0.24029   0.24397
  Beta virt. eigenvalues --    0.24646   0.25012   0.25372   0.25699   0.25993
  Beta virt. eigenvalues --    0.26167   0.26409   0.26483   0.27222   0.27771
  Beta virt. eigenvalues --    0.28119   0.28307   0.28773   0.28947   0.29247
  Beta virt. eigenvalues --    0.29638   0.29895   0.30560   0.30957   0.31431
  Beta virt. eigenvalues --    0.31781   0.31962   0.32473   0.32625   0.33297
  Beta virt. eigenvalues --    0.33988   0.34110   0.34618   0.35056   0.35853
  Beta virt. eigenvalues --    0.36743   0.36992   0.37906   0.38493   0.39050
  Beta virt. eigenvalues --    0.39378   0.40054   0.40485   0.41033   0.41990
  Beta virt. eigenvalues --    0.42647   0.43009   0.45066   0.45563   0.46296
  Beta virt. eigenvalues --    0.47502   0.47708   0.48184   0.48665   0.49129
  Beta virt. eigenvalues --    0.49774   0.51447   0.51917   0.52034   0.52129
  Beta virt. eigenvalues --    0.52877   0.53843   0.54253   0.54607   0.54984
  Beta virt. eigenvalues --    0.55429   0.55932   0.56109   0.56643   0.56933
  Beta virt. eigenvalues --    0.57423   0.57875   0.58430   0.58677   0.59024
  Beta virt. eigenvalues --    0.59678   0.59964   0.60314   0.61099   0.61568
  Beta virt. eigenvalues --    0.61821   0.62149   0.62908   0.63534   0.63831
  Beta virt. eigenvalues --    0.64850   0.65508   0.66127   0.66402   0.66952
  Beta virt. eigenvalues --    0.67224   0.67731   0.68227   0.68658   0.69319
  Beta virt. eigenvalues --    0.69557   0.69966   0.70090   0.70834   0.71061
  Beta virt. eigenvalues --    0.71599   0.72116   0.72490   0.73308   0.73337
  Beta virt. eigenvalues --    0.73966   0.74405   0.75127   0.75333   0.75599
  Beta virt. eigenvalues --    0.76220   0.76454   0.77158   0.77567   0.78769
  Beta virt. eigenvalues --    0.79287   0.82548   0.83081   0.83694   0.84405
  Beta virt. eigenvalues --    0.84837   0.85546   0.86306   0.86858   0.87191
  Beta virt. eigenvalues --    0.88305   0.88833   0.89013   0.89634   0.89989
  Beta virt. eigenvalues --    0.91072   0.91394   0.92432   0.92621   0.92697
  Beta virt. eigenvalues --    0.93589   0.93943   0.94195   0.94623   0.95112
  Beta virt. eigenvalues --    0.95566   0.95645   0.95944   0.96699   0.97050
  Beta virt. eigenvalues --    0.98206   0.99146   0.99747   1.00206   1.01634
  Beta virt. eigenvalues --    1.01790   1.02142   1.02921   1.04216   1.04828
  Beta virt. eigenvalues --    1.05353   1.05756   1.06272   1.06842   1.07151
  Beta virt. eigenvalues --    1.07845   1.08605   1.08854   1.10259   1.11344
  Beta virt. eigenvalues --    1.12144   1.13750   1.14981   1.16321   1.17420
  Beta virt. eigenvalues --    1.17986   1.19930   1.20852   1.21715   1.24395
  Beta virt. eigenvalues --    1.25297   1.26642   1.27537   1.28306   1.31367
  Beta virt. eigenvalues --    1.32949   1.34551   1.37514   1.38712   1.39227
  Beta virt. eigenvalues --    1.39905   1.41473   1.43140   1.45006   1.45487
  Beta virt. eigenvalues --    1.46133   1.47264   1.47338   1.47753   1.49173
  Beta virt. eigenvalues --    1.49796   1.49978   1.50670   1.51180   1.51725
  Beta virt. eigenvalues --    1.52905   1.53585   1.54253   1.54835   1.56042
  Beta virt. eigenvalues --    1.56714   1.57161   1.57919   1.58278   1.59818
  Beta virt. eigenvalues --    1.61556   1.62483   1.62973   1.63881   1.66572
  Beta virt. eigenvalues --    1.66696   1.67456   1.68221   1.69206   1.70366
  Beta virt. eigenvalues --    1.70762   1.72339   1.73116   1.73416   1.74264
  Beta virt. eigenvalues --    1.75320   1.75697   1.76437   1.77283   1.78035
  Beta virt. eigenvalues --    1.78650   1.80169   1.80635   1.81538   1.82050
  Beta virt. eigenvalues --    1.82661   1.83162   1.83793   1.85052   1.85154
  Beta virt. eigenvalues --    1.85668   1.86398   1.87172   1.87533   1.88147
  Beta virt. eigenvalues --    1.88559   1.89338   1.90430   1.91190   1.91956
  Beta virt. eigenvalues --    1.92380   1.94005   1.94724   1.96307   1.96434
  Beta virt. eigenvalues --    1.97089   1.98648   1.99291   1.99624   2.00952
  Beta virt. eigenvalues --    2.01697   2.03066   2.03513   2.04089   2.05138
  Beta virt. eigenvalues --    2.05627   2.06903   2.08192   2.09900   2.11018
  Beta virt. eigenvalues --    2.11397   2.12771   2.13091   2.13533   2.15319
  Beta virt. eigenvalues --    2.16051   2.18189   2.18798   2.20200   2.21300
  Beta virt. eigenvalues --    2.22196   2.22526   2.23894   2.24654   2.25471
  Beta virt. eigenvalues --    2.27736   2.29535   2.30439   2.31740   2.35546
  Beta virt. eigenvalues --    2.36708   2.37392   2.40852   2.41597   2.41989
  Beta virt. eigenvalues --    2.42550   2.44874   2.46386   2.47095   2.48522
  Beta virt. eigenvalues --    2.50907   2.54096   2.55474   2.56568   2.56824
  Beta virt. eigenvalues --    2.57653   2.59205   2.61488   2.63397   2.63735
  Beta virt. eigenvalues --    2.65798   2.66434   2.67465   2.68127   2.70127
  Beta virt. eigenvalues --    2.70759   2.71455   2.72079   2.72735   2.72807
  Beta virt. eigenvalues --    2.73417   2.74008   2.74898   2.75075   2.75425
  Beta virt. eigenvalues --    2.75705   2.76190   2.76710   2.76887   2.77591
  Beta virt. eigenvalues --    2.77943   2.78703   2.78956   2.80230   2.81592
  Beta virt. eigenvalues --    2.83483   2.83941   2.84732   2.85538   2.86133
  Beta virt. eigenvalues --    2.86990   2.87444   2.90280   2.90748   2.91566
  Beta virt. eigenvalues --    2.91813   2.93224   2.95267   2.97570   3.01242
  Beta virt. eigenvalues --    3.01623   3.02590   3.03065   3.06087   3.08589
  Beta virt. eigenvalues --    3.10569   3.12409   3.13447   3.14738   3.17588
  Beta virt. eigenvalues --    3.18284   3.19471   3.20831   3.22959   3.23630
  Beta virt. eigenvalues --    3.23901   3.29086   3.31776   3.33505   3.37172
  Beta virt. eigenvalues --    3.37466   3.39723   3.40181   3.41753   3.42493
  Beta virt. eigenvalues --    3.43161   3.44969   3.45586   3.47193   3.48689
  Beta virt. eigenvalues --    3.49417   3.52942   3.55037   3.57538   3.59507
  Beta virt. eigenvalues --    3.61521   3.65134   3.66625   3.72002   3.80549
  Beta virt. eigenvalues --    3.82601   3.84626   3.88039   4.02031   4.05130
  Beta virt. eigenvalues --    4.05417   4.05830   4.06521   4.07044   4.10558
  Beta virt. eigenvalues --    4.20068   4.23924   4.27548   4.35132   4.47115
  Beta virt. eigenvalues --    4.73544   4.74548   4.77124   4.77975   4.81653
  Beta virt. eigenvalues --    4.86720   4.88901  23.37665  23.66767  23.71985
  Beta virt. eigenvalues --   23.79781  23.81935  23.83913  23.87079  23.89492
  Beta virt. eigenvalues --   23.92979  23.94239  23.97811  23.98827  24.04253
  Beta virt. eigenvalues --   24.04798  24.07381  24.08970  24.09845  24.10931
  Beta virt. eigenvalues --   24.11875  24.12992  24.16464  24.17778  24.19505
  Beta virt. eigenvalues --   24.21118
          Condensed to atoms (all electrons):
               1          2          3          4          5          6
     1  C   12.734439  -2.786412   0.558046   1.243098  -1.075348   2.998719
     2  C   -2.786412  13.003707   0.528183  -0.865133  -0.075111  -1.772333
     3  C    0.558046   0.528183   7.099247   0.958530   0.552516   0.773986
     4  C    1.243098  -0.865133   0.958530  10.817548  -1.452792  -1.111939
     5  C   -1.075348  -0.075111   0.552516  -1.452792  10.736572   0.734315
     6  C    2.998719  -1.772333   0.773986  -1.111939   0.734315   9.386473
     7  C   -1.625344   1.145980  -0.296239  -0.138317   0.020318  -1.554624
     8  C   -0.271416  -0.375380   0.114940  -0.074252   0.286698  -0.212207
     9  C   -0.069942  -0.008495  -0.527887  -1.505726  -0.335190   1.045078
    10  C   -0.375792  -0.008911  -0.747540  -0.129593  -0.419790  -0.032323
    11  C   -0.047440   0.207718   0.154075   0.027282  -0.056682  -0.143549
    12  C   -0.316469  -0.564003  -0.312167  -0.005170   0.258454  -0.681653
    13  C   -0.308765   0.350844   0.469945   0.136678  -0.137604  -0.199281
    14  C    0.019358  -0.032281   0.039787  -0.001757   0.071554   0.005273
    15  C   -0.082452  -0.112469   0.031137   0.016304   0.012833  -0.129535
    16  C   -1.243633   0.187678  -0.256372  -0.094578   0.044095  -0.519356
    17  C   -0.092611  -0.744202  -0.376242  -0.043924  -0.056303   0.006964
    18  H    0.351296  -0.113464   0.013203   0.000760  -0.023672  -0.025387
    19  H    0.009990  -0.030229  -0.006056   0.379398  -0.073700   0.036402
    20  C   -0.729963   0.970116  -1.591935  -1.493136  -2.336277  -1.018361
    21  C    0.187105  -0.273765   0.056859   0.396257   0.347436   0.620178
    22  C    0.193253  -0.393231  -0.175584  -0.139732   0.061134  -0.031840
    23  H   -0.000044  -0.000578  -0.002592  -0.000092  -0.000251   0.002873
    24  H   -0.000070  -0.000855   0.000628  -0.000001   0.000048  -0.000127
    25  H    0.000210   0.006184   0.000960  -0.000100  -0.000099  -0.000101
    26  H    0.000042   0.000022  -0.000018  -0.000005  -0.000011   0.000079
    27  C   -2.268999  -0.898859  -0.774217  -0.418902  -0.363875  -1.554935
    28  C   -0.624405  -1.585292  -0.376715  -0.087699  -0.146714  -0.522660
    29  H    0.082729  -0.038233   0.020582   0.024523   0.014736   0.000160
    30  C    0.005806   0.037993  -0.488166  -0.323774  -1.462589   0.507829
    31  C   -0.079098  -0.018614   0.558895   0.263151   0.615226  -0.599363
    32  H   -0.000943   0.009797  -0.008816   0.019477  -0.104135   0.018281
    33  H   -0.001547   0.003205  -0.002941   0.003651  -0.037998   0.001093
    34  H    0.000394  -0.000729   0.001839  -0.000123   0.009357  -0.013664
    35  H   -0.000078   0.000142   0.003212   0.000060   0.000402  -0.003182
    36  H   -0.009791   0.006406  -0.063271   0.001984  -0.007589   0.009174
    37  H    0.001430  -0.010562  -0.003486  -0.000715   0.000057   0.001747
               7          8          9         10         11         12
     1  C   -1.625344  -0.271416  -0.069942  -0.375792  -0.047440  -0.316469
     2  C    1.145980  -0.375380  -0.008495  -0.008911   0.207718  -0.564003
     3  C   -0.296239   0.114940  -0.527887  -0.747540   0.154075  -0.312167
     4  C   -0.138317  -0.074252  -1.505726  -0.129593   0.027282  -0.005170
     5  C    0.020318   0.286698  -0.335190  -0.419790  -0.056682   0.258454
     6  C   -1.554624  -0.212207   1.045078  -0.032323  -0.143549  -0.681653
     7  C    9.242662  -0.342528  -0.774540   1.414590   0.990790  -0.023955
     8  C   -0.342528   6.882939   0.410973   0.217061   0.123585  -0.551895
     9  C   -0.774540   0.410973   9.449595  -1.009357  -0.980588  -0.927560
    10  C    1.414590   0.217061  -1.009357  11.996642   1.362836  -0.850713
    11  C    0.990790   0.123585  -0.980588   1.362836   8.380310   0.542336
    12  C   -0.023955  -0.551895  -0.927560  -0.850713   0.542336  11.330955
    13  C    0.319696  -0.211621  -0.505721  -1.096099   1.043176   0.187870
    14  C   -0.722225  -0.497118   0.060962  -0.572289  -2.002480  -0.193282
    15  C   -0.431465  -0.180295  -0.159964  -0.616636  -0.607849  -0.693143
    16  C   -1.399767   0.177705  -0.770541  -0.835037  -0.898318   0.210146
    17  C   -0.108718   0.349991   0.045127   0.237787   0.002461   0.525961
    18  H   -0.003856   0.002140  -0.002073   0.000137  -0.000002  -0.000095
    19  H   -0.001246   0.002688  -0.009543  -0.000377  -0.000068   0.000193
    20  C    0.500167  -0.654142   1.346133   0.420209  -0.054306   0.065253
    21  C   -0.121625  -0.194719   0.731254   0.531828  -0.235784  -0.250545
    22  C   -1.692254   0.528618   2.508613  -2.884014  -2.043105  -1.019414
    23  H   -0.019072   0.015224  -0.005634  -0.046416   0.339884  -0.062625
    24  H   -0.006124   0.007296   0.000845   0.045721   0.101985  -0.088657
    25  H   -0.005433   0.001389   0.000051  -0.000463   0.000764  -0.004181
    26  H    0.001775   0.002027   0.000145   0.004139   0.007392   0.050496
    27  C    1.127342   0.259855   0.052805   0.276436  -0.034856   0.005913
    28  C    1.114712  -0.268091   0.280452   0.031019  -0.266311  -1.048043
    29  H   -0.007433  -0.001696   0.003564  -0.000288   0.000191  -0.001630
    30  C   -0.019963  -0.747837  -1.054374   0.449672   0.155130  -0.166357
    31  C   -0.216974   1.090625  -1.338336  -1.646264   0.057744  -0.235504
    32  H    0.003839  -0.000756  -0.007894   0.002392   0.000234   0.000072
    33  H    0.005718  -0.014251   0.032117   0.011955   0.000158  -0.000031
    34  H   -0.001724   0.001714   0.041851  -0.024765   0.000794   0.003202
    35  H   -0.005087   0.029602  -0.015572  -0.085332   0.062829   0.018909
    36  H   -0.066691   0.010816  -0.019162  -0.028625  -0.033061  -0.050363
    37  H   -0.006558   0.001785  -0.000560   0.000808  -0.000538   0.003280
              13         14         15         16         17         18
     1  C   -0.308765   0.019358  -0.082452  -1.243633  -0.092611   0.351296
     2  C    0.350844  -0.032281  -0.112469   0.187678  -0.744202  -0.113464
     3  C    0.469945   0.039787   0.031137  -0.256372  -0.376242   0.013203
     4  C    0.136678  -0.001757   0.016304  -0.094578  -0.043924   0.000760
     5  C   -0.137604   0.071554   0.012833   0.044095  -0.056303  -0.023672
     6  C   -0.199281   0.005273  -0.129535  -0.519356   0.006964  -0.025387
     7  C    0.319696  -0.722225  -0.431465  -1.399767  -0.108718  -0.003856
     8  C   -0.211621  -0.497118  -0.180295   0.177705   0.349991   0.002140
     9  C   -0.505721   0.060962  -0.159964  -0.770541   0.045127  -0.002073
    10  C   -1.096099  -0.572289  -0.616636  -0.835037   0.237787   0.000137
    11  C    1.043176  -2.002480  -0.607849  -0.898318   0.002461  -0.000002
    12  C    0.187870  -0.193282  -0.693143   0.210146   0.525961  -0.000095
    13  C    9.708181  -0.956367   1.426499   1.901876  -2.164203   0.002665
    14  C   -0.956367   9.865597   1.003132   1.336265  -1.182201  -0.000015
    15  C    1.426499   1.003132   8.132804   0.343852  -0.417289   0.000028
    16  C    1.901876   1.336265   0.343852  15.023188  -1.674724   0.005371
    17  C   -2.164203  -1.182201  -0.417289  -1.674724   9.865716   0.000364
    18  H    0.002665  -0.000015   0.000028   0.005371   0.000364   0.548654
    19  H   -0.000026   0.000014  -0.000005  -0.000086  -0.000006  -0.008789
    20  C   -0.099226  -0.002080  -0.001961   0.150246   0.016450   0.007578
    21  C   -0.077871  -0.127866  -0.019824   0.080760   0.016873  -0.000376
    22  C   -0.759103   0.127878  -0.238878  -0.150209   0.106488  -0.000084
    23  H   -0.017036   0.050010   0.015042   0.008644   0.006941  -0.000000
    24  H    0.018110   0.370585  -0.039916  -0.041402  -0.032076  -0.000000
    25  H   -0.001166  -0.023800  -0.033680  -0.155510   0.428879   0.000000
    26  H   -0.009261  -0.043597   0.359497  -0.002665  -0.032336  -0.000000
    27  C   -0.722453  -0.116483  -0.158955  -1.724325   0.185633   0.092862
    28  C   -2.619518  -0.361499  -1.128567  -3.710696   1.100856   0.028729
    29  H   -0.017341  -0.000226  -0.000313  -0.033630  -0.004675   0.002909
    30  C    0.085221  -0.025271  -0.000599  -0.036151  -0.010351  -0.000787
    31  C    0.117019  -0.129159  -0.001140  -0.194282  -0.019549   0.000029
    32  H   -0.000065   0.000002   0.000002  -0.000091  -0.000012  -0.000004
    33  H   -0.000302  -0.000014   0.000001   0.000104   0.000006  -0.000000
    34  H    0.000171   0.000409   0.000005   0.000224  -0.000003  -0.000000
[...]
 389,0.00004746,0.00005348,0.00140942,-0.00152395,0.00110918,0.00022478
 ,-0.00083482,-0.00015522,-0.00056835,-0.00022825,-0.00002472,-0.000062
 23,0.00138029,0.00033087,-0.00438662,-0.00392600,0.00074736,0.00011271
 ,0.00001649,-0.00000647,-0.00002221,-0.00004864,-0.00002144,-0.0000178
 7,-0.00004641,-0.00000635,0.00009688,0.00017848,-0.00001935,0.00004111
 ,0.00001172,0.00000605,-0.00004173,0.00000829,-0.00000943,-0.00005813,
 -0.00001591,-0.00000285,-0.00000204,0.00002075,-0.00000819,0.00002120,
 -0.00000737,-0.00000815,0.00000416,0.00002530,0.00002421,0.00467564,-0
 .00348871,-0.00028101,-0.01712284,0.01691665,0.00359559,-0.00015936,-0
 .00027145,-0.00003067,-0.00003627,-0.00001621,-0.00000168,-0.00000755,
 -0.00000855,0.00000063,-0.00001271,0.00000529,0.00000388,-0.00000657,0
 .00000098,0.00000069,0.00002826,0.00002299,0.00000629,-0.00002632,-0.0
 0004789,0.00000047,-0.00000430,0.00001174,-0.00000124,-0.24862799,0.12
 388121,0.03288298,0.00131542,0.00091372,-0.00028128,0.00090096,0.00017
 034,-0.00097788,0.26238180,0.00014323,-0.00048104,0.00008509,-0.000199
 52,-0.00018017,0.00001019,-0.00000040,0.00021587,0.00000049,0.00126658
 ,0.00029866,-0.00020346,-0.00197925,-0.00504500,0.00019103,-0.00053782
 ,-0.00042370,0.00007628,-0.00021862,-0.00021187,-0.00000763,-0.0004888
 3,0.00072257,0.00008782,-0.00332053,-0.00094836,0.00021554,-0.00004198
 ,0.00018309,0.00002911,0.00009177,-0.00005350,-0.00000122,-0.00006385,
 0.00003437,0.00000048,0.00000989,0.00009724,-0.00000169,0.00007072,-0.
 00001540,0.00000607,-0.00001823,0.00005037,-0.00000102,-0.00001747,0.0
 0001108,-0.00001470,-0.00001553,-0.00001455,-0.00001280,0.00014545,-0.
 00005947,0.00000973,-0.00003625,-0.00003751,0.00000200,0.02692162,-0.0
 1409378,-0.00426569,-0.01206713,0.01158611,0.00212633,0.00028737,-0.00
 004293,-0.00002317,-0.00000704,-0.00000024,-0.00000126,-0.00000023,0.0
 0000208,-0.00000032,-0.00000412,-0.00000262,-0.00000103,0.00000456,0.0
 0000206,-0.00000009,0.00003630,0.00004838,-0.00001162,-0.00002727,-0.0
 0006386,0.00001118,-0.00000297,-0.00000387,0.00000075,0.12151882,-0.13
 659157,-0.01978613,0.00035984,0.00115007,0.00011162,-0.00019612,0.0008
 0784,0.00010392,-0.13218669,0.14329744,0.00000194,-0.00013958,-0.00067
 353,-0.00009884,0.00001835,0.00019136,0.00006093,-0.00009313,-0.000615
 82,0.00019450,0.00007812,0.00042317,0.00099800,0.00000043,0.00832865,-
 0.00044428,-0.00009370,-0.00069754,0.00003238,0.00008438,-0.00008960,0
 .00019077,-0.00031595,0.00038085,0.00074051,0.00084175,0.00476514,-0.0
 0020573,0.00004536,-0.00010259,0.00011491,-0.00004391,0.00002180,-0.00
 013035,0.00001375,-0.00004472,0.00007256,-0.00002018,-0.00006335,0.000
 11514,-0.00003796,0.00001007,-0.00000917,0.00009898,-0.00001275,0.0000
 5075,0.00008141,-0.00002529,-0.00005285,-0.00005454,-0.00000056,0.0000
 0876,-0.00001215,-0.00006295,0.00001061,0.00001699,0.00017642,0.000330
 55,0.00109486,0.00319759,0.00366569,-0.00172540,0.00208456,0.00018574,
 -0.00000027,-0.00012958,0.00000392,0.00000059,0.00001526,0.00000106,-0
 .00000025,0.00001068,-0.00000236,-0.00000133,0.00002326,0.00000085,0.0
 0000121,0.00000032,0.00008101,0.00001699,0.00009863,-0.00005907,-0.000
 07930,-0.00001611,0.00000122,0.00000121,-0.00000628,0.03232628,-0.0212
 8193,-0.04017694,-0.00056832,0.00001725,-0.00206948,-0.00098265,0.0000
 1093,-0.00527386,-0.03671486,0.02134137,0.02999763,0.00002080,-0.00001
 820,-0.00000132,0.00008022,-0.00003178,0.00000816,-0.00010577,-0.00008
 558,0.00000518,-0.00001573,0.00003417,-0.00000220,0.00019986,0.0000364
 0,-0.00003365,0.00050774,-0.00039992,-0.00004176,0.00019696,-0.0000419
 1,-0.00002968,-0.00019348,-0.00046910,-0.00006109,0.00013253,-0.002370
 74,-0.00003115,-0.00392401,-0.00323657,0.00040589,-0.00001582,0.001317
 04,0.00016462,-0.00043361,-0.00009566,-0.00013329,-0.00012612,-0.00005
 020,0.00000342,0.00003348,0.00015854,0.00000558,-0.00007825,0.00000985
 ,-0.00000347,0.00001966,-0.00006717,-0.00001206,-0.00000359,-0.0000201
 9,-0.00000266,-0.00000142,0.00000755,0.00000069,0.00000436,-0.00000124
 ,0.00000004,-0.00006575,0.00029059,0.00000831,0.00963512,-0.00713709,-
 0.00127972,-0.01817768,0.02276020,0.00373967,-0.00003572,-0.00005047,0
 .00001742,0.00000013,-0.00001271,-0.00000194,-0.00000542,0.00000741,-0
 .00000065,-0.00001675,0.00001385,0.00000033,-0.00004018,-0.00001442,-0
 .00000044,0.00001670,0.00000792,0.00000024,0.00000547,0.00000505,0.000
 00106,0.00094974,0.00033647,-0.00019032,-0.18561780,0.13391923,0.02368
 215,0.00000321,0.00002537,0.00000283,-0.00017169,0.00053522,0.00006619
 ,0.19643598,-0.00000328,-0.00005716,0.00000754,0.00016206,0.00004503,0
 .00002409,-0.00014449,-0.00055600,0.00002510,-0.00004429,0.00001634,0.
 00001841,-0.00003184,0.00008334,0.00000022,0.00152484,0.00011997,-0.00
 036492,0.00031031,-0.00010883,0.00005697,-0.00090643,0.00010751,0.0001
 2295,-0.00313115,-0.00563187,-0.00035805,-0.00265966,0.00026852,-0.000
 90231,0.00011125,0.00043753,-0.00000087,-0.00016499,0.00013345,0.00008
 742,-0.00021624,-0.00005762,-0.00004959,0.00003429,0.00004699,0.000018
 82,-0.00000263,0.00004465,-0.00000917,0.00004440,-0.00007413,-0.000032
 70,-0.00001994,-0.00001062,0.00000610,-0.00000156,-0.00001162,-0.00000
 165,-0.00000850,-0.00003787,0.00000430,-0.00023053,-0.00017581,0.00003
 093,0.02189963,-0.01515292,-0.00366872,-0.00796659,0.00840107,0.000971
 11,0.00001840,-0.00000204,-0.00002901,0.00000638,0.00000299,0.00000232
 ,0.00000033,-0.00000243,0.00000264,0.00000063,0.00000596,-0.00000356,-
 0.00003538,-0.00001133,0.00000484,0.00001534,-0.00002093,0.00001253,0.
 00002209,-0.00001842,0.00000136,0.00080185,0.00152608,0.00007738,0.136
 68335,-0.19992014,-0.02544854,-0.00003130,-0.00004630,-0.00000353,-0.0
 0096571,-0.00024517,0.00015151,-0.14518226,0.20989212,-0.00002509,0.00
 001986,-0.00002023,0.00002556,-0.00001494,-0.00007432,-0.00005132,-0.0
 0005465,0.00001655,0.00002899,-0.00003820,0.00004319,-0.00010366,0.000
 11281,-0.00006554,0.00025158,-0.00006587,0.00027230,-0.00000514,0.0000
 4071,-0.00059359,0.00008563,0.00031551,-0.00063240,-0.00061953,-0.0005
 2373,0.00392736,0.00051705,-0.00067967,0.00923865,-0.00001013,-0.00023
 135,0.00035168,0.00017181,0.00005832,-0.00091624,0.00005397,0.00001808
 ,0.00018084,-0.00002076,-0.00001168,-0.00008904,0.00001048,-0.00002158
 ,0.00008183,-0.00003859,0.00001958,0.00010868,0.00000987,0.00002673,-0
 .00001574,0.00000035,-0.00000267,-0.00000139,-0.00000072,-0.00000333,0
 .00000430,0.00003339,-0.00018318,-0.00014917,0.00155162,-0.00265866,0.
 00223070,-0.00031613,-0.00110475,0.00350683,-0.00002323,-0.00001786,0.
 00027245,0.00000147,0.00000169,-0.00001466,0.00000326,-0.00000120,-0.0
 0001648,0.00000010,-0.00000279,0.00001750,0.00000181,0.00000264,0.0000
 1604,0.00000241,-0.00000680,-0.00001498,0.00000235,-0.00000108,0.00001
 019,-0.00014026,0.00040964,-0.00161532,0.02491752,-0.02454220,-0.03924
 275,0.00001002,-0.00000528,0.00008800,-0.00008198,-0.00008907,0.000186
 94,-0.02590257,0.02842684,0.02882119,0.00006820,0.00002502,-0.00001015
 ,0.00008992,-0.00006625,-0.00000836,-0.00023334,0.00034248,-0.00001655
 ,0.00001017,0.00008316,-0.00001450,-0.00017823,0.00001439,0.00001894,0
 .00021552,0.00018921,-0.00002659,0.00069031,0.00077883,0.00016732,-0.0
 0383317,0.00311196,0.00033797,-0.00076015,0.00022185,0.00000385,0.0094
 0763,0.02248562,0.00245948,0.00148653,-0.00019992,0.00002703,-0.000035
 66,-0.00037052,-0.00002541,0.00031795,0.00004215,0.00001658,-0.0000363
 4,0.00002635,0.00000425,0.00001164,-0.00002749,-0.00000156,-0.00005441
 ,-0.00002168,0.00002862,-0.00001757,0.00006006,-0.00000069,0.00001750,
 0.00000483,0.00000231,-0.00000445,0.00000153,0.00000245,-0.00042402,-0
 .00018819,0.00005221,-0.00536197,-0.00045030,0.00077052,-0.07006373,-0
 .05690439,-0.00507470,-0.00032536,-0.00066296,-0.00008322,-0.00001896,
 0.00000038,-0.00000159,-0.00000487,-0.00000353,0.00000072,0.00000046,-
 0.00000100,-0.00000024,0.00000807,0.00000886,-0.00000254,0.00000270,-0
 .00002671,0.00000136,-0.00000094,0.00000035,0.00000029,0.00068374,-0.0
 0116531,-0.00018440,-0.00468730,-0.03054419,-0.00300828,-0.00000317,-0
 .00015369,0.00001211,-0.00004061,0.00002097,0.00001090,0.00079397,0.00
 010526,-0.00034148,0.07228412,-0.00004509,-0.00001964,0.00001309,-0.00
 008540,0.00006616,0.00003025,0.00019275,-0.00038295,0.00000528,0.00000
 153,-0.00005860,0.00000614,0.00009102,0.00004333,-0.00001594,-0.000113
 88,-0.00018433,0.00003342,-0.00093182,-0.00016187,-0.00026747,0.004131
 43,-0.00141558,-0.00029083,0.00041843,0.00065592,0.00016868,-0.0068902
 7,-0.01554136,-0.00198484,-0.00068980,0.00095822,0.00015961,0.00035996
 ,0.00002196,0.00003143,0.00002533,0.00002796,0.00002550,-0.00010755,-0
 .00007345,-0.00001580,0.00003656,-0.00006051,-0.00000052,0.00000691,0.
 00008463,0.00002733,0.00005734,-0.00002505,-0.00000750,-0.00001270,-0.
 00001908,-0.00000832,-0.00000690,-0.00000803,0.00000027,-0.00018907,0.
 00005275,0.00008774,-0.00102959,0.00166717,-0.00077619,-0.05964055,-0.
 31713413,-0.02794467,0.00089586,-0.00000468,0.00007902,0.00001787,0.00
 001994,0.00000162,0.00001145,-0.00000363,-0.00000099,0.00001591,-0.000
 00603,0.00000115,-0.00000198,0.00001336,-0.00000099,0.00000765,0.00001
 243,-0.00000251,0.00000372,-0.00001354,0.00000153,0.00017907,-0.000235
 57,-0.00010689,0.00023901,-0.00525548,-0.00102460,-0.00000058,-0.00003
 141,0.00000948,-0.00003981,0.00000060,-0.00000999,-0.00019582,0.000995
 28,0.00080923,0.06326358,0.33602876,0.00001431,0.00001093,-0.00003870,
 -0.00002206,-0.00005484,-0.00026574,0.00006416,-0.00002948,0.00024854,
 -0.00001606,0.00001254,0.00002358,0.00004980,-0.00000585,0.00015777,-0
 .00010979,-0.00008667,-0.00060993,-0.00028834,-0.00015483,0.00052102,0
 .00084150,-0.00036089,0.00360538,-0.00018633,0.00033138,-0.00088248,-0
 .00016762,-0.00331990,0.00208287,-0.00024542,0.00042898,-0.00178188,0.
 00010952,-0.00014803,-0.00020970,0.00008789,0.00008116,-0.00002139,-0.
 00006856,-0.00000594,0.00001881,0.00001508,-0.00004357,0.00001457,-0.0
 0002407,0.00004253,0.00007965,0.00001381,0.00001768,-0.00002403,0.0000
 0259,0.00000945,0.00008376,0.00000135,0.00000235,-0.00000033,-0.000149
 84,0.00003761,-0.00056745,0.00062990,-0.00076277,0.00892608,-0.0063267
 2,-0.02810098,-0.03721257,0.00009362,-0.00000286,0.00029640,0.00000251
 ,0.00000205,0.00001145,0.00000396,-0.00000048,-0.00000183,0.00000209,-
 0.00000176,0.00000171,0.00000803,-0.00000150,0.00000062,0.,0.00000311,
 -0.00000445,-0.00000113,-0.00000095,0.00000129,0.00007024,-0.00020502,
 0.00045839,0.00107899,0.00055089,0.00376695,-0.00000910,-0.00000754,-0
 .00005895,0.00001667,-0.00000227,0.00013407,-0.00040712,0.00079664,-0.
 00589750,0.00491057,0.03097522,0.02716077,0.00035926,0.00011660,-0.000
 07617,-0.00055482,0.00017234,-0.00004400,-0.00052678,-0.00047229,-0.00
 015910,-0.00027043,0.00031336,-0.00000408,-0.00037043,-0.00037056,0.00
 004775,0.00046058,0.00001366,-0.00003019,0.00053506,0.00150739,0.00070
 961,0.00069804,-0.00053177,0.00008440,-0.00014447,-0.00013950,-0.00000
 447,0.00013291,0.00055262,-0.00007697,-0.00033695,0.00000702,-0.000104
 92,-0.00103138,-0.00080334,0.00025119,-0.00277563,0.00417871,0.0039498
 0,0.00044473,0.00031345,0.00034494,-0.00029976,0.00038237,-0.00089716,
 -0.00239291,-0.00024994,-0.00553535,-0.00117274,-0.00202435,-0.0054747
 3,0.00001276,-0.00000360,0.00001300,-0.00001624,0.00000186,0.00000382,
 0.00018102,-0.00010151,-0.00001670,0.00002397,0.00004190,0.00003633,0.
 00007192,-0.00007952,0.00001400,0.00001135,0.00002691,0.00000470,0.000
 02651,0.00000868,0.00000274,0.00006551,0.00000389,0.00033783,0.0000463
 1,0.00006534,0.00016444,0.00118750,-0.00048932,0.00067202,-0.00146653,
 -0.00287942,0.00288054,0.00004757,0.00002039,-0.00016728,-0.00000629,0
 .00006504,-0.00002290,-0.00005248,0.00011037,0.00000143,-0.00001270,-0
 .00000460,0.00000855,0.00000106,0.00000945,0.00000334,-0.00000397,-0.0
 0000391,-0.00000009,-0.00000468,0.00001757,0.00000558,0.00708089,-0.00
 033019,0.00005494,-0.00002731,0.00081581,0.00013080,0.00018388,-0.0004
 8480,-0.00017546,-0.00031540,0.00016355,-0.00010394,0.00001261,-0.0001
 9164,0.00030415,-0.00002642,0.00003013,-0.00011704,-0.00000884,-0.0013
 5854,0.00009110,-0.00080819,0.00030184,-0.00069566,0.00010738,-0.00038
 589,0.00000787,0.00005422,0.00077946,0.00009019,0.00011431,-0.00034580
 ,0.00027121,-0.00004387,0.00053875,-0.00030691,-0.00016739,0.00461400,
 -0.00245031,-0.00454610,0.00000622,0.00049570,0.00068931,-0.00011378,0
 .00064071,-0.00046468,0.00083767,-0.00231992,0.00621204,-0.00295276,0.
 00038514,-0.00329516,0.00002365,0.00002541,-0.00000712,-0.00001125,-0.
 00000375,0.00000221,0.00019512,-0.00017116,-0.00001159,-0.00003395,-0.
 00055042,-0.00002824,-0.00034556,0.00020875,0.00003245,-0.00001812,0.0
 0001774,0.00000618,0.00001527,0.00000443,-0.00001985,0.00005967,-0.000
 00815,0.00006121,0.00001384,0.00002858,0.00006534,-0.00018834,-0.00074
 349,0.00099914,-0.00236907,-0.00146230,0.00280518,0.00003862,0.0000623
 5,-0.00021974,-0.00003165,0.00019834,0.00000496,0.00039963,0.00024325,
 -0.00001371,-0.00000954,0.00000479,0.00000451,0.00000773,0.00000453,-0
 .00000265,0.00000821,0.00001135,0.00000008,-0.00000048,-0.00000684,-0.
 00000358,0.00024793,0.00579369,-0.00157383,-0.00031142,0.00018053,0.00
 328195,-0.00127480,0.00010547,0.00016333,0.00188680,0.00025082,0.00062
 682,-0.00102103,0.00006812,-0.00142959,0.00125355,0.00006410,0.0006735
 4,0.00047101,-0.00014751,-0.00950839,0.00201665,-0.00186644,0.00202569
 ,-0.00483980,0.00023996,-0.00080364,-0.00062726,0.00007260,0.00440168,
 0.00146110,0.00036372,-0.00340595,0.00206672,-0.00011633,0.00459178,0.
 00149029,-0.00027384,0.01763317,-0.01630819,-0.01149594,-0.00000647,-0
 .00642953,0.00193054,0.00027135,0.01382465,-0.00121345,0.00656170,0.00
 865682,0.06499999,-0.03099299,-0.01362266,-0.02197673,-0.00000535,0.00
 002858,-0.00002349,0.00001418,-0.00001411,-0.00000737,0.00080655,-0.00
 191701,-0.00006214,-0.00086309,-0.00196919,-0.00005330,-0.00151429,0.0
 0054749,0.00011544,-0.00008688,0.00005382,0.00002265,0.00011810,0.0000
 6371,-0.00010421,0.00018061,-0.00026924,0.00089760,0.00003706,0.000428
 63,0.00011851,-0.00672481,-0.00189257,-0.00177626,0.01046348,0.0147492
 8,-0.01362151,-0.00033984,0.00001383,0.00083933,0.00102828,0.00149589,
 -0.00012005,0.00133402,0.00134694,0.00005020,0.00001265,-0.00002034,0.
 00001989,0.00000135,0.00001361,0.00001947,0.00002475,0.00002467,-0.000
 01150,-0.00002717,-0.00000648,-0.00001932,0.00309857,-0.00110484,-0.01
 781699,-0.00068009,0.00110439,-0.00014478,-0.00225263,-0.00396957,0.00
 005187,0.00045650,-0.00032989,0.00007190,-0.00028720,-0.00040023,0.000
 09465,0.00008298,-0.00001321,-0.00001571,-0.00003730,0.00011963,0.0000
 0271,-0.00016216,-0.00018973,-0.00001806,0.00010300,0.00002977,0.00000
 718,-0.00013220,-0.00000264,0.00002072,0.00000481,0.00001116,0.0000066
 4,-0.00006809,-0.00007437,-0.00002174,0.00014646,-0.00041410,-0.000049
 07,-0.00017461,-0.00166440,-0.00009903,0.00015458,-0.00015534,-0.00000
 343,0.00020253,0.00023048,0.00015763,0.00533019,-0.00620608,0.00078700
 ,0.00041100,-0.00340425,0.00010097,-0.00002254,-0.00008168,0.00000506,
 -0.00012417,0.00006263,0.00000875,0.00002864,0.00003296,-0.00000629,0.
 00000916,-0.00002099,-0.00001226,-0.00001867,0.00003391,0.00000595,0.0
 0003461,-0.00001697,-0.00000528,0.00000888,0.00001886,-0.00001557,0.00
 006728,-0.00025803,-0.00002212,0.00000410,0.00003750,0.00001404,-0.025
 07493,0.01769733,-0.00295164,-0.21363173,0.13338896,-0.01935544,0.0002
 4993,-0.00020084,0.00022104,-0.00001864,0.00000806,0.00000630,0.000029
 37,0.00000554,-0.00000086,-0.00001064,-0.00000270,0.00000217,-0.000006
 53,0.00000803,-0.00000001,-0.00000315,0.00001029,0.00000141,0.00000047
 ,0.00000785,-0.00000003,0.00005221,0.00007424,-0.00006836,0.23532856,-
 0.00022715,0.00041775,-0.00010994,-0.00251444,-0.00000090,0.00100854,-
 0.00033311,-0.00028738,0.00002867,-0.00010487,-0.00009503,-0.00002175,
 0.00001936,0.00000958,-0.00001656,0.00004239,0.00012893,-0.00006409,-0
 .00055998,0.00017212,-0.00004444,0.00011871,0.00000051,-0.00003467,-0.
 00007577,-0.00007368,-0.00001149,0.00010013,0.00004366,0.00001827,-0.0
 0051907,-0.00028092,-0.00010225,0.00153778,-0.00078441,-0.00004442,-0.
 00376331,-0.00356525,0.00097073,0.00004488,0.00019305,0.00002928,-0.00
 051774,0.00020813,-0.00010377,0.02242312,-0.02212948,0.00311913,0.0023
 0768,0.00014617,0.00003165,0.00001958,-0.00003181,0.00000984,-0.000047
 55,0.00001995,0.00001795,0.00005553,0.00001238,-0.00000039,-0.00000831
 ,-0.00008847,0.00001812,-0.00006365,0.00007352,0.00001353,0.00009470,-
 0.00013358,0.00000141,-0.00009420,0.00004529,0.00000538,-0.00156141,0.
 00022194,-0.00010699,-0.00001817,-0.00004008,0.00000949,-0.01382852,0.
 00808248,-0.00073776,0.13437533,-0.16206345,0.01783678,-0.00147867,0.0
 0140747,-0.00100222,-0.00002581,0.00004350,0.00000276,0.00008790,0.000
 03232,-0.00000469,-0.00000046,0.00000213,0.00000062,0.00000715,0.00000
 224,-0.00000317,0.00000797,0.00000302,-0.00000119,-0.00000022,-0.00000
 669,-0.00000278,-0.00002320,0.00004033,-0.00026556,-0.13547660,0.17827
 466,-0.00006869,0.00002286,-0.00006562,-0.00017119,0.00111956,0.010229
 54,-0.00015279,-0.00026110,-0.00020081,-0.00006260,-0.00003952,-0.0005
 2218,-0.00010289,-0.00002692,0.00008728,0.00003711,-0.00014117,-0.0005
 8819,0.00029562,0.00016621,0.00018705,0.00000698,-0.00005020,-0.000179
 36,0.00006087,-0.00000419,-0.00004513,0.00007168,0.00005815,-0.0000237
 3,0.00002346,0.00010697,-0.00007736,-0.00023757,0.00003452,-0.00059407
 ,0.00044881,0.00063726,0.00266914,-0.00007359,0.00000541,0.00004781,0.
 00007051,-0.00009915,-0.00014656,-0.00332927,0.00278161,0.00380171,0.0
 0046025,-0.00041549,-0.00114901,0.00000137,0.00000465,0.00006235,0.000
 00620,0.00000414,0.00003833,0.00002912,-0.00005861,0.00003126,-0.00003
 509,-0.00000287,0.00011353,0.00000707,-0.00001643,0.00000997,-0.000030
 12,0.00000990,0.00014578,0.00000829,-0.00000104,0.00003228,0.00001474,
 -0.00010653,0.00032131,-0.00000373,-0.00000549,0.00003197,0.00048861,0
 .00057339,0.00570061,-0.01943466,0.01745945,-0.04034285,0.00042559,-0.
 00109766,-0.00724147,0.00003187,0.00002786,-0.00000688,0.00000860,0.00
 000137,-0.00000208,0.00000311,0.00000038,-0.00000258,0.00000058,0.0000
 0056,-0.00000494,-0.00000139,-0.00000209,-0.00000437,-0.00000006,-0.00
 000145,0.00000257,-0.00002046,-0.00024034,0.00034743,0.02122369,-0.020
 44402,0.02733727\\0.00000017,0.00000002,0.00000341,-0.00000646,0.00000
 499,0.00001086,0.00000145,-0.00000042,-0.00000038,-0.00000177,0.000000
 65,0.00000232,0.00000264,0.00000132,0.00000036,-0.00000214,0.00000007,
 0.00000476,0.00000725,-0.00001116,0.00000143,-0.00000207,0.00000742,0.
 00000007,0.00000046,-0.00000022,0.00000538,-0.00000508,-0.00000381,-0.
 00000474,0.00000866,-0.00000017,-0.00000274,-0.00000887,-0.00000920,-0
 .00000653,-0.00000635,0.00002116,-0.00000761,0.00000674,0.00000468,-0.
 00000079,-0.00000326,-0.00001240,-0.00000145,-0.00001855,-0.00001248,-
 0.00002461,0.00001934,0.00001089,0.00001956,-0.00000136,0.00000087,0.0
 0000624,-0.00000099,0.00000175,0.00000466,-0.00000192,0.00000471,-0.00
 000427,0.00000209,0.00000205,-0.00000446,0.00000155,0.00000028,-0.0000
 0536,0.00000041,-0.00000046,-0.00000616,-0.00000038,-0.00000145,-0.000
 00372,-0.00000068,-0.00000226,-0.00000238,0.00000036,-0.00000121,0.000
 00249,0.00000859,0.00000277,0.00001721,-0.00000973,-0.00001230,0.00000
 578,-0.00000256,-0.00000079,0.00000249,-0.00000160,-0.00000043,-0.0000
 0298,0.00000133,0.00000075,-0.00000413,-0.00000008,0.00000185,0.000001
 18,0.00000061,0.00000194,-0.00000276,0.00000091,0.00000099,-0.00000637
 ,0.00000173,0.00000041,-0.00000775,0.00000884,-0.00000089,0.00001723,0
 .00000072,0.00000008,-0.00000624\\\@


 THOSE WHO ARE UNABLE TO LEARN FROM PAST MEETINGS
 ARE CONDEMNED TO REPEAT THEM.
 Job cpu time:       1 days  2 hours 52 minutes 33.4 seconds.
 Elapsed time:       0 days  1 hours 20 minutes 38.6 seconds.
 File lengths (MBytes):  RWF=   2401 Int=      0 D2E=      0 Chk=     42 Scr=      1
 Normal termination of Gaussian 16 at Fri Mar 29 16:53:38 2019.
