 Entering Gaussian System, Link 0=g09
 Initial command:
 /usr/local/Cluster-Apps/gaussian/g09/l1.exe "/rds/user/am2145/hpc-work/scratch/19184585/Gau-35813.inp" -scrdir="/rds/user/am2145/hpc-work/scratch/19184585/"
 Entering Link 1 = /usr/local/Cluster-Apps/gaussian/g09/l1.exe PID=     35814.
  
 Copyright (c) 1988,1990,1992,1993,1995,1998,2003,2009,2013,
            Gaussian, Inc.  All Rights Reserved.
  
 This is part of the Gaussian(R) 09 program.  It is based on
 the Gaussian(R) 03 system (copyright 2003, Gaussian, Inc.),
 the Gaussian(R) 98 system (copyright 1998, Gaussian, Inc.),
 the Gaussian(R) 94 system (copyright 1995, Gaussian, Inc.),
 the Gaussian 92(TM) system (copyright 1992, Gaussian, Inc.),
 the Gaussian 90(TM) system (copyright 1990, Gaussian, Inc.),
 the Gaussian 88(TM) system (copyright 1988, Gaussian, Inc.),
 the Gaussian 86(TM) system (copyright 1986, Carnegie Mellon
 University), and the Gaussian 82(TM) system (copyright 1983,
 Carnegie Mellon University). Gaussian is a federally registered
 trademark of Gaussian, Inc.
  
 This software contains proprietary and confidential information,
 including trade secrets, belonging to Gaussian, Inc.
  
 This software is provided under written license and may be
 used, copied, transmitted, or stored only in accord with that
 written license.
  
 The following legend is applicable only to US Government
 contracts under FAR:
  
                    RESTRICTED RIGHTS LEGEND
  
 Use, reproduction and disclosure by the US Government is
 subject to restrictions as set forth in subparagraphs (a)
 and (c) of the Commercial Computer Software - Restricted
 Rights clause in FAR 52.227-19.
  
 Gaussian, Inc.
 340 Quinnipiac St., Bldg. 40, Wallingford CT 06492
  
  
 ---------------------------------------------------------------
 Warning -- This program may not be used in any manner that
 competes with the business of Gaussian, Inc. or will provide
 assistance to any competitor of Gaussian, Inc.  The licensee
 of this program is prohibited from giving any competitor of
 Gaussian, Inc. access to this program.  By using this program,
 the user acknowledges that Gaussian, Inc. is engaged in the
 business of creating and licensing software in the field of
 computational chemistry and represents and warrants to the
 licensee that it is not a competitor of Gaussian, Inc. and that
 it will not use this program in any manner prohibited above.
 ---------------------------------------------------------------
  

 Cite this work as:
 Gaussian 09, Revision D.01,
 M. J. Frisch, G. W. Trucks, H. B. Schlegel, G. E. Scuseria, 
 M. A. Robb, J. R. Cheeseman, G. Scalmani, V. Barone, B. Mennucci, 
 G. A. Petersson, H. Nakatsuji, M. Caricato, X. Li, H. P. Hratchian, 
 A. F. Izmaylov, J. Bloino, G. Zheng, J. L. Sonnenberg, M. Hada, 
 M. Ehara, K. Toyota, R. Fukuda, J. Hasegawa, M. Ishida, T. Nakajima, 
 Y. Honda, O. Kitao, H. Nakai, T. Vreven, J. A. Montgomery, Jr., 
 J. E. Peralta, F. Ogliaro, M. Bearpark, J. J. Heyd, E. Brothers, 
 K. N. Kudin, V. N. Staroverov, T. Keith, R. Kobayashi, J. Normand, 
 K. Raghavachari, A. Rendell, J. C. Burant, S. S. Iyengar, J. Tomasi, 
 M. Cossi, N. Rega, J. M. Millam, M. Klene, J. E. Knox, J. B. Cross, 
 V. Bakken, C. Adamo, J. Jaramillo, R. Gomperts, R. E. Stratmann, 
 O. Yazyev, A. J. Austin, R. Cammi, C. Pomelli, J. W. Ochterski, 
 R. L. Martin, K. Morokuma, V. G. Zakrzewski, G. A. Voth, 
 P. Salvador, J. J. Dannenberg, S. Dapprich, A. D. Daniels, 
 O. Farkas, J. B. Foresman, J. V. Ortiz, J. Cioslowski, 
 and D. J. Fox, Gaussian, Inc., Wallingford CT, 2013.
 
 ******************************************
 Gaussian 09:  ES64L-G09RevD.01 24-Apr-2013
                 1-Feb-2020 
 ******************************************
 %NProcShared=20
 Will use up to   20 processors via shared memory.
 %mem=64GB
 %Chk=AS2b_Hmigcloseloss_guess.chk
 --------------------------------------------------
 #n opt=(ts,calcfc,noeigen) freq b3lyp/6-311+g(d,p)
 --------------------------------------------------
 1/5=1,10=4,11=1,14=-1,18=20,26=3,38=1/1,3;
 2/9=110,12=2,17=6,18=5,40=1/2;
 3/5=4,6=6,7=111,11=2,16=1,25=1,30=1,71=2,74=-5,140=1/1,2,3;
 4//1;
 5/5=2,38=5/2;
 8/6=4,10=90,11=11/1;
 11/6=1,8=1,9=11,15=111,16=1/1,2,10;
 10/6=1,13=1/2;
 6/7=2,8=2,9=2,10=2,28=1/1;
 7/10=1,18=20,25=1/1,2,3,16;
 1/5=1,10=4,11=1,14=-1,18=20,26=3/3(2);
 2/9=110/2;
 99//99;
 2/9=110/2;
 3/5=4,6=6,7=111,11=2,16=1,25=1,30=1,71=1,74=-5/1,2,3;
 4/5=5,16=3,69=1/1;
 5/5=2,38=5/2;
 7//1,2,3,16;
 1/5=1,11=1,14=-1,18=20,26=3/3(-5);
 2/9=110/2;
 6/7=2,8=2,9=2,10=2,19=2,28=1/1;
 99/9=1/99;
 ------------------------
 AS2b_Hmigcloseloss_guess
 ------------------------
 Symbolic Z-matrix:
 Charge =  0 Multiplicity = 2
 C                    -1.50001   3.26273  -0.11514 
 C                    -0.2792    2.50318   0.00791 
 C                    -0.44474   1.14165   0.1569 
 C                    -2.76944   2.69669  -0.13603 
 C                    -2.9378    1.27883  -0.01806 
 C                    -1.74036   0.60151   0.15915 
 C                     0.48255   0.00571   0.18775 
 C                    -0.30232  -1.15006   0.20884 
 C                    -1.65595  -0.79275   0.18806 
 C                     0.1274   -2.47114   0.08109 
 C                     1.52196  -2.61337  -0.00699 
 C                     2.3787   -1.47353  -0.01064 
 C                     1.85832  -0.11043   0.06515 
 C                     3.78947  -1.61428  -0.12524 
 C                     4.60883  -0.51314  -0.18155 
 C                     2.72617   1.0382   -0.01843 
 C                     4.08611   0.79792  -0.13433 
 H                    -1.41738   4.33981  -0.22121 
 H                    -3.62931   3.34623  -0.26277 
 C                    -4.08491   0.41133  -0.12371 
 C                    -2.71328  -1.65457   0.03093 
 C                    -0.96991  -3.42723  -0.0138 
 H                     1.98177  -3.59178  -0.10465 
 H                     4.21372  -2.61153  -0.17344 
 H                     3.1114    3.1247   -0.10027 
 H                     4.77081   1.6375   -0.18911 
 H                     5.68117  -0.64606  -0.27026 
 C                     1.04966   3.07436  -0.04792 
 C                     2.27202   2.4431    0.00495 
 H                     1.09588   4.15804  -0.11446 
 H                     2.60708   2.82955   2.05572 
 C                    -3.98131  -0.9792   -0.10375 
 C                    -2.29968  -3.04956  -0.04105 
 H                    -5.07021   0.84794  -0.2514 
 H                    -4.89061  -1.56046  -0.21891 
 H                    -3.05185  -3.82555  -0.14125 
 H                    -0.73619  -4.48414  -0.09267 
 
 Add virtual bond connecting atoms H31        and H25        Dist= 4.22D+00.
 Add virtual bond connecting atoms H31        and C29        Dist= 3.99D+00.

 GradGradGradGradGradGradGradGradGradGradGradGradGradGradGradGradGradGrad
 Berny optimization.
 Initialization pass.
                           ----------------------------
                           !    Initial Parameters    !
                           ! (Angstroms and Degrees)  !
 --------------------------                            --------------------------
 ! Name  Definition              Value          Derivative Info.                !
 --------------------------------------------------------------------------------
 ! R1    R(1,2)                  1.4431         calculate D2E/DX2 analytically  !
 ! R2    R(1,4)                  1.3901         calculate D2E/DX2 analytically  !
 ! R3    R(1,18)                 1.0854         calculate D2E/DX2 analytically  !
 ! R4    R(2,3)                  1.3796         calculate D2E/DX2 analytically  !
 ! R5    R(2,28)                 1.4475         calculate D2E/DX2 analytically  !
 ! R6    R(3,6)                  1.4037         calculate D2E/DX2 analytically  !
 ! R7    R(3,7)                  1.4667         calculate D2E/DX2 analytically  !
 ! R8    R(4,5)                  1.4327         calculate D2E/DX2 analytically  !
 ! R9    R(4,19)                 1.0851         calculate D2E/DX2 analytically  !
 ! R10   R(5,6)                  1.3871         calculate D2E/DX2 analytically  !
 ! R11   R(5,20)                 1.4421         calculate D2E/DX2 analytically  !
 ! R12   R(6,9)                  1.3971         calculate D2E/DX2 analytically  !
 ! R13   R(7,8)                  1.3972         calculate D2E/DX2 analytically  !
 ! R14   R(7,13)                 1.3861         calculate D2E/DX2 analytically  !
 ! R15   R(8,9)                  1.4001         calculate D2E/DX2 analytically  !
 ! R16   R(8,10)                 1.3951         calculate D2E/DX2 analytically  !
 ! R17   R(9,21)                 1.3731         calculate D2E/DX2 analytically  !
 ! R18   R(10,11)                1.4046         calculate D2E/DX2 analytically  !
 ! R19   R(10,22)                1.4585         calculate D2E/DX2 analytically  !
 ! R20   R(11,12)                1.4259         calculate D2E/DX2 analytically  !
 ! R21   R(11,23)                1.0855         calculate D2E/DX2 analytically  !
 ! R22   R(12,13)                1.461          calculate D2E/DX2 analytically  !
 ! R23   R(12,14)                1.4224         calculate D2E/DX2 analytically  !
 ! R24   R(13,16)                1.442          calculate D2E/DX2 analytically  !
 ! R25   R(14,15)                1.3737         calculate D2E/DX2 analytically  !
 ! R26   R(14,24)                1.0848         calculate D2E/DX2 analytically  !
 ! R27   R(15,17)                1.4122         calculate D2E/DX2 analytically  !
 ! R28   R(15,27)                1.0842         calculate D2E/DX2 analytically  !
 ! R29   R(16,17)                1.3859         calculate D2E/DX2 analytically  !
 ! R30   R(16,29)                1.4767         calculate D2E/DX2 analytically  !
 ! R31   R(17,26)                1.0848         calculate D2E/DX2 analytically  !
 ! R32   R(20,32)                1.3945         calculate D2E/DX2 analytically  !
 ! R33   R(20,34)                1.0852         calculate D2E/DX2 analytically  !
 ! R34   R(21,32)                1.443          calculate D2E/DX2 analytically  !
 ! R35   R(21,33)                1.4568         calculate D2E/DX2 analytically  !
 ! R36   R(22,33)                1.3826         calculate D2E/DX2 analytically  !
 ! R37   R(22,37)                1.0853         calculate D2E/DX2 analytically  !
 ! R38   R(25,29)                1.0864         calculate D2E/DX2 analytically  !
 ! R39   R(25,31)                2.2338         calculate D2E/DX2 analytically  !
 ! R40   R(28,29)                1.3768         calculate D2E/DX2 analytically  !
 ! R41   R(28,30)                1.0867         calculate D2E/DX2 analytically  !
 ! R42   R(29,31)                2.1136         calculate D2E/DX2 analytically  !
 ! R43   R(32,35)                1.0853         calculate D2E/DX2 analytically  !
 ! R44   R(33,36)                1.0853         calculate D2E/DX2 analytically  !
 ! A1    A(2,1,4)              124.0224         calculate D2E/DX2 analytically  !
 ! A2    A(2,1,18)             117.7894         calculate D2E/DX2 analytically  !
 ! A3    A(4,1,18)             118.1718         calculate D2E/DX2 analytically  !
 ! A4    A(1,2,3)              115.2863         calculate D2E/DX2 analytically  !
 ! A5    A(1,2,28)             124.4485         calculate D2E/DX2 analytically  !
 ! A6    A(3,2,28)             120.2481         calculate D2E/DX2 analytically  !
 ! A7    A(2,3,6)              119.3848         calculate D2E/DX2 analytically  !
 ! A8    A(2,3,7)              133.6891         calculate D2E/DX2 analytically  !
 ! A9    A(6,3,7)              106.5885         calculate D2E/DX2 analytically  !
 ! A10   A(1,4,5)              120.6017         calculate D2E/DX2 analytically  !
 ! A11   A(1,4,19)             118.7956         calculate D2E/DX2 analytically  !
 ! A12   A(5,4,19)             120.5921         calculate D2E/DX2 analytically  !
 ! A13   A(4,5,6)              113.0991         calculate D2E/DX2 analytically  !
 ! A14   A(4,5,20)             133.0615         calculate D2E/DX2 analytically  !
 ! A15   A(6,5,20)             113.7228         calculate D2E/DX2 analytically  !
 ! A16   A(3,6,5)              127.4955         calculate D2E/DX2 analytically  !
 ! A17   A(3,6,9)              109.1643         calculate D2E/DX2 analytically  !
 ! A18   A(5,6,9)              122.8271         calculate D2E/DX2 analytically  !
 ! A19   A(3,7,8)              106.6079         calculate D2E/DX2 analytically  !
 ! A20   A(3,7,13)             133.6742         calculate D2E/DX2 analytically  !
 ! A21   A(8,7,13)             119.3124         calculate D2E/DX2 analytically  !
 ! A22   A(7,8,9)              109.3751         calculate D2E/DX2 analytically  !
 ! A23   A(7,8,10)             127.51           calculate D2E/DX2 analytically  !
 ! A24   A(9,8,10)             122.5539         calculate D2E/DX2 analytically  !
 ! A25   A(6,9,8)              108.2637         calculate D2E/DX2 analytically  !
 ! A26   A(6,9,21)             125.2734         calculate D2E/DX2 analytically  !
 ! A27   A(8,9,21)             125.8722         calculate D2E/DX2 analytically  !
 ! A28   A(8,10,11)            114.0459         calculate D2E/DX2 analytically  !
 ! A29   A(8,10,22)            113.2644         calculate D2E/DX2 analytically  !
 ! A30   A(11,10,22)           132.574          calculate D2E/DX2 analytically  !
 ! A31   A(10,11,12)           121.0489         calculate D2E/DX2 analytically  !
 ! A32   A(10,11,23)           121.1651         calculate D2E/DX2 analytically  !
 ! A33   A(12,11,23)           117.7609         calculate D2E/DX2 analytically  !
 ! A34   A(11,12,13)           122.1177         calculate D2E/DX2 analytically  !
 ! A35   A(11,12,14)           121.1331         calculate D2E/DX2 analytically  !
 ! A36   A(13,12,14)           116.7285         calculate D2E/DX2 analytically  !
 ! A37   A(7,13,12)            115.867          calculate D2E/DX2 analytically  !
 ! A38   A(7,13,16)            122.3928         calculate D2E/DX2 analytically  !
 ! A39   A(12,13,16)           121.721          calculate D2E/DX2 analytically  !
 ! A40   A(12,14,15)           121.0357         calculate D2E/DX2 analytically  !
 ! A41   A(12,14,24)           118.8442         calculate D2E/DX2 analytically  !
 ! A42   A(15,14,24)           120.1193         calculate D2E/DX2 analytically  !
 ! A43   A(14,15,17)           121.4684         calculate D2E/DX2 analytically  !
 ! A44   A(14,15,27)           119.6717         calculate D2E/DX2 analytically  !
 ! A45   A(17,15,27)           118.8589         calculate D2E/DX2 analytically  !
 ! A46   A(13,16,17)           117.2135         calculate D2E/DX2 analytically  !
 ! A47   A(13,16,29)           124.8764         calculate D2E/DX2 analytically  !
 ! A48   A(17,16,29)           117.9095         calculate D2E/DX2 analytically  !
 ! A49   A(15,17,16)           121.8015         calculate D2E/DX2 analytically  !
 ! A50   A(15,17,26)           118.8957         calculate D2E/DX2 analytically  !
 ! A51   A(16,17,26)           119.3028         calculate D2E/DX2 analytically  !
 ! A52   A(5,20,32)            122.663          calculate D2E/DX2 analytically  !
 ! A53   A(5,20,34)            119.262          calculate D2E/DX2 analytically  !
 ! A54   A(32,20,34)           118.0535         calculate D2E/DX2 analytically  !
 ! A55   A(9,21,32)            113.1784         calculate D2E/DX2 analytically  !
 ! A56   A(9,21,33)            112.8336         calculate D2E/DX2 analytically  !
 ! A57   A(32,21,33)           133.8732         calculate D2E/DX2 analytically  !
 ! A58   A(10,22,33)           123.0805         calculate D2E/DX2 analytically  !
 ! A59   A(10,22,37)           118.7564         calculate D2E/DX2 analytically  !
 ! A60   A(33,22,37)           118.1439         calculate D2E/DX2 analytically  !
 ! A61   A(2,28,29)            129.2482         calculate D2E/DX2 analytically  !
 ! A62   A(2,28,30)            115.7796         calculate D2E/DX2 analytically  !
 ! A63   A(29,28,30)           114.95           calculate D2E/DX2 analytically  !
 ! A64   A(16,29,25)           110.9624         calculate D2E/DX2 analytically  !
 ! A65   A(16,29,28)           135.1279         calculate D2E/DX2 analytically  !
 ! A66   A(16,29,31)            98.0804         calculate D2E/DX2 analytically  !
 ! A67   A(25,29,28)           113.2412         calculate D2E/DX2 analytically  !
 ! A68   A(28,29,31)            95.4038         calculate D2E/DX2 analytically  !
 ! A69   A(20,32,21)           122.23           calculate D2E/DX2 analytically  !
 ! A70   A(20,32,35)           118.0514         calculate D2E/DX2 analytically  !
 ! A71   A(21,32,35)           119.701          calculate D2E/DX2 analytically  !
 ! A72   A(21,33,22)           122.2523         calculate D2E/DX2 analytically  !
 ! A73   A(21,33,36)           119.5015         calculate D2E/DX2 analytically  !
 ! A74   A(22,33,36)           118.2327         calculate D2E/DX2 analytically  !
 ! D1    D(4,1,2,3)             -2.2885         calculate D2E/DX2 analytically  !
 ! D2    D(4,1,2,28)           176.2036         calculate D2E/DX2 analytically  !
 ! D3    D(18,1,2,3)           179.214          calculate D2E/DX2 analytically  !
 ! D4    D(18,1,2,28)           -2.2939         calculate D2E/DX2 analytically  !
 ! D5    D(2,1,4,5)              0.6805         calculate D2E/DX2 analytically  !
 ! D6    D(2,1,4,19)          -178.1385         calculate D2E/DX2 analytically  !
 ! D7    D(18,1,4,5)           179.1727         calculate D2E/DX2 analytically  !
 ! D8    D(18,1,4,19)            0.3536         calculate D2E/DX2 analytically  !
 ! D9    D(1,2,3,6)              0.9051         calculate D2E/DX2 analytically  !
 ! D10   D(1,2,3,7)            173.2313         calculate D2E/DX2 analytically  !
 ! D11   D(28,2,3,6)          -177.6554         calculate D2E/DX2 analytically  !
 ! D12   D(28,2,3,7)            -5.3292         calculate D2E/DX2 analytically  !
 ! D13   D(1,2,28,29)         -177.1881         calculate D2E/DX2 analytically  !
 ! D14   D(1,2,28,30)            4.6352         calculate D2E/DX2 analytically  !
 ! D15   D(3,2,28,29)            1.2335         calculate D2E/DX2 analytically  !
 ! D16   D(3,2,28,30)         -176.9432         calculate D2E/DX2 analytically  !
 ! D17   D(2,3,6,5)              2.2704         calculate D2E/DX2 analytically  !
 ! D18   D(2,3,6,9)            174.156          calculate D2E/DX2 analytically  !
 ! D19   D(7,3,6,5)           -171.9472         calculate D2E/DX2 analytically  !
 ! D20   D(7,3,6,9)             -0.0616         calculate D2E/DX2 analytically  !
 ! D21   D(2,3,7,8)           -173.115          calculate D2E/DX2 analytically  !
 ! D22   D(2,3,7,13)            -0.7588         calculate D2E/DX2 analytically  !
 ! D23   D(6,3,7,8)             -0.0882         calculate D2E/DX2 analytically  !
 ! D24   D(6,3,7,13)           172.268          calculate D2E/DX2 analytically  !
 ! D25   D(1,4,5,6)              2.1704         calculate D2E/DX2 analytically  !
 ! D26   D(1,4,5,20)          -173.5631         calculate D2E/DX2 analytically  !
 ! D27   D(19,4,5,6)          -179.0319         calculate D2E/DX2 analytically  !
 ! D28   D(19,4,5,20)            5.2346         calculate D2E/DX2 analytically  !
 ! D29   D(4,5,6,3)             -3.7648         calculate D2E/DX2 analytically  !
 ! D30   D(4,5,6,9)           -174.6354         calculate D2E/DX2 analytically  !
 ! D31   D(20,5,6,3)           172.8314         calculate D2E/DX2 analytically  !
 ! D32   D(20,5,6,9)             1.9608         calculate D2E/DX2 analytically  !
 ! D33   D(4,5,20,32)          173.2114         calculate D2E/DX2 analytically  !
 ! D34   D(4,5,20,34)           -5.0681         calculate D2E/DX2 analytically  !
 ! D35   D(6,5,20,32)           -2.5019         calculate D2E/DX2 analytically  !
 ! D36   D(6,5,20,34)          179.2186         calculate D2E/DX2 analytically  !
 ! D37   D(3,6,9,8)              0.1894         calculate D2E/DX2 analytically  !
 ! D38   D(3,6,9,21)          -171.4074         calculate D2E/DX2 analytically  !
 ! D39   D(5,6,9,8)            172.5308         calculate D2E/DX2 analytically  !
 ! D40   D(5,6,9,21)             0.934          calculate D2E/DX2 analytically  !
 ! D41   D(3,7,8,9)              0.2059         calculate D2E/DX2 analytically  !
 ! D42   D(3,7,8,10)           171.7016         calculate D2E/DX2 analytically  !
 ! D43   D(13,7,8,9)          -173.4596         calculate D2E/DX2 analytically  !
 ! D44   D(13,7,8,10)           -1.9639         calculate D2E/DX2 analytically  !
 ! D45   D(3,7,13,12)         -172.6061         calculate D2E/DX2 analytically  !
 ! D46   D(3,7,13,16)            5.8242         calculate D2E/DX2 analytically  !
 ! D47   D(8,7,13,12)           -1.0119         calculate D2E/DX2 analytically  !
 ! D48   D(8,7,13,16)          177.4184         calculate D2E/DX2 analytically  !
 ! D49   D(7,8,9,6)             -0.248          calculate D2E/DX2 analytically  !
 ! D50   D(7,8,9,21)           171.2853         calculate D2E/DX2 analytically  !
 ! D51   D(10,8,9,6)          -172.2478         calculate D2E/DX2 analytically  !
 ! D52   D(10,8,9,21)           -0.7146         calculate D2E/DX2 analytically  !
 ! D53   D(7,8,10,11)            3.5458         calculate D2E/DX2 analytically  !
 ! D54   D(7,8,10,22)         -173.0441         calculate D2E/DX2 analytically  !
 ! D55   D(9,8,10,11)          174.0187         calculate D2E/DX2 analytically  !
 ! D56   D(9,8,10,22)           -2.5712         calculate D2E/DX2 analytically  !
 ! D57   D(6,9,21,32)           -3.1107         calculate D2E/DX2 analytically  !
 ! D58   D(6,9,21,33)          173.5449         calculate D2E/DX2 analytically  !
 ! D59   D(8,9,21,32)         -173.2496         calculate D2E/DX2 analytically  !
 ! D60   D(8,9,21,33)            3.406          calculate D2E/DX2 analytically  !
 ! D61   D(8,10,11,12)          -2.1577         calculate D2E/DX2 analytically  !
 ! D62   D(8,10,11,23)         179.7079         calculate D2E/DX2 analytically  !
 ! D63   D(22,10,11,12)        173.5866         calculate D2E/DX2 analytically  !
 ! D64   D(22,10,11,23)         -4.5478         calculate D2E/DX2 analytically  !
 ! D65   D(8,10,22,33)           3.0378         calculate D2E/DX2 analytically  !
 ! D66   D(8,10,22,37)        -178.5899         calculate D2E/DX2 analytically  !
 ! D67   D(11,10,22,33)       -172.7319         calculate D2E/DX2 analytically  !
 ! D68   D(11,10,22,37)          5.6404         calculate D2E/DX2 analytically  !
 ! D69   D(10,11,12,13)         -0.5054         calculate D2E/DX2 analytically  !
 ! D70   D(10,11,12,14)       -178.7971         calculate D2E/DX2 analytically  !
 ! D71   D(23,11,12,13)        177.6906         calculate D2E/DX2 analytically  !
 ! D72   D(23,11,12,14)         -0.6011         calculate D2E/DX2 analytically  !
 ! D73   D(11,12,13,7)           2.1583         calculate D2E/DX2 analytically  !
 ! D74   D(11,12,13,16)       -176.2835         calculate D2E/DX2 analytically  !
 ! D75   D(14,12,13,7)        -179.4789         calculate D2E/DX2 analytically  !
 ! D76   D(14,12,13,16)          2.0794         calculate D2E/DX2 analytically  !
 ! D77   D(11,12,14,15)        177.4103         calculate D2E/DX2 analytically  !
 ! D78   D(11,12,14,24)         -2.2613         calculate D2E/DX2 analytically  !
 ! D79   D(13,12,14,15)         -0.9698         calculate D2E/DX2 analytically  !
 ! D80   D(13,12,14,24)        179.3586         calculate D2E/DX2 analytically  !
 ! D81   D(7,13,16,17)         179.7848         calculate D2E/DX2 analytically  !
 ! D82   D(7,13,16,29)          -0.4762         calculate D2E/DX2 analytically  !
 ! D83   D(12,13,16,17)         -1.8757         calculate D2E/DX2 analytically  !
 ! D84   D(12,13,16,29)        177.8633         calculate D2E/DX2 analytically  !
 ! D85   D(12,14,15,17)         -0.2915         calculate D2E/DX2 analytically  !
 ! D86   D(12,14,15,27)       -179.9165         calculate D2E/DX2 analytically  !
 ! D87   D(24,14,15,17)        179.3759         calculate D2E/DX2 analytically  !
 ! D88   D(24,14,15,27)         -0.2491         calculate D2E/DX2 analytically  !
 ! D89   D(14,15,17,16)          0.5257         calculate D2E/DX2 analytically  !
 ! D90   D(14,15,17,26)       -179.5625         calculate D2E/DX2 analytically  !
 ! D91   D(27,15,17,16)       -179.8464         calculate D2E/DX2 analytically  !
 ! D92   D(27,15,17,26)          0.0654         calculate D2E/DX2 analytically  !
 ! D93   D(13,16,17,15)          0.5552         calculate D2E/DX2 analytically  !
 ! D94   D(13,16,17,26)       -179.3562         calculate D2E/DX2 analytically  !
 ! D95   D(29,16,17,15)       -179.2025         calculate D2E/DX2 analytically  !
 ! D96   D(29,16,17,26)          0.8861         calculate D2E/DX2 analytically  !
 ! D97   D(13,16,29,25)       -178.3823         calculate D2E/DX2 analytically  !
 ! D98   D(13,16,29,28)         -8.7196         calculate D2E/DX2 analytically  !
 ! D99   D(13,16,29,31)         97.387          calculate D2E/DX2 analytically  !
 ! D100  D(17,16,29,25)          1.3551         calculate D2E/DX2 analytically  !
 ! D101  D(17,16,29,28)        171.0177         calculate D2E/DX2 analytically  !
 ! D102  D(17,16,29,31)        -82.8756         calculate D2E/DX2 analytically  !
 ! D103  D(5,20,32,21)           0.2944         calculate D2E/DX2 analytically  !
 ! D104  D(5,20,32,35)        -178.1745         calculate D2E/DX2 analytically  !
 ! D105  D(34,20,32,21)        178.5936         calculate D2E/DX2 analytically  !
 ! D106  D(34,20,32,35)          0.1247         calculate D2E/DX2 analytically  !
 ! D107  D(9,21,32,20)           2.4565         calculate D2E/DX2 analytically  !
 ! D108  D(9,21,32,35)        -179.0992         calculate D2E/DX2 analytically  !
 ! D109  D(33,21,32,20)       -173.2662         calculate D2E/DX2 analytically  !
 ! D110  D(33,21,32,35)          5.1781         calculate D2E/DX2 analytically  !
 ! D111  D(9,21,33,22)          -2.8131         calculate D2E/DX2 analytically  !
 ! D112  D(9,21,33,36)         178.5458         calculate D2E/DX2 analytically  !
 ! D113  D(32,21,33,22)        172.9206         calculate D2E/DX2 analytically  !
 ! D114  D(32,21,33,36)         -5.7205         calculate D2E/DX2 analytically  !
 ! D115  D(10,22,33,21)         -0.3477         calculate D2E/DX2 analytically  !
 ! D116  D(10,22,33,36)        178.3099         calculate D2E/DX2 analytically  !
 ! D117  D(37,22,33,21)       -178.7294         calculate D2E/DX2 analytically  !
 ! D118  D(37,22,33,36)         -0.0718         calculate D2E/DX2 analytically  !
 ! D119  D(2,28,29,16)           8.1605         calculate D2E/DX2 analytically  !
 ! D120  D(2,28,29,25)         177.6529         calculate D2E/DX2 analytically  !
 ! D121  D(2,28,29,31)         -99.0053         calculate D2E/DX2 analytically  !
 ! D122  D(30,28,29,16)       -173.6503         calculate D2E/DX2 analytically  !
 ! D123  D(30,28,29,25)         -4.158          calculate D2E/DX2 analytically  !
 ! D124  D(30,28,29,31)         79.1839         calculate D2E/DX2 analytically  !
 --------------------------------------------------------------------------------
 Trust Radius=3.00D-01 FncErr=1.00D-07 GrdErr=1.00D-06
 Number of steps in this run=    222 maximum allowed number of steps=    222.
 Search for a saddle point of order  1.
 GradGradGradGradGradGradGradGradGradGradGradGradGradGradGradGradGradGrad

                          Input orientation:                          
 ---------------------------------------------------------------------
 Center     Atomic      Atomic             Coordinates (Angstroms)
 Number     Number       Type             X           Y           Z
 ---------------------------------------------------------------------
      1          6           0       -1.500010    3.262730   -0.115140
      2          6           0       -0.279200    2.503180    0.007910
      3          6           0       -0.444740    1.141650    0.156900
      4          6           0       -2.769440    2.696690   -0.136030
      5          6           0       -2.937800    1.278830   -0.018060
      6          6           0       -1.740360    0.601510    0.159150
      7          6           0        0.482550    0.005710    0.187750
      8          6           0       -0.302320   -1.150060    0.208840
      9          6           0       -1.655950   -0.792750    0.188060
     10          6           0        0.127400   -2.471140    0.081090
     11          6           0        1.521960   -2.613370   -0.006990
     12          6           0        2.378700   -1.473530   -0.010640
     13          6           0        1.858320   -0.110430    0.065150
     14          6           0        3.789470   -1.614280   -0.125240
     15          6           0        4.608830   -0.513140   -0.181550
     16          6           0        2.726170    1.038200   -0.018430
     17          6           0        4.086110    0.797920   -0.134330
     18          1           0       -1.417380    4.339810   -0.221210
     19          1           0       -3.629310    3.346230   -0.262770
     20          6           0       -4.084910    0.411330   -0.123710
     21          6           0       -2.713280   -1.654570    0.030930
     22          6           0       -0.969910   -3.427230   -0.013800
     23          1           0        1.981770   -3.591780   -0.104650
     24          1           0        4.213720   -2.611530   -0.173440
     25          1           0        3.111400    3.124700   -0.100270
     26          1           0        4.770810    1.637500   -0.189110
     27          1           0        5.681170   -0.646060   -0.270260
     28          6           0        1.049660    3.074360   -0.047920
     29          6           0        2.272020    2.443100    0.004950
     30          1           0        1.095880    4.158040   -0.114460
     31          1           0        2.607080    2.829550    2.055720
     32          6           0       -3.981310   -0.979200   -0.103750
     33          6           0       -2.299680   -3.049560   -0.041050
     34          1           0       -5.070210    0.847940   -0.251400
     35          1           0       -4.890610   -1.560460   -0.218910
     36          1           0       -3.051850   -3.825550   -0.141250
     37          1           0       -0.736190   -4.484140   -0.092670
 ---------------------------------------------------------------------
                    Distance matrix (angstroms):
                    1          2          3          4          5
     1  C    0.000000
     2  C    1.443064   0.000000
     3  C    2.384655   1.379625   0.000000
     4  C    1.390068   2.501891   2.812150   0.000000
     5  C    2.452045   2.927091   2.502954   1.432686   0.000000
     6  C    2.686093   2.402959   1.403705   2.352853   1.387093
     7  C    3.824979   2.617243   1.466690   4.233396   3.655405
     8  C    4.583900   3.658834   2.296719   4.582914   3.591204
     9  C    4.069787   3.576458   2.282521   3.677103   2.444804
    10  C    5.963576   4.991447   3.658598   5.928346   4.844332
    11  C    6.608521   5.424342   4.242045   6.828580   5.919358
    12  C    6.122701   4.783200   3.852149   6.626447   5.986711
    13  C    4.763307   3.376866   2.623015   5.416323   4.993970
    14  C    7.194715   5.790102   5.059969   7.848814   7.323779
    15  C    7.181889   5.746905   5.328363   8.046362   7.758190
    16  C    4.776870   3.343517   3.177438   5.741615   5.669079
    17  C    6.105767   4.688718   4.553193   7.113642   7.041314
    18  H    1.085440   2.172823   3.364108   2.129593   3.423820
    19  H    2.136044   3.465146   3.895867   1.085054   2.193675
    20  C    3.848670   4.344720   3.723298   2.636946   1.442075
    21  C    5.066873   4.817900   3.602914   4.354824   2.942388
    22  C    6.711694   5.970537   4.602131   6.384015   5.100942
    23  H    7.688121   6.501784   5.325572   7.881614   6.923331
    24  H    8.194940   6.810248   5.991388   8.771723   8.142683
    25  H    4.613499   3.448791   4.079798   5.896503   6.325094
    26  H    6.478428   5.127457   5.250481   7.614465   7.718845
    27  H    8.177533   6.746933   6.395713   9.088719   8.834900
    28  C    2.557502   1.447492   2.451642   3.838740   4.373175
    29  C    3.861920   2.551929   3.016230   5.049802   5.338378
    30  H    2.745947   2.155083   3.397904   4.132397   4.956785
    31  H    4.665669   3.553963   3.970910   5.807615   6.119721
    32  C    4.914362   5.083803   4.131981   3.870638   2.488967
    33  C    6.363173   5.909117   4.587617   5.766202   4.375235
    34  H    4.312320   5.075514   4.652735   2.953765   2.187987
    35  H    5.896618   6.150587   5.216166   4.757053   3.451865
    36  H    7.256211   6.911053   5.617739   6.528353   5.107140
    37  H    7.784467   7.002971   5.638860   7.463264   6.169642
                    6          7          8          9         10
     6  C    0.000000
     7  C    2.301548   0.000000
     8  C    2.266810   1.397237   0.000000
     9  C    1.397112   2.282700   1.400149   0.000000
    10  C    3.596637   2.504455   1.395074   2.451280   0.000000
    11  C    4.583207   2.824514   2.348586   3.667671   1.404559
    12  C    4.615330   2.413067   2.709368   4.096504   2.464141
    13  C    3.669631   1.386096   2.402050   3.582005   2.927335
    14  C    5.964027   3.695680   4.131568   5.515947   3.766635
    15  C    6.455287   4.175138   4.967642   6.281900   4.897546
    16  C    4.491339   2.478382   3.743245   4.753735   4.367949
    17  C    5.837162   3.703644   4.813596   5.967028   5.138535
    18  H    3.771456   4.749885   5.618449   5.154376   6.990477
    19  H    3.358517   5.316901   5.613190   4.607445   6.933463
    20  C    2.369197   4.596001   4.105669   2.728893   5.108242
    21  C    2.460266   3.604782   2.469597   1.373088   2.956140
    22  C    4.105393   3.733007   2.383432   2.729814   1.458493
    23  H    5.613156   3.908336   3.358175   4.599267   2.174631
    24  H    6.773870   4.571874   4.762001   6.155621   4.096646
    25  H    5.474793   4.089243   5.479289   6.177149   6.344334
    26  H    6.602264   4.603687   5.802198   6.881251   6.206061
    27  H    7.537900   5.259299   6.023762   7.352884   5.856511
    28  C    3.733909   3.129499   4.442916   4.725521   5.623147
    29  C    4.417513   3.029272   4.424884   5.092465   5.362364
    30  H    4.557195   4.208248   5.498674   5.672249   6.702404
    31  H    5.240360   3.997125   5.264301   5.897681   6.176187
    32  C    2.754926   4.580509   3.696197   2.351003   4.375106
    33  C    3.699085   4.138578   2.767669   2.357980   2.498040
    34  H    3.364102   5.633414   5.190048   3.813418   6.175920
    35  H    3.839416   5.611516   4.626424   3.349333   5.108793
    36  H    4.626998   5.222909   3.852366   3.354826   3.462873
    37  H    5.189952   4.660763   3.375684   3.814594   2.197305
                   11         12         13         14         15
    11  C    0.000000
    12  C    1.425921   0.000000
    13  C    2.526470   1.461021   0.000000
    14  C    2.480678   1.422398   2.455026   0.000000
    15  C    3.737674   2.434140   2.790760   1.373692   0.000000
    16  C    3.845025   2.535662   1.442047   2.859662   2.444928
    17  C    4.269424   2.844298   2.414113   2.430388   1.412213
    18  H    7.551975   6.946185   5.533249   7.910227   7.737435
    19  H    7.881487   7.706480   6.493852   8.925462   9.097708
    20  C    6.371768   6.733776   5.969077   8.130742   8.742946
    21  C    4.342579   5.095367   4.825460   6.504750   7.413589
    22  C    2.621418   3.876873   4.359619   5.094203   6.296221
    23  H    1.085472   2.157168   3.487674   2.679311   4.047886
    24  H    2.696902   2.165374   3.443884   1.084813   2.135279
    25  H    5.954869   4.657102   3.473275   4.787310   3.934817
    26  H    5.353325   3.928428   3.406245   3.397231   2.156745
    27  H    4.608541   3.414442   3.874736   2.130026   1.084182
    28  C    5.707453   4.738253   3.287796   5.431011   5.055265
    29  C    5.111812   3.918114   2.587525   4.333813   3.772906
    30  H    6.785653   5.776763   4.339748   6.369868   5.845104
    31  H    5.920949   4.778964   3.628566   5.089426   4.492878
    32  C    5.741590   6.379871   5.906316   7.796718   8.603126
    33  C    3.846603   4.936804   5.093008   6.256586   7.360752
    34  H    7.449638   7.805988   7.001657   9.196324   9.774520
    35  H    6.501891   7.272812   6.908787   8.680752   9.557073
    36  H    4.733618   5.919454   6.160721   7.189828   8.346239
    37  H    2.933660   4.332787   5.087802   5.358988   6.659278
                   16         17         18         19         20
    16  C    0.000000
    17  C    1.385859   0.000000
    18  H    5.301958   6.545299   0.000000
    19  H    6.766006   8.126382   2.425193   0.000000
    20  C    6.840677   8.180167   4.749545   2.973306   0.000000
    21  C    6.069684   7.230057   6.138039   5.092482   2.484598
    22  C    5.796645   6.590126   7.782683   7.281082   4.944679
    23  H    4.690232   4.868120   8.630059   8.924416   7.268415
    24  H    3.944282   3.412061   8.946100   9.849670   8.832181
    25  H    2.123342   2.522920   4.690519   6.746307   7.690891
    26  H    2.137486   1.084762   6.752570   8.572468   8.940444
    27  H    3.410597   2.155869   8.674717  10.130324   9.824249
    28  C    2.637708   3.796008   2.778071   4.691784   5.784573
    29  C    1.476666   2.452945   4.154555   5.976037   6.674968
    30  H    3.521430   4.498030   2.522085   4.796713   6.393630
    31  H    2.743213   3.333372   4.864316   6.673448   7.441803
    32  C    7.004818   8.260893   5.905879   4.342642   1.394527
    33  C    6.478384   7.455878   7.444038   6.536299   3.895079
    34  H    7.802180   9.157205   5.053438   2.884055   1.085242
    35  H    8.050377   9.281735   6.846643   5.066400   2.132175
    36  H    7.553586   8.504528   8.327724   7.196017   4.361040
    37  H    6.518411   7.152375   8.851138   8.349477   5.931317
                   21         22         23         24         25
    21  C    0.000000
    22  C    2.486697   0.000000
    23  H    5.080813   2.957659   0.000000
    24  H    6.995775   5.249845   2.438693   0.000000
    25  H    7.535618   7.719608   6.810814   5.841643   0.000000
    26  H    8.179104   7.657551   5.927162   4.285423   2.230089
    27  H    8.460177   7.213705   4.731834   2.454762   4.566316
    28  C    6.043899   6.808120   6.731231   6.508178   2.063019
    29  C    6.453277   6.706060   6.042850   5.417685   1.086374
    30  H    6.951063   7.862184   7.800295   7.453287   2.265020
    31  H    7.246609   7.498338   6.803800   6.095556   2.233774
    32  C    1.442970   3.881942   6.510292   8.356307   8.194421
    33  C    1.456792   1.382630   4.316116   6.529455   8.210041
    34  H    3.449259   5.928406   8.334451   9.907844   8.493834
    35  H    2.193637   4.347274   7.167212   9.164914   9.273455
    36  H    2.203958   2.123529   5.039178   7.366369   9.289419
    37  H    3.454074   1.085313   2.860727   5.292901   8.526339
                   26         27         28         29         30
    26  H    0.000000
    27  H    2.459672   0.000000
    28  C    3.991423   5.944901   0.000000
    29  C    2.632604   4.608791   1.376753   0.000000
    30  H    4.456883   6.642931   1.086704   2.082927   0.000000
    31  H    3.337959   5.190383   2.628838   2.113591   2.959441
    32  C    9.135317   9.669655   6.461047   7.129382   7.222825
    33  C    8.484237   8.338064   6.980009   7.146459   7.967730
    34  H    9.872839  10.854702   6.515455   7.517885   6.999727
    35  H   10.176978  10.611376   7.536418   8.208646   8.279506
    36  H    9.541552   9.294699   8.027444   8.225627   8.996782
    37  H    8.234733   7.479633   7.766736   7.552848   8.834265
                   31         32         33         34         35
    31  H    0.000000
    32  C    7.910548   0.000000
    33  C    7.939564   2.667996   0.000000
    34  H    8.257746   2.132122   4.786501   0.000000
    35  H    8.981174   1.085335   2.993655   2.415306   0.000000
    36  H    9.007803   2.994497   1.085339   5.091897   2.918510
    37  H    8.323647   4.776561   2.122542   6.873136   5.081638
                   36         37
    36  H    0.000000
    37  H    2.407983   0.000000
 Stoichiometry    C24H13(2)
 Framework group  C1[X(C24H13)]
 Deg. of freedom   105
 Full point group                 C1      NOp   1
 Largest Abelian subgroup         C1      NOp   1
 Largest concise Abelian subgroup C1      NOp   1
                         Standard orientation:                         
 ---------------------------------------------------------------------
 Center     Atomic      Atomic             Coordinates (Angstroms)
 Number     Number       Type             X           Y           Z
 ---------------------------------------------------------------------
      1          6           0       -1.500007    3.262732   -0.115139
      2          6           0       -0.279197    2.503181    0.007911
      3          6           0       -0.444739    1.141651    0.156901
      4          6           0       -2.769437    2.696693   -0.136029
      5          6           0       -2.937799    1.278833   -0.018059
      6          6           0       -1.740359    0.601512    0.159151
      7          6           0        0.482550    0.005710    0.187751
      8          6           0       -0.302321   -1.150059    0.208841
      9          6           0       -1.655951   -0.792748    0.188061
     10          6           0        0.127398   -2.471140    0.081091
     11          6           0        1.521958   -2.613371   -0.006989
     12          6           0        2.378699   -1.473532   -0.010639
     13          6           0        1.858320   -0.110431    0.065151
     14          6           0        3.789469   -1.614283   -0.125239
     15          6           0        4.608830   -0.513144   -0.181549
     16          6           0        2.726171    1.038198   -0.018429
     17          6           0        4.086111    0.797916   -0.134329
     18          1           0       -1.417376    4.339812   -0.221209
     19          1           0       -3.629307    3.346234   -0.262769
     20          6           0       -4.084909    0.411334   -0.123709
     21          6           0       -2.713281   -1.654567    0.030931
     22          6           0       -0.969913   -3.427229   -0.013799
     23          1           0        1.981767   -3.591782   -0.104649
     24          1           0        4.213718   -2.611534   -0.173439
     25          1           0        3.111403    3.124697   -0.100269
     26          1           0        4.770812    1.637496   -0.189109
     27          1           0        5.681170   -0.646065   -0.270259
     28          6           0        1.049663    3.074359   -0.047919
     29          6           0        2.272023    2.443098    0.004951
     30          1           0        1.095884    4.158039   -0.114459
     31          1           0        2.607083    2.829548    2.055721
     32          6           0       -3.981311   -0.979196   -0.103749
     33          6           0       -2.299683   -3.049557   -0.041049
     34          1           0       -5.070209    0.847945   -0.251399
     35          1           0       -4.890611   -1.560455   -0.218909
     36          1           0       -3.051853   -3.825547   -0.141249
     37          1           0       -0.736194   -4.484139   -0.092669
 ---------------------------------------------------------------------
 Rotational constants (GHZ):      0.4181317      0.2577700      0.1603057
 Standard basis: 6-311+G(d,p) (5D, 7F)
 There are   630 symmetry adapted cartesian basis functions of A   symmetry.
 There are   606 symmetry adapted basis functions of A   symmetry.
   606 basis functions,   968 primitive gaussians,   630 cartesian basis functions
    79 alpha electrons       78 beta electrons
       nuclear repulsion energy      1839.0848770035 Hartrees.
 NAtoms=   37 NActive=   37 NUniq=   37 SFac= 1.00D+00 NAtFMM=   60 NAOKFM=F Big=F
 Integral buffers will be    131072 words long.
 Raffenetti 2 integral format.
 Two-electron integral symmetry is turned on.
 One-electron integrals computed using PRISM.
 NBasis=   606 RedAO= T EigKep=  1.12D-06  NBF=   606
 NBsUse=   589 1.00D-06 EigRej=  7.53D-07 NBFU=   589
 ExpMin= 4.38D-02 ExpMax= 4.56D+03 ExpMxC= 6.82D+02 IAcc=2 IRadAn=         4 AccDes= 0.00D+00
 Harris functional with IExCor=  402 and IRadAn=       4 diagonalized for initial guess.
 HarFok:  IExCor=  402 AccDes= 0.00D+00 IRadAn=         4 IDoV= 1 UseB2=F ITyADJ=14
 ICtDFT=  3500011 ScaDFX=  1.000000  1.000000  1.000000  1.000000
 FoFCou: FMM=F IPFlag=           0 FMFlag=      100000 FMFlg1=           0
         NFxFlg=           0 DoJE=T BraDBF=F KetDBF=T FulRan=T
         wScrn=  0.000000 ICntrl=     500 IOpCl=  0 I1Cent=   200000004 NGrid=           0
         NMat0=    1 NMatS0=      1 NMatT0=    0 NMatD0=    1 NMtDS0=    0 NMtDT0=    0
 Petite list used in FoFCou.
 Initial guess <Sx>= 0.0000 <Sy>= 0.0000 <Sz>= 0.5000 <S**2>= 0.7500 S= 0.5000
 Requested convergence on RMS density matrix=1.00D-08 within 128 cycles.
 Requested convergence on MAX density matrix=1.00D-06.
 Requested convergence on             energy=1.00D-06.
 No special actions if energy rises.
 Restarting incremental Fock formation.
 SCF Done:  E(UB3LYP) =  -922.511723962     A.U. after   26 cycles
            NFock= 26  Conv=0.74D-08     -V/T= 2.0044
 <Sx>= 0.0000 <Sy>= 0.0000 <Sz>= 0.5000 <S**2>= 0.7721 S= 0.5110
 <L.S>= 0.000000000000E+00
 Annihilation of the first spin contaminant:
 S**2 before annihilation     0.7721,   after     0.7501
 DoSCS=F DFT=T ScalE2(SS,OS)=  1.000000  1.000000
 Range of M.O.s used for correlation:     1   589
 NBasis=   606 NAE=    79 NBE=    78 NFC=     0 NFV=     0
 NROrb=    589 NOA=    79 NOB=    78 NVA=   510 NVB=   511

 **** Warning!!: The largest alpha MO coefficient is  0.17279155D+03


 **** Warning!!: The largest beta MO coefficient is  0.16217512D+03


 **** Warning!!: The smallest beta delta epsilon is  0.95633573D-01

 Symmetrizing basis deriv contribution to polar:
 IMax=3 JMax=2 DiffMx= 0.00D+00
 G2DrvN: will do    38 centers at a time, making    1 passes.
 Calling FoFCou, ICntrl=  3107 FMM=F I1Cent=   0 AccDes= 0.00D+00.
 End of G2Drv F.D. properties file   721 does not exist.
 End of G2Drv F.D. properties file   722 does not exist.
 End of G2Drv F.D. properties file   788 does not exist.
          IDoAtm=1111111111111111111111111111111111111
          Differentiating once with respect to nuclear coordinates.
          There are   114 degrees of freedom in the 1st order CPHF.  IDoFFX=6 NUNeed=     0.
    108 vectors produced by pass  0 Test12= 8.01D-14 1.00D-09 XBig12= 6.01D-01 1.37D-01.
 AX will form   108 AO Fock derivatives at one time.
    108 vectors produced by pass  1 Test12= 8.01D-14 1.00D-09 XBig12= 1.06D-01 5.98D-02.
    108 vectors produced by pass  2 Test12= 8.01D-14 1.00D-09 XBig12= 2.07D-03 6.29D-03.
    108 vectors produced by pass  3 Test12= 8.01D-14 1.00D-09 XBig12= 3.09D-05 7.25D-04.
    108 vectors produced by pass  4 Test12= 8.01D-14 1.00D-09 XBig12= 2.62D-07 6.15D-05.
    108 vectors produced by pass  5 Test12= 8.01D-14 1.00D-09 XBig12= 1.81D-09 3.04D-06.
    108 vectors produced by pass  6 Test12= 8.01D-14 1.00D-09 XBig12= 7.69D-11 6.89D-07.
    108 vectors produced by pass  7 Test12= 8.01D-14 1.00D-09 XBig12= 1.48D-11 2.51D-07.
    108 vectors produced by pass  8 Test12= 8.01D-14 1.00D-09 XBig12= 2.18D-12 8.05D-08.
     85 vectors produced by pass  9 Test12= 8.01D-14 1.00D-09 XBig12= 4.34D-14 1.32D-08.
     35 vectors produced by pass 10 Test12= 8.01D-14 1.00D-09 XBig12= 5.66D-16 1.64D-09.
     35 vectors produced by pass 11 Test12= 8.01D-14 1.00D-09 XBig12= 2.26D-13 3.13D-08.
     35 vectors produced by pass 12 Test12= 8.01D-14 1.00D-09 XBig12= 1.73D-12 7.98D-08.
     35 vectors produced by pass 13 Test12= 8.01D-14 1.00D-09 XBig12= 5.16D-13 3.51D-08.
     35 vectors produced by pass 14 Test12= 8.01D-14 1.00D-09 XBig12= 5.78D-13 3.54D-08.
     35 vectors produced by pass 15 Test12= 8.01D-14 1.00D-09 XBig12= 1.84D-13 2.09D-08.
     35 vectors produced by pass 16 Test12= 8.01D-14 1.00D-09 XBig12= 1.74D-13 1.79D-08.
     35 vectors produced by pass 17 Test12= 8.01D-14 1.00D-09 XBig12= 2.45D-13 2.57D-08.
     35 vectors produced by pass 18 Test12= 8.01D-14 1.00D-09 XBig12= 2.02D-13 1.87D-08.
     35 vectors produced by pass 19 Test12= 8.01D-14 1.00D-09 XBig12= 2.25D-13 1.93D-08.
     35 vectors produced by pass 20 Test12= 8.01D-14 1.00D-09 XBig12= 1.82D-13 1.87D-08.
     35 vectors produced by pass 21 Test12= 8.01D-14 1.00D-09 XBig12= 2.17D-13 2.19D-08.
     34 vectors produced by pass 22 Test12= 8.01D-14 1.00D-09 XBig12= 9.38D-14 1.15D-08.
     34 vectors produced by pass 23 Test12= 8.01D-14 1.00D-09 XBig12= 1.68D-13 1.93D-08.
     34 vectors produced by pass 24 Test12= 8.01D-14 1.00D-09 XBig12= 1.21D-13 1.49D-08.
     32 vectors produced by pass 25 Test12= 8.01D-14 1.00D-09 XBig12= 5.26D-14 1.07D-08.
     32 vectors produced by pass 26 Test12= 8.01D-14 1.00D-09 XBig12= 1.46D-13 1.82D-08.
     28 vectors produced by pass 27 Test12= 8.01D-14 1.00D-09 XBig12= 6.45D-14 9.56D-09.
     28 vectors produced by pass 28 Test12= 8.01D-14 1.00D-09 XBig12= 1.48D-13 1.63D-08.
     24 vectors produced by pass 29 Test12= 8.01D-14 1.00D-09 XBig12= 4.52D-14 8.92D-09.
     24 vectors produced by pass 30 Test12= 8.01D-14 1.00D-09 XBig12= 4.47D-14 8.12D-09.
     24 vectors produced by pass 31 Test12= 8.01D-14 1.00D-09 XBig12= 8.44D-14 1.15D-08.
     24 vectors produced by pass 32 Test12= 8.01D-14 1.00D-09 XBig12= 1.10D-13 1.29D-08.
     24 vectors produced by pass 33 Test12= 8.01D-14 1.00D-09 XBig12= 1.07D-13 1.55D-08.
     24 vectors produced by pass 34 Test12= 8.01D-14 1.00D-09 XBig12= 7.68D-14 1.06D-08.
     24 vectors produced by pass 35 Test12= 8.01D-14 1.00D-09 XBig12= 6.04D-14 9.55D-09.
     24 vectors produced by pass 36 Test12= 8.01D-14 1.00D-09 XBig12= 5.47D-14 8.87D-09.
     24 vectors produced by pass 37 Test12= 8.01D-14 1.00D-09 XBig12= 6.89D-14 1.07D-08.
     20 vectors produced by pass 38 Test12= 8.01D-14 1.00D-09 XBig12= 3.56D-14 6.87D-09.
     20 vectors produced by pass 39 Test12= 8.01D-14 1.00D-09 XBig12= 6.35D-14 8.77D-09.
     20 vectors produced by pass 40 Test12= 8.01D-14 1.00D-09 XBig12= 5.08D-14 8.03D-09.
     13 vectors produced by pass 41 Test12= 8.01D-14 1.00D-09 XBig12= 2.57D-14 6.33D-09.
     13 vectors produced by pass 42 Test12= 8.01D-14 1.00D-09 XBig12= 5.76D-14 8.54D-09.
     13 vectors produced by pass 43 Test12= 8.01D-14 1.00D-09 XBig12= 5.22D-14 8.03D-09.
     13 vectors produced by pass 44 Test12= 8.01D-14 1.00D-09 XBig12= 6.01D-14 9.32D-09.
     13 vectors produced by pass 45 Test12= 8.01D-14 1.00D-09 XBig12= 6.82D-14 1.07D-08.
     13 vectors produced by pass 46 Test12= 8.01D-14 1.00D-09 XBig12= 3.75D-14 6.46D-09.
     13 vectors produced by pass 47 Test12= 8.01D-14 1.00D-09 XBig12= 5.68D-14 8.43D-09.
     13 vectors produced by pass 48 Test12= 8.01D-14 1.00D-09 XBig12= 4.50D-14 8.44D-09.
     13 vectors produced by pass 49 Test12= 8.01D-14 1.00D-09 XBig12= 3.77D-14 6.95D-09.
     13 vectors produced by pass 50 Test12= 8.01D-14 1.00D-09 XBig12= 7.61D-14 1.16D-08.
     13 vectors produced by pass 51 Test12= 8.01D-14 1.00D-09 XBig12= 4.14D-14 6.81D-09.
     13 vectors produced by pass 52 Test12= 8.01D-14 1.00D-09 XBig12= 4.76D-14 9.47D-09.
     13 vectors produced by pass 53 Test12= 8.01D-14 1.00D-09 XBig12= 5.19D-14 7.81D-09.
     13 vectors produced by pass 54 Test12= 8.01D-14 1.00D-09 XBig12= 4.50D-14 7.91D-09.
     13 vectors produced by pass 55 Test12= 8.01D-14 1.00D-09 XBig12= 4.29D-14 8.60D-09.
     12 vectors produced by pass 56 Test12= 8.01D-14 1.00D-09 XBig12= 2.87D-14 6.45D-09.
     12 vectors produced by pass 57 Test12= 8.01D-14 1.00D-09 XBig12= 3.70D-14 7.51D-09.
     12 vectors produced by pass 58 Test12= 8.01D-14 1.00D-09 XBig12= 6.44D-14 8.74D-09.
     11 vectors produced by pass 59 Test12= 8.01D-14 1.00D-09 XBig12= 2.17D-14 5.87D-09.
     11 vectors produced by pass 60 Test12= 8.01D-14 1.00D-09 XBig12= 4.93D-14 8.93D-09.
     10 vectors produced by pass 61 Test12= 8.01D-14 1.00D-09 XBig12= 1.70D-14 4.90D-09.
     10 vectors produced by pass 62 Test12= 8.01D-14 1.00D-09 XBig12= 4.00D-14 9.68D-09.
     10 vectors produced by pass 63 Test12= 8.01D-14 1.00D-09 XBig12= 2.68D-14 5.99D-09.
     10 vectors produced by pass 64 Test12= 8.01D-14 1.00D-09 XBig12= 3.33D-14 6.15D-09.
     10 vectors produced by pass 65 Test12= 8.01D-14 1.00D-09 XBig12= 1.57D-14 4.32D-09.
     10 vectors produced by pass 66 Test12= 8.01D-14 1.00D-09 XBig12= 3.27D-14 7.53D-09.
     10 vectors produced by pass 67 Test12= 8.01D-14 1.00D-09 XBig12= 2.64D-14 5.89D-09.
     10 vectors produced by pass 68 Test12= 8.01D-14 1.00D-09 XBig12= 2.14D-14 5.29D-09.
     10 vectors produced by pass 69 Test12= 8.01D-14 1.00D-09 XBig12= 1.33D-14 4.09D-09.
     10 vectors produced by pass 70 Test12= 8.01D-14 1.00D-09 XBig12= 2.78D-14 6.49D-09.
     10 vectors produced by pass 71 Test12= 8.01D-14 1.00D-09 XBig12= 2.24D-14 5.40D-09.
     10 vectors produced by pass 72 Test12= 8.01D-14 1.00D-09 XBig12= 2.94D-14 5.90D-09.
     10 vectors produced by pass 73 Test12= 8.01D-14 1.00D-09 XBig12= 3.42D-14 6.21D-09.
     10 vectors produced by pass 74 Test12= 8.01D-14 1.00D-09 XBig12= 3.09D-14 6.23D-09.
     10 vectors produced by pass 75 Test12= 8.01D-14 1.00D-09 XBig12= 2.67D-14 5.56D-09.
     10 vectors produced by pass 76 Test12= 8.01D-14 1.00D-09 XBig12= 3.10D-14 6.55D-09.
     10 vectors produced by pass 77 Test12= 8.01D-14 1.00D-09 XBig12= 3.69D-14 6.93D-09.
     10 vectors produced by pass 78 Test12= 8.01D-14 1.00D-09 XBig12= 2.55D-14 7.51D-09.
      7 vectors produced by pass 79 Test12= 8.01D-14 1.00D-09 XBig12= 1.38D-14 5.17D-09.
      7 vectors produced by pass 80 Test12= 8.01D-14 1.00D-09 XBig12= 2.11D-14 5.62D-09.
      7 vectors produced by pass 81 Test12= 8.01D-14 1.00D-09 XBig12= 1.88D-14 4.47D-09.
      7 vectors produced by pass 82 Test12= 8.01D-14 1.00D-09 XBig12= 1.91D-14 4.87D-09.
      7 vectors produced by pass 83 Test12= 8.01D-14 1.00D-09 XBig12= 1.16D-14 3.76D-09.
      6 vectors produced by pass 84 Test12= 8.01D-14 1.00D-09 XBig12= 1.26D-14 4.13D-09.
      6 vectors produced by pass 85 Test12= 8.01D-14 1.00D-09 XBig12= 1.84D-14 5.05D-09.
      6 vectors produced by pass 86 Test12= 8.01D-14 1.00D-09 XBig12= 2.87D-14 6.09D-09.
      6 vectors produced by pass 87 Test12= 8.01D-14 1.00D-09 XBig12= 2.15D-14 5.74D-09.
      6 vectors produced by pass 88 Test12= 8.01D-14 1.00D-09 XBig12= 1.85D-14 4.94D-09.
      6 vectors produced by pass 89 Test12= 8.01D-14 1.00D-09 XBig12= 2.30D-14 5.68D-09.
      6 vectors produced by pass 90 Test12= 8.01D-14 1.00D-09 XBig12= 1.44D-14 4.31D-09.
      6 vectors produced by pass 91 Test12= 8.01D-14 1.00D-09 XBig12= 2.21D-14 5.47D-09.
      6 vectors produced by pass 92 Test12= 8.01D-14 1.00D-09 XBig12= 3.06D-14 7.68D-09.
      6 vectors produced by pass 93 Test12= 8.01D-14 1.00D-09 XBig12= 1.60D-14 4.27D-09.
      6 vectors produced by pass 94 Test12= 8.01D-14 1.00D-09 XBig12= 1.98D-14 4.94D-09.
      6 vectors produced by pass 95 Test12= 8.01D-14 1.00D-09 XBig12= 1.94D-14 4.68D-09.
      6 vectors produced by pass 96 Test12= 8.01D-14 1.00D-09 XBig12= 2.11D-14 5.02D-09.
      6 vectors produced by pass 97 Test12= 8.01D-14 1.00D-09 XBig12= 1.87D-14 5.53D-09.
      5 vectors produced by pass 98 Test12= 8.01D-14 1.00D-09 XBig12= 1.22D-14 4.30D-09.
      5 vectors produced by pass 99 Test12= 8.01D-14 1.00D-09 XBig12= 1.84D-14 5.39D-09.
      5 vectors produced by pass100 Test12= 8.01D-14 1.00D-09 XBig12= 2.46D-14 5.31D-09.
      5 vectors produced by pass101 Test12= 8.01D-14 1.00D-09 XBig12= 1.39D-14 4.18D-09.
      5 vectors produced by pass102 Test12= 8.01D-14 1.00D-09 XBig12= 2.05D-14 5.48D-09.
      4 vectors produced by pass103 Test12= 8.01D-14 1.00D-09 XBig12= 8.94D-15 3.40D-09.
      4 vectors produced by pass104 Test12= 8.01D-14 1.00D-09 XBig12= 8.10D-15 2.99D-09.
      4 vectors produced by pass105 Test12= 8.01D-14 1.00D-09 XBig12= 1.61D-14 4.19D-09.
      4 vectors produced by pass106 Test12= 8.01D-14 1.00D-09 XBig12= 2.00D-14 5.03D-09.
      4 vectors produced by pass107 Test12= 8.01D-14 1.00D-09 XBig12= 1.91D-14 4.55D-09.
      4 vectors produced by pass108 Test12= 8.01D-14 1.00D-09 XBig12= 2.30D-14 5.69D-09.
      4 vectors produced by pass109 Test12= 8.01D-14 1.00D-09 XBig12= 1.47D-14 4.09D-09.
      4 vectors produced by pass110 Test12= 8.01D-14 1.00D-09 XBig12= 2.45D-14 5.59D-09.
      4 vectors produced by pass111 Test12= 8.01D-14 1.00D-09 XBig12= 6.50D-15 2.78D-09.
      4 vectors produced by pass112 Test12= 8.01D-14 1.00D-09 XBig12= 1.73D-14 4.75D-09.
      4 vectors produced by pass113 Test12= 8.01D-14 1.00D-09 XBig12= 2.49D-14 5.40D-09.
      4 vectors produced by pass114 Test12= 8.01D-14 1.00D-09 XBig12= 2.35D-14 6.04D-09.
      4 vectors produced by pass115 Test12= 8.01D-14 1.00D-09 XBig12= 2.59D-14 5.37D-09.
      4 vectors produced by pass116 Test12= 8.01D-14 1.00D-09 XBig12= 1.63D-14 4.71D-09.
      4 vectors produced by pass117 Test12= 8.01D-14 1.00D-09 XBig12= 1.13D-14 3.41D-09.
      4 vectors produced by pass118 Test12= 8.01D-14 1.00D-09 XBig12= 1.51D-14 4.20D-09.
      4 vectors produced by pass119 Test12= 8.01D-14 1.00D-09 XBig12= 1.72D-14 4.17D-09.
      4 vectors produced by pass120 Test12= 8.01D-14 1.00D-09 XBig12= 1.30D-14 4.87D-09.
      4 vectors produced by pass121 Test12= 8.01D-14 1.00D-09 XBig12= 2.52D-14 4.78D-09.
      4 vectors produced by pass122 Test12= 8.01D-14 1.00D-09 XBig12= 1.23D-14 3.64D-09.
      4 vectors produced by pass123 Test12= 8.01D-14 1.00D-09 XBig12= 2.98D-14 5.89D-09.
      4 vectors produced by pass124 Test12= 8.01D-14 1.00D-09 XBig12= 1.77D-14 4.29D-09.
      4 vectors produced by pass125 Test12= 8.01D-14 1.00D-09 XBig12= 1.26D-14 3.65D-09.
      4 vectors produced by pass126 Test12= 8.01D-14 1.00D-09 XBig12= 2.41D-14 5.39D-09.
      4 vectors produced by pass127 Test12= 8.01D-14 1.00D-09 XBig12= 1.37D-14 4.39D-09.
      4 vectors produced by pass128 Test12= 8.01D-14 1.00D-09 XBig12= 1.08D-14 3.21D-09.
      4 vectors produced by pass129 Test12= 8.01D-14 1.00D-09 XBig12= 1.32D-14 3.70D-09.
      4 vectors produced by pass130 Test12= 8.01D-14 1.00D-09 XBig12= 1.94D-14 4.84D-09.
      4 vectors produced by pass131 Test12= 8.01D-14 1.00D-09 XBig12= 1.73D-14 4.51D-09.
      4 vectors produced by pass132 Test12= 8.01D-14 1.00D-09 XBig12= 1.45D-14 4.58D-09.
      4 vectors produced by pass133 Test12= 8.01D-14 1.00D-09 XBig12= 1.22D-14 3.94D-09.
      4 vectors produced by pass134 Test12= 8.01D-14 1.00D-09 XBig12= 1.33D-14 4.09D-09.
      4 vectors produced by pass135 Test12= 8.01D-14 1.00D-09 XBig12= 1.58D-14 4.79D-09.
      4 vectors produced by pass136 Test12= 8.01D-14 1.00D-09 XBig12= 9.41D-15 3.22D-09.
      4 vectors produced by pass137 Test12= 8.01D-14 1.00D-09 XBig12= 1.14D-14 4.01D-09.
      4 vectors produced by pass138 Test12= 8.01D-14 1.00D-09 XBig12= 1.16D-14 3.40D-09.
      4 vectors produced by pass139 Test12= 8.01D-14 1.00D-09 XBig12= 1.27D-14 3.70D-09.
      4 vectors produced by pass140 Test12= 8.01D-14 1.00D-09 XBig12= 1.36D-14 4.04D-09.
      4 vectors produced by pass141 Test12= 8.01D-14 1.00D-09 XBig12= 1.92D-14 4.20D-09.
      4 vectors produced by pass142 Test12= 8.01D-14 1.00D-09 XBig12= 1.56D-14 3.82D-09.
      4 vectors produced by pass143 Test12= 8.01D-14 1.00D-09 XBig12= 3.20D-14 6.69D-09.
      4 vectors produced by pass144 Test12= 8.01D-14 1.00D-09 XBig12= 1.64D-14 4.17D-09.
      4 vectors produced by pass145 Test12= 8.01D-14 1.00D-09 XBig12= 8.95D-15 3.29D-09.
      4 vectors produced by pass146 Test12= 8.01D-14 1.00D-09 XBig12= 1.10D-14 3.86D-09.
      4 vectors produced by pass147 Test12= 8.01D-14 1.00D-09 XBig12= 2.03D-14 4.91D-09.
      4 vectors produced by pass148 Test12= 8.01D-14 1.00D-09 XBig12= 1.13D-14 3.76D-09.
      4 vectors produced by pass149 Test12= 8.01D-14 1.00D-09 XBig12= 2.36D-14 6.03D-09.
      4 vectors produced by pass150 Test12= 8.01D-14 1.00D-09 XBig12= 1.17D-14 3.57D-09.
      4 vectors produced by pass151 Test12= 8.01D-14 1.00D-09 XBig12= 1.62D-14 3.85D-09.
      4 vectors produced by pass152 Test12= 8.01D-14 1.00D-09 XBig12= 1.55D-14 4.28D-09.
      4 vectors produced by pass153 Test12= 8.01D-14 1.00D-09 XBig12= 1.18D-14 4.66D-09.
      4 vectors produced by pass154 Test12= 8.01D-14 1.00D-09 XBig12= 1.04D-14 3.49D-09.
      4 vectors produced by pass155 Test12= 8.01D-14 1.00D-09 XBig12= 9.87D-15 3.41D-09.
      4 vectors produced by pass156 Test12= 8.01D-14 1.00D-09 XBig12= 1.51D-14 4.36D-09.
      4 vectors produced by pass157 Test12= 8.01D-14 1.00D-09 XBig12= 1.57D-14 4.23D-09.
      4 vectors produced by pass158 Test12= 8.01D-14 1.00D-09 XBig12= 1.59D-14 5.30D-09.
      4 vectors produced by pass159 Test12= 8.01D-14 1.00D-09 XBig12= 1.11D-14 3.48D-09.
      4 vectors produced by pass160 Test12= 8.01D-14 1.00D-09 XBig12= 1.38D-14 3.77D-09.
      4 vectors produced by pass161 Test12= 8.01D-14 1.00D-09 XBig12= 1.32D-14 4.09D-09.
      4 vectors produced by pass162 Test12= 8.01D-14 1.00D-09 XBig12= 1.37D-14 3.99D-09.
      4 vectors produced by pass163 Test12= 8.01D-14 1.00D-09 XBig12= 1.67D-14 4.06D-09.
      4 vectors produced by pass164 Test12= 8.01D-14 1.00D-09 XBig12= 1.83D-14 4.29D-09.
      4 vectors produced by pass165 Test12= 8.01D-14 1.00D-09 XBig12= 1.04D-14 3.25D-09.
      4 vectors produced by pass166 Test12= 8.01D-14 1.00D-09 XBig12= 1.28D-14 3.97D-09.
      4 vectors produced by pass167 Test12= 8.01D-14 1.00D-09 XBig12= 7.59D-15 3.15D-09.
      4 vectors produced by pass168 Test12= 8.01D-14 1.00D-09 XBig12= 1.07D-14 3.47D-09.
      4 vectors produced by pass169 Test12= 8.01D-14 1.00D-09 XBig12= 9.46D-15 3.26D-09.
      4 vectors produced by pass170 Test12= 8.01D-14 1.00D-09 XBig12= 1.15D-14 3.54D-09.
      4 vectors produced by pass171 Test12= 8.01D-14 1.00D-09 XBig12= 1.38D-14 4.43D-09.
      4 vectors produced by pass172 Test12= 8.01D-14 1.00D-09 XBig12= 8.40D-15 4.00D-09.
      4 vectors produced by pass173 Test12= 8.01D-14 1.00D-09 XBig12= 1.68D-14 4.23D-09.
      4 vectors produced by pass174 Test12= 8.01D-14 1.00D-09 XBig12= 1.78D-14 4.27D-09.
      4 vectors produced by pass175 Test12= 8.01D-14 1.00D-09 XBig12= 1.87D-14 5.05D-09.
      4 vectors produced by pass176 Test12= 8.01D-14 1.00D-09 XBig12= 7.99D-15 2.87D-09.
      4 vectors produced by pass177 Test12= 8.01D-14 1.00D-09 XBig12= 1.47D-14 4.50D-09.
      4 vectors produced by pass178 Test12= 8.01D-14 1.00D-09 XBig12= 4.59D-15 2.59D-09.
      4 vectors produced by pass179 Test12= 8.01D-14 1.00D-09 XBig12= 1.84D-14 3.94D-09.
      4 vectors produced by pass180 Test12= 8.01D-14 1.00D-09 XBig12= 1.31D-14 5.41D-09.
      4 vectors produced by pass181 Test12= 8.01D-14 1.00D-09 XBig12= 1.40D-14 4.66D-09.
      4 vectors produced by pass182 Test12= 8.01D-14 1.00D-09 XBig12= 8.12D-15 3.07D-09.
      4 vectors produced by pass183 Test12= 8.01D-14 1.00D-09 XBig12= 8.83D-15 3.49D-09.
      4 vectors produced by pass184 Test12= 8.01D-14 1.00D-09 XBig12= 1.63D-14 4.22D-09.
      4 vectors produced by pass185 Test12= 8.01D-14 1.00D-09 XBig12= 1.03D-14 4.11D-09.
      4 vectors produced by pass186 Test12= 8.01D-14 1.00D-09 XBig12= 1.30D-14 3.98D-09.
      4 vectors produced by pass187 Test12= 8.01D-14 1.00D-09 XBig12= 1.43D-14 3.70D-09.
      4 vectors produced by pass188 Test12= 8.01D-14 1.00D-09 XBig12= 5.89D-15 2.87D-09.
      4 vectors produced by pass189 Test12= 8.01D-14 1.00D-09 XBig12= 1.74D-14 4.52D-09.
      4 vectors produced by pass190 Test12= 8.01D-14 1.00D-09 XBig12= 7.54D-15 3.33D-09.
      4 vectors produced by pass191 Test12= 8.01D-14 1.00D-09 XBig12= 1.57D-14 3.69D-09.
      4 vectors produced by pass192 Test12= 8.01D-14 1.00D-09 XBig12= 1.25D-14 3.92D-09.
      4 vectors produced by pass193 Test12= 8.01D-14 1.00D-09 XBig12= 7.16D-15 2.80D-09.
      4 vectors produced by pass194 Test12= 8.01D-14 1.00D-09 XBig12= 1.61D-14 3.98D-09.
      4 vectors produced by pass195 Test12= 8.01D-14 1.00D-09 XBig12= 1.76D-14 5.31D-09.
      4 vectors produced by pass196 Test12= 8.01D-14 1.00D-09 XBig12= 1.21D-14 3.50D-09.
      4 vectors produced by pass197 Test12= 8.01D-14 1.00D-09 XBig12= 8.89D-15 3.14D-09.
      4 vectors produced by pass198 Test12= 8.01D-14 1.00D-09 XBig12= 9.35D-15 3.33D-09.
      4 vectors produced by pass199 Test12= 8.01D-14 1.00D-09 XBig12= 3.46D-15 1.80D-09.
      4 vectors produced by pass200 Test12= 8.01D-14 1.00D-09 XBig12= 1.53D-14 3.82D-09.
      4 vectors produced by pass201 Test12= 8.01D-14 1.00D-09 XBig12= 1.02D-14 3.75D-09.
      4 vectors produced by pass202 Test12= 8.01D-14 1.00D-09 XBig12= 1.43D-14 3.81D-09.
      4 vectors produced by pass203 Test12= 8.01D-14 1.00D-09 XBig12= 1.15D-14 3.25D-09.
      4 vectors produced by pass204 Test12= 8.01D-14 1.00D-09 XBig12= 9.30D-15 3.07D-09.
      4 vectors produced by pass205 Test12= 8.01D-14 1.00D-09 XBig12= 1.18D-14 3.53D-09.
      4 vectors produced by pass206 Test12= 8.01D-14 1.00D-09 XBig12= 1.35D-14 4.28D-09.
      4 vectors produced by pass207 Test12= 8.01D-14 1.00D-09 XBig12= 1.16D-14 3.25D-09.
      4 vectors produced by pass208 Test12= 8.01D-14 1.00D-09 XBig12= 1.22D-14 4.59D-09.
      4 vectors produced by pass209 Test12= 8.01D-14 1.00D-09 XBig12= 9.43D-15 3.09D-09.
      4 vectors produced by pass210 Test12= 8.01D-14 1.00D-09 XBig12= 9.12D-15 3.13D-09.
      4 vectors produced by pass211 Test12= 8.01D-14 1.00D-09 XBig12= 6.09D-15 2.92D-09.
      4 vectors produced by pass212 Test12= 8.01D-14 1.00D-09 XBig12= 1.06D-14 3.11D-09.
      4 vectors produced by pass213 Test12= 8.01D-14 1.00D-09 XBig12= 1.04D-14 3.67D-09.
      4 vectors produced by pass214 Test12= 8.01D-14 1.00D-09 XBig12= 1.11D-14 4.01D-09.
      4 vectors produced by pass215 Test12= 8.01D-14 1.00D-09 XBig12= 9.60D-15 3.53D-09.
      4 vectors produced by pass216 Test12= 8.01D-14 1.00D-09 XBig12= 9.23D-15 2.87D-09.
      4 vectors produced by pass217 Test12= 8.01D-14 1.00D-09 XBig12= 7.89D-15 2.72D-09.
      4 vectors produced by pass218 Test12= 8.01D-14 1.00D-09 XBig12= 9.22D-15 3.35D-09.
      4 vectors produced by pass219 Test12= 8.01D-14 1.00D-09 XBig12= 9.52D-15 2.90D-09.
      4 vectors produced by pass220 Test12= 8.01D-14 1.00D-09 XBig12= 1.45D-14 4.48D-09.
      3 vectors produced by pass221 Test12= 8.01D-14 1.00D-09 XBig12= 1.23D-14 3.51D-09.
      3 vectors produced by pass222 Test12= 8.01D-14 1.00D-09 XBig12= 7.03D-15 2.91D-09.
      3 vectors produced by pass223 Test12= 8.01D-14 1.00D-09 XBig12= 6.91D-15 3.04D-09.
      3 vectors produced by pass224 Test12= 8.01D-14 1.00D-09 XBig12= 1.04D-14 3.63D-09.
      3 vectors produced by pass225 Test12= 8.01D-14 1.00D-09 XBig12= 1.06D-14 3.19D-09.
      3 vectors produced by pass226 Test12= 8.01D-14 1.00D-09 XBig12= 1.54D-14 4.33D-09.
      3 vectors produced by pass227 Test12= 8.01D-14 1.00D-09 XBig12= 9.39D-15 3.28D-09.
      3 vectors produced by pass228 Test12= 8.01D-14 1.00D-09 XBig12= 1.21D-14 3.33D-09.
      3 vectors produced by pass229 Test12= 8.01D-14 1.00D-09 XBig12= 8.96D-15 3.04D-09.
      3 vectors produced by pass230 Test12= 8.01D-14 1.00D-09 XBig12= 7.96D-15 2.74D-09.
      3 vectors produced by pass231 Test12= 8.01D-14 1.00D-09 XBig12= 1.19D-14 3.69D-09.
      3 vectors produced by pass232 Test12= 8.01D-14 1.00D-09 XBig12= 6.77D-15 2.66D-09.
      3 vectors produced by pass233 Test12= 8.01D-14 1.00D-09 XBig12= 8.93D-15 3.08D-09.
      3 vectors produced by pass234 Test12= 8.01D-14 1.00D-09 XBig12= 8.99D-15 3.05D-09.
      3 vectors produced by pass235 Test12= 8.01D-14 1.00D-09 XBig12= 1.29D-14 3.65D-09.
      3 vectors produced by pass236 Test12= 8.01D-14 1.00D-09 XBig12= 1.23D-14 3.73D-09.
      3 vectors produced by pass237 Test12= 8.01D-14 1.00D-09 XBig12= 5.85D-15 2.37D-09.
      3 vectors produced by pass238 Test12= 8.01D-14 1.00D-09 XBig12= 8.67D-15 3.12D-09.
      3 vectors produced by pass239 Test12= 8.01D-14 1.00D-09 XBig12= 1.79D-14 4.23D-09.
      3 vectors produced by pass240 Test12= 8.01D-14 1.00D-09 XBig12= 5.11D-15 2.43D-09.
      3 vectors produced by pass241 Test12= 8.01D-14 1.00D-09 XBig12= 1.61D-14 4.39D-09.
      3 vectors produced by pass242 Test12= 8.01D-14 1.00D-09 XBig12= 9.26D-15 2.96D-09.
      3 vectors produced by pass243 Test12= 8.01D-14 1.00D-09 XBig12= 3.63D-15 2.16D-09.
      3 vectors produced by pass244 Test12= 8.01D-14 1.00D-09 XBig12= 1.52D-14 4.61D-09.
      3 vectors produced by pass245 Test12= 8.01D-14 1.00D-09 XBig12= 1.08D-14 3.28D-09.
      3 vectors produced by pass246 Test12= 8.01D-14 1.00D-09 XBig12= 1.03D-14 3.41D-09.
      3 vectors produced by pass247 Test12= 8.01D-14 1.00D-09 XBig12= 1.64D-14 4.09D-09.
      3 vectors produced by pass248 Test12= 8.01D-14 1.00D-09 XBig12= 5.59D-15 2.29D-09.
      3 vectors produced by pass249 Test12= 8.01D-14 1.00D-09 XBig12= 9.86D-15 3.86D-09.
      3 vectors produced by pass250 Test12= 8.01D-14 1.00D-09 XBig12= 6.02D-15 2.62D-09.
      3 vectors produced by pass251 Test12= 8.01D-14 1.00D-09 XBig12= 1.01D-14 3.13D-09.
      3 vectors produced by pass252 Test12= 8.01D-14 1.00D-09 XBig12= 1.22D-14 3.61D-09.
      3 vectors produced by pass253 Test12= 8.01D-14 1.00D-09 XBig12= 4.18D-15 1.95D-09.
      3 vectors produced by pass254 Test12= 8.01D-14 1.00D-09 XBig12= 8.57D-15 2.68D-09.
      3 vectors produced by pass255 Test12= 8.01D-14 1.00D-09 XBig12= 9.99D-15 2.88D-09.
      3 vectors produced by pass256 Test12= 8.01D-14 1.00D-09 XBig12= 1.37D-14 3.41D-09.
      3 vectors produced by pass257 Test12= 8.01D-14 1.00D-09 XBig12= 6.40D-15 2.68D-09.
      3 vectors produced by pass258 Test12= 8.01D-14 1.00D-09 XBig12= 9.66D-15 3.06D-09.
      3 vectors produced by pass259 Test12= 8.01D-14 1.00D-09 XBig12= 1.07D-14 3.55D-09.
      3 vectors produced by pass260 Test12= 8.01D-14 1.00D-09 XBig12= 9.34D-15 2.98D-09.
      3 vectors produced by pass261 Test12= 8.01D-14 1.00D-09 XBig12= 6.52D-15 2.58D-09.
      3 vectors produced by pass262 Test12= 8.01D-14 1.00D-09 XBig12= 7.49D-15 2.62D-09.
      3 vectors produced by pass263 Test12= 8.01D-14 1.00D-09 XBig12= 5.28D-15 2.54D-09.
      3 vectors produced by pass264 Test12= 8.01D-14 1.00D-09 XBig12= 1.10D-14 3.40D-09.
      3 vectors produced by pass265 Test12= 8.01D-14 1.00D-09 XBig12= 1.13D-14 3.35D-09.
      3 vectors produced by pass266 Test12= 8.01D-14 1.00D-09 XBig12= 1.01D-14 3.57D-09.
      3 vectors produced by pass267 Test12= 8.01D-14 1.00D-09 XBig12= 7.02D-15 2.63D-09.
      3 vectors produced by pass268 Test12= 8.01D-14 1.00D-09 XBig12= 6.06D-15 2.24D-09.
      3 vectors produced by pass269 Test12= 8.01D-14 1.00D-09 XBig12= 4.08D-15 1.89D-09.
      3 vectors produced by pass270 Test12= 8.01D-14 1.00D-09 XBig12= 1.04D-14 3.29D-09.
      3 vectors produced by pass271 Test12= 8.01D-14 1.00D-09 XBig12= 9.90D-15 2.95D-09.
      3 vectors produced by pass272 Test12= 8.01D-14 1.00D-09 XBig12= 1.14D-14 3.29D-09.
      3 vectors produced by pass273 Test12= 8.01D-14 1.00D-09 XBig12= 6.96D-15 2.29D-09.
      3 vectors produced by pass274 Test12= 8.01D-14 1.00D-09 XBig12= 1.44D-14 3.76D-09.
      3 vectors produced by pass275 Test12= 8.01D-14 1.00D-09 XBig12= 7.84D-15 2.73D-09.
      3 vectors produced by pass276 Test12= 8.01D-14 1.00D-09 XBig12= 1.28D-14 3.66D-09.
      3 vectors produced by pass277 Test12= 8.01D-14 1.00D-09 XBig12= 7.46D-15 3.21D-09.
      3 vectors produced by pass278 Test12= 8.01D-14 1.00D-09 XBig12= 1.08D-14 3.08D-09.
      3 vectors produced by pass279 Test12= 8.01D-14 1.00D-09 XBig12= 1.01D-14 3.41D-09.
      3 vectors produced by pass280 Test12= 8.01D-14 1.00D-09 XBig12= 6.04D-15 2.32D-09.
      3 vectors produced by pass281 Test12= 8.01D-14 1.00D-09 XBig12= 1.09D-14 3.56D-09.
      3 vectors produced by pass282 Test12= 8.01D-14 1.00D-09 XBig12= 5.79D-15 2.84D-09.
      3 vectors produced by pass283 Test12= 8.01D-14 1.00D-09 XBig12= 1.01D-14 3.15D-09.
      3 vectors produced by pass284 Test12= 8.01D-14 1.00D-09 XBig12= 7.48D-15 3.01D-09.
      3 vectors produced by pass285 Test12= 8.01D-14 1.00D-09 XBig12= 7.03D-15 3.26D-09.
      3 vectors produced by pass286 Test12= 8.01D-14 1.00D-09 XBig12= 6.80D-15 2.46D-09.
      3 vectors produced by pass287 Test12= 8.01D-14 1.00D-09 XBig12= 8.08D-15 2.57D-09.
      3 vectors produced by pass288 Test12= 8.01D-14 1.00D-09 XBig12= 9.49D-15 3.35D-09.
      3 vectors produced by pass289 Test12= 8.01D-14 1.00D-09 XBig12= 9.27D-15 3.04D-09.
      3 vectors produced by pass290 Test12= 8.01D-14 1.00D-09 XBig12= 4.90D-15 2.95D-09.
      3 vectors produced by pass291 Test12= 8.01D-14 1.00D-09 XBig12= 9.87D-15 3.08D-09.
      3 vectors produced by pass292 Test12= 8.01D-14 1.00D-09 XBig12= 9.09D-15 2.97D-09.
      3 vectors produced by pass293 Test12= 8.01D-14 1.00D-09 XBig12= 1.02D-14 3.47D-09.
      3 vectors produced by pass294 Test12= 8.01D-14 1.00D-09 XBig12= 3.76D-15 2.32D-09.
      3 vectors produced by pass295 Test12= 8.01D-14 1.00D-09 XBig12= 9.36D-15 3.80D-09.
      3 vectors produced by pass296 Test12= 8.01D-14 1.00D-09 XBig12= 7.22D-15 3.38D-09.
      3 vectors produced by pass297 Test12= 8.01D-14 1.00D-09 XBig12= 1.06D-14 3.34D-09.
      3 vectors produced by pass298 Test12= 8.01D-14 1.00D-09 XBig12= 7.66D-15 2.45D-09.
      3 vectors produced by pass299 Test12= 8.01D-14 1.00D-09 XBig12= 5.95D-15 2.51D-09.
      3 vectors produced by pass300 Test12= 8.01D-14 1.00D-09 XBig12= 8.35D-15 3.04D-09.
      3 vectors produced by pass301 Test12= 8.01D-14 1.00D-09 XBig12= 7.32D-15 2.89D-09.
      3 vectors produced by pass302 Test12= 8.01D-14 1.00D-09 XBig12= 7.04D-15 2.68D-09.
      3 vectors produced by pass303 Test12= 8.01D-14 1.00D-09 XBig12= 7.32D-15 2.77D-09.
      3 vectors produced by pass304 Test12= 8.01D-14 1.00D-09 XBig12= 1.09D-14 3.27D-09.
      3 vectors produced by pass305 Test12= 8.01D-14 1.00D-09 XBig12= 6.19D-15 2.70D-09.
      3 vectors produced by pass306 Test12= 8.01D-14 1.00D-09 XBig12= 6.47D-15 2.36D-09.
      3 vectors produced by pass307 Test12= 8.01D-14 1.00D-09 XBig12= 5.83D-15 2.41D-09.
      3 vectors produced by pass308 Test12= 8.01D-14 1.00D-09 XBig12= 8.69D-15 3.03D-09.
      2 vectors produced by pass309 Test12= 8.01D-14 1.00D-09 XBig12= 2.80D-15 1.76D-09.
 InvSVY:  IOpt=1 It=  1 EMax= 1.33D-15
 Solved reduced A of dimension  3290 with   114 vectors.
 End of Minotr F.D. properties file   721 does not exist.
 End of Minotr F.D. properties file   722 does not exist.
 End of Minotr F.D. properties file   788 does not exist.

 **********************************************************************

            Population analysis using the SCF density.

 **********************************************************************

 Orbital symmetries:
 Alpha Orbitals:
       Occupied  (A) (A) (A) (A) (A) (A) (A) (A) (A) (A) (A) (A)
                 (A) (A) (A) (A) (A) (A) (A) (A) (A) (A) (A) (A)
                 (A) (A) (A) (A) (A) (A) (A) (A) (A) (A) (A) (A)
                 (A) (A) (A) (A) (A) (A) (A) (A) (A) (A) (A) (A)
                 (A) (A) (A) (A) (A) (A) (A) (A) (A) (A) (A) (A)
                 (A) (A) (A) (A) (A) (A) (A) (A) (A) (A) (A) (A)
                 (A) (A) (A) (A) (A) (A) (A)
       Virtual   (A) (A) (A) (A) (A) (A) (A) (A) (A) (A) (A) (A)
                 (A) (A) (A) (A) (A) (A) (A) (A) (A) (A) (A) (A)
                 (A) (A) (A) (A) (A) (A) (A) (A) (A) (A) (A) (A)
                 (A) (A) (A) (A) (A) (A) (A) (A) (A) (A) (A) (A)
                 (A) (A) (A) (A) (A) (A) (A) (A) (A) (A) (A) (A)
                 (A) (A) (A) (A) (A) (A) (A) (A) (A) (A) (A) (A)
                 (A) (A) (A) (A) (A) (A) (A) (A) (A) (A) (A) (A)
                 (A) (A) (A) (A) (A) (A) (A) (A) (A) (A) (A) (A)
                 (A) (A) (A) (A) (A) (A) (A) (A) (A) (A) (A) (A)
                 (A) (A) (A) (A) (A) (A) (A) (A) (A) (A) (A) (A)
                 (A) (A) (A) (A) (A) (A) (A) (A) (A) (A) (A) (A)
                 (A) (A) (A) (A) (A) (A) (A) (A) (A) (A) (A) (A)
                 (A) (A) (A) (A) (A) (A) (A) (A) (A) (A) (A) (A)
                 (A) (A) (A) (A) (A) (A) (A) (A) (A) (A) (A) (A)
                 (A) (A) (A) (A) (A) (A) (A) (A) (A) (A) (A) (A)
                 (A) (A) (A) (A) (A) (A) (A) (A) (A) (A) (A) (A)
                 (A) (A) (A) (A) (A) (A) (A) (A) (A) (A) (A) (A)
                 (A) (A) (A) (A) (A) (A) (A) (A) (A) (A) (A) (A)
                 (A) (A) (A) (A) (A) (A) (A) (A) (A) (A) (A) (A)
                 (A) (A) (A) (A) (A) (A) (A) (A) (A) (A) (A) (A)
                 (A) (A) (A) (A) (A) (A) (A) (A) (A) (A) (A) (A)
                 (A) (A) (A) (A) (A) (A) (A) (A) (A) (A) (A) (A)
                 (A) (A) (A) (A) (A) (A) (A) (A) (A) (A) (A) (A)
                 (A) (A) (A) (A) (A) (A) (A) (A) (A) (A) (A) (A)
                 (A) (A) (A) (A) (A) (A) (A) (A) (A) (A) (A) (A)
                 (A) (A) (A) (A) (A) (A) (A) (A) (A) (A) (A) (A)
                 (A) (A) (A) (A) (A) (A) (A) (A) (A) (A) (A) (A)
                 (A) (A) (A) (A) (A) (A) (A) (A) (A) (A) (A) (A)
                 (A) (A) (A) (A) (A) (A) (A) (A) (A) (A) (A) (A)
                 (A) (A) (A) (A) (A) (A) (A) (A) (A) (A) (A) (A)
                 (A) (A) (A) (A) (A) (A) (A) (A) (A) (A) (A) (A)
                 (A) (A) (A) (A) (A) (A) (A) (A) (A) (A) (A) (A)
                 (A) (A) (A) (A) (A) (A) (A) (A) (A) (A) (A) (A)
                 (A) (A) (A) (A) (A) (A) (A) (A) (A) (A) (A) (A)
                 (A) (A) (A) (A) (A) (A) (A) (A) (A) (A) (A) (A)
                 (A) (A) (A) (A) (A) (A) (A) (A) (A) (A) (A) (A)
                 (A) (A) (A) (A) (A) (A) (A) (A) (A) (A) (A) (A)
                 (A) (A) (A) (A) (A) (A) (A) (A) (A) (A) (A) (A)
                 (A) (A) (A) (A) (A) (A) (A) (A) (A) (A) (A) (A)
                 (A) (A) (A) (A) (A) (A) (A) (A) (A) (A) (A) (A)
                 (A) (A) (A) (A) (A) (A) (A) (A) (A) (A) (A) (A)
                 (A) (A) (A) (A) (A) (A) (A) (A) (A) (A) (A) (A)
                 (A) (A) (A) (A) (A) (A)
 Beta  Orbitals:
       Occupied  (A) (A) (A) (A) (A) (A) (A) (A) (A) (A) (A) (A)
                 (A) (A) (A) (A) (A) (A) (A) (A) (A) (A) (A) (A)
                 (A) (A) (A) (A) (A) (A) (A) (A) (A) (A) (A) (A)
                 (A) (A) (A) (A) (A) (A) (A) (A) (A) (A) (A) (A)
                 (A) (A) (A) (A) (A) (A) (A) (A) (A) (A) (A) (A)
                 (A) (A) (A) (A) (A) (A) (A) (A) (A) (A) (A) (A)
                 (A) (A) (A) (A) (A) (A)
       Virtual   (A) (A) (A) (A) (A) (A) (A) (A) (A) (A) (A) (A)
                 (A) (A) (A) (A) (A) (A) (A) (A) (A) (A) (A) (A)
                 (A) (A) (A) (A) (A) (A) (A) (A) (A) (A) (A) (A)
                 (A) (A) (A) (A) (A) (A) (A) (A) (A) (A) (A) (A)
                 (A) (A) (A) (A) (A) (A) (A) (A) (A) (A) (A) (A)
                 (A) (A) (A) (A) (A) (A) (A) (A) (A) (A) (A) (A)
                 (A) (A) (A) (A) (A) (A) (A) (A) (A) (A) (A) (A)
                 (A) (A) (A) (A) (A) (A) (A) (A) (A) (A) (A) (A)
                 (A) (A) (A) (A) (A) (A) (A) (A) (A) (A) (A) (A)
                 (A) (A) (A) (A) (A) (A) (A) (A) (A) (A) (A) (A)
                 (A) (A) (A) (A) (A) (A) (A) (A) (A) (A) (A) (A)
                 (A) (A) (A) (A) (A) (A) (A) (A) (A) (A) (A) (A)
                 (A) (A) (A) (A) (A) (A) (A) (A) (A) (A) (A) (A)
                 (A) (A) (A) (A) (A) (A) (A) (A) (A) (A) (A) (A)
                 (A) (A) (A) (A) (A) (A) (A) (A) (A) (A) (A) (A)
                 (A) (A) (A) (A) (A) (A) (A) (A) (A) (A) (A) (A)
                 (A) (A) (A) (A) (A) (A) (A) (A) (A) (A) (A) (A)
                 (A) (A) (A) (A) (A) (A) (A) (A) (A) (A) (A) (A)
[...]
 873,0.00365675,0.00492205,0.00043855,-0.00381304,-0.00214050,-0.002202
 96,0.00525089,0.00594987,-0.00011076,-0.02078606,0.00725010,0.00060639
 ,0.03266570,-0.02178679,0.00118257,-0.05488220,-0.02271084,-0.00346190
 ,0.01782077,0.00096742,-0.00124147,-0.00645806,-0.00886544,-0.00003386
 ,-0.00697331,0.00273742,0.00073182,0.00492086,0.00081148,-0.00042188,-
 0.00083890,-0.00455271,0.00003538,0.00283538,0.00158174,-0.00059305,-0
 .00288816,0.00236333,0.00033251,0.00007896,-0.00001877,0.00002675,-0.0
 0004808,-0.00008028,-0.00005565,-0.00695181,-0.00838674,-0.00162428,-0
 .11395401,0.00684561,-0.00565523,-0.34553992,0.08490898,-0.00601927,0.
 00000282,0.00036671,0.00021950,-0.00002141,0.00010760,0.00002749,0.000
 00994,-0.00008936,-0.00002032,-0.00009868,0.00000198,0.00002594,-0.000
 06270,-0.00011381,0.00000087,-0.00022609,-0.00055341,0.00000136,-0.000
 19120,0.00033575,0.00024318,-0.00000914,-0.00003259,-0.00001102,0.0000
 1940,-0.00002828,-0.00005221,-0.00675860,0.03653222,0.00216279,0.69275
 395,-0.00177135,-0.00058406,-0.00006451,0.00024233,-0.00055460,0.00003
 168,0.00012679,-0.00168413,-0.00006823,0.00154904,0.00219465,0.0000695
 4,-0.00678980,-0.00491385,-0.00051964,-0.00259246,-0.00227534,-0.00078
 885,-0.00645302,-0.00471353,0.00081991,0.01783502,-0.00447954,-0.00112
 159,-0.02972785,-0.04479457,-0.00591757,-0.00037870,0.02920447,0.00252
 678,-0.01483180,-0.00839476,-0.00047508,0.00449922,0.00881191,0.000247
 26,0.00769860,-0.00235845,-0.00089627,-0.00458492,-0.00170217,0.000472
 53,0.00079650,0.00437546,-0.00005073,-0.00332617,-0.00185976,0.0004475
 6,0.00292704,-0.00297723,-0.00028288,0.00000500,0.00003016,-0.00001622
 ,0.00001768,0.00002718,0.00002214,0.00226442,0.01364231,-0.00021706,0.
 02915824,-0.21765652,-0.01072705,0.03938138,-0.13979074,-0.00684856,-0
 .00030653,-0.00014614,-0.00016764,0.00004289,-0.00007429,-0.00003106,-
 0.00000489,0.00003355,-0.00000262,0.00007141,-0.00002434,-0.00000850,-
 0.00002365,0.00003702,-0.00000574,0.00014798,-0.00013172,0.00002059,-0
 .00000599,0.00015968,-0.00005977,-0.00001312,-0.00000014,0.00000896,0.
 00001742,0.00000278,0.00001227,0.01649131,-0.01708188,0.00089741,0.052
 16316,0.60004413,0.00018841,0.00001494,0.00009915,-0.00021895,0.000223
 74,-0.00027586,0.00001458,-0.00061031,-0.00029258,0.00014209,-0.000207
 68,-0.00067818,-0.00002939,-0.00006277,-0.00099691,-0.00139706,0.00045
 545,0.00657262,-0.00029659,0.00004030,-0.00069228,0.00037573,-0.000261
 14,-0.00205444,-0.00094110,-0.00819196,0.00547574,-0.00179183,0.002033
 69,0.00378677,-0.00044544,-0.00122834,0.00348675,0.00000680,0.00040513
 ,0.00046116,0.00029959,-0.00006859,-0.00004688,-0.00017178,-0.00009416
 ,-0.00049168,0.00000318,0.00013788,0.00009700,-0.00003658,-0.00009344,
 0.00021917,0.00004149,-0.00009814,-0.00012999,0.00000836,-0.00000111,-
 0.00001630,-0.00000557,-0.00001678,0.00008704,-0.00157638,0.00017961,0
 .00429231,-0.00195067,-0.01294296,-0.06162238,-0.01238647,-0.00415065,
 -0.05957257,-0.00005049,0.00001817,-0.00018076,-0.00000209,0.00000367,
 0.00000788,-0.00000175,0.00000017,-0.00000528,0.00000503,-0.00000777,-
 0.00001340,0.00000025,-0.00000709,0.00005623,0.00000212,-0.00005264,0.
 00005907,-0.00002921,0.00005528,-0.00001937,-0.00001027,-0.00000899,-0
 .00001778,0.00000104,-0.00000480,-0.00000339,0.00044617,0.00394810,-0.
 00018316,0.03942613,0.04506306,0.13911897,-0.00000962,-0.00026928,0.00
 003912,-0.00005447,-0.00003895,0.00002775,-0.00003107,0.00110421,-0.00
 039758,0.00113786,0.00074429,0.00033539,-0.01768908,0.01231863,-0.0035
 2664,-0.00294040,-0.00432669,-0.00052681,-0.00049314,-0.00014331,0.000
 01471,-0.00011535,0.00017054,0.00003864,0.00038709,-0.00065909,0.00023
 537,-0.00002936,-0.00008034,-0.00001431,-0.00001362,0.00001859,0.00000
 163,-0.00008327,0.00005367,0.00001477,0.00010760,0.00011962,0.00004675
 ,0.00004612,0.00004770,-0.00001676,0.00001173,-0.00005468,-0.00000170,
 0.00004993,-0.00008842,0.00000375,-0.00005129,0.00001970,0.00000500,-0
 .00003692,-0.00004625,-0.00001644,-0.00008309,-0.00092737,0.00008639,-
 0.28336057,0.10025792,-0.03811081,0.00176078,-0.00035937,-0.00101512,0
 .00008970,0.00007167,0.00007232,-0.00000842,0.00000691,0.00000144,-0.0
 0000481,0.00000654,0.00000150,-0.00000665,0.00000299,0.00000233,-0.000
 00189,-0.00000369,-0.00000137,-0.00000847,0.00000072,0.00000152,0.0001
 7137,-0.00000686,0.00000983,-0.00008202,0.00004096,-0.00000362,-0.0000
 2392,-0.00002767,-0.00000168,0.00000085,-0.00000407,-0.00000303,0.0006
 5046,-0.00128429,-0.00039155,-0.00000138,-0.00006990,-0.00009329,0.299
 82330,0.00046760,-0.00005273,0.00002962,-0.00019916,0.00027566,-0.0000
 2653,-0.00053790,0.00067910,-0.00013452,0.00023773,0.00123051,-0.00013
 693,-0.01701567,0.01158197,-0.00295692,-0.00347491,-0.00226769,-0.0001
 5178,-0.00032744,-0.00011883,0.00003806,-0.00004282,0.00017408,-0.0000
 1097,-0.00058231,-0.00063941,-0.00006010,-0.00013025,-0.00011550,-0.00
 000716,0.00001180,0.00006476,0.00001063,-0.00008901,0.00001657,0.00000
 771,0.00008200,0.00010056,-0.00001326,0.00007319,0.00005081,-0.0000070
 8,-0.00000057,-0.00007475,-0.00000107,0.00006260,-0.00009794,-0.000008
 16,-0.00005435,0.00004590,0.00000199,0.00001578,-0.00000296,0.00000193
 ,0.00058123,-0.00029941,0.00009458,0.09800067,-0.10104647,0.01589703,-
 0.00076944,-0.00547232,-0.00011310,0.00008310,-0.00050263,-0.00006103,
 -0.00000110,-0.00000421,-0.00000161,-0.00000229,-0.00000160,0.00000131
 ,0.00000185,0.00000158,0.00000090,0.00000050,0.00000356,0.00000059,0.0
 0000328,-0.00000103,0.00000046,0.00016631,-0.00003792,-0.00000389,-0.0
 0006754,0.00008937,0.00000979,-0.00001097,-0.00000790,0.00000373,-0.00
 000054,0.00000115,-0.00000192,0.02913410,-0.00996383,0.00453317,0.0012
 5323,0.00047665,0.00021327,-0.10683309,0.10518131,-0.00026935,-0.00001
 602,-0.00017782,0.00022663,-0.00010200,-0.00006706,-0.00020135,0.00037
 626,0.00072617,0.00068391,-0.00000177,-0.00234713,-0.00350398,0.000876
 04,0.00174273,-0.00055426,-0.00076747,0.00445587,0.00001078,-0.0000845
 4,0.00021327,-0.00004719,0.00010613,-0.00056588,0.00044438,0.00014490,
 -0.00090546,0.00000435,-0.00001840,0.00014552,0.00000548,0.00000486,0.
 00000904,0.00003301,-0.00003327,-0.00001758,-0.00012220,0.00002657,-0.
 00031116,-0.00004280,-0.00000750,0.00006168,0.00001827,0.00004411,-0.0
 0000583,-0.00001318,0.00006493,0.00002190,0.00003300,-0.00002509,0.000
 00073,-0.00001437,0.00000840,0.00012717,-0.00004597,-0.00011771,0.0003
 1895,-0.03782762,0.01727717,-0.04007730,-0.00098413,0.00005035,0.00803
 699,0.00004279,0.00012082,-0.00042779,0.00000091,-0.00000087,-0.000003
 28,0.00000080,0.00000041,0.00000217,-0.00000008,0.00000164,-0.00000097
 ,0.00000221,-0.00000011,0.00000267,-0.00000159,0.00000179,-0.00000375,
 -0.00009415,0.00002534,0.00005327,0.00005158,-0.00009412,-0.00004542,-
 0.00000501,-0.00000133,0.00002628,0.00000188,-0.00000145,0.00000075,-0
 .00076362,-0.00075582,0.00317179,-0.00024884,-0.00006933,0.00047218,0.
 04219557,-0.01707371,0.03057186,0.00017700,-0.00001135,0.00011028,-0.0
 0007624,0.00016006,-0.00003359,-0.00008595,-0.00018391,0.00008249,0.00
 014676,-0.00004593,-0.00006006,0.00143783,0.00147999,-0.00113816,0.000
 23906,0.00084433,0.00013266,-0.00056801,0.00024213,0.00002802,-0.00007
 129,-0.00137137,-0.00033721,-0.00434014,0.00390929,-0.00083048,0.00011
 176,-0.00003144,0.00000839,-0.00002527,0.00004863,0.00001784,-0.000006
 96,0.00004539,0.00001394,0.00009768,-0.00017085,0.00002063,0.00003157,
 -0.00001791,-0.00000563,-0.00004633,0.00000040,0.00000774,-0.00006126,
 0.00000670,0.00000770,-0.00000029,-0.00002477,-0.00000110,0.00002052,0
 .00000681,0.00000910,0.00000423,-0.00002586,-0.00002394,0.00454125,0.0
 0336507,0.00021377,-0.01710734,-0.01678530,-0.00347593,-0.00015047,0.0
 0027517,0.00003445,-0.00003603,0.00001666,0.00000120,-0.00000765,0.000
 00878,-0.00000134,-0.00000633,-0.00000710,0.00000112,-0.00001284,-0.00
 000636,-0.00000414,-0.00000642,-0.00000083,0.00000084,0.00003061,-0.00
 002648,-0.00002087,-0.00003590,0.00005788,0.00001253,-0.00000466,-0.00
 001171,0.00000019,0.00000503,-0.00000407,0.00000383,-0.24983770,-0.123
 43796,-0.03246306,0.00129814,-0.00091361,0.00030711,0.00089093,-0.0001
 6363,0.00099941,0.26366398,-0.00014539,-0.00048587,0.00007493,0.000200
 81,-0.00017365,0.00001734,-0.00000537,0.00021038,-0.00000768,-0.001265
 00,0.00030796,-0.00018800,0.00189375,-0.00509480,0.00034392,0.00054771
 ,-0.00043142,0.00006383,0.00022674,-0.00021392,0.00000127,0.00049006,0
 .00072098,0.00008582,0.00333493,-0.00097033,0.00031473,0.00004257,0.00
 018629,0.00002840,-0.00008859,-0.00005394,0.00000178,0.00006145,0.0000
 3342,-0.00000193,-0.00001779,0.00009408,-0.00001214,-0.00007747,-0.000
 01707,0.00000402,0.00002490,0.00005895,-0.00000057,-0.00000544,0.00002
 678,0.00000822,0.00003370,-0.00002439,-0.00000045,-0.00014582,-0.00005
 896,0.00000451,0.00003504,-0.00003717,0.00000467,-0.02699002,-0.013926
 61,-0.00416852,0.01217655,0.01161793,0.00209095,-0.00028853,-0.0000432
 1,-0.00002450,0.00000730,-0.00000059,-0.00000135,0.00000057,0.00000204
 ,-0.00000042,-0.00000522,0.00000392,0.00000215,0.00000455,-0.00000263,
 -0.00000104,-0.00000467,0.00000236,-0.00000007,-0.00003594,0.00004853,
 -0.00000207,0.00002448,-0.00006999,-0.00001654,0.00000309,-0.00000360,
 -0.00000041,-0.00000039,-0.00000137,0.00000133,-0.12110306,-0.13561064
 ,-0.01902862,-0.00034786,0.00116034,0.00006504,0.00020803,0.00081216,0
 .00003284,0.13176709,0.14218041,-0.00001291,-0.00013692,-0.00066703,0.
 00010564,-0.00001027,0.00020243,-0.00006070,-0.00008510,-0.00061314,-0
 .00016439,0.00010323,0.00040837,-0.00103670,0.00012072,0.00828017,0.00
 044097,-0.00012942,-0.00070609,-0.00002347,0.00007865,-0.00009084,-0.0
 0019620,-0.00031742,0.00037344,-0.00078142,0.00101275,0.00477438,0.000
 19919,0.00003673,-0.00010459,-0.00011267,-0.00003850,0.00002169,0.0001
 2423,0.00000997,-0.00003899,-0.00007198,-0.00002100,-0.00006901,-0.000
 12090,-0.00004188,0.00000744,0.00001164,0.00011579,-0.00001606,-0.0000
 6546,0.00008436,0.00000739,0.00008263,-0.00006814,0.00000244,-0.000009
 33,-0.00001001,-0.00005871,-0.00001001,0.00001875,0.00017094,-0.000006
 92,0.00135044,0.00327261,-0.00402385,-0.00188892,0.00208654,-0.0001741
 6,0.00000161,-0.00012603,-0.00000405,0.00000089,0.00001494,-0.00000134
 ,-0.00000021,0.00001055,0.00000096,-0.00000163,-0.00000197,0.00000137,
 -0.00000130,0.00002445,-0.00000067,0.00000182,0.00000192,-0.00006315,0
 .00001325,0.00009117,0.00002821,-0.00007714,-0.00004096,-0.00000086,0.
 00000371,-0.00000872,0.00000409,0.00000028,0.00001596,-0.03189868,-0.0
 2060898,-0.04004999,0.00059191,-0.00001073,-0.00209035,0.00098829,-0.0
 0006026,-0.00523106,0.03633119,0.02039728,0.02982167,0.00001812,0.0000
 1737,0.00000179,0.00008463,0.00002842,-0.00000829,-0.00010337,0.000085
 79,0.00000140,-0.00001418,-0.00003295,0.00000208,0.00019321,-0.0000386
 2,0.00003390,0.00050581,0.00038803,0.00002977,0.00019495,0.00004666,0.
 00000878,-0.00018190,0.00045538,0.00007764,0.00015457,0.00233737,-0.00
 000716,-0.00384498,0.00327904,-0.00042570,-0.00003807,-0.00132123,-0.0
 0016113,-0.00042840,0.00010874,0.00014482,-0.00011726,0.00005088,-0.00
 000526,0.00003531,-0.00015437,-0.00000103,-0.00008308,-0.00002309,0.00
 000229,0.00003271,0.00006115,-0.00000963,-0.00002974,0.00003104,0.0000
 0394,-0.00000142,-0.00000758,-0.00000106,0.00000432,0.00000098,0.00000
 007,-0.00006454,-0.00028429,-0.00000379,0.00951737,0.00700910,0.001209
 82,-0.01831797,-0.02263841,-0.00353072,-0.00003513,0.00005092,-0.00001
 795,0.00000044,0.00001311,0.00000226,-0.00000221,-0.00000745,0.0000018
 2,-0.00000610,-0.00000811,0.00000204,-0.00001711,-0.00001416,-0.000000
 92,-0.00003473,0.00000987,-0.00000204,0.00000527,-0.00000827,-0.000005
 85,0.00000510,-0.00000443,-0.00000278,0.00000484,-0.00000429,0.0000065
 3,0.00094778,-0.00034131,0.00019999,-0.18740388,-0.13423457,-0.0225854
 6,0.00000348,-0.00002547,-0.00000223,-0.00016885,-0.00053585,-0.000060
 16,0.19839089,0.00000578,-0.00006049,0.00000881,-0.00016601,0.00004597
 ,0.00002645,0.00013910,-0.00055407,0.00004917,0.00004276,0.00001594,0.
 00001783,0.00003451,0.00008592,0.00000759,-0.00152103,0.00013240,-0.00
 039727,-0.00030605,-0.00009020,0.00003713,0.00087790,0.00009945,0.0001
 0789,0.00312814,-0.00568202,-0.00020204,0.00266806,0.00019658,-0.00083
 988,-0.00010966,0.00044721,0.00000278,0.00017710,0.00012571,0.00008110
 ,0.00019978,-0.00006528,-0.00003580,-0.00004947,0.00004035,0.00001475,
 0.00000452,0.00007059,-0.00000994,-0.00005714,-0.00005447,0.00001844,0
 .00005359,-0.00002611,-0.00000590,0.00000130,-0.00001121,-0.00000144,0
 .00000799,-0.00003799,0.00000439,0.00023670,-0.00018277,0.00002643,-0.
 02205746,-0.01511067,-0.00355084,0.00815506,0.00850076,0.00095254,-0.0
 0001824,-0.00000220,-0.00002776,-0.00000698,0.00000303,0.00000215,-0.0
 0000750,0.00000422,0.00000200,-0.00000060,-0.00000282,0.00000065,-0.00
 000009,0.00000646,-0.00000234,0.00004230,-0.00000948,0.00000651,-0.000
 02105,-0.00001662,-0.00000692,-0.00002211,-0.00001781,-0.00000211,-0.0
 0000077,-0.00000077,0.00000048,-0.00080537,0.00153749,0.00003073,-0.13
 703326,-0.19854895,-0.02377367,0.00003039,-0.00004665,-0.00000182,0.00
 096605,-0.00024661,0.00016702,0.14550993,0.20844563,0.00002140,0.00002
 349,-0.00002087,-0.00002048,-0.00002198,-0.00007532,0.00005989,-0.0000
 5387,0.00000212,-0.00002941,-0.00003593,0.00004478,0.00010087,0.000112
 19,-0.00006591,-0.00024498,-0.00007314,0.00029341,-0.00001255,0.000025
 63,-0.00056850,-0.00007195,0.00033169,-0.00060519,0.00053440,-0.000428
 32,0.00386680,-0.00051294,-0.00061318,0.00927782,0.00000296,-0.0002403
 8,0.00036104,-0.00017295,0.00003730,-0.00095160,-0.00005091,0.00002900
 ,0.00017898,0.00001005,-0.00001516,-0.00008839,-0.00001056,-0.00001757
 ,0.00008803,0.00003990,0.00001691,0.00008299,-0.00001273,0.00002407,-0
 .00001015,-0.00000056,-0.00000256,-0.00000125,0.00000058,-0.00000295,0
 .00000449,-0.00003513,-0.00018575,-0.00015011,-0.00133654,-0.00243636,
 0.00224364,0.00029735,-0.00116016,0.00353687,0.00002513,-0.00001691,0.
 00028182,-0.00000106,0.00000159,-0.00001791,-0.00000068,0.00000003,-0.
 00000331,-0.00000212,-0.00000083,-0.00001894,-0.00000005,-0.00000235,0
 .00001999,-0.00000520,0.00000007,0.00000720,-0.00000635,-0.00001029,-0
 .00000936,-0.00000252,-0.00000159,0.00001263,0.00000197,-0.00000080,0.
 00000253,0.00014782,0.00036536,-0.00158358,-0.02380760,-0.02286695,-0.
 03874185,-0.00001002,-0.00000416,0.00008418,0.00006903,-0.00008788,0.0
 0018896,0.02469678,0.02655170,0.02827959,0.00006886,-0.00002337,0.0000
 1117,0.00009128,0.00006944,0.00000730,-0.00024082,-0.00034936,0.000024
 66,0.00000827,-0.00008752,0.00001177,-0.00018104,-0.00000579,-0.000015
 41,0.00022475,-0.00019023,0.00002401,0.00070183,-0.00078134,-0.0001766
 7,-0.00388683,-0.00308264,-0.00029090,-0.00075505,-0.00021350,0.000005
 89,0.00929530,-0.02266164,-0.00233696,0.00149409,0.00019056,-0.0000339
 9,-0.00002635,0.00036706,0.00001282,0.00030195,-0.00003912,-0.00001937
 ,-0.00005491,-0.00003612,-0.00000432,0.00001526,0.00005054,0.00000262,
 -0.00007189,0.00002768,0.00001427,0.00000986,-0.00007858,-0.00000487,0
 .00001778,-0.00000512,-0.00000176,-0.00000440,-0.00000168,-0.00000235,
 -0.00042175,0.00018489,-0.00005779,-0.00534857,0.00046149,-0.00076269,
 -0.06931669,0.05538064,0.00455195,-0.00032485,0.00066911,0.00008072,-0
 .00001946,-0.00000005,0.00000053,-0.00000060,-0.00000035,-0.00000051,-
 0.00000455,0.00000349,-0.00000057,0.00000046,0.00000157,0.00000066,0.0
 0000433,-0.00001068,-0.00000198,0.00000279,0.00003235,0.00000542,-0.00
 000086,-0.00000057,0.00000071,0.00000054,0.00000025,-0.00000160,0.0006
 8353,0.00117394,0.00016836,-0.00452851,0.03059289,0.00275232,-0.000002
 39,0.00015346,-0.00001306,-0.00004043,-0.00002089,-0.00001032,0.000794
 12,-0.00009818,0.00033916,0.07151495,0.00004712,-0.00001938,0.00001410
 ,0.00008581,0.00006641,0.00002781,-0.00019066,-0.00038596,0.00001583,-
 0.00000504,-0.00006371,0.00000418,-0.00009706,0.00005077,-0.00001277,0
 .00012174,-0.00019290,0.00002803,0.00091824,-0.00016330,-0.00027981,-0
 .00411548,-0.00135410,-0.00019777,-0.00041283,0.00067065,0.00015177,0.
 00676685,-0.01550420,-0.00188333,0.00067619,0.00095898,0.00013338,-0.0
 0035275,0.00003020,0.00001799,-0.00001472,0.00004148,0.00001830,0.0000
 9111,-0.00007318,-0.00001132,-0.00003359,-0.00006410,0.00000220,-0.000
 01766,0.00007609,0.00001323,-0.00007220,-0.00002780,0.00000994,0.00001
 268,-0.00001871,-0.00000803,0.00000664,-0.00000808,0.00000042,0.000193
 13,0.00005324,0.00008540,0.00106353,0.00163805,-0.00071756,0.05814781,
 -0.31818049,-0.02575329,-0.00089500,0.00000095,0.00009642,-0.00001752,
 0.00002072,0.00000007,-0.00000640,-0.00000475,0.00000070,-0.00001132,-
 0.00000407,-0.00000062,-0.00001638,-0.00000562,0.00000088,0.00000417,0
 .00000988,-0.00000197,-0.00001432,0.00001504,-0.00000285,-0.00000381,-
 0.00001269,-0.00000083,0.00000376,-0.00000396,0.00000195,-0.00018101,-
 0.00024442,-0.00010630,-0.00024936,-0.00545360,-0.00097453,0.00000026,
 -0.00003192,0.00000978,0.00004005,0.00000025,-0.00000941,0.00020065,0.
 00100947,0.00076004,-0.06167264,0.33717475,-0.00003227,0.00001620,-0.0
 0004306,0.00003515,-0.00006703,-0.00026294,-0.00006599,-0.00001163,0.0
 0025177,0.00002576,0.00002786,0.00002728,-0.00004297,-0.00001626,0.000
 15591,0.00010693,-0.00008606,-0.00061589,0.00026665,-0.00017565,0.0005
 2618,-0.00081214,-0.00023462,0.00355674,0.00020373,0.00031482,-0.00086
 968,-0.00007234,-0.00327325,0.00216428,0.00027332,0.00042586,-0.001796
 13,-0.00012470,-0.00016565,-0.00019764,-0.00008247,0.00009303,-0.00003
 768,0.00008134,0.00000302,0.00001991,-0.00001711,-0.00006655,0.0000140
 2,0.00002755,0.00003883,0.00005650,-0.00003629,0.00003059,-0.00001702,
 -0.00000316,0.00000912,0.00008400,-0.00000115,0.00000310,0.00000021,0.
 00016264,0.00003057,-0.00057194,-0.00060365,-0.00066687,0.00898398,0.0
 0588815,-0.02588541,-0.03689223,-0.00008955,0.00000183,0.00030455,-0.0
 0000221,0.00000225,0.00001138,0.00000095,-0.00000247,0.00000279,-0.000
 00350,-0.00000100,-0.00000107,-0.00000245,-0.00000178,0.00000095,-0.00
 001129,-0.00000636,-0.00000086,-0.00000113,0.00000472,-0.00000599,0.00
 000124,-0.00000084,0.00000082,0.00000362,-0.00000190,0.00000365,-0.000
 08027,-0.00021304,0.00045359,-0.00110927,0.00057690,0.00383337,0.00000
 867,-0.00001064,-0.00005767,-0.00001797,-0.00000083,0.00013607,0.00040
 541,0.00074120,-0.00594564,-0.00427923,0.02856795,0.02672750\\0.000002
 66,0.00000157,0.00000287,0.00000175,-0.00000022,0.00000262,0.00000053,
 0.00000034,0.00000081,0.00000151,0.00000215,0.00000161,0.00000148,0.00
 000196,0.,0.00000017,0.00000091,-0.00000071,-0.00000008,-0.00000086,-0
 .00000013,-0.00000113,0.00000009,-0.00000203,-0.00000074,0.00000100,-0
 .00000229,-0.00000215,0.00000047,-0.00000273,-0.00000202,-0.00000138,-
 0.00000223,-0.00000088,-0.00000135,-0.00000056,-0.00000054,-0.00000117
 ,0.00000075,-0.00000118,-0.00000260,-0.00000005,-0.00000017,-0.0000030
 3,0.00000158,0.00000060,-0.00000211,0.00000245,0.00000057,-0.00000268,
 0.00000282,0.00000324,0.00000138,0.00000405,0.00000247,0.00000300,0.00
 000181,0.00000007,0.00000361,-0.00000163,-0.00000061,0.00000251,-0.000
 00324,-0.00000212,0.00000047,-0.00000438,-0.00000265,-0.00000126,-0.00
 000323,-0.00000188,-0.00000277,-0.00000099,0.00000226,-0.00000206,0.00
 000498,0.00000121,-0.00000313,0.00000411,-0.00000037,-0.00000370,0.000
 00197,0.00000198,-0.00000045,0.00000399,0.00000209,-0.00000152,0.00000
 383,0.00000296,-0.00000058,0.00000512,0.00000093,-0.00000414,0.0000043
 4,-0.00000084,0.00000264,-0.00000313,-0.00000281,0.00000176,-0.0000046
 5,0.00000071,0.00000412,-0.00000173,-0.00000105,0.00000384,-0.00000438
 ,-0.00000279,0.00000250,-0.00000603,-0.00000319,0.00000071,-0.00000561
 \\\@


 YOU WILL NEVER "FIND" TIME FOR ANYTHING.
 IF YOU WANT TIME, YOU MUST MAKE IT.

                        -- CHARLES BIXTON
 Job cpu time:       3 days  5 hours 21 minutes 32.0 seconds.
 File lengths (MBytes):  RWF=   7713 Int=      0 D2E=      0 Chk=     39 Scr=      1
 Normal termination of Gaussian 09 at Sun Feb  2 03:28:47 2020.
