 Entering Gaussian System, Link 0=g09
 Initial command:
 /usr/local/Cluster-Apps/gaussian/g09/l1.exe "/rds/user/am2145/hpc-work/scratch/19186646/Gau-31907.inp" -scrdir="/rds/user/am2145/hpc-work/scratch/19186646/"
 Entering Link 1 = /usr/local/Cluster-Apps/gaussian/g09/l1.exe PID=     31908.
  
 Copyright (c) 1988,1990,1992,1993,1995,1998,2003,2009,2013,
            Gaussian, Inc.  All Rights Reserved.
  
 This is part of the Gaussian(R) 09 program.  It is based on
 the Gaussian(R) 03 system (copyright 2003, Gaussian, Inc.),
 the Gaussian(R) 98 system (copyright 1998, Gaussian, Inc.),
 the Gaussian(R) 94 system (copyright 1995, Gaussian, Inc.),
 the Gaussian 92(TM) system (copyright 1992, Gaussian, Inc.),
 the Gaussian 90(TM) system (copyright 1990, Gaussian, Inc.),
 the Gaussian 88(TM) system (copyright 1988, Gaussian, Inc.),
 the Gaussian 86(TM) system (copyright 1986, Carnegie Mellon
 University), and the Gaussian 82(TM) system (copyright 1983,
 Carnegie Mellon University). Gaussian is a federally registered
 trademark of Gaussian, Inc.
  
 This software contains proprietary and confidential information,
 including trade secrets, belonging to Gaussian, Inc.
  
 This software is provided under written license and may be
 used, copied, transmitted, or stored only in accord with that
 written license.
  
 The following legend is applicable only to US Government
 contracts under FAR:
  
                    RESTRICTED RIGHTS LEGEND
  
 Use, reproduction and disclosure by the US Government is
 subject to restrictions as set forth in subparagraphs (a)
 and (c) of the Commercial Computer Software - Restricted
 Rights clause in FAR 52.227-19.
  
 Gaussian, Inc.
 340 Quinnipiac St., Bldg. 40, Wallingford CT 06492
  
  
 ---------------------------------------------------------------
 Warning -- This program may not be used in any manner that
 competes with the business of Gaussian, Inc. or will provide
 assistance to any competitor of Gaussian, Inc.  The licensee
 of this program is prohibited from giving any competitor of
 Gaussian, Inc. access to this program.  By using this program,
 the user acknowledges that Gaussian, Inc. is engaged in the
 business of creating and licensing software in the field of
 computational chemistry and represents and warrants to the
 licensee that it is not a competitor of Gaussian, Inc. and that
 it will not use this program in any manner prohibited above.
 ---------------------------------------------------------------
  

 Cite this work as:
 Gaussian 09, Revision D.01,
 M. J. Frisch, G. W. Trucks, H. B. Schlegel, G. E. Scuseria, 
 M. A. Robb, J. R. Cheeseman, G. Scalmani, V. Barone, B. Mennucci, 
 G. A. Petersson, H. Nakatsuji, M. Caricato, X. Li, H. P. Hratchian, 
 A. F. Izmaylov, J. Bloino, G. Zheng, J. L. Sonnenberg, M. Hada, 
 M. Ehara, K. Toyota, R. Fukuda, J. Hasegawa, M. Ishida, T. Nakajima, 
 Y. Honda, O. Kitao, H. Nakai, T. Vreven, J. A. Montgomery, Jr., 
 J. E. Peralta, F. Ogliaro, M. Bearpark, J. J. Heyd, E. Brothers, 
 K. N. Kudin, V. N. Staroverov, T. Keith, R. Kobayashi, J. Normand, 
 K. Raghavachari, A. Rendell, J. C. Burant, S. S. Iyengar, J. Tomasi, 
 M. Cossi, N. Rega, J. M. Millam, M. Klene, J. E. Knox, J. B. Cross, 
 V. Bakken, C. Adamo, J. Jaramillo, R. Gomperts, R. E. Stratmann, 
 O. Yazyev, A. J. Austin, R. Cammi, C. Pomelli, J. W. Ochterski, 
 R. L. Martin, K. Morokuma, V. G. Zakrzewski, G. A. Voth, 
 P. Salvador, J. J. Dannenberg, S. Dapprich, A. D. Daniels, 
 O. Farkas, J. B. Foresman, J. V. Ortiz, J. Cioslowski, 
 and D. J. Fox, Gaussian, Inc., Wallingford CT, 2013.
 
 ******************************************
 Gaussian 09:  ES64L-G09RevD.01 24-Apr-2013
                 2-Feb-2020 
 ******************************************
 %NProcShared=20
 Will use up to   20 processors via shared memory.
 %mem=50GB
 %Chk=BPfinal.chk
 ------------------------------
 #n opt freq b3lyp/6-311+g(d,p)
 ------------------------------
 1/14=-1,18=20,19=15,26=3,38=1/1,3;
 2/9=110,12=2,17=6,18=5,40=1/2;
 3/5=4,6=6,7=111,11=2,16=1,25=1,30=1,71=1,74=-5/1,2,3;
 4//1;
 5/5=2,38=5/2;
 6/7=2,8=2,9=2,10=2,28=1/1;
 7//1,2,3,16;
 1/14=-1,18=20,19=15,26=3/3(2);
 2/9=110/2;
 99//99;
 2/9=110/2;
 3/5=4,6=6,7=111,11=2,16=1,25=1,30=1,71=1,74=-5/1,2,3;
 4/5=5,16=3,69=1/1;
 5/5=2,38=5/2;
 7//1,2,3,16;
 1/14=-1,18=20,19=15,26=3/3(-5);
 2/9=110/2;
 6/7=2,8=2,9=2,10=2,19=2,28=1/1;
 99/9=1/99;
 -------
 BPfinal
 -------
 Symbolic Z-matrix:
 Charge =  0 Multiplicity = 2
 C                     3.6945    0.54449   0. 
 C                     2.46329  -0.16767   0. 
 C                     1.2264    0.54023   0. 
 C                     1.22127   1.97217   0. 
 C                     3.65777   1.9805    0. 
 C                     2.48051   2.65968   0. 
 C                     0.00005  -0.16646   0. 
 C                    -1.22643   0.54019   0. 
 C                    -1.22141   1.9721    0. 
 C                     0.        2.65165   0. 
 C                    -2.46335  -0.16773   0. 
 C                    -3.69429   0.54452   0. 
 C                    -3.65781   1.98035   0. 
 C                    -2.48048   2.65963   0. 
 C                    -2.46457  -1.6012    0. 
 C                    -3.70767  -2.2763    0. 
 C                    -4.9003   -1.56934   0. 
 C                    -4.9017   -0.17452   0. 
 C                     4.90163  -0.17448   0. 
 C                     4.90027  -1.56948   0. 
 C                     3.70769  -2.27631   0. 
 C                     2.46458  -1.60113   0. 
 C                     1.23227  -2.28836   0. 
 H                     3.71547  -3.36094   0. 
 H                     5.84257  -2.10586   0. 
 H                     5.84072   0.36829   0. 
 H                     4.59984   2.51886   0. 
 H                     2.4742    3.74466   0. 
 H                    -0.00004   3.73737   0. 
 H                    -2.47413   3.74462   0. 
 H                    -4.59985   2.51869   0. 
 H                    -5.84048   0.36874   0. 
 H                    -3.71552  -3.36091   0. 
 H                    -5.8426   -2.10582   0. 
 C                    -0.00005  -1.61086   0. 
 C                    -1.23214  -2.2884    0. 
 H                    -1.23592  -3.37368   0. 
 H                     1.23571  -3.37365   0. 
 

 GradGradGradGradGradGradGradGradGradGradGradGradGradGradGradGradGradGrad
 Berny optimization.
 Initialization pass.
                           ----------------------------
                           !    Initial Parameters    !
                           ! (Angstroms and Degrees)  !
 --------------------------                            --------------------------
 ! Name  Definition              Value          Derivative Info.                !
 --------------------------------------------------------------------------------
 ! R1    R(1,2)                  1.4223         estimate D2E/DX2                !
 ! R2    R(1,5)                  1.4365         estimate D2E/DX2                !
 ! R3    R(1,19)                 1.405          estimate D2E/DX2                !
 ! R4    R(2,3)                  1.4251         estimate D2E/DX2                !
 ! R5    R(2,22)                 1.4335         estimate D2E/DX2                !
 ! R6    R(3,4)                  1.4319         estimate D2E/DX2                !
 ! R7    R(3,7)                  1.4154         estimate D2E/DX2                !
 ! R8    R(4,6)                  1.4347         estimate D2E/DX2                !
 ! R9    R(4,10)                 1.3976         estimate D2E/DX2                !
 ! R10   R(5,6)                  1.3591         estimate D2E/DX2                !
 ! R11   R(5,27)                 1.085          estimate D2E/DX2                !
 ! R12   R(6,28)                 1.085          estimate D2E/DX2                !
 ! R13   R(7,8)                  1.4155         estimate D2E/DX2                !
 ! R14   R(7,35)                 1.4444         estimate D2E/DX2                !
 ! R15   R(8,9)                  1.4319         estimate D2E/DX2                !
 ! R16   R(8,11)                 1.4252         estimate D2E/DX2                !
 ! R17   R(9,10)                 1.3977         estimate D2E/DX2                !
 ! R18   R(9,14)                 1.4346         estimate D2E/DX2                !
 ! R19   R(10,29)                1.0857         estimate D2E/DX2                !
 ! R20   R(11,12)                1.4222         estimate D2E/DX2                !
 ! R21   R(11,15)                1.4335         estimate D2E/DX2                !
 ! R22   R(12,13)                1.4363         estimate D2E/DX2                !
 ! R23   R(12,18)                1.4053         estimate D2E/DX2                !
 ! R24   R(13,14)                1.3592         estimate D2E/DX2                !
 ! R25   R(13,31)                1.085          estimate D2E/DX2                !
 ! R26   R(14,30)                1.085          estimate D2E/DX2                !
 ! R27   R(15,16)                1.4146         estimate D2E/DX2                !
 ! R28   R(15,36)                1.4111         estimate D2E/DX2                !
 ! R29   R(16,17)                1.3864         estimate D2E/DX2                !
 ! R30   R(16,33)                1.0846         estimate D2E/DX2                !
 ! R31   R(17,18)                1.3948         estimate D2E/DX2                !
 ! R32   R(17,34)                1.0843         estimate D2E/DX2                !
 ! R33   R(18,32)                1.0846         estimate D2E/DX2                !
 ! R34   R(19,20)                1.395          estimate D2E/DX2                !
 ! R35   R(19,26)                1.0847         estimate D2E/DX2                !
 ! R36   R(20,21)                1.3863         estimate D2E/DX2                !
 ! R37   R(20,25)                1.0843         estimate D2E/DX2                !
 ! R38   R(21,22)                1.4146         estimate D2E/DX2                !
 ! R39   R(21,24)                1.0847         estimate D2E/DX2                !
 ! R40   R(22,23)                1.411          estimate D2E/DX2                !
 ! R41   R(23,35)                1.4063         estimate D2E/DX2                !
 ! R42   R(23,38)                1.0853         estimate D2E/DX2                !
 ! R43   R(35,36)                1.4061         estimate D2E/DX2                !
 ! R44   R(36,37)                1.0853         estimate D2E/DX2                !
 ! A1    A(2,1,5)              118.5809         estimate D2E/DX2                !
 ! A2    A(2,1,19)             119.1758         estimate D2E/DX2                !
 ! A3    A(5,1,19)             122.2433         estimate D2E/DX2                !
 ! A4    A(1,2,3)              120.1705         estimate D2E/DX2                !
 ! A5    A(1,2,22)             119.9945         estimate D2E/DX2                !
 ! A6    A(3,2,22)             119.835          estimate D2E/DX2                !
 ! A7    A(2,3,4)              119.9887         estimate D2E/DX2                !
 ! A8    A(2,3,7)              120.2636         estimate D2E/DX2                !
 ! A9    A(4,3,7)              119.7476         estimate D2E/DX2                !
 ! A10   A(3,4,6)              118.428          estimate D2E/DX2                !
 ! A11   A(3,4,10)             119.2956         estimate D2E/DX2                !
 ! A12   A(6,4,10)             122.2764         estimate D2E/DX2                !
 ! A13   A(1,5,6)              121.4465         estimate D2E/DX2                !
 ! A14   A(1,5,27)             118.2813         estimate D2E/DX2                !
 ! A15   A(6,5,27)             120.2722         estimate D2E/DX2                !
 ! A16   A(4,6,5)              121.3854         estimate D2E/DX2                !
 ! A17   A(4,6,28)             118.3001         estimate D2E/DX2                !
 ! A18   A(5,6,28)             120.3145         estimate D2E/DX2                !
 ! A19   A(3,7,8)              120.0982         estimate D2E/DX2                !
 ! A20   A(3,7,35)             119.9569         estimate D2E/DX2                !
 ! A21   A(8,7,35)             119.9449         estimate D2E/DX2                !
 ! A22   A(7,8,9)              119.748          estimate D2E/DX2                !
 ! A23   A(7,8,11)             120.2676         estimate D2E/DX2                !
 ! A24   A(9,8,11)             119.9844         estimate D2E/DX2                !
 ! A25   A(8,9,10)             119.2909         estimate D2E/DX2                !
 ! A26   A(8,9,14)             118.4364         estimate D2E/DX2                !
 ! A27   A(10,9,14)            122.2727         estimate D2E/DX2                !
 ! A28   A(4,10,9)             121.8196         estimate D2E/DX2                !
 ! A29   A(4,10,29)            119.0924         estimate D2E/DX2                !
 ! A30   A(9,10,29)            119.0879         estimate D2E/DX2                !
 ! A31   A(8,11,12)            120.1618         estimate D2E/DX2                !
 ! A32   A(8,11,15)            119.8323         estimate D2E/DX2                !
 ! A33   A(12,11,15)           120.0059         estimate D2E/DX2                !
 ! A34   A(11,12,13)           118.5993         estimate D2E/DX2                !
 ! A35   A(11,12,18)           119.1706         estimate D2E/DX2                !
 ! A36   A(13,12,18)           122.2302         estimate D2E/DX2                !
 ! A37   A(12,13,14)           121.4389         estimate D2E/DX2                !
 ! A38   A(12,13,31)           118.2909         estimate D2E/DX2                !
 ! A39   A(14,13,31)           120.2702         estimate D2E/DX2                !
 ! A40   A(9,14,13)            121.3792         estimate D2E/DX2                !
 ! A41   A(9,14,30)            118.3019         estimate D2E/DX2                !
 ! A42   A(13,14,30)           120.3188         estimate D2E/DX2                !
 ! A43   A(11,15,16)           118.5542         estimate D2E/DX2                !
 ! A44   A(11,15,36)           119.0952         estimate D2E/DX2                !
 ! A45   A(16,15,36)           122.3507         estimate D2E/DX2                !
 ! A46   A(15,16,17)           120.8362         estimate D2E/DX2                !
 ! A47   A(15,16,33)           118.9201         estimate D2E/DX2                !
 ! A48   A(17,16,33)           120.2437         estimate D2E/DX2                !
 ! A49   A(16,17,18)           120.7159         estimate D2E/DX2                !
 ! A50   A(16,17,34)           119.6875         estimate D2E/DX2                !
 ! A51   A(18,17,34)           119.5967         estimate D2E/DX2                !
 ! A52   A(12,18,17)           120.7172         estimate D2E/DX2                !
 ! A53   A(12,18,32)           119.1678         estimate D2E/DX2                !
 ! A54   A(17,18,32)           120.1149         estimate D2E/DX2                !
 ! A55   A(1,19,20)            120.7223         estimate D2E/DX2                !
 ! A56   A(1,19,26)            119.195          estimate D2E/DX2                !
 ! A57   A(20,19,26)           120.0827         estimate D2E/DX2                !
 ! A58   A(19,20,21)           120.7106         estimate D2E/DX2                !
 ! A59   A(19,20,25)           119.5937         estimate D2E/DX2                !
 ! A60   A(21,20,25)           119.6956         estimate D2E/DX2                !
 ! A61   A(20,21,22)           120.8372         estimate D2E/DX2                !
 ! A62   A(20,21,24)           120.2438         estimate D2E/DX2                !
 ! A63   A(22,21,24)           118.919          estimate D2E/DX2                !
 ! A64   A(2,22,21)            118.5596         estimate D2E/DX2                !
 ! A65   A(2,22,23)            119.0958         estimate D2E/DX2                !
 ! A66   A(21,22,23)           122.3446         estimate D2E/DX2                !
 ! A67   A(22,23,35)           122.0517         estimate D2E/DX2                !
 ! A68   A(22,23,38)           118.9658         estimate D2E/DX2                !
 ! A69   A(35,23,38)           118.9825         estimate D2E/DX2                !
 ! A70   A(7,35,23)            118.797          estimate D2E/DX2                !
 ! A71   A(7,35,36)            118.8109         estimate D2E/DX2                !
 ! A72   A(23,35,36)           122.3922         estimate D2E/DX2                !
 ! A73   A(15,36,35)           122.0492         estimate D2E/DX2                !
 ! A74   A(15,36,37)           118.9444         estimate D2E/DX2                !
 ! A75   A(35,36,37)           119.0064         estimate D2E/DX2                !
 ! D1    D(5,1,2,3)              0.0            estimate D2E/DX2                !
 ! D2    D(5,1,2,22)           180.0            estimate D2E/DX2                !
 ! D3    D(19,1,2,3)           180.0            estimate D2E/DX2                !
 ! D4    D(19,1,2,22)            0.0            estimate D2E/DX2                !
 ! D5    D(2,1,5,6)              0.0            estimate D2E/DX2                !
 ! D6    D(2,1,5,27)           180.0            estimate D2E/DX2                !
 ! D7    D(19,1,5,6)           180.0            estimate D2E/DX2                !
 ! D8    D(19,1,5,27)            0.0            estimate D2E/DX2                !
 ! D9    D(2,1,19,20)            0.0            estimate D2E/DX2                !
 ! D10   D(2,1,19,26)          180.0            estimate D2E/DX2                !
 ! D11   D(5,1,19,20)          180.0            estimate D2E/DX2                !
 ! D12   D(5,1,19,26)            0.0            estimate D2E/DX2                !
 ! D13   D(1,2,3,4)              0.0            estimate D2E/DX2                !
 ! D14   D(1,2,3,7)            180.0            estimate D2E/DX2                !
 ! D15   D(22,2,3,4)           180.0            estimate D2E/DX2                !
 ! D16   D(22,2,3,7)             0.0            estimate D2E/DX2                !
 ! D17   D(1,2,22,21)            0.0            estimate D2E/DX2                !
 ! D18   D(1,2,22,23)          180.0            estimate D2E/DX2                !
 ! D19   D(3,2,22,21)          180.0            estimate D2E/DX2                !
 ! D20   D(3,2,22,23)            0.0            estimate D2E/DX2                !
 ! D21   D(2,3,4,6)              0.0            estimate D2E/DX2                !
 ! D22   D(2,3,4,10)           180.0            estimate D2E/DX2                !
 ! D23   D(7,3,4,6)            180.0            estimate D2E/DX2                !
 ! D24   D(7,3,4,10)             0.0            estimate D2E/DX2                !
 ! D25   D(2,3,7,8)            180.0            estimate D2E/DX2                !
 ! D26   D(2,3,7,35)             0.0            estimate D2E/DX2                !
 ! D27   D(4,3,7,8)              0.0            estimate D2E/DX2                !
 ! D28   D(4,3,7,35)           180.0            estimate D2E/DX2                !
 ! D29   D(3,4,6,5)              0.0            estimate D2E/DX2                !
 ! D30   D(3,4,6,28)           180.0            estimate D2E/DX2                !
 ! D31   D(10,4,6,5)           180.0            estimate D2E/DX2                !
 ! D32   D(10,4,6,28)            0.0            estimate D2E/DX2                !
 ! D33   D(3,4,10,9)             0.0            estimate D2E/DX2                !
 ! D34   D(3,4,10,29)          180.0            estimate D2E/DX2                !
 ! D35   D(6,4,10,9)           180.0            estimate D2E/DX2                !
 ! D36   D(6,4,10,29)            0.0            estimate D2E/DX2                !
 ! D37   D(1,5,6,4)              0.0            estimate D2E/DX2                !
 ! D38   D(1,5,6,28)           180.0            estimate D2E/DX2                !
 ! D39   D(27,5,6,4)           180.0            estimate D2E/DX2                !
 ! D40   D(27,5,6,28)            0.0            estimate D2E/DX2                !
 ! D41   D(3,7,8,9)              0.0            estimate D2E/DX2                !
 ! D42   D(3,7,8,11)           180.0            estimate D2E/DX2                !
 ! D43   D(35,7,8,9)           180.0            estimate D2E/DX2                !
 ! D44   D(35,7,8,11)            0.0            estimate D2E/DX2                !
 ! D45   D(3,7,35,23)            0.0            estimate D2E/DX2                !
 ! D46   D(3,7,35,36)          180.0            estimate D2E/DX2                !
 ! D47   D(8,7,35,23)          180.0            estimate D2E/DX2                !
 ! D48   D(8,7,35,36)            0.0            estimate D2E/DX2                !
 ! D49   D(7,8,9,10)             0.0            estimate D2E/DX2                !
 ! D50   D(7,8,9,14)           180.0            estimate D2E/DX2                !
 ! D51   D(11,8,9,10)          180.0            estimate D2E/DX2                !
 ! D52   D(11,8,9,14)            0.0            estimate D2E/DX2                !
 ! D53   D(7,8,11,12)          180.0            estimate D2E/DX2                !
 ! D54   D(7,8,11,15)            0.0            estimate D2E/DX2                !
 ! D55   D(9,8,11,12)            0.0            estimate D2E/DX2                !
 ! D56   D(9,8,11,15)          180.0            estimate D2E/DX2                !
 ! D57   D(8,9,10,4)             0.0            estimate D2E/DX2                !
 ! D58   D(8,9,10,29)          180.0            estimate D2E/DX2                !
 ! D59   D(14,9,10,4)          180.0            estimate D2E/DX2                !
 ! D60   D(14,9,10,29)           0.0            estimate D2E/DX2                !
 ! D61   D(8,9,14,13)            0.0            estimate D2E/DX2                !
 ! D62   D(8,9,14,30)          180.0            estimate D2E/DX2                !
 ! D63   D(10,9,14,13)         180.0            estimate D2E/DX2                !
 ! D64   D(10,9,14,30)           0.0            estimate D2E/DX2                !
 ! D65   D(8,11,12,13)           0.0            estimate D2E/DX2                !
 ! D66   D(8,11,12,18)         180.0            estimate D2E/DX2                !
 ! D67   D(15,11,12,13)        180.0            estimate D2E/DX2                !
 ! D68   D(15,11,12,18)          0.0            estimate D2E/DX2                !
 ! D69   D(8,11,15,16)         180.0            estimate D2E/DX2                !
 ! D70   D(8,11,15,36)           0.0            estimate D2E/DX2                !
 ! D71   D(12,11,15,16)          0.0            estimate D2E/DX2                !
 ! D72   D(12,11,15,36)        180.0            estimate D2E/DX2                !
 ! D73   D(11,12,13,14)          0.0            estimate D2E/DX2                !
 ! D74   D(11,12,13,31)        180.0            estimate D2E/DX2                !
 ! D75   D(18,12,13,14)        180.0            estimate D2E/DX2                !
 ! D76   D(18,12,13,31)          0.0            estimate D2E/DX2                !
 ! D77   D(11,12,18,17)          0.0            estimate D2E/DX2                !
 ! D78   D(11,12,18,32)        180.0            estimate D2E/DX2                !
 ! D79   D(13,12,18,17)        180.0            estimate D2E/DX2                !
 ! D80   D(13,12,18,32)          0.0            estimate D2E/DX2                !
 ! D81   D(12,13,14,9)           0.0            estimate D2E/DX2                !
 ! D82   D(12,13,14,30)        180.0            estimate D2E/DX2                !
 ! D83   D(31,13,14,9)         180.0            estimate D2E/DX2                !
 ! D84   D(31,13,14,30)          0.0            estimate D2E/DX2                !
 ! D85   D(11,15,16,17)          0.0            estimate D2E/DX2                !
 ! D86   D(11,15,16,33)        180.0            estimate D2E/DX2                !
 ! D87   D(36,15,16,17)        180.0            estimate D2E/DX2                !
 ! D88   D(36,15,16,33)          0.0            estimate D2E/DX2                !
 ! D89   D(11,15,36,35)          0.0            estimate D2E/DX2                !
 ! D90   D(11,15,36,37)        180.0            estimate D2E/DX2                !
 ! D91   D(16,15,36,35)        180.0            estimate D2E/DX2                !
 ! D92   D(16,15,36,37)          0.0            estimate D2E/DX2                !
 ! D93   D(15,16,17,18)          0.0            estimate D2E/DX2                !
 ! D94   D(15,16,17,34)        180.0            estimate D2E/DX2                !
 ! D95   D(33,16,17,18)        180.0            estimate D2E/DX2                !
 ! D96   D(33,16,17,34)          0.0            estimate D2E/DX2                !
 ! D97   D(16,17,18,12)          0.0            estimate D2E/DX2                !
 ! D98   D(16,17,18,32)        180.0            estimate D2E/DX2                !
 ! D99   D(34,17,18,12)        180.0            estimate D2E/DX2                !
 ! D100  D(34,17,18,32)          0.0            estimate D2E/DX2                !
 ! D101  D(1,19,20,21)           0.0            estimate D2E/DX2                !
 ! D102  D(1,19,20,25)         180.0            estimate D2E/DX2                !
 ! D103  D(26,19,20,21)        180.0            estimate D2E/DX2                !
 ! D104  D(26,19,20,25)          0.0            estimate D2E/DX2                !
 ! D105  D(19,20,21,22)          0.0            estimate D2E/DX2                !
 ! D106  D(19,20,21,24)        180.0            estimate D2E/DX2                !
 ! D107  D(25,20,21,22)        180.0            estimate D2E/DX2                !
 ! D108  D(25,20,21,24)          0.0            estimate D2E/DX2                !
 ! D109  D(20,21,22,2)           0.0            estimate D2E/DX2                !
 ! D110  D(20,21,22,23)        180.0            estimate D2E/DX2                !
 ! D111  D(24,21,22,2)         180.0            estimate D2E/DX2                !
 ! D112  D(24,21,22,23)          0.0            estimate D2E/DX2                !
 ! D113  D(2,22,23,35)           0.0            estimate D2E/DX2                !
 ! D114  D(2,22,23,38)         180.0            estimate D2E/DX2                !
 ! D115  D(21,22,23,35)        180.0            estimate D2E/DX2                !
 ! D116  D(21,22,23,38)          0.0            estimate D2E/DX2                !
 ! D117  D(22,23,35,7)           0.0            estimate D2E/DX2                !
 ! D118  D(22,23,35,36)        180.0            estimate D2E/DX2                !
 ! D119  D(38,23,35,7)         180.0            estimate D2E/DX2                !
 ! D120  D(38,23,35,36)          0.0            estimate D2E/DX2                !
 ! D121  D(7,35,36,15)           0.0            estimate D2E/DX2                !
 ! D122  D(7,35,36,37)         180.0            estimate D2E/DX2                !
 ! D123  D(23,35,36,15)        180.0            estimate D2E/DX2                !
 ! D124  D(23,35,36,37)          0.0            estimate D2E/DX2                !
 --------------------------------------------------------------------------------
 Trust Radius=3.00D-01 FncErr=1.00D-07 GrdErr=1.00D-06
 Number of steps in this run=    228 maximum allowed number of steps=    228.
 GradGradGradGradGradGradGradGradGradGradGradGradGradGradGradGradGradGrad

                          Input orientation:                          
 ---------------------------------------------------------------------
 Center     Atomic      Atomic             Coordinates (Angstroms)
 Number     Number       Type             X           Y           Z
 ---------------------------------------------------------------------
      1          6           0        3.694500    0.544490    0.000000
      2          6           0        2.463290   -0.167670    0.000000
      3          6           0        1.226400    0.540230    0.000000
      4          6           0        1.221270    1.972170    0.000000
      5          6           0        3.657770    1.980500    0.000000
      6          6           0        2.480510    2.659680    0.000000
      7          6           0        0.000050   -0.166460    0.000000
      8          6           0       -1.226430    0.540190    0.000000
      9          6           0       -1.221410    1.972100    0.000000
     10          6           0        0.000000    2.651650    0.000000
     11          6           0       -2.463350   -0.167730    0.000000
     12          6           0       -3.694290    0.544520    0.000000
     13          6           0       -3.657810    1.980350    0.000000
     14          6           0       -2.480480    2.659630    0.000000
     15          6           0       -2.464570   -1.601200    0.000000
     16          6           0       -3.707670   -2.276300    0.000000
     17          6           0       -4.900300   -1.569340    0.000000
     18          6           0       -4.901700   -0.174520    0.000000
     19          6           0        4.901630   -0.174480    0.000000
     20          6           0        4.900270   -1.569480    0.000000
     21          6           0        3.707690   -2.276310    0.000000
     22          6           0        2.464580   -1.601130    0.000000
     23          6           0        1.232270   -2.288360    0.000000
     24          1           0        3.715470   -3.360940    0.000000
     25          1           0        5.842570   -2.105860    0.000000
     26          1           0        5.840720    0.368290    0.000000
     27          1           0        4.599840    2.518860    0.000000
     28          1           0        2.474200    3.744660    0.000000
     29          1           0       -0.000040    3.737370    0.000000
     30          1           0       -2.474130    3.744620    0.000000
     31          1           0       -4.599850    2.518690    0.000000
     32          1           0       -5.840480    0.368740    0.000000
     33          1           0       -3.715520   -3.360910    0.000000
     34          1           0       -5.842600   -2.105820    0.000000
     35          6           0       -0.000050   -1.610860    0.000000
     36          6           0       -1.232140   -2.288400    0.000000
     37          1           0       -1.235920   -3.373680    0.000000
     38          1           0        1.235710   -3.373650    0.000000
 ---------------------------------------------------------------------
                    Distance matrix (angstroms):
                    1          2          3          4          5
     1  C    0.000000
     2  C    1.422340   0.000000
     3  C    2.468104   1.425138   0.000000
     4  C    2.855720   2.474172   1.431949   0.000000
     5  C    1.436480   2.457929   2.825940   2.436514   0.000000
     6  C    2.438811   2.827402   2.462694   1.434697   1.359127
     7  C    3.762235   2.463240   1.415396   2.462746   4.241268
     8  C    4.920932   3.757007   2.452830   2.835807   5.092141
     9  C    5.119008   4.260942   2.835847   2.442680   4.879187
    10  C    4.253170   3.743843   2.441752   1.397567   3.718834
    11  C    6.198901   4.926640   3.757055   4.260938   6.487141
    12  C    7.388790   6.198629   4.920692   5.118683   7.490983
    13  C    7.491205   6.487053   5.092097   4.879087   7.315580
    14  C    6.527189   5.695128   4.269990   3.765044   6.175705
    15  C    6.522126   5.132135   4.267198   5.133653   7.093069
    16  C    7.921425   6.521278   5.681363   6.507223   8.507059
    17  C    8.850924   7.495808   6.479717   7.072193   9.265092
    18  C    8.626218   7.364993   6.169642   6.488377   8.826587
    19  C    1.405020   2.438350   3.744079   4.260652   2.488197
    20  C    2.433670   2.811395   4.236531   5.106694   3.761139
    21  C    2.820831   2.448447   3.753625   4.922587   4.257103
    22  C    2.473133   1.433461   2.473563   3.783423   3.775152
    23  C    3.753347   2.452088   2.828596   4.260544   4.909808
    24  H    3.905486   3.430004   4.627591   5.887537   5.341752
    25  H    3.411533   3.895653   5.320791   6.163339   4.633755
    26  H    2.153441   3.419691   4.617522   4.889964   2.713760
    27  H    2.172045   3.432534   3.910892   3.422514   1.085047
    28  H    3.424941   3.912345   3.438805   2.170612   2.124405
    29  H    4.883043   4.617070   3.424304   2.146516   4.057852
    30  H    6.949304   6.299534   4.895103   4.098483   6.380620
    31  H    8.526060   7.556750   6.153007   5.846719   8.275140
    32  H    9.536600   8.321078   7.068960   7.241499   9.634029
    33  H    8.376189   6.955176   6.296147   7.267299   9.104728
    34  H    9.898506   8.529023   7.548002   8.156486  10.341907
    35  C    4.277293   2.854968   2.476160   3.785463   5.126160
    36  C    5.683049   4.260716   3.747742   4.916470   6.491127
    37  H    6.297706   4.895166   4.624036   5.883527   7.253650
    38  H    4.625740   3.432967   3.913891   5.345840   5.876504
                    6          7          8          9         10
     6  C    0.000000
     7  C    3.760286   0.000000
     8  C    4.270087   1.415488   0.000000
     9  C    3.765233   2.462804   1.431919   0.000000
    10  C    2.480523   2.818110   2.441801   1.397723   0.000000
    11  C    5.695261   2.463400   1.425174   2.474124   3.743928
    12  C    6.527025   3.762132   2.467864   2.855367   4.252973
    13  C    6.175796   4.241313   2.825893   2.436414   3.718900
    14  C    4.960990   3.760294   2.462655   1.434557   2.480493
    15  C    6.527550   2.851812   2.473569   3.783374   4.915368
    16  C    7.915647   4.265983   3.753554   4.922438   6.166969
    17  C    8.506525   5.097205   4.236442   5.106469   6.467588
    18  C    7.907573   4.901757   3.744118   4.260576   5.658083
    19  C    3.727504   4.901587   6.169593   6.488407   5.658002
    20  C    4.872477   5.097119   6.479750   7.072323   6.467657
    21  C    5.086253   4.265919   5.681392   6.507305   6.166989
    22  C    4.260840   2.851699   4.267178   5.133663   4.915312
    23  C    5.103058   2.453737   3.747786   4.916509   5.091384
    24  H    6.145974   4.899903   6.296125   7.267331   7.067953
    25  H    5.832137   6.155998   7.548002   8.156566   7.534555
    26  H    4.067122   5.865099   7.069240   7.241953   6.271184
    27  H    2.124003   5.326257   6.153093   5.846871   4.601756
    28  H    1.084998   4.627989   4.895231   4.098720   2.704873
    29  H    2.704541   3.903830   3.424324   2.146607   1.085720
    30  H    5.072036   4.627971   3.438768   2.170515   2.704793
    31  H    7.081764   5.326266   3.910809   3.422370   4.601771
    32  H    8.630601   5.865000   4.617234   4.889435   6.270796
    33  H    8.639346   4.899997   4.627543   5.887409   7.067953
    34  H    9.590837   6.156109   5.320751   6.163183   7.534553
    35  C    4.938693   1.444400   2.476090   3.785409   4.262510
    36  C    6.186054   2.453757   2.828596   4.260514   5.091391
    37  H    7.086133   3.437133   3.913882   5.345800   6.150780
    38  H    6.160406   3.436993   4.623881   5.883407   6.150709
                   11         12         13         14         15
    11  C    0.000000
    12  C    1.422151   0.000000
    13  C    2.457841   1.436293   0.000000
    14  C    2.827412   2.438652   1.359238   0.000000
    15  C    1.433471   2.473121   3.775092   4.260860   0.000000
    16  C    2.448346   2.820852   4.256942   5.086197   1.414587
    17  C    2.811269   2.433694   3.760862   4.872342   2.435938
    18  C    2.438359   1.405296   2.488117   3.727561   2.824008
    19  C    7.364983   8.625938   8.826512   7.907448   7.503095
    20  C    7.495852   8.850732   9.265097   8.506518   7.364908
    21  C    6.521338   7.921262   8.507041   7.915614   6.209071
    22  C    5.132166   6.521924   7.093001   6.527457   4.929150
    23  C    4.260831   5.682975   6.491130   6.186042   3.760162
    24  H    6.955171   8.375987   9.104649   8.639274   6.425697
    25  H    8.529048   9.898293  10.341873   9.590780   8.322455
    26  H    8.321352   9.536638   9.634356   8.630910   8.535616
    27  H    7.556879   8.525879   8.275190   7.081719   8.178067
    28  H    6.299698   6.949184   6.380779   5.072095   7.278026
    29  H    4.617110   4.882804   4.057881   2.704460   5.879986
    30  H    3.912365   3.424826   2.124558   1.085009   5.345829
    31  H    3.432417   2.171954   1.085011   2.124051   4.640357
    32  H    3.419475   2.153376   2.713178   4.066667   3.908636
    33  H    3.429917   3.905488   5.341572   6.145911   2.159040
    34  H    3.895577   3.411677   4.633583   5.832098   3.415513
    35  C    2.854903   4.277040   5.126012   4.938585   2.464539
    36  C    2.452166   3.753348   4.909796   5.103073   1.411073
    37  H    3.432885   4.625567   5.876324   6.160338   2.156679
    38  H    4.894994   6.297377   7.253403   7.085939   4.102883
                   16         17         18         19         20
    16  C    0.000000
    17  C    1.386419   0.000000
    18  C    2.417268   1.394821   0.000000
    19  C    8.862150   9.900680   9.803330   0.000000
    20  C    8.636911   9.800570   9.900734   1.395001   0.000000
    21  C    7.415360   8.636973   8.862230   2.417267   1.386310
    22  C    6.209068   7.364949   7.503152   2.823923   2.435896
    23  C    4.939955   6.174577   6.487982   4.234701   3.737782
    24  H    7.501963   8.800075   9.187431   3.400074   2.147808
    25  H    9.551761  10.756259  10.916474   2.148394   1.084266
    26  H    9.907856  10.914391  10.756125   1.084661   2.153926
    27  H    9.592095  10.342439   9.875908   2.710195   4.099364
    28  H    8.629454   9.089656   8.352477   4.609997   5.841738
    29  H    7.064754   7.223138   6.271296   6.271279   7.223275
    30  H    6.145982   5.841616   4.610071   8.352316   9.089633
    31  H    4.877286   4.099056   2.710073   9.875793  10.342409
    32  H    3.397810   2.154087   1.084638  10.755836  10.914230
    33  H    1.084638   2.147889   3.400015   9.187416   8.800060
    34  H    2.141726   1.084315   2.148305  10.916435  10.756250
    35  C    3.766863   4.900426   5.107763   5.107803   4.900495
    36  C    2.475560   3.737973   4.234874   6.487819   6.174407
    37  H    2.704402   4.084522   4.865446   6.921301   6.395934
    38  H    5.063712   6.395792   6.921144   4.865558   4.084609
                   21         22         23         24         25
    21  C    0.000000
    22  C    1.414634   0.000000
    23  C    2.475449   1.410983   0.000000
    24  H    1.084658   2.159087   2.704942   0.000000
    25  H    2.141674   3.415490   4.613911   2.469773   0.000000
    26  H    3.397606   3.908572   5.319361   4.292301   2.474151
    27  H    4.877457   4.640437   5.869403   5.945936   4.788780
    28  H    6.146021   5.345799   6.159523   7.213203   6.750889
    29  H    7.064815   5.879960   6.150448   8.011930   8.263137
    30  H    8.629397   7.277905   7.080554   9.423382  10.168363
    31  H    9.592041   8.177964   7.557867  10.184036  11.420622
    32  H    9.907767   8.535479   7.555394  10.258006  11.942249
    33  H    7.502027   6.425765   5.062706   7.430990   9.640137
    34  H    9.551812   8.322497   7.077224   9.640126  11.685170
    35  C    3.766983   2.464649   1.406278   4.107051   5.863551
    36  C    4.939845   3.760064   2.464410   5.062528   7.077065
    37  H    5.063941   4.103125   2.696272   4.951406   7.191133
    38  H    2.704596   2.156838   1.085295   2.479793   4.778122
                   26         27         28         29         30
    26  H    0.000000
    27  H    2.482888   0.000000
    28  H    4.767948   2.453759   0.000000
    29  H    6.742787   4.758536   2.474251   0.000000
    30  H    8.974204   7.179383   4.948330   2.474101   0.000000
    31  H   10.659724   9.199690   7.179498   4.758512   2.453893
    32  H   11.681200  10.659423   8.973892   6.742285   4.767481
    33  H   10.258102  10.184150   9.423469   8.011889   7.213155
    34  H   11.942411  11.420693  10.168445   8.263073   6.750869
    35  C    6.166979   6.181713   5.899450   5.348230   5.899342
    36  C    7.555352   7.557893   7.080591   6.150445   6.159535
    37  H    8.005072   8.293258   8.027188   7.217647   7.225189
    38  H    5.933653   6.785208   7.225247   7.217595   8.026997
                   31         32         33         34         35
    31  H    0.000000
    32  H    2.482226   0.000000
    33  H    5.945733   4.292522   0.000000
    34  H    4.788582   2.474561   2.469761   0.000000
    35  C    6.181532   6.166801   4.106993   5.863478   0.000000
    36  C    5.869377   5.319510   2.705079   4.614074   1.406096
    37  H    6.784987   5.933606   2.479633   4.777967   2.152884
    38  H    8.292975   8.004870   4.951246   7.190957   2.152796
                   36         37         38
    36  C    0.000000
    37  H    1.085287   0.000000
    38  H    2.695932   2.471630   0.000000
 Stoichiometry    C25H13(2)
 Framework group  CS[SG(C25H13)]
 Deg. of freedom    73
 Full point group                 CS      NOp   2
 Largest Abelian subgroup         CS      NOp   2
 Largest concise Abelian subgroup C1      NOp   1
                         Standard orientation:                         
 ---------------------------------------------------------------------
 Center     Atomic      Atomic             Coordinates (Angstroms)
 Number     Number       Type             X           Y           Z
 ---------------------------------------------------------------------
      1          6           0        0.544430   -3.694508    0.000000
      2          6           0       -0.167710   -2.463286    0.000000
      3          6           0        0.540210   -1.226408    0.000000
      4          6           0        1.972150   -1.221301    0.000000
      5          6           0        1.980440   -3.657801    0.000000
      6          6           0        2.659640   -2.480552    0.000000
      7          6           0       -0.166460   -0.000046    0.000000
      8          6           0        0.540210    1.226422    0.000000
      9          6           0        1.972120    1.221379    0.000000
     10          6           0        2.651650   -0.000042    0.000000
     11          6           0       -0.167690    2.463354    0.000000
     12          6           0        0.544580    3.694282    0.000000
     13          6           0        1.980410    3.657779    0.000000
     14          6           0        2.659671    2.480438    0.000000
     15          6           0       -1.601160    2.464597    0.000000
     16          6           0       -2.276239    3.707708    0.000000
     17          6           0       -1.569260    4.900327    0.000000
     18          6           0       -0.174440    4.901704    0.000000
     19          6           0       -0.174560   -4.901626    0.000000
     20          6           0       -1.569560   -4.900243    0.000000
     21          6           0       -2.276370   -3.707652    0.000000
     22          6           0       -1.601170   -2.464553    0.000000
     23          6           0       -2.288380   -1.232232    0.000000
     24          1           0       -3.361001   -3.715414    0.000000
     25          1           0       -2.105955   -5.842535    0.000000
     26          1           0        0.368195   -5.840725    0.000000
     27          1           0        2.518785   -4.599880    0.000000
     28          1           0        3.744620   -2.474260    0.000000
     29          1           0        3.737370   -0.000020    0.000000
     30          1           0        3.744660    2.474070    0.000000
     31          1           0        2.518765    4.599810    0.000000
     32          1           0        0.368835    5.840475    0.000000
     33          1           0       -3.360849    3.715576    0.000000
     34          1           0       -2.105725    5.842635    0.000000
     35          6           0       -1.610860    0.000077    0.000000
     36          6           0       -2.288380    1.232178    0.000000
     37          1           0       -3.373660    1.235976    0.000000
     38          1           0       -3.373670   -1.235654    0.000000
 ---------------------------------------------------------------------
 Rotational constants (GHZ):      0.5213611      0.1741240      0.1305297
 Standard basis: 6-311+G(d,p) (5D, 7F)
 There are   490 symmetry adapted cartesian basis functions of A'  symmetry.
 There are   163 symmetry adapted cartesian basis functions of A"  symmetry.
 There are   465 symmetry adapted basis functions of A'  symmetry.
 There are   163 symmetry adapted basis functions of A"  symmetry.
   628 basis functions,  1004 primitive gaussians,   653 cartesian basis functions
    82 alpha electrons       81 beta electrons
       nuclear repulsion energy      1919.0613536090 Hartrees.
 NAtoms=   38 NActive=   38 NUniq=   38 SFac= 1.00D+00 NAtFMM=   60 NAOKFM=F Big=F
 Integral buffers will be    131072 words long.
 Raffenetti 2 integral format.
 Two-electron integral symmetry is turned on.
 One-electron integrals computed using PRISM.
 NBasis=   628 RedAO= T EigKep=  1.18D-06  NBF=   465   163
 NBsUse=   611 1.00D-06 EigRej=  6.97D-07 NBFU=   448   163
 ExpMin= 4.38D-02 ExpMax= 4.56D+03 ExpMxC= 6.82D+02 IAcc=2 IRadAn=         4 AccDes= 0.00D+00
 Harris functional with IExCor=  402 and IRadAn=       4 diagonalized for initial guess.
 HarFok:  IExCor=  402 AccDes= 0.00D+00 IRadAn=         4 IDoV= 1 UseB2=F ITyADJ=14
 ICtDFT=  3500011 ScaDFX=  1.000000  1.000000  1.000000  1.000000
 FoFCou: FMM=F IPFlag=           0 FMFlag=      100000 FMFlg1=           0
         NFxFlg=           0 DoJE=T BraDBF=F KetDBF=T FulRan=T
         wScrn=  0.000000 ICntrl=     500 IOpCl=  0 I1Cent=   200000004 NGrid=           0
         NMat0=    1 NMatS0=      1 NMatT0=    0 NMatD0=    1 NMtDS0=    0 NMtDT0=    0
 Petite list used in FoFCou.
 Initial guess orbital symmetries:
 Alpha Orbitals:
       Occupied  (A') (A') (A') (A') (A') (A') (A') (A') (A') (A')
                 (A') (A') (A') (A') (A') (A') (A') (A') (A') (A')
                 (A') (A') (A') (A') (A') (A') (A') (A') (A') (A')
                 (A') (A') (A') (A') (A') (A') (A') (A') (A') (A')
                 (A') (A') (A') (A') (A') (A') (A') (A') (A') (A')
                 (A') (A') (A') (A') (A') (A') (A') (A') (A') (A')
                 (A') (A") (A') (A') (A') (A') (A") (A') (A') (A")
                 (A') (A") (A') (A") (A") (A") (A") (A") (A") (A")
                 (A") (A")
       Virtual   (A") (A") (A") (A") (A") (A") (A") (A") (A') (A")
                 (A') (A') (A") (A') (A') (A') (A') (A') (A') (A')
                 (A') (A") (A") (A') (A") (A') (A') (A") (A') (A')
                 (A') (A") (A") (A') (A') (A') (A") (A") (A') (A')
                 (A") (A') (A') (A') (A') (A") (A') (A") (A') (A')
                 (A') (A') (A') (A") (A") (A') (A') (A') (A") (A')
                 (A') (A') (A") (A') (A') (A') (A') (A') (A") (A")
                 (A') (A') (A') (A') (A") (A') (A') (A') (A') (A")
                 (A') (A') (A') (A') (A') (A") (A") (A') (A') (A')
                 (A") (A') (A') (A') (A') (A") (A') (A') (A") (A')
                 (A') (A') (A") (A') (A') (A') (A') (A') (A") (A')
                 (A') (A') (A") (A') (A') (A') (A') (A') (A') (A')
                 (A') (A') (A') (A') (A') (A') (A') (A') (A') (A')
                 (A') (A') (A') (A') (A') (A") (A') (A') (A') (A")
                 (A') (A') (A") (A') (A') (A") (A') (A') (A") (A')
                 (A') (A") (A") (A') (A") (A') (A') (A') (A') (A")
                 (A') (A') (A") (A') (A') (A") (A") (A') (A") (A')
                 (A') (A') (A") (A') (A") (A') (A") (A') (A') (A')
                 (A') (A') (A') (A") (A') (A") (A") (A') (A") (A")
                 (A') (A") (A') (A') (A") (A") (A') (A') (A") (A')
                 (A') (A') (A') (A') (A') (A') (A") (A') (A") (A')
                 (A') (A') (A') (A') (A') (A') (A') (A") (A") (A')
                 (A') (A') (A') (A') (A') (A") (A") (A') (A') (A')
                 (A") (A") (A") (A') (A') (A") (A') (A") (A") (A')
                 (A') (A") (A") (A") (A') (A') (A") (A") (A") (A')
                 (A") (A') (A') (A') (A') (A') (A') (A') (A') (A')
                 (A') (A') (A') (A') (A') (A') (A') (A') (A') (A')
                 (A') (A") (A") (A') (A") (A') (A') (A") (A') (A')
                 (A") (A') (A") (A") (A') (A') (A') (A") (A') (A')
                 (A') (A') (A") (A') (A") (A") (A') (A') (A') (A")
                 (A') (A') (A") (A') (A') (A') (A") (A') (A') (A")
                 (A') (A") (A") (A') (A") (A') (A") (A") (A') (A')
                 (A") (A') (A") (A") (A") (A') (A') (A") (A') (A")
                 (A') (A') (A") (A') (A') (A") (A') (A') (A') (A")
                 (A') (A") (A') (A") (A') (A') (A') (A') (A") (A')
                 (A') (A") (A') (A') (A') (A") (A') (A') (A') (A')
                 (A') (A") (A') (A") (A') (A') (A") (A") (A') (A')
                 (A') (A") (A') (A") (A') (A') (A') (A') (A") (A')
                 (A") (A') (A') (A') (A') (A') (A") (A') (A") (A')
                 (A') (A') (A") (A') (A") (A') (A') (A") (A') (A")
                 (A") (A") (A") (A') (A') (A') (A') (A') (A') (A')
                 (A') (A") (A') (A') (A") (A') (A') (A') (A') (A")
                 (A') (A') (A") (A') (A') (A") (A') (A') (A") (A')
                 (A") (A') (A") (A') (A') (A") (A') (A") (A") (A')
                 (A") (A") (A") (A") (A") (A") (A') (A') (A') (A")
                 (A') (A') (A') (A') (A') (A') (A') (A') (A') (A')
                 (A') (A') (A') (A') (A') (A') (A') (A') (A') (A')
                 (A') (A') (A') (A') (A') (A') (A') (A') (A') (A')
                 (A') (A') (A') (A') (A') (A') (A') (A') (A') (A')
                 (A') (A') (A') (A') (A') (A') (A') (A') (A') (A')
                 (A') (A') (A') (A') (A') (A') (A') (A') (A') (A')
                 (A') (A') (A') (A') (A') (A') (A') (A') (A') (A')
                 (A') (A') (A') (A') (A') (A') (A') (A') (A')
 Beta  Orbitals:
       Occupied  (A') (A') (A') (A') (A') (A') (A') (A') (A') (A')
                 (A') (A') (A') (A') (A') (A') (A') (A') (A') (A')
                 (A') (A') (A') (A') (A') (A') (A') (A') (A') (A')
                 (A') (A') (A') (A') (A') (A') (A') (A') (A') (A')
                 (A') (A') (A') (A') (A') (A') (A') (A') (A') (A')
                 (A') (A') (A') (A') (A') (A') (A') (A') (A') (A')
                 (A') (A") (A') (A') (A') (A') (A") (A') (A') (A")
                 (A') (A") (A') (A") (A") (A") (A") (A") (A") (A")
                 (A")
       Virtual   (A") (A") (A") (A") (A") (A") (A") (A") (A") (A')
                 (A") (A') (A') (A") (A') (A') (A') (A') (A') (A')
                 (A') (A') (A") (A") (A') (A") (A') (A') (A") (A')
                 (A') (A') (A") (A") (A') (A') (A') (A") (A") (A')
                 (A') (A") (A') (A') (A') (A') (A") (A') (A") (A')
                 (A') (A') (A') (A') (A") (A") (A') (A') (A') (A")
                 (A') (A') (A') (A") (A') (A') (A') (A') (A') (A")
                 (A") (A') (A') (A') (A') (A") (A') (A') (A') (A')
                 (A") (A') (A') (A') (A') (A') (A") (A") (A') (A')
                 (A') (A") (A') (A') (A') (A') (A") (A') (A') (A")
                 (A') (A') (A') (A") (A') (A') (A') (A') (A') (A")
                 (A') (A') (A') (A") (A') (A') (A') (A') (A') (A')
                 (A') (A') (A') (A') (A') (A') (A') (A') (A') (A')
                 (A') (A') (A') (A') (A') (A') (A") (A') (A') (A')
                 (A") (A') (A') (A") (A') (A') (A") (A') (A') (A")
                 (A') (A') (A") (A") (A') (A") (A') (A') (A') (A')
                 (A") (A') (A') (A") (A') (A') (A") (A") (A') (A")
                 (A') (A') (A') (A") (A') (A") (A') (A") (A') (A')
                 (A') (A') (A') (A') (A") (A') (A") (A") (A') (A")
                 (A") (A') (A") (A') (A') (A") (A") (A') (A') (A")
                 (A') (A') (A') (A') (A') (A') (A') (A") (A') (A")
                 (A') (A') (A') (A') (A') (A') (A') (A') (A") (A")
                 (A') (A') (A') (A') (A') (A') (A") (A") (A') (A')
                 (A') (A") (A") (A") (A') (A') (A") (A') (A") (A")
                 (A') (A') (A") (A") (A") (A') (A') (A") (A") (A")
                 (A') (A") (A') (A') (A') (A') (A') (A') (A') (A')
                 (A') (A') (A') (A') (A') (A') (A') (A') (A') (A')
                 (A') (A') (A") (A") (A') (A") (A') (A') (A") (A')
                 (A') (A") (A') (A") (A") (A') (A') (A') (A") (A')
                 (A') (A') (A') (A") (A') (A") (A") (A') (A') (A')
                 (A") (A') (A') (A") (A') (A') (A') (A") (A') (A')
                 (A") (A') (A") (A") (A') (A") (A') (A") (A") (A')
                 (A') (A") (A') (A") (A") (A") (A') (A') (A") (A')
                 (A") (A') (A') (A") (A') (A') (A") (A') (A') (A')
                 (A") (A') (A") (A') (A") (A') (A') (A') (A') (A")
                 (A') (A') (A") (A') (A') (A') (A") (A') (A') (A')
                 (A') (A') (A") (A') (A") (A') (A') (A") (A") (A')
                 (A') (A') (A") (A') (A") (A') (A') (A') (A') (A")
                 (A') (A") (A') (A') (A') (A') (A') (A") (A') (A")
                 (A') (A') (A') (A") (A') (A") (A') (A') (A") (A')
                 (A") (A") (A") (A") (A') (A') (A') (A') (A') (A')
                 (A') (A') (A") (A') (A') (A") (A') (A') (A') (A')
                 (A") (A') (A') (A") (A') (A') (A") (A') (A') (A")
                 (A') (A") (A') (A") (A') (A') (A") (A') (A") (A")
                 (A') (A") (A") (A") (A") (A") (A") (A') (A') (A')
                 (A") (A') (A') (A') (A') (A') (A') (A') (A') (A')
                 (A') (A') (A') (A') (A') (A') (A') (A') (A') (A')
                 (A') (A') (A') (A') (A') (A') (A') (A') (A') (A')
                 (A') (A') (A') (A') (A') (A') (A') (A') (A') (A')
                 (A') (A') (A') (A') (A') (A') (A') (A') (A') (A')
                 (A') (A') (A') (A') (A') (A') (A') (A') (A') (A')
                 (A') (A') (A') (A') (A') (A') (A') (A') (A') (A')
                 (A') (A') (A') (A') (A') (A') (A') (A') (A') (A')
 The electronic state of the initial guess is 2-A".
 Initial guess <Sx>= 0.0000 <Sy>= 0.0000 <Sz>= 0.5000 <S**2>= 0.7500 S= 0.5000
 Requested convergence on RMS density matrix=1.00D-08 within 128 cycles.
 Requested convergence on MAX density matrix=1.00D-06.
 Requested convergence on             energy=1.00D-06.
 No special actions if energy rises.
 SCF Done:  E(UB3LYP) =  -960.784443823     A.U. after   20 cycles
            NFock= 20  Conv=0.64D-08     -V/T= 2.0044
 <Sx>= 0.0000 <Sy>= 0.0000 <Sz>= 0.5000 <S**2>= 0.8068 S= 0.5280
 <L.S>= 0.000000000000E+00
 Annihilation of the first spin contaminant:
 S**2 before annihilation     0.8068,   after     0.7528

 **********************************************************************

            Population analysis using the SCF density.

 **********************************************************************

 Orbital symmetries:
 Alpha Orbitals:
       Occupied  (A') (A') (A') (A') (A') (A') (A') (A') (A') (A')
                 (A') (A') (A') (A') (A') (A') (A') (A') (A') (A')
                 (A') (A') (A') (A') (A') (A') (A') (A') (A') (A')
                 (A') (A') (A') (A') (A') (A') (A') (A') (A') (A')
                 (A') (A') (A') (A') (A') (A') (A') (A') (A') (A')
                 (A') (A') (A') (A') (A') (A') (A") (A') (A') (A')
                 (A') (A") (A') (A') (A') (A') (A') (A") (A') (A")
                 (A') (A") (A') (A') (A") (A") (A") (A") (A") (A")
                 (A") (A")
       Virtual   (A") (A") (A") (A") (A") (A') (A') (A') (A") (A')
                 (A') (A") (A') (A') (A') (A") (A') (A') (A') (A")
                 (A") (A") (A") (A') (A') (A') (A") (A') (A") (A")
                 (A') (A') (A') (A") (A") (A') (A") (A") (A') (A')
                 (A') (A") (A') (A") (A") (A') (A') (A') (A') (A')
                 (A") (A') (A') (A') (A") (A") (A') (A') (A') (A')
                 (A') (A") (A') (A") (A') (A') (A") (A') (A') (A')
                 (A") (A') (A') (A') (A") (A') (A") (A') (A') (A')
                 (A') (A") (A') (A') (A") (A') (A') (A") (A') (A')
                 (A') (A') (A') (A') (A") (A') (A') (A') (A') (A')
                 (A") (A') (A') (A') (A') (A') (A') (A") (A') (A')
                 (A') (A') (A') (A') (A') (A') (A') (A') (A') (A')
                 (A') (A') (A') (A') (A') (A') (A') (A') (A') (A')
                 (A') (A') (A') (A') (A") (A') (A") (A') (A') (A")
                 (A') (A') (A") (A') (A') (A') (A") (A') (A') (A")
                 (A") (A") (A') (A') (A') (A") (A') (A') (A") (A')
                 (A") (A") (A') (A') (A") (A') (A") (A') (A') (A')
                 (A') (A') (A') (A") (A") (A') (A") (A") (A') (A')
                 (A") (A') (A') (A') (A") (A') (A") (A") (A') (A')
                 (A') (A") (A') (A') (A') (A') (A") (A') (A') (A")
                 (A') (A') (A') (A') (A') (A') (A') (A') (A') (A')
                 (A") (A') (A') (A") (A') (A') (A') (A') (A') (A')
                 (A') (A') (A') (A") (A') (A') (A') (A") (A') (A")
                 (A") (A') (A') (A") (A") (A") (A') (A') (A") (A")
                 (A') (A') (A") (A") (A") (A") (A') (A") (A") (A')
                 (A') (A") (A') (A") (A') (A') (A') (A') (A') (A')
                 (A') (A') (A') (A') (A') (A') (A') (A') (A') (A')
                 (A") (A') (A") (A") (A') (A') (A") (A') (A') (A')
                 (A") (A') (A") (A") (A') (A') (A') (A") (A') (A")
                 (A') (A") (A') (A") (A') (A') (A') (A') (A") (A')
                 (A') (A") (A') (A') (A') (A') (A") (A") (A') (A')
                 (A") (A") (A') (A') (A") (A') (A") (A") (A') (A')
                 (A") (A") (A') (A") (A') (A') (A") (A') (A") (A')
                 (A') (A") (A") (A') (A') (A') (A") (A') (A') (A")
                 (A') (A") (A') (A') (A') (A') (A") (A') (A") (A')
                 (A') (A") (A') (A') (A') (A') (A") (A') (A') (A')
                 (A") (A') (A') (A") (A') (A") (A") (A') (A') (A')
                 (A') (A") (A") (A') (A') (A') (A') (A') (A") (A")
                 (A') (A') (A') (A') (A') (A') (A") (A") (A') (A')
                 (A') (A') (A') (A') (A') (A") (A') (A") (A") (A")
                 (A") (A') (A') (A') (A') (A') (A') (A') (A") (A')
                 (A") (A') (A') (A') (A') (A') (A') (A') (A') (A')
                 (A') (A") (A') (A") (A") (A') (A') (A") (A') (A")
                 (A') (A") (A') (A") (A") (A") (A') (A') (A") (A")
                 (A") (A") (A") (A") (A") (A") (A') (A") (A') (A')
                 (A') (A') (A') (A') (A') (A') (A') (A') (A') (A')
                 (A') (A') (A') (A') (A') (A') (A') (A') (A') (A')
                 (A') (A') (A') (A') (A') (A') (A') (A') (A') (A')
                 (A') (A') (A') (A') (A') (A') (A') (A') (A') (A')
                 (A') (A') (A') (A') (A') (A') (A') (A') (A') (A')
                 (A') (A') (A') (A') (A') (A') (A') (A') (A') (A')
                 (A') (A') (A') (A') (A') (A') (A') (A') (A') (A')
                 (A') (A') (A') (A') (A') (A') (A') (A') (A')
 Beta  Orbitals:
       Occupied  (A') (A') (A') (A') (A') (A') (A') (A') (A') (A')
                 (A') (A') (A') (A') (A') (A') (A') (A') (A') (A')
                 (A') (A') (A') (A') (A') (A') (A') (A') (A') (A')
                 (A') (A') (A') (A') (A') (A') (A') (A') (A') (A')
                 (A') (A') (A') (A') (A') (A') (A') (A') (A') (A')
                 (A') (A') (A') (A') (A') (A') (A") (A') (A') (A')
                 (A') (A') (A") (A') (A') (A') (A') (A") (A') (A")
                 (A') (A") (A') (A') (A") (A") (A") (A") (A") (A")
                 (A")
       Virtual   (A") (A") (A") (A") (A") (A") (A') (A') (A') (A')
                 (A') (A") (A") (A') (A') (A') (A") (A') (A') (A')
                 (A") (A") (A") (A') (A") (A') (A') (A") (A') (A")
                 (A') (A") (A') (A') (A") (A") (A') (A") (A") (A')
                 (A') (A') (A") (A') (A") (A') (A") (A') (A') (A')
                 (A') (A") (A') (A') (A') (A") (A") (A') (A') (A')
                 (A') (A') (A") (A') (A') (A") (A') (A') (A") (A')
                 (A') (A") (A') (A') (A') (A") (A') (A") (A') (A')
                 (A') (A') (A") (A') (A') (A") (A') (A') (A") (A')
                 (A') (A') (A') (A') (A') (A") (A') (A') (A') (A')
                 (A') (A') (A') (A") (A') (A') (A') (A') (A") (A')
                 (A') (A') (A') (A') (A') (A') (A') (A') (A') (A')
                 (A') (A') (A') (A') (A') (A') (A') (A') (A') (A')
                 (A') (A') (A') (A') (A') (A") (A') (A') (A') (A")
                 (A") (A') (A') (A') (A") (A') (A') (A") (A') (A')
                 (A") (A") (A") (A') (A') (A') (A') (A") (A') (A")
                 (A') (A") (A") (A') (A') (A") (A') (A') (A") (A')
                 (A') (A') (A') (A') (A") (A") (A') (A") (A") (A')
                 (A') (A") (A') (A') (A') (A") (A') (A") (A") (A')
                 (A') (A') (A") (A') (A') (A') (A') (A") (A') (A')
                 (A") (A') (A') (A') (A') (A') (A') (A') (A') (A')
                 (A') (A") (A') (A') (A") (A') (A') (A') (A') (A')
                 (A') (A') (A') (A') (A") (A') (A') (A') (A") (A')
                 (A") (A') (A') (A") (A") (A") (A') (A") (A') (A")
                 (A") (A') (A') (A") (A") (A") (A") (A') (A") (A")
                 (A') (A') (A") (A') (A") (A') (A') (A') (A') (A')
                 (A') (A') (A') (A') (A') (A') (A') (A') (A') (A')
                 (A') (A") (A') (A") (A") (A') (A') (A") (A') (A')
                 (A') (A") (A') (A") (A') (A") (A') (A') (A") (A')
                 (A") (A') (A") (A') (A") (A') (A') (A') (A') (A")
                 (A') (A') (A") (A') (A') (A') (A') (A") (A") (A')
                 (A') (A") (A") (A') (A') (A") (A') (A") (A") (A')
                 (A') (A") (A") (A') (A") (A') (A') (A") (A') (A")
                 (A') (A") (A') (A') (A") (A') (A') (A") (A') (A')
                 (A") (A') (A") (A') (A') (A') (A') (A") (A') (A")
                 (A') (A') (A") (A') (A') (A') (A') (A') (A") (A')
                 (A') (A") (A') (A') (A") (A') (A") (A") (A') (A')
                 (A') (A') (A") (A") (A') (A') (A') (A') (A') (A")
                 (A") (A') (A') (A') (A') (A') (A') (A") (A") (A')
                 (A') (A') (A') (A') (A') (A') (A") (A') (A") (A")
                 (A") (A") (A') (A') (A') (A') (A') (A') (A') (A')
                 (A") (A") (A') (A') (A') (A') (A') (A') (A') (A')
                 (A') (A') (A") (A') (A") (A') (A") (A') (A") (A')
                 (A") (A') (A') (A") (A") (A") (A") (A') (A') (A")
                 (A") (A") (A") (A") (A") (A") (A") (A') (A") (A')
                 (A') (A') (A') (A') (A') (A') (A') (A') (A') (A')
                 (A') (A') (A') (A') (A') (A') (A') (A') (A') (A')
                 (A') (A') (A') (A') (A') (A') (A') (A') (A') (A')
                 (A') (A') (A') (A') (A') (A') (A') (A') (A') (A')
                 (A') (A') (A') (A') (A') (A') (A') (A') (A') (A')
                 (A') (A') (A') (A') (A') (A') (A') (A') (A') (A')
                 (A') (A') (A') (A') (A') (A') (A') (A') (A') (A')
                 (A') (A') (A') (A') (A') (A') (A') (A') (A') (A')
 The electronic state is 2-A".
 Alpha  occ. eigenvalues --  -10.19369 -10.19369 -10.19347 -10.19300 -10.19245
 Alpha  occ. eigenvalues --  -10.19243 -10.19215 -10.19210 -10.19184 -10.19178
 Alpha  occ. eigenvalues --  -10.19132 -10.19130 -10.18720 -10.18716 -10.18432
 Alpha  occ. eigenvalues --  -10.18432 -10.18386 -10.18386 -10.18374 -10.18373
 Alpha  occ. eigenvalues --  -10.18323 -10.18323 -10.18279 -10.18170 -10.18170
 Alpha  occ. eigenvalues --   -0.91214  -0.88885  -0.86053  -0.85150  -0.83352
 Alpha  occ. eigenvalues --   -0.80461  -0.79334  -0.77764  -0.75618  -0.75309
 Alpha  occ. eigenvalues --   -0.73899  -0.71829  -0.68644  -0.65151  -0.64348
 Alpha  occ. eigenvalues --   -0.63250  -0.62383  -0.61909  -0.57796  -0.57610
 Alpha  occ. eigenvalues --   -0.53958  -0.52795  -0.52197  -0.52104  -0.50450
 Alpha  occ. eigenvalues --   -0.50337  -0.47740  -0.47035  -0.46333  -0.44730
 Alpha  occ. eigenvalues --   -0.43981  -0.43351  -0.43113  -0.42674  -0.42668
 Alpha  occ. eigenvalues --   -0.41069  -0.40618  -0.40558  -0.40230  -0.40209
 Alpha  occ. eigenvalues --   -0.38102  -0.37837  -0.37622  -0.36574  -0.36447
 Alpha  occ. eigenvalues --   -0.34698  -0.34332  -0.33202  -0.32520  -0.31227
 Alpha  occ. eigenvalues --   -0.29687  -0.29108  -0.26205  -0.25798  -0.24354
 Alpha  occ. eigenvalues --   -0.21284  -0.17144
 Alpha virt. eigenvalues --   -0.07280  -0.04609  -0.02949  -0.02309  -0.01109
 Alpha virt. eigenvalues --    0.00131   0.00549   0.00650   0.01736   0.01739
 Alpha virt. eigenvalues --    0.01840   0.02444   0.03174   0.03234   0.03285
 Alpha virt. eigenvalues --    0.04142   0.04984   0.05052   0.05388   0.05625
 Alpha virt. eigenvalues --    0.06342   0.06549   0.07021   0.07231   0.07381
 Alpha virt. eigenvalues --    0.07405   0.08279   0.08668   0.08779   0.09570
 Alpha virt. eigenvalues --    0.09581   0.10074   0.10153   0.11638   0.12395
 Alpha virt. eigenvalues --    0.12524   0.12739   0.12823   0.13093   0.13150
 Alpha virt. eigenvalues --    0.13582   0.13640   0.13803   0.14691   0.14867
 Alpha virt. eigenvalues --    0.15101   0.15609   0.15679   0.16329   0.16461
 Alpha virt. eigenvalues --    0.16832   0.16923   0.17310   0.17340   0.17630
 Alpha virt. eigenvalues --    0.17733   0.17882   0.18083   0.18602   0.18759
 Alpha virt. eigenvalues --    0.19272   0.19367   0.19624   0.20231   0.20403
 Alpha virt. eigenvalues --    0.20762   0.21080   0.21297   0.21312   0.21873
 Alpha virt. eigenvalues --    0.22032   0.22354   0.22594   0.22831   0.23064
 Alpha virt. eigenvalues --    0.23300   0.23534   0.24099   0.24303   0.24389
 Alpha virt. eigenvalues --    0.24858   0.25000   0.25494   0.25666   0.25838
 Alpha virt. eigenvalues --    0.25956   0.26278   0.26828   0.26910   0.27213
 Alpha virt. eigenvalues --    0.27571   0.27800   0.28378   0.28996   0.29277
 Alpha virt. eigenvalues --    0.29601   0.29678   0.29858   0.30241   0.30678
 Alpha virt. eigenvalues --    0.30930   0.30955   0.31009   0.31473   0.32403
 Alpha virt. eigenvalues --    0.32706   0.32860   0.32862   0.33256   0.33725
 Alpha virt. eigenvalues --    0.34003   0.34555   0.36586   0.37000   0.37715
 Alpha virt. eigenvalues --    0.38767   0.39635   0.39708   0.40479   0.41473
 Alpha virt. eigenvalues --    0.42134   0.42313   0.43389   0.44696   0.45083
 Alpha virt. eigenvalues --    0.45415   0.45883   0.46236   0.46434   0.47053
 Alpha virt. eigenvalues --    0.47828   0.48098   0.49651   0.50530   0.51733
 Alpha virt. eigenvalues --    0.52795   0.53143   0.53191   0.53379   0.53622
 Alpha virt. eigenvalues --    0.54176   0.54652   0.54921   0.55017   0.55459
 Alpha virt. eigenvalues --    0.55755   0.55933   0.56200   0.56553   0.57172
 Alpha virt. eigenvalues --    0.57500   0.57626   0.58386   0.58799   0.60054
 Alpha virt. eigenvalues --    0.60660   0.60688   0.60906   0.61301   0.62347
 Alpha virt. eigenvalues --    0.62556   0.62666   0.62867   0.62977   0.63385
 Alpha virt. eigenvalues --    0.63897   0.64612   0.64616   0.64781   0.65381
 Alpha virt. eigenvalues --    0.66019   0.66338   0.66386   0.66589   0.66940
 Alpha virt. eigenvalues --    0.68571   0.69299   0.70313   0.71011   0.71216
 Alpha virt. eigenvalues --    0.71597   0.71632   0.72057   0.73021   0.73045
 Alpha virt. eigenvalues --    0.73371   0.74003   0.74071   0.74134   0.74489
 Alpha virt. eigenvalues --    0.75242   0.75877   0.76018   0.76856   0.77700
 Alpha virt. eigenvalues --    0.80594   0.81163   0.82424   0.83542   0.84040
 Alpha virt. eigenvalues --    0.84370   0.84402   0.86288   0.86362   0.87542
 Alpha virt. eigenvalues --    0.88708   0.90397   0.90612   0.91053   0.91400
 Alpha virt. eigenvalues --    0.91806   0.92371   0.92873   0.93374   0.93593
 Alpha virt. eigenvalues --    0.93981   0.94195   0.94799   0.94896   0.95334
 Alpha virt. eigenvalues --    0.95384   0.96112   0.96606   0.96779   0.97649
 Alpha virt. eigenvalues --    0.97881   0.98372   0.98412   1.00980   1.01094
 Alpha virt. eigenvalues --    1.01331   1.01450   1.01563   1.02587   1.02652
 Alpha virt. eigenvalues --    1.03659   1.03844   1.04077   1.05367   1.05701
 Alpha virt. eigenvalues --    1.06836   1.06951   1.07876   1.08723   1.09790
 Alpha virt. eigenvalues --    1.10340   1.10673   1.13551   1.13775   1.14033
 Alpha virt. eigenvalues --    1.14501   1.15701   1.16771   1.17266   1.17870
 Alpha virt. eigenvalues --    1.18225   1.20438   1.20981   1.24127   1.25608
 Alpha virt. eigenvalues --    1.25842   1.29670   1.34202   1.34601   1.35513
 Alpha virt. eigenvalues --    1.38638   1.39008   1.40195   1.41318   1.45024
 Alpha virt. eigenvalues --    1.45042   1.45188   1.46546   1.46739   1.47092
 Alpha virt. eigenvalues --    1.47165   1.47553   1.48146   1.48623   1.48904
 Alpha virt. eigenvalues --    1.50121   1.50425   1.50512   1.50534   1.50713
 Alpha virt. eigenvalues --    1.52615   1.52757   1.52789   1.53761   1.55910
 Alpha virt. eigenvalues --    1.56009   1.56518   1.56650   1.57629   1.58274
 Alpha virt. eigenvalues --    1.58745   1.59528   1.60589   1.61800   1.62164
 Alpha virt. eigenvalues --    1.64524   1.65727   1.66278   1.67119   1.68233
 Alpha virt. eigenvalues --    1.69834   1.70796   1.72681   1.73020   1.73128
 Alpha virt. eigenvalues --    1.73582   1.74051   1.74415   1.75487   1.75774
 Alpha virt. eigenvalues --    1.77480   1.77820   1.78935   1.79998   1.80842
 Alpha virt. eigenvalues --    1.83154   1.86118   1.86371   1.87513   1.88195
 Alpha virt. eigenvalues --    1.88313   1.88605   1.88725   1.88987   1.89563
 Alpha virt. eigenvalues --    1.90377   1.90479   1.92311   1.92351   1.92777
 Alpha virt. eigenvalues --    1.93472   1.93860   1.94682   1.94754   1.95715
 Alpha virt. eigenvalues --    1.96507   1.97725   1.97835   1.99560   1.99873
 Alpha virt. eigenvalues --    2.00249   2.00350   2.02125   2.03972   2.05499
 Alpha virt. eigenvalues --    2.05752   2.05983   2.06498   2.06627   2.08719
 Alpha virt. eigenvalues --    2.09217   2.09749   2.09766   2.12895   2.15277
 Alpha virt. eigenvalues --    2.16002   2.16647   2.17137   2.18142   2.20878
 Alpha virt. eigenvalues --    2.21589   2.22684   2.23131   2.25043   2.25299
 Alpha virt. eigenvalues --    2.26070   2.26879   2.29373   2.29925   2.31773
 Alpha virt. eigenvalues --    2.32923   2.35867   2.36856   2.37323   2.39063
 Alpha virt. eigenvalues --    2.39961   2.41504   2.43993   2.45411   2.46702
 Alpha virt. eigenvalues --    2.48233   2.49884   2.50732   2.51819   2.55392
 Alpha virt. eigenvalues --    2.55440   2.56343   2.58674   2.60090   2.60783
 Alpha virt. eigenvalues --    2.61627   2.63089   2.63467   2.67075   2.67731
 Alpha virt. eigenvalues --    2.69443   2.70245   2.70908   2.71500   2.72345
 Alpha virt. eigenvalues --    2.72700   2.74089   2.74147   2.74506   2.74750
 Alpha virt. eigenvalues --    2.74815   2.75533   2.75949   2.76237   2.77433
 Alpha virt. eigenvalues --    2.77635   2.78384   2.78940   2.79028   2.79814
 Alpha virt. eigenvalues --    2.80250   2.80762   2.81970   2.82325   2.83280
 Alpha virt. eigenvalues --    2.83853   2.85010   2.85143   2.85592   2.87066
 Alpha virt. eigenvalues --    2.88283   2.88575   2.89309   2.89969   2.91279
 Alpha virt. eigenvalues --    2.92128   2.93225   2.94225   2.95108   2.96003
 Alpha virt. eigenvalues --    3.04135   3.04524   3.06516   3.06789   3.08942
 Alpha virt. eigenvalues --    3.12927   3.14263   3.16381   3.19134   3.20557
 Alpha virt. eigenvalues --    3.21109   3.22446   3.24778   3.24880   3.27171
 Alpha virt. eigenvalues --    3.29026   3.29358   3.35251   3.38891   3.39373
 Alpha virt. eigenvalues --    3.40560   3.41034   3.41580   3.44074   3.44361
 Alpha virt. eigenvalues --    3.46231   3.48592   3.48743   3.50932   3.52167
 Alpha virt. eigenvalues --    3.53903   3.54878   3.55885   3.58448   3.58655
 Alpha virt. eigenvalues --    3.61067   3.62926   3.64010   3.68828   3.69954
 Alpha virt. eigenvalues --    3.72483   3.81020   3.86430   3.90236   3.96743
 Alpha virt. eigenvalues --    4.05041   4.05390   4.09120   4.10981   4.12062
 Alpha virt. eigenvalues --    4.12292   4.24040   4.24083   4.31160   4.32857
 Alpha virt. eigenvalues --    4.40151   4.60823   4.81423   4.82951   4.84572
 Alpha virt. eigenvalues --    4.85080   4.87554   4.88515   4.89663  23.40320
 Alpha virt. eigenvalues --   23.63405  23.75309  23.80399  23.83028  23.89188
 Alpha virt. eigenvalues --   23.92259  23.93397  23.94541  23.96287  23.99662
 Alpha virt. eigenvalues --   24.00073  24.00519  24.01798  24.02636  24.04534
 Alpha virt. eigenvalues --   24.06241  24.06298  24.09475  24.11511  24.13748
 Alpha virt. eigenvalues --   24.17387  24.17391  24.20819  24.21001
  Beta  occ. eigenvalues --  -10.19521 -10.19373 -10.19373 -10.19308 -10.19298
  Beta  occ. eigenvalues --  -10.19255 -10.19249 -10.19244 -10.19242 -10.19210
  Beta  occ. eigenvalues --  -10.19072 -10.19070 -10.18425 -10.18425 -10.18386
  Beta  occ. eigenvalues --  -10.18319 -10.18318 -10.18305 -10.18304 -10.18186
  Beta  occ. eigenvalues --  -10.18185 -10.18112 -10.18111 -10.18090 -10.18089
  Beta  occ. eigenvalues --   -0.91102  -0.88737  -0.85868  -0.84917  -0.83197
  Beta  occ. eigenvalues --   -0.80146  -0.79220  -0.77480  -0.75463  -0.75138
  Beta  occ. eigenvalues --   -0.73673  -0.71689  -0.67764  -0.65080  -0.64310
  Beta  occ. eigenvalues --   -0.63089  -0.62143  -0.61788  -0.57749  -0.57319
  Beta  occ. eigenvalues --   -0.53851  -0.52694  -0.52072  -0.52031  -0.50304
  Beta  occ. eigenvalues --   -0.50200  -0.47669  -0.46890  -0.46273  -0.44629
  Beta  occ. eigenvalues --   -0.43901  -0.43042  -0.43021  -0.42614  -0.42552
  Beta  occ. eigenvalues --   -0.40910  -0.40481  -0.40211  -0.40158  -0.40113
  Beta  occ. eigenvalues --   -0.38005  -0.37753  -0.37046  -0.36472  -0.35826
  Beta  occ. eigenvalues --   -0.34653  -0.33860  -0.33104  -0.32485  -0.30338
  Beta  occ. eigenvalues --   -0.29356  -0.28262  -0.25737  -0.25335  -0.23539
  Beta  occ. eigenvalues --   -0.20592
  Beta virt. eigenvalues --   -0.11032  -0.06675  -0.04036  -0.02494  -0.01899
  Beta virt. eigenvalues --   -0.00603   0.00149   0.00564   0.00675   0.01749
  Beta virt. eigenvalues --    0.01865   0.02035   0.03143   0.03180   0.03258
  Beta virt. eigenvalues --    0.03317   0.04170   0.04988   0.05079   0.05429
  Beta virt. eigenvalues --    0.05670   0.06407   0.06758   0.07270   0.07312
  Beta virt. eigenvalues --    0.07401   0.07433   0.08455   0.08727   0.08839
  Beta virt. eigenvalues --    0.09614   0.09829   0.10089   0.10185   0.11956
  Beta virt. eigenvalues --    0.12565   0.12574   0.12755   0.13045   0.13108
  Beta virt. eigenvalues --    0.13225   0.13585   0.13798   0.13849   0.14859
  Beta virt. eigenvalues --    0.15112   0.15281   0.15630   0.15725   0.16357
  Beta virt. eigenvalues --    0.16512   0.16895   0.16962   0.17330   0.17399
  Beta virt. eigenvalues --    0.17716   0.17889   0.17925   0.18192   0.18698
  Beta virt. eigenvalues --    0.18793   0.19353   0.19399   0.19681   0.20405
  Beta virt. eigenvalues --    0.20532   0.20791   0.21313   0.21333   0.21359
  Beta virt. eigenvalues --    0.21907   0.22024   0.22441   0.22636   0.22945
  Beta virt. eigenvalues --    0.23075   0.23365   0.23695   0.24169   0.24351
  Beta virt. eigenvalues --    0.24395   0.25058   0.25141   0.25517   0.25714
  Beta virt. eigenvalues --    0.25910   0.26015   0.26328   0.26903   0.27047
  Beta virt. eigenvalues --    0.27183   0.27633   0.27796   0.28441   0.29104
  Beta virt. eigenvalues --    0.29343   0.29702   0.29723   0.29892   0.30300
  Beta virt. eigenvalues --    0.30696   0.31019   0.31021   0.31024   0.31461
  Beta virt. eigenvalues --    0.32435   0.32780   0.32902   0.32904   0.33262
  Beta virt. eigenvalues --    0.33766   0.34101   0.34608   0.36642   0.37061
  Beta virt. eigenvalues --    0.37862   0.38913   0.39702   0.39757   0.40516
  Beta virt. eigenvalues --    0.41537   0.42240   0.42480   0.43438   0.44817
  Beta virt. eigenvalues --    0.45167   0.45532   0.45882   0.46540   0.46556
  Beta virt. eigenvalues --    0.47156   0.47995   0.48246   0.49723   0.50676
  Beta virt. eigenvalues --    0.52067   0.52941   0.53183   0.53402   0.53435
  Beta virt. eigenvalues --    0.54007   0.54319   0.54782   0.55165   0.55487
  Beta virt. eigenvalues --    0.55633   0.55813   0.56073   0.56336   0.56760
  Beta virt. eigenvalues --    0.57286   0.57840   0.58340   0.58502   0.58834
  Beta virt. eigenvalues --    0.60093   0.60741   0.60800   0.60959   0.61948
  Beta virt. eigenvalues --    0.62417   0.62577   0.62942   0.62991   0.62998
  Beta virt. eigenvalues --    0.63741   0.63920   0.64693   0.64725   0.64863
  Beta virt. eigenvalues --    0.65434   0.66080   0.66373   0.66459   0.66874
  Beta virt. eigenvalues --    0.67250   0.68736   0.70088   0.70311   0.71116
  Beta virt. eigenvalues --    0.71243   0.71552   0.71698   0.72177   0.73121
  Beta virt. eigenvalues --    0.73189   0.73441   0.74008   0.74127   0.74201
  Beta virt. eigenvalues --    0.74565   0.75303   0.76028   0.76112   0.76985
  Beta virt. eigenvalues --    0.77813   0.80668   0.81318   0.82382   0.83607
  Beta virt. eigenvalues --    0.84114   0.84517   0.84578   0.86374   0.86386
  Beta virt. eigenvalues --    0.87633   0.88913   0.90481   0.90674   0.91111
  Beta virt. eigenvalues --    0.91482   0.92020   0.92494   0.93124   0.93585
  Beta virt. eigenvalues --    0.93667   0.94093   0.94302   0.94848   0.95049
  Beta virt. eigenvalues --    0.95399   0.95719   0.96126   0.96703   0.97062
  Beta virt. eigenvalues --    0.97763   0.97970   0.98522   0.98616   1.01218
  Beta virt. eigenvalues --    1.01280   1.01596   1.01668   1.01673   1.02909
  Beta virt. eigenvalues --    1.02972   1.03916   1.03930   1.04152   1.05512
  Beta virt. eigenvalues --    1.06203   1.06978   1.07006   1.08137   1.09039
  Beta virt. eigenvalues --    1.10088   1.10585   1.10823   1.13846   1.14027
  Beta virt. eigenvalues --    1.14135   1.14579   1.16008   1.16881   1.17431
  Beta virt. eigenvalues --    1.18130   1.18382   1.20492   1.21038   1.24291
  Beta virt. eigenvalues --    1.25735   1.25978   1.29742   1.34345   1.34728
  Beta virt. eigenvalues --    1.35654   1.38785   1.39165   1.40292   1.41413
  Beta virt. eigenvalues --    1.45116   1.45201   1.45215   1.46749   1.47105
  Beta virt. eigenvalues --    1.47234   1.47292   1.47895   1.48218   1.48649
  Beta virt. eigenvalues --    1.48950   1.50278   1.50468   1.50742   1.50768
  Beta virt. eigenvalues --    1.50870   1.52681   1.52831   1.53051   1.53811
  Beta virt. eigenvalues --    1.56056   1.56120   1.56701   1.57009   1.57771
  Beta virt. eigenvalues --    1.58411   1.59169   1.59719   1.60778   1.61885
  Beta virt. eigenvalues --    1.62268   1.64679   1.65939   1.66393   1.67249
  Beta virt. eigenvalues --    1.68302   1.69836   1.70865   1.72741   1.73073
  Beta virt. eigenvalues --    1.73175   1.73742   1.74191   1.74426   1.75572
  Beta virt. eigenvalues --    1.75870   1.77569   1.78366   1.79455   1.80090
  Beta virt. eigenvalues --    1.80992   1.83427   1.86262   1.86320   1.87767
  Beta virt. eigenvalues --    1.88596   1.88749   1.88802   1.89019   1.89339
  Beta virt. eigenvalues --    1.89764   1.90687   1.90904   1.92264   1.92683
  Beta virt. eigenvalues --    1.93242   1.93505   1.94063   1.94662   1.94700
  Beta virt. eigenvalues --    1.95917   1.96494   1.97931   1.97998   1.99858
  Beta virt. eigenvalues --    1.99900   2.00314   2.00811   2.02317   2.04280
  Beta virt. eigenvalues --    2.05580   2.05818   2.06116   2.06585   2.06757
  Beta virt. eigenvalues --    2.08873   2.09162   2.09823   2.10315   2.12982
  Beta virt. eigenvalues --    2.15235   2.16166   2.16863   2.17118   2.18398
  Beta virt. eigenvalues --    2.20927   2.21859   2.23204   2.23349   2.25116
  Beta virt. eigenvalues --    2.25395   2.26189   2.27160   2.29662   2.29984
[...]
 0002397,-0.26698584,-0.11829179,-0.00005436,0.00337368,0.00205838,-0.0
 0001108,-0.00009936,-0.00008575,-0.00002667,-0.00004561,0.00008743,-0.
 00005765,-0.00011483,0.00010127,-0.00000843,0.00004345,0.00017521,-0.0
 0005807,0.00013523,-0.00043544,0.00010933,0.00000038,-0.00014920,0.000
 01125,0.00017043,-0.00010458,0.00001155,-0.00004330,-0.00003925,0.0000
 0489,-0.00011276,-0.00003468,-0.00000500,-0.00005562,0.00004779,0.0000
 0480,0.00000866,0.00005184,-0.00001805,-0.00002570,-0.00008148,-0.0000
 1163,0.00008584,-0.00004476,0.00001253,0.00076091,-0.00038676,-0.00001
 303,0.00094729,0.00027744,0.00003007,0.28260436,-0.00008073,0.00003545
 ,0.00021736,0.00000179,0.00004631,-0.00006065,0.00015846,0.00025353,-0
 .00006337,-0.00003974,-0.00008506,-0.00015237,0.00014887,0.00003096,-0
 .00003886,-0.00006959,-0.00012388,0.00003847,0.00005036,-0.00017823,0.
 00024458,-0.00007351,0.00012817,-0.00001535,0.00027302,-0.00018787,-0.
 00007374,-0.00020690,-0.00015311,0.00012446,0.00080947,-0.00060242,0.0
 0006882,0.00156874,-0.00530937,0.00026554,-0.00155762,-0.00007644,-0.0
 0022967,0.00000077,-0.00023672,0.00013651,0.00332775,-0.00114902,-0.00
 002398,0.01527123,0.01163518,0.00001501,-0.11835487,-0.12673796,-0.000
 04690,-0.02907078,-0.01066174,0.00000727,-0.00005543,-0.00007031,-0.00
 000215,-0.00011717,-0.00011424,-0.00003965,0.00013186,0.00010803,-0.00
 000284,-0.00004565,0.00004500,-0.00008906,0.00016347,-0.00007823,0.000
 08950,-0.00000312,0.00003223,0.00000360,-0.00002937,0.00002100,0.00000
 634,0.00004363,0.00002199,-0.00000659,-0.00000272,0.00002058,-0.000017
 95,-0.00002995,-0.00001225,0.00000854,0.00000863,0.00001011,0.00000292
 ,-0.00016153,-0.00010081,0.00000020,0.00004792,-0.00002665,-0.00000316
 ,0.00041089,0.00101249,-0.00000308,-0.00045536,0.00076673,0.00001044,0
 .12757556,0.13118482,0.00000492,0.00000876,-0.00001329,0.00000146,-0.0
 0000337,-0.00000034,-0.00000106,-0.00000504,0.00005675,0.00000186,0.00
 000487,-0.00000610,-0.00000048,-0.00000304,0.00000153,0.00000355,0.000
 00238,0.00000321,-0.00001252,0.00000398,0.00011099,-0.00000198,-0.0000
 0060,-0.00080810,-0.00000627,0.00000395,0.00013293,-0.00000094,0.00000
 363,0.00001907,-0.00000386,0.00001882,-0.00072089,0.00000620,-0.000000
 07,0.00690755,0.00000266,0.00000134,0.00027677,0.00000016,-0.00000983,
 -0.00041239,0.00000538,-0.00001251,0.00769966,0.00000050,-0.00000409,0
 .00334733,-0.00000430,0.00000349,-0.03716738,-0.00000056,-0.00000065,0
 .00310487,0.00000366,0.00000093,-0.00000433,0.00000887,0.00001391,0.00
 000366,-0.00001368,-0.00000442,0.00000145,0.00000303,-0.00000093,0.000
 02723,0.00000265,-0.00000049,-0.00002854,0.00000018,-0.00000888,0.0000
 0076,0.00000955,-0.00000582,0.00000088,-0.00000540,-0.00000347,0.00000
 137,-0.00000435,-0.00000302,0.00000230,0.00000021,0.00000327,0.0000011
 4,0.00000011,0.00000203,-0.00000403,0.00000064,-0.00000166,-0.00002610
 ,0.00000286,-0.00000189,0.00007582,0.00000139,-0.00000113,-0.00373939,
 0.00000035,0.00000298,-0.00419196,-0.00000256,-0.00000244,0.02555853,-
 0.01258143,0.00406892,0.00014396,0.00638046,0.01606939,-0.00015071,0.0
 0856507,-0.02422769,0.00015019,0.00123174,-0.00893459,-0.00014750,0.00
 220638,-0.00363533,0.00005946,-0.00314110,-0.00166002,-0.00008888,-0.1
 1846533,0.00018756,0.00042887,0.00834146,0.02467101,0.00006248,0.00124
 952,0.00871873,0.00002125,-0.01270843,-0.00025951,-0.00009616,0.006235
 74,-0.01546799,0.00006728,-0.01246822,-0.00305664,0.00019495,0.0018171
 1,0.00314734,-0.00013378,-0.00322484,0.00175871,0.00011359,-0.06556456
 ,0.00803835,0.00014286,0.01139815,0.00785718,0.00002231,-0.00191355,0.
 00204795,-0.00003288,0.00754074,0.00257170,-0.00003580,0.00770908,-0.0
 0260614,-0.00005135,-0.00202841,-0.00146926,-0.00005589,0.01101161,-0.
 00805605,-0.00001164,-0.06540943,-0.00810828,0.00002743,-0.21580789,0.
 08615067,0.00008118,0.00002197,0.00005740,0.00001787,0.00010636,-0.000
 43721,0.00001390,-0.00011912,-0.00021938,0.00002142,-0.00020486,-0.000
 02201,0.00001979,-0.00051209,-0.00011277,-0.00000412,-0.00002139,0.000
 11065,-0.00004295,-0.00045810,0.00010279,-0.00002498,0.00018803,-0.000
 16852,0.00003203,0.00009763,0.00005499,-0.00002251,0.00001453,-0.00036
 882,0.00004640,-0.00055495,0.00008507,-0.00000120,0.65015002,-0.006187
 37,-0.00232054,0.00015413,0.01537846,-0.01161785,-0.00009841,-0.035045
 43,-0.02440481,0.00005525,-0.00425287,0.00472509,-0.00012836,-0.000171
 13,0.00171256,0.00001205,0.00103324,-0.00046607,-0.00002885,-0.0000898
 9,-0.23745586,0.00030646,0.03520383,-0.02448164,0.00002499,0.00378013,
 0.00436625,-0.00001013,-0.00002596,-0.00056616,-0.00000962,-0.01529504
 ,-0.01130172,0.00005808,0.00641241,-0.00214181,0.00019373,0.00020613,0
 .00121407,-0.00014734,-0.00083001,-0.00002206,0.00010328,-0.00663037,0
 .02692229,0.00006571,0.01310957,-0.00162736,0.00001979,-0.00359856,0.0
 0719623,-0.00003674,-0.00215910,-0.00586161,-0.00001636,0.00204491,-0.
 00597217,-0.00002698,0.00377056,0.00726802,-0.00004326,-0.01326166,-0.
 00141175,-0.00000606,0.00661902,0.02701254,-0.00002011,0.08240134,-0.1
 7173511,0.00007585,-0.00041084,-0.00000919,0.00001058,-0.00010822,-0.0
 0018130,0.00000954,0.00006328,-0.00016892,0.00000887,-0.00011669,0.000
 01288,0.00000420,-0.00005965,0.00004514,0.00000069,0.00000830,0.000021
 31,-0.00002123,0.00000082,-0.00009789,-0.00001273,0.00008812,0.0000205
 7,0.00001533,-0.00010308,-0.00014159,-0.00001257,0.00040414,0.00019873
 ,0.00002751,0.00018726,-0.00009893,-0.00000114,-0.00015114,0.61861824,
 0.00050849,0.00099058,-0.00107885,0.00021363,-0.00021495,0.00157316,0.
 00028048,0.00020218,-0.00786560,-0.00051334,0.00045044,0.00837502,0.00
 029750,0.00008255,0.00024364,0.00048281,-0.00023392,-0.00016588,-0.000
 93585,0.00050059,-0.04768642,-0.00009600,0.00029738,-0.00817162,-0.000
 79993,-0.00040761,0.00858002,-0.00012401,-0.00022356,-0.00185683,-0.00
 018821,0.00182863,0.00178891,0.00068760,0.00089883,-0.00106350,-0.0001
 0210,-0.00081258,0.00022093,0.00018806,0.00003489,0.00008971,0.0001756
 2,-0.00082392,0.00126192,0.00001567,-0.00058632,0.00567280,0.00016244,
 0.00038249,0.00058049,-0.00027744,0.00008159,-0.00054530,0.00019775,-0
 .00010676,-0.00055731,0.00051122,0.00118802,0.00050074,-0.00114568,-0.
 00009541,0.00564647,0.00032282,0.00008384,0.00113837,0.00064007,-0.000
 59046,-0.05316540,0.00001014,-0.00094101,-0.00019597,0.00104809,-0.000
 63476,-0.00053764,-0.00047192,-0.00032092,0.00021561,-0.00052867,-0.00
 029609,0.00016135,-0.00008890,0.00032131,-0.00010596,0.00002372,0.0002
 2992,-0.00116798,0.00000850,-0.00028408,-0.00013586,0.00037985,-0.0002
 1192,0.00015683,0.00013703,-0.00011770,0.00010542,0.00000451,0.0002492
 5,-0.00014470,-0.00048137,-0.00026330,-0.00055314,-0.00056907,-0.00038
 417,0.13623447,0.01059835,-0.00059100,-0.00006778,-0.01052179,-0.00461
 114,0.00002148,0.00904204,-0.00019624,0.00001795,-0.00119734,0.0033579
 6,0.00004553,-0.00020631,0.00058521,0.00001344,0.00013212,0.00002117,-
 0.00001114,0.00934503,-0.03636446,-0.00008138,-0.02268966,-0.00115108,
 0.00000424,-0.00524703,0.00094066,0.00001693,0.00424140,0.00073954,-0.
 00002979,0.00966209,0.04369331,-0.00002287,0.00962524,0.00096203,-0.00
 008364,-0.00170652,-0.00424288,0.00007114,0.00506978,-0.00036231,-0.00
 004217,-0.21918353,0.06974972,0.00000408,-0.07328304,0.00599597,-0.000
 00406,0.00981416,-0.02105239,0.00001473,-0.00563665,0.00819933,-0.0000
 0149,-0.00570720,0.00431352,-0.00000042,-0.00140065,-0.00168700,0.0000
 1543,-0.00260920,0.00100330,-0.00000162,0.01043364,0.01143992,0.000031
 10,-0.07988239,0.00020678,-0.00003420,0.00002640,-0.00002640,-0.000001
 57,-0.00008857,-0.00008937,-0.00000257,-0.00004074,0.00007294,0.000001
 45,0.00000135,-0.00005555,0.00000484,0.00004532,0.00003866,-0.00000256
 ,0.00002214,-0.00002701,0.00000015,0.00003767,0.00002742,0.00000057,-0
 .00003384,-0.00024674,0.00000014,0.00015732,0.00013804,0.00000181,0.00
 136981,0.00187427,-0.00000487,-0.00047909,0.00025141,0.00000049,-0.216
 20563,-0.08222779,0.00009027,0.62323955,0.00266066,-0.00092860,0.00011
 544,-0.00150193,-0.00219902,-0.00001615,0.00369627,-0.00659121,-0.0000
 5665,-0.00361337,0.00126179,-0.00007458,-0.00054311,0.00108193,-0.0000
 3218,0.00148328,-0.00043481,0.00003633,-0.03109406,-0.02404752,0.00009
 223,0.00242847,0.00549859,-0.00001799,-0.00180718,-0.00441452,-0.00004
 783,0.00405232,-0.00044913,0.00009058,0.02883820,-0.02875076,0.0000317
 8,-0.00221997,-0.00558476,0.00013460,0.00168972,-0.00043257,-0.0001202
 5,-0.00072485,0.00014511,0.00006668,0.08866324,-0.16582414,-0.00003325
 ,-0.00261584,0.01775545,0.00000855,-0.00822181,0.00337100,-0.00002589,
 -0.00093015,-0.00431439,0.00000930,-0.00169152,0.00098938,0.00000402,0
 .00015305,-0.00029693,-0.00001489,-0.00095555,0.00197591,-0.00000182,0
 .00883509,-0.00018515,-0.00005554,-0.00016333,0.02004926,0.00004035,0.
 00001576,-0.00003558,-0.00000050,0.00007265,0.00010101,0.00000165,0.00
 003780,0.00007574,-0.00000682,0.00000645,0.00005485,-0.00001351,-0.000
 14402,-0.00010374,0.00000555,0.00010744,0.00001055,0.00000745,-0.00007
 317,0.00003348,0.00000353,-0.00000846,-0.00046791,-0.00000643,0.000034
 96,0.00008750,0.00000137,-0.00145834,0.00065538,-0.00000057,-0.0011998
 2,0.00073629,-0.00000144,-0.08660521,-0.17151166,-0.00008420,0.0020933
 9,0.69313549,0.00017617,0.00033364,-0.00073673,0.00006844,-0.00005778,
 -0.00114541,0.00010751,0.00011569,0.00577099,-0.00020578,0.00014283,0.
 00002024,0.00010914,0.00005598,0.00022376,0.00016696,-0.00009772,-0.00
 044397,-0.00029525,0.00018590,-0.00092713,-0.00002757,0.00013234,0.003
 24791,-0.00026237,-0.00017019,-0.00110471,-0.00004544,-0.00010559,-0.0
 0040197,-0.00004943,0.00061170,0.00066743,0.00022660,0.00034015,0.0055
 1904,-0.00004784,-0.00030165,-0.00011031,0.00006621,0.00005206,-0.0000
 0475,0.00003709,-0.00026447,-0.05333254,0.00000153,-0.00020391,0.00449
 603,0.00009197,0.00011416,0.00514401,-0.00010776,0.00004188,-0.0008141
 0,0.00006557,-0.00004661,0.00013758,0.00014454,0.00038063,-0.00049130,
 -0.00036421,-0.00001338,0.00026820,0.00011850,0.00003165,0.00571134,0.
 00023230,-0.00022080,0.00517814,0.00000315,-0.00031436,0.00005515,0.00
 035236,-0.00021328,-0.00001693,-0.00015342,-0.00010480,0.00008075,-0.0
 0018142,-0.00009981,0.00005042,-0.00003394,0.00010055,0.00001853,0.000
 00829,0.00006964,0.00012553,0.00000049,-0.00010134,0.00007680,0.000131
 83,-0.00007258,-0.00012902,0.00004276,-0.00003795,-0.00075369,-0.00000
 017,0.00008846,-0.00271638,-0.00017779,-0.00009274,0.00021269,-0.00021
 487,-0.00014779,-0.05341747,0.00003376,-0.00002954,0.11377650,0.000088
 12,0.00010106,0.00002428,0.00010023,-0.00009235,-0.00000877,0.00062249
 ,-0.00137378,-0.00000291,-0.00046180,0.00000464,-0.00001893,0.00003102
 ,0.00000848,-0.00000161,0.00004880,-0.00016061,0.00000160,-0.00484701,
 -0.00115565,0.00003262,-0.00060611,-0.00004901,0.00000003,0.00003124,0
 .00000273,-0.00000858,0.00002092,-0.00000257,0.00001257,-0.00485542,0.
 00127451,0.00000794,0.00064950,0.00143564,0.00002988,-0.00048002,-0.00
 004896,-0.00002558,0.00007297,0.00002140,0.00001622,0.00375003,0.02734
 414,0.00000023,0.00131798,0.00152194,0.00000196,0.00008291,-0.00039283
 ,-0.00000502,0.00003790,0.00007887,0.00000017,-0.00008439,0.00003834,-
 0.00000179,-0.00004950,-0.00005548,-0.00000420,0.00002719,-0.00001369,
 -0.00000139,0.00000347,0.00041997,-0.00000678,0.00129533,-0.00155761,0
 .00000853,-0.00003232,0.00001355,0.00000061,0.00000583,-0.00000056,0.0
 0000075,-0.00000412,0.00000757,-0.00000030,-0.00000845,0.00000465,-0.0
 0000150,-0.00004685,-0.00002601,0.00000076,0.00001807,-0.00000040,-0.0
 0000046,0.00001997,-0.00000124,-0.00000041,0.00000472,0.00015300,0.000
 00022,-0.00002926,-0.00006199,-0.00000062,-0.00031587,-0.00082439,0.00
 000165,-0.00001761,-0.00000220,-0.00000039,0.00354713,-0.02757712,-0.0
 0003709,-0.05801787,-0.00085028,-0.00001258,0.05839431,0.00004145,0.00
 017732,-0.00006693,0.00014947,0.00011149,-0.00000613,0.00061833,-0.000
 70741,0.00006975,-0.00026433,0.00001353,0.00003825,-0.00003082,-0.0000
 3616,0.00002958,0.00009794,-0.00005138,-0.00003717,-0.00285734,0.00108
 837,-0.00001531,-0.00004483,0.00038077,0.00002071,-0.00002182,0.000027
 20,0.00004463,-0.00007027,0.00001996,-0.00008566,0.00269944,0.00122978
 ,-0.00001993,-0.00062147,-0.00072341,-0.00008244,0.00034414,-0.0000027
 7,0.00008363,-0.00002919,-0.00011218,-0.00004305,-0.00196825,-0.012982
 74,0.00004657,-0.00186692,0.00072154,0.00000339,0.00041661,0.00011400,
 0.00001004,-0.00007068,0.00026291,-0.00001301,0.00007084,0.00000340,-0
 .00001330,0.00002903,0.00017308,0.00000724,-0.00012127,-0.00013418,-0.
 00000239,-0.00041231,0.00018000,0.00005227,0.00193708,0.00069862,-0.00
 002598,-0.00001191,-0.00008411,0.00000224,0.00010971,-0.00007273,-0.00
 000003,-0.00007342,-0.00003974,0.00000867,-0.00006467,-0.00003524,0.00
 001403,-0.00002843,0.00001547,-0.00000553,-0.00000531,-0.00000439,-0.0
 0001213,0.00000789,-0.00004847,-0.00000616,0.00005180,-0.00011979,0.00
 000915,0.00005964,0.00002002,-0.00000359,0.00080082,0.00057620,0.00000
 534,0.00001598,-0.00005736,0.00000115,0.00180411,-0.01284828,-0.000007
 53,-0.00090668,-0.33117850,-0.00001124,0.00102198,0.35287780,0.0000169
 2,0.00002034,-0.00004011,-0.00000182,-0.00001310,0.00014922,-0.0000216
 8,-0.00004021,0.00028694,0.00003779,0.00000965,-0.00035651,-0.00002079
 ,-0.00002110,0.00001575,0.00000429,0.00002842,0.00000039,-0.00004792,0
 .00001351,0.00566464,-0.00001048,-0.00001311,-0.00063394,-0.00000355,0
 .00004573,-0.00075561,-0.00000463,0.00003877,0.00012737,-0.00001791,0.
 00005722,0.00512969,0.00001224,-0.00003987,0.00018876,0.00002620,0.000
 04938,-0.00014645,-0.00001037,-0.00007517,0.00007347,0.00003012,-0.000
 05732,0.00307290,0.00000084,-0.00000663,-0.00293995,-0.00003448,0.0000
 0524,-0.00016383,0.00000655,-0.00000644,0.00002956,0.00002108,0.000009
 91,-0.00001194,0.00003837,0.00004746,0.00003340,-0.00004718,-0.0000288
 9,0.00003478,0.00000902,-0.00001312,-0.00016172,-0.00000813,0.00002258
 ,-0.00295740,0.00000103,-0.00002148,0.00001131,0.00002231,-0.00001402,
 -0.00000315,-0.00001805,-0.00001060,0.00000652,-0.00000797,-0.00000930
 ,0.00000837,0.00000601,0.00000796,-0.00004528,-0.00000068,0.00000220,0
 .00007538,0.00000452,0.00000066,0.00003889,0.00000472,-0.00000472,-0.0
 0002085,0.00000277,-0.00000237,0.00003861,0.00000212,0.00001248,0.0002
 3281,0.00000087,-0.00000759,0.00013111,0.00001470,0.00000577,0.0029522
 0,0.00000128,-0.00000674,-0.03130459,-0.00000078,0.00000798,0.02104287
 ,0.00058280,-0.00149985,0.00008789,-0.00487019,-0.00124494,-0.00000220
 ,-0.00059616,0.00009954,-0.00006591,0.00002158,-0.00007346,-0.00005261
 ,-0.00045157,0.00003299,-0.00003256,0.00002516,-0.00000859,0.00003857,
 -0.00472417,0.00109630,0.00004497,0.00062850,0.00139004,-0.00002086,-0
 .00038058,-0.00004103,-0.00004533,0.00003648,-0.00006317,0.00008798,0.
 00013330,-0.00011335,0.00002409,0.00002742,-0.00009691,0.00010468,-0.0
 0001844,-0.00002003,-0.00009838,0.00004820,0.00025258,0.00005181,-0.00
 004948,-0.00027029,-0.00004261,0.00002115,0.00007669,0.00000257,-0.000
 00117,0.00001790,-0.00001785,-0.00006522,-0.00004025,0.00001146,-0.000
 00217,-0.00008399,0.00000971,-0.00002306,0.00025047,-0.00001035,0.0014
 6406,-0.00147701,0.00000101,0.00372770,-0.02730722,-0.00005435,-0.0580
 4881,0.00083280,0.00003232,-0.00031733,0.00091353,-0.00000168,-0.00011
 537,0.00006669,0.00000064,0.00002768,0.00009809,-0.00000805,0.00004882
 ,-0.00011965,-0.00001395,0.00001887,-0.00003575,0.00000557,0.00001701,
 -0.00001293,0.00001048,-0.00004979,0.00004637,0.00000524,-0.00003768,0
 .00001727,-0.00000828,-0.00001867,0.00000391,0.00000289,-0.00003532,-0
 .00005287,-0.00000372,0.00003252,0.00002736,-0.00000113,0.00357661,0.0
 2759039,-0.00002667,0.00127367,0.00155323,-0.00000531,-0.00031355,-0.0
 0080633,-0.00000730,0.05840722,0.00076713,-0.00062225,0.00007942,-0.00
 271132,0.00098481,-0.00004556,0.00009115,0.00045076,0.00004182,-0.0001
 5014,0.00003477,-0.00005492,-0.00026910,0.00005791,-0.00000587,0.00009
 377,-0.00009358,-0.00000685,0.00264911,0.00108964,0.00014590,-0.000621
 22,-0.00061837,0.00000822,0.00017311,-0.00016259,0.00001771,0.00001865
 ,-0.00006436,-0.00002630,-0.00014033,0.00033228,0.00001883,0.00011278,
 0.00024032,0.00008011,-0.00000736,-0.00020335,-0.00004669,-0.00002022,
 0.00003300,0.00003044,0.00043290,0.00014759,0.00003996,-0.00004492,-0.
 00019041,0.00002526,0.00012427,0.00007968,-0.00003102,-0.00007739,0.00
 001110,-0.00001124,0.00006444,0.00023116,-0.00001820,-0.00041872,0.000
 19704,-0.00001757,0.00174716,0.00079359,-0.00000368,0.00203752,-0.0128
 2082,-0.00000293,0.00099477,-0.33128202,0.00003292,-0.00079650,0.00043
 023,0.00000440,0.00007236,-0.00010381,0.00000397,-0.00009377,-0.000001
 03,0.00000631,-0.00007475,-0.00012744,0.00000539,-0.00001908,0.0000171
 1,-0.00000150,0.00000722,0.00000651,-0.00001291,0.00002558,-0.00006235
 ,-0.00000701,0.00006031,-0.00002166,0.00000812,0.00002365,-0.00001264,
 -0.00000598,0.00001211,0.00004148,0.00001220,-0.00005645,-0.00002827,0
 .00000045,-0.00193594,-0.01288965,-0.00018131,-0.00186649,0.00073219,-
 0.00008972,0.00079427,0.00054737,0.00000651,-0.00099854,0.35284610,0.0
 0000917,0.00001231,0.00023461,-0.00000001,-0.00000568,0.00514994,-0.00
 000661,-0.00001303,-0.00063034,0.00001166,0.00000446,-0.00076298,-0.00
 000670,-0.00000663,-0.00019848,0.00000374,0.00000929,0.00010029,-0.000
 02147,0.00000795,0.00569892,-0.00000426,-0.00000304,0.00026677,-0.0000
 0416,0.00001415,-0.00038315,-0.00000291,0.00001369,0.00014803,-0.00000
 718,0.00002928,0.00013230,0.00000750,-0.00001002,-0.00000967,0.0000093
 3,0.00001416,0.00002382,-0.00000332,-0.00002704,0.00000228,0.00001158,
 -0.00002458,-0.00018197,-0.00000001,-0.00000604,0.00003429,-0.00001127
 ,0.00000382,0.00002795,0.00000081,-0.00000192,-0.00001199,0.00000893,0
 .00000270,0.00003163,0.00001587,0.00002292,-0.00017239,-0.00002253,-0.
 00001123,-0.00293769,0.00000453,-0.00000463,0.00307006,0.00000027,0.00
 000516,-0.03133074,0.00000046,-0.00001207,0.00023407,0.00001298,-0.000
 00809,0.00013026,-0.00000873,-0.00000530,0.00003974,-0.00000528,-0.000
 00480,-0.00002045,0.00000185,0.00000435,0.00003879,-0.00000024,0.00000
 174,0.00007636,0.00000171,-0.00000104,-0.00004345,0.00000362,-0.000002
 74,0.00000389,0.00000148,-0.00000135,0.00000381,0.00000076,0.00000576,
 0.00001157,-0.00000208,-0.00000414,-0.00000161,0.00000237,0.00000002,0
 .00291741,0.00000130,-0.00000264,-0.00293002,-0.00000035,0.00000290,0.
 00019641,-0.00000282,0.00000134,0.02104170\\0.00022969,-0.00001802,0.,
 -0.00013406,0.00004119,0.,0.00005213,-0.00009653,0.,-0.00009735,0.0001
 5651,0.,-0.00012359,0.00009268,0.,0.00012664,-0.00005824,0.,0.00002476
 ,0.00006682,0.,-0.00005147,-0.00008015,0.,0.00003484,0.00013687,0.,0.0
 0003466,-0.00010343,0.,0.00009023,0.00004335,0.,-0.00013018,0.00004171
 ,0.,0.00007829,0.00004754,0.,-0.00007882,-0.00004678,0.,-0.00000696,-0
 .00011372,0.,-0.00004885,0.00002391,0.,-0.00000379,0.00000159,0.,-0.00
 000126,-0.00005419,0.,-0.00007010,0.00003568,0.,-0.00000801,-0.0000629
 5,0.,0.00008339,0.00003111,0.,-0.00002119,-0.00010358,0.,0.00003677,0.
 00006839,0.,-0.00001841,-0.00001670,0.,0.00001482,-0.00000152,0.,0.000
 01886,0.00001015,0.,0.00003302,-0.00001517,0.,-0.00002414,0.00001818,0
 .,-0.00000188,0.00002131,0.,0.00002382,0.00001742,0.,-0.00002948,-0.00
 001272,0.,-0.00000869,0.00002342,0.,0.00001655,-0.00001617,0.,-0.00001
 467,-0.00000709,0.,-0.00004412,-0.00011153,0.,0.00003166,0.00007201,0.
 ,-0.00000471,-0.00001525,0.,-0.00000840,-0.00001607,0.\\\@


 THEREFORE SHALL EVIL COME UPON THEE...
 THOU SHALT NOT KNOW FROM WHENCE IT RISETH...
 AND MISCHIEF SHALL FALL UPON THEE...
 THOU SHALT NOT BE ABLE TO PUT IT OFF...
 AND DESOLATION SHALL COME UPON THEE SUDDENLY...
 WHICH THOU SHALT NOT KNOW...

                                         ISAIAH 47.11
 Job cpu time:       2 days 14 hours  3 minutes 30.1 seconds.
 File lengths (MBytes):  RWF=   8671 Int=      0 D2E=      0 Chk=     40 Scr=      1
 Normal termination of Gaussian 09 at Sun Feb  2 04:29:19 2020.
