 Entering Gaussian System, Link 0=/share/apps/gaussian16/g16/g16
 Initial command:
 /share/apps/gaussian16/g16/l1.exe "/home/amen01//scratch/515/Gau-27397.inp" -scrdir="/home/amen01//scratch/515/"
 Entering Link 1 = /share/apps/gaussian16/g16/l1.exe PID=     27398.
  
 Copyright (c) 1988-2017, Gaussian, Inc.  All Rights Reserved.
  
 This is part of the Gaussian(R) 16 program.  It is based on
 the Gaussian(R) 09 system (copyright 2009, Gaussian, Inc.),
 the Gaussian(R) 03 system (copyright 2003, Gaussian, Inc.),
 the Gaussian(R) 98 system (copyright 1998, Gaussian, Inc.),
 the Gaussian(R) 94 system (copyright 1995, Gaussian, Inc.),
 the Gaussian 92(TM) system (copyright 1992, Gaussian, Inc.),
 the Gaussian 90(TM) system (copyright 1990, Gaussian, Inc.),
 the Gaussian 88(TM) system (copyright 1988, Gaussian, Inc.),
 the Gaussian 86(TM) system (copyright 1986, Carnegie Mellon
 University), and the Gaussian 82(TM) system (copyright 1983,
 Carnegie Mellon University). Gaussian is a federally registered
 trademark of Gaussian, Inc.
  
 This software contains proprietary and confidential information,
 including trade secrets, belonging to Gaussian, Inc.
  
 This software is provided under written license and may be
 used, copied, transmitted, or stored only in accord with that
 written license.
  
 The following legend is applicable only to US Government
 contracts under FAR:
  
                    RESTRICTED RIGHTS LEGEND
  
 Use, reproduction and disclosure by the US Government is
 subject to restrictions as set forth in subparagraphs (a)
 and (c) of the Commercial Computer Software - Restricted
 Rights clause in FAR 52.227-19.
  
 Gaussian, Inc.
 340 Quinnipiac St., Bldg. 40, Wallingford CT 06492
  
  
 ---------------------------------------------------------------
 Warning -- This program may not be used in any manner that
 competes with the business of Gaussian, Inc. or will provide
 assistance to any competitor of Gaussian, Inc.  The licensee
 of this program is prohibited from giving any competitor of
 Gaussian, Inc. access to this program.  By using this program,
 the user acknowledges that Gaussian, Inc. is engaged in the
 business of creating and licensing software in the field of
 computational chemistry and represents and warrants to the
 licensee that it is not a competitor of Gaussian, Inc. and that
 it will not use this program in any manner prohibited above.
 ---------------------------------------------------------------
  

 Cite this work as:
 Gaussian 16, Revision B.01,
 M. J. Frisch, G. W. Trucks, H. B. Schlegel, G. E. Scuseria, 
 M. A. Robb, J. R. Cheeseman, G. Scalmani, V. Barone, 
 G. A. Petersson, H. Nakatsuji, X. Li, M. Caricato, A. V. Marenich, 
 J. Bloino, B. G. Janesko, R. Gomperts, B. Mennucci, H. P. Hratchian, 
 J. V. Ortiz, A. F. Izmaylov, J. L. Sonnenberg, D. Williams-Young, 
 F. Ding, F. Lipparini, F. Egidi, J. Goings, B. Peng, A. Petrone, 
 T. Henderson, D. Ranasinghe, V. G. Zakrzewski, J. Gao, N. Rega, 
 G. Zheng, W. Liang, M. Hada, M. Ehara, K. Toyota, R. Fukuda, 
 J. Hasegawa, M. Ishida, T. Nakajima, Y. Honda, O. Kitao, H. Nakai, 
 T. Vreven, K. Throssell, J. A. Montgomery, Jr., J. E. Peralta, 
 F. Ogliaro, M. J. Bearpark, J. J. Heyd, E. N. Brothers, K. N. Kudin, 
 V. N. Staroverov, T. A. Keith, R. Kobayashi, J. Normand, 
 K. Raghavachari, A. P. Rendell, J. C. Burant, S. S. Iyengar, 
 J. Tomasi, M. Cossi, J. M. Millam, M. Klene, C. Adamo, R. Cammi, 
 J. W. Ochterski, R. L. Martin, K. Morokuma, O. Farkas, 
 J. B. Foresman, and D. J. Fox, Gaussian, Inc., Wallingford CT, 2016.
 
 ******************************************
 Gaussian 16:  ES64L-G16RevB.01 20-Dec-2017
                14-Jun-2019 
 ******************************************
 %nprocshared=20
 Will use up to   20 processors via shared memory.
 %mem=100GB
 %chk=7-HACAsite2-5.chk
 -------------------------------------------
 # opt freq b3lyp/6-311+g(d,p) int=grid=fine
 -------------------------------------------
 1/18=20,19=15,26=3,38=1/1,3;
 2/9=110,12=2,17=6,18=5,40=1/2;
 3/5=4,6=6,7=111,11=2,25=1,30=1,71=1,74=-5,75=-4/1,2,3;
 4//1;
 5/5=2,38=5/2;
 6/7=2,8=2,9=2,10=2,28=1/1;
 7//1,2,3,16;
 1/18=20,19=15,26=3/3(2);
 2/9=110/2;
 99//99;
 2/9=110/2;
 3/5=4,6=6,7=111,11=2,25=1,30=1,71=1,74=-5,75=-4/1,2,3;
 4/5=5,16=3,69=1/1;
 5/5=2,38=5/2;
 7//1,2,3,16;
 1/18=20,19=15,26=3/3(-5);
 2/9=110/2;
 6/7=2,8=2,9=2,10=2,19=2,28=1/1;
 99/9=1/99;
 -------------
 7-HACAsite2-5
 -------------
 Symbolic Z-matrix:
 Charge =  0 Multiplicity = 2
 C                    -8.84535  -0.49109   0.02375 
 C                    -7.62611   0.26932  -0.04581 
 C                    -6.43219  -0.30557  -0.01073 
 C                    -6.27867  -1.72272   0.09877 
 C                    -8.72756  -1.95623   0.13736 
 C                    -7.4997   -2.54508   0.17323 
 C                    -5.44932   0.7398   -0.10067 
 C                    -4.1524    0.38495  -0.08385 
 C                    -3.88531  -1.11697   0.03134 
 C                    -4.9942   -2.12257   0.1193 
 C                    -3.00426   1.34833  -0.16903 
 C                    -1.70113   0.75645  -0.13397 
 C                    -1.48765  -0.69962  -0.02177 
 C                    -2.50272  -1.56624   0.05476 
 C                    -3.09449   2.76218  -0.27886 
 C                    -1.89423   3.51363  -0.3481 
 C                    -0.63771   2.91955  -0.31254 
 C                    -0.54219   1.5443   -0.2057 
 C                    -9.96792   0.25994  -0.02569 
 C                    -9.90585   1.74082  -0.14199 
 C                    -8.74499   2.44375  -0.20655 
 C                    -7.49709   1.7052   -0.15916 
 C                    -6.17187   2.01269  -0.19419 
 H                    -8.73453   3.52288  -0.29102 
 H                    -10.85939   2.2606   -0.17474 
 H                    -10.95381  -0.19106   0.01774 
 H                    -9.63488  -2.54747   0.19112 
 H                    -7.39671  -3.6213    0.25654 
 H                    -4.72848  -3.17057   0.199 
 H                    -2.30628  -2.63036   0.13642 
 H                    -0.46688  -1.06848  -0.00159 
 H                     0.44485   1.0885   -0.17859 
 H                    -1.92438   4.59957  -0.43283 
 H                     0.25902   3.53039  -0.36816 
 C                    -5.61014   3.32018  -0.30088 
 C                    -4.30563   3.61736  -0.33514 
 H                    -6.31718   4.14471  -0.35907 
 H                    -4.09545   4.68434  -0.42003 
 

 GradGradGradGradGradGradGradGradGradGradGradGradGradGradGradGradGradGrad
 Berny optimization.
 Initialization pass.
                           ----------------------------
                           !    Initial Parameters    !
                           ! (Angstroms and Degrees)  !
 --------------------------                            --------------------------
 ! Name  Definition              Value          Derivative Info.                !
 --------------------------------------------------------------------------------
 ! R1    R(1,2)                  1.4386         estimate D2E/DX2                !
 ! R2    R(1,5)                  1.4743         estimate D2E/DX2                !
 ! R3    R(1,19)                 1.3515         estimate D2E/DX2                !
 ! R4    R(2,3)                  1.3256         estimate D2E/DX2                !
 ! R5    R(2,22)                 1.4461         estimate D2E/DX2                !
 ! R6    R(3,4)                  1.4296         estimate D2E/DX2                !
 ! R7    R(3,7)                  1.4377         estimate D2E/DX2                !
 ! R8    R(4,6)                  1.474          estimate D2E/DX2                !
 ! R9    R(4,10)                 1.3454         estimate D2E/DX2                !
 ! R10   R(5,6)                  1.3622         estimate D2E/DX2                !
 ! R11   R(5,27)                 1.0843         estimate D2E/DX2                !
 ! R12   R(6,28)                 1.0843         estimate D2E/DX2                !
 ! R13   R(7,8)                  1.3447         estimate D2E/DX2                !
 ! R14   R(7,23)                 1.4667         estimate D2E/DX2                !
 ! R15   R(8,9)                  1.5298         estimate D2E/DX2                !
 ! R16   R(8,11)                 1.5012         estimate D2E/DX2                !
 ! R17   R(9,10)                 1.4995         estimate D2E/DX2                !
 ! R18   R(9,14)                 1.4539         estimate D2E/DX2                !
 ! R19   R(10,29)                1.0841         estimate D2E/DX2                !
 ! R20   R(11,12)                1.4317         estimate D2E/DX2                !
 ! R21   R(11,15)                1.421          estimate D2E/DX2                !
 ! R22   R(12,13)                1.4759         estimate D2E/DX2                !
 ! R23   R(12,18)                1.4032         estimate D2E/DX2                !
 ! R24   R(13,14)                1.3369         estimate D2E/DX2                !
 ! R25   R(13,31)                1.0856         estimate D2E/DX2                !
 ! R26   R(14,30)                1.0852         estimate D2E/DX2                !
 ! R27   R(15,16)                1.4178         estimate D2E/DX2                !
 ! R28   R(15,36)                1.4837         estimate D2E/DX2                !
 ! R29   R(16,17)                1.3903         estimate D2E/DX2                !
 ! R30   R(16,33)                1.0897         estimate D2E/DX2                !
 ! R31   R(17,18)                1.3827         estimate D2E/DX2                !
 ! R32   R(17,34)                1.0864         estimate D2E/DX2                !
 ! R33   R(18,32)                1.0875         estimate D2E/DX2                !
 ! R34   R(19,20)                1.4867         estimate D2E/DX2                !
 ! R35   R(19,26)                1.085          estimate D2E/DX2                !
 ! R36   R(20,21)                1.3586         estimate D2E/DX2                !
 ! R37   R(20,25)                1.0865         estimate D2E/DX2                !
 ! R38   R(21,22)                1.4508         estimate D2E/DX2                !
 ! R39   R(21,24)                1.0825         estimate D2E/DX2                !
 ! R40   R(22,23)                1.3609         estimate D2E/DX2                !
 ! R41   R(23,35)                1.427          estimate D2E/DX2                !
 ! R42   R(35,36)                1.3384         estimate D2E/DX2                !
 ! R43   R(35,37)                1.0877         estimate D2E/DX2                !
 ! R44   R(36,38)                1.0908         estimate D2E/DX2                !
 ! A1    A(2,1,5)              117.4721         estimate D2E/DX2                !
 ! A2    A(2,1,19)             114.1071         estimate D2E/DX2                !
 ! A3    A(5,1,19)             128.4208         estimate D2E/DX2                !
 ! A4    A(1,2,3)              122.1959         estimate D2E/DX2                !
 ! A5    A(1,2,22)             127.1738         estimate D2E/DX2                !
 ! A6    A(3,2,22)             110.6303         estimate D2E/DX2                !
 ! A7    A(2,3,4)              121.9138         estimate D2E/DX2                !
 ! A8    A(2,3,7)              107.3823         estimate D2E/DX2                !
 ! A9    A(4,3,7)              130.7038         estimate D2E/DX2                !
 ! A10   A(3,4,6)              117.901          estimate D2E/DX2                !
 ! A11   A(3,4,10)             113.4709         estimate D2E/DX2                !
 ! A12   A(6,4,10)             128.6281         estimate D2E/DX2                !
 ! A13   A(1,5,6)              120.2414         estimate D2E/DX2                !
 ! A14   A(1,5,27)             118.6117         estimate D2E/DX2                !
 ! A15   A(6,5,27)             121.1469         estimate D2E/DX2                !
 ! A16   A(4,6,5)              120.2758         estimate D2E/DX2                !
 ! A17   A(4,6,28)             118.6154         estimate D2E/DX2                !
 ! A18   A(5,6,28)             121.1088         estimate D2E/DX2                !
 ! A19   A(3,7,8)              117.8203         estimate D2E/DX2                !
 ! A20   A(3,7,23)             107.3524         estimate D2E/DX2                !
 ! A21   A(8,7,23)             134.8273         estimate D2E/DX2                !
 ! A22   A(7,8,9)              115.3662         estimate D2E/DX2                !
 ! A23   A(7,8,11)             124.5821         estimate D2E/DX2                !
 ! A24   A(9,8,11)             120.0516         estimate D2E/DX2                !
 ! A25   A(8,9,10)             122.2548         estimate D2E/DX2                !
 ! A26   A(8,9,14)             118.0731         estimate D2E/DX2                !
 ! A27   A(10,9,14)            119.6721         estimate D2E/DX2                !
 ! A28   A(4,10,9)             120.384          estimate D2E/DX2                !
 ! A29   A(4,10,29)            121.4949         estimate D2E/DX2                !
 ! A30   A(9,10,29)            118.1212         estimate D2E/DX2                !
 ! A31   A(8,11,12)            115.4326         estimate D2E/DX2                !
 ! A32   A(8,11,15)            126.4659         estimate D2E/DX2                !
 ! A33   A(12,11,15)           118.1014         estimate D2E/DX2                !
 ! A34   A(11,12,13)           122.7775         estimate D2E/DX2                !
 ! A35   A(11,12,18)           121.2245         estimate D2E/DX2                !
 ! A36   A(13,12,18)           115.9979         estimate D2E/DX2                !
 ! A37   A(12,13,14)           122.2798         estimate D2E/DX2                !
 ! A38   A(12,13,31)           118.2061         estimate D2E/DX2                !
 ! A39   A(14,13,31)           119.5141         estimate D2E/DX2                !
 ! A40   A(9,14,13)            121.3853         estimate D2E/DX2                !
 ! A41   A(9,14,30)            118.4476         estimate D2E/DX2                !
 ! A42   A(13,14,30)           120.1671         estimate D2E/DX2                !
 ! A43   A(11,15,16)           118.5144         estimate D2E/DX2                !
 ! A44   A(11,15,36)           128.9218         estimate D2E/DX2                !
 ! A45   A(16,15,36)           112.5639         estimate D2E/DX2                !
 ! A46   A(15,16,17)           122.5051         estimate D2E/DX2                !
 ! A47   A(15,16,33)           120.5696         estimate D2E/DX2                !
 ! A48   A(17,16,33)           116.9253         estimate D2E/DX2                !
 ! A49   A(16,17,18)           119.3012         estimate D2E/DX2                !
 ! A50   A(16,17,34)           120.2911         estimate D2E/DX2                !
 ! A51   A(18,17,34)           120.4077         estimate D2E/DX2                !
 ! A52   A(12,18,17)           120.3534         estimate D2E/DX2                !
 ! A53   A(12,18,32)           120.8645         estimate D2E/DX2                !
 ! A54   A(17,18,32)           118.7821         estimate D2E/DX2                !
 ! A55   A(1,19,20)            121.4451         estimate D2E/DX2                !
 ! A56   A(1,19,26)            121.4841         estimate D2E/DX2                !
 ! A57   A(20,19,26)           117.0707         estimate D2E/DX2                !
 ! A58   A(19,20,21)           123.6923         estimate D2E/DX2                !
 ! A59   A(19,20,25)           116.2464         estimate D2E/DX2                !
 ! A60   A(21,20,25)           120.0613         estimate D2E/DX2                !
 ! A61   A(20,21,22)           118.0337         estimate D2E/DX2                !
 ! A62   A(20,21,24)           121.8532         estimate D2E/DX2                !
 ! A63   A(22,21,24)           120.1131         estimate D2E/DX2                !
 ! A64   A(2,22,21)            115.548          estimate D2E/DX2                !
 ! A65   A(2,22,23)            108.2552         estimate D2E/DX2                !
 ! A66   A(21,22,23)           136.1969         estimate D2E/DX2                !
 ! A67   A(7,23,22)            106.3798         estimate D2E/DX2                !
 ! A68   A(7,23,35)            127.3024         estimate D2E/DX2                !
 ! A69   A(22,23,35)           126.3178         estimate D2E/DX2                !
 ! A70   A(23,35,36)           126.0883         estimate D2E/DX2                !
 ! A71   A(23,35,37)           116.2736         estimate D2E/DX2                !
 ! A72   A(36,35,37)           117.6381         estimate D2E/DX2                !
 ! A73   A(15,36,35)           131.8122         estimate D2E/DX2                !
 ! A74   A(15,36,38)           114.1712         estimate D2E/DX2                !
 ! A75   A(35,36,38)           114.0166         estimate D2E/DX2                !
 ! D1    D(5,1,2,3)              0.0            estimate D2E/DX2                !
 ! D2    D(5,1,2,22)          -179.9993         estimate D2E/DX2                !
 ! D3    D(19,1,2,3)           179.9997         estimate D2E/DX2                !
 ! D4    D(19,1,2,22)            0.0004         estimate D2E/DX2                !
 ! D5    D(2,1,5,6)             -0.001          estimate D2E/DX2                !
 ! D6    D(2,1,5,27)           179.9993         estimate D2E/DX2                !
 ! D7    D(19,1,5,6)           179.9993         estimate D2E/DX2                !
 ! D8    D(19,1,5,27)           -0.0004         estimate D2E/DX2                !
 ! D9    D(2,1,19,20)           -0.0011         estimate D2E/DX2                !
 ! D10   D(2,1,19,26)          179.9999         estimate D2E/DX2                !
 ! D11   D(5,1,19,20)          179.9986         estimate D2E/DX2                !
 ! D12   D(5,1,19,26)           -0.0004         estimate D2E/DX2                !
 ! D13   D(1,2,3,4)              0.0029         estimate D2E/DX2                !
 ! D14   D(1,2,3,7)            179.9979         estimate D2E/DX2                !
 ! D15   D(22,2,3,4)          -179.9977         estimate D2E/DX2                !
 ! D16   D(22,2,3,7)            -0.0027         estimate D2E/DX2                !
 ! D17   D(1,2,22,21)            0.0012         estimate D2E/DX2                !
 ! D18   D(1,2,22,23)         -179.9996         estimate D2E/DX2                !
 ! D19   D(3,2,22,21)         -179.9982         estimate D2E/DX2                !
 ! D20   D(3,2,22,23)            0.001          estimate D2E/DX2                !
 ! D21   D(2,3,4,6)             -0.0046         estimate D2E/DX2                !
 ! D22   D(2,3,4,10)           179.9944         estimate D2E/DX2                !
 ! D23   D(7,3,4,6)           -179.9983         estimate D2E/DX2                !
 ! D24   D(7,3,4,10)             0.0006         estimate D2E/DX2                !
 ! D25   D(2,3,7,8)           -179.9909         estimate D2E/DX2                !
 ! D26   D(2,3,7,23)             0.0033         estimate D2E/DX2                !
 ! D27   D(4,3,7,8)              0.0036         estimate D2E/DX2                !
 ! D28   D(4,3,7,23)           179.9977         estimate D2E/DX2                !
 ! D29   D(3,4,6,5)              0.0035         estimate D2E/DX2                !
 ! D30   D(3,4,6,28)          -179.9976         estimate D2E/DX2                !
 ! D31   D(10,4,6,5)          -179.9953         estimate D2E/DX2                !
 ! D32   D(10,4,6,28)            0.0036         estimate D2E/DX2                !
 ! D33   D(3,4,10,9)            -0.0039         estimate D2E/DX2                !
 ! D34   D(3,4,10,29)         -179.9997         estimate D2E/DX2                !
 ! D35   D(6,4,10,9)           179.9949         estimate D2E/DX2                !
 ! D36   D(6,4,10,29)           -0.0008         estimate D2E/DX2                !
 ! D37   D(1,5,6,4)             -0.0008         estimate D2E/DX2                !
 ! D38   D(1,5,6,28)          -179.9996         estimate D2E/DX2                !
 ! D39   D(27,5,6,4)           179.9989         estimate D2E/DX2                !
 ! D40   D(27,5,6,28)            0.0            estimate D2E/DX2                !
 ! D41   D(3,7,8,9)             -0.0037         estimate D2E/DX2                !
 ! D42   D(3,7,8,11)           179.9882         estimate D2E/DX2                !
 ! D43   D(23,7,8,9)          -179.9958         estimate D2E/DX2                !
 ! D44   D(23,7,8,11)           -0.004          estimate D2E/DX2                !
 ! D45   D(3,7,23,22)           -0.0026         estimate D2E/DX2                !
 ! D46   D(3,7,23,35)          179.988          estimate D2E/DX2                !
 ! D47   D(8,7,23,22)          179.9901         estimate D2E/DX2                !
 ! D48   D(8,7,23,35)           -0.0193         estimate D2E/DX2                !
 ! D49   D(7,8,9,10)             0.0006         estimate D2E/DX2                !
 ! D50   D(7,8,9,14)           179.9973         estimate D2E/DX2                !
 ! D51   D(11,8,9,10)         -179.9916         estimate D2E/DX2                !
 ! D52   D(11,8,9,14)            0.005          estimate D2E/DX2                !
 ! D53   D(7,8,11,12)         -179.9879         estimate D2E/DX2                !
 ! D54   D(7,8,11,15)            0.0078         estimate D2E/DX2                !
 ! D55   D(9,8,11,12)            0.0036         estimate D2E/DX2                !
 ! D56   D(9,8,11,15)          179.9993         estimate D2E/DX2                !
 ! D57   D(8,9,10,4)             0.0036         estimate D2E/DX2                !
 ! D58   D(8,9,10,29)          179.9995         estimate D2E/DX2                !
 ! D59   D(14,9,10,4)         -179.993          estimate D2E/DX2                !
 ! D60   D(14,9,10,29)           0.0029         estimate D2E/DX2                !
 ! D61   D(8,9,14,13)           -0.0079         estimate D2E/DX2                !
 ! D62   D(8,9,14,30)          179.9935         estimate D2E/DX2                !
 ! D63   D(10,9,14,13)         179.9888         estimate D2E/DX2                !
 ! D64   D(10,9,14,30)          -0.0097         estimate D2E/DX2                !
 ! D65   D(8,11,12,13)          -0.01           estimate D2E/DX2                !
 ! D66   D(8,11,12,18)         179.9915         estimate D2E/DX2                !
 ! D67   D(15,11,12,13)        179.994          estimate D2E/DX2                !
 ! D68   D(15,11,12,18)         -0.0045         estimate D2E/DX2                !
 ! D69   D(8,11,15,16)        -179.9911         estimate D2E/DX2                !
 ! D70   D(8,11,15,36)           0.013          estimate D2E/DX2                !
 ! D71   D(12,11,15,16)          0.0044         estimate D2E/DX2                !
 ! D72   D(12,11,15,36)       -179.9915         estimate D2E/DX2                !
 ! D73   D(11,12,13,14)          0.0078         estimate D2E/DX2                !
 ! D74   D(11,12,13,31)       -179.9916         estimate D2E/DX2                !
 ! D75   D(18,12,13,14)       -179.9937         estimate D2E/DX2                !
 ! D76   D(18,12,13,31)          0.0069         estimate D2E/DX2                !
 ! D77   D(11,12,18,17)          0.001          estimate D2E/DX2                !
 ! D78   D(11,12,18,32)       -179.998          estimate D2E/DX2                !
 ! D79   D(13,12,18,17)       -179.9976         estimate D2E/DX2                !
 ! D80   D(13,12,18,32)          0.0034         estimate D2E/DX2                !
 ! D81   D(12,13,14,9)           0.002          estimate D2E/DX2                !
 ! D82   D(12,13,14,30)       -179.9995         estimate D2E/DX2                !
 ! D83   D(31,13,14,9)        -179.9987         estimate D2E/DX2                !
 ! D84   D(31,13,14,30)         -0.0002         estimate D2E/DX2                !
 ! D85   D(11,15,16,17)         -0.0009         estimate D2E/DX2                !
 ! D86   D(11,15,16,33)        179.9981         estimate D2E/DX2                !
 ! D87   D(36,15,16,17)        179.9956         estimate D2E/DX2                !
 ! D88   D(36,15,16,33)         -0.0054         estimate D2E/DX2                !
 ! D89   D(11,15,36,35)         -0.0253         estimate D2E/DX2                !
 ! D90   D(11,15,36,38)        179.9749         estimate D2E/DX2                !
 ! D91   D(16,15,36,35)        179.9786         estimate D2E/DX2                !
 ! D92   D(16,15,36,38)         -0.0212         estimate D2E/DX2                !
 ! D93   D(15,16,17,18)         -0.0026         estimate D2E/DX2                !
 ! D94   D(15,16,17,34)        179.9986         estimate D2E/DX2                !
 ! D95   D(33,16,17,18)        179.9983         estimate D2E/DX2                !
 ! D96   D(33,16,17,34)         -0.0004         estimate D2E/DX2                !
 ! D97   D(16,17,18,12)          0.0026         estimate D2E/DX2                !
 ! D98   D(16,17,18,32)       -179.9984         estimate D2E/DX2                !
 ! D99   D(34,17,18,12)       -179.9987         estimate D2E/DX2                !
 ! D100  D(34,17,18,32)          0.0004         estimate D2E/DX2                !
 ! D101  D(1,19,20,21)           0.0001         estimate D2E/DX2                !
 ! D102  D(1,19,20,25)        -179.9996         estimate D2E/DX2                !
 ! D103  D(26,19,20,21)        179.9991         estimate D2E/DX2                !
 ! D104  D(26,19,20,25)         -0.0006         estimate D2E/DX2                !
 ! D105  D(19,20,21,22)          0.0016         estimate D2E/DX2                !
 ! D106  D(19,20,21,24)        179.9995         estimate D2E/DX2                !
 ! D107  D(25,20,21,22)       -179.9987         estimate D2E/DX2                !
 ! D108  D(25,20,21,24)         -0.0009         estimate D2E/DX2                !
 ! D109  D(20,21,22,2)          -0.0021         estimate D2E/DX2                !
 ! D110  D(20,21,22,23)        179.9989         estimate D2E/DX2                !
 ! D111  D(24,21,22,2)        -180.0            estimate D2E/DX2                !
 ! D112  D(24,21,22,23)          0.0011         estimate D2E/DX2                !
 ! D113  D(2,22,23,7)            0.001          estimate D2E/DX2                !
 ! D114  D(2,22,23,35)        -179.9897         estimate D2E/DX2                !
 ! D115  D(21,22,23,7)        -179.9999         estimate D2E/DX2                !
 ! D116  D(21,22,23,35)          0.0093         estimate D2E/DX2                !
 ! D117  D(7,23,35,36)           0.0221         estimate D2E/DX2                !
 ! D118  D(7,23,35,37)        -179.9742         estimate D2E/DX2                !
 ! D119  D(22,23,35,36)       -179.9891         estimate D2E/DX2                !
 ! D120  D(22,23,35,37)          0.0146         estimate D2E/DX2                !
 ! D121  D(23,35,36,15)          0.0038         estimate D2E/DX2                !
 ! D122  D(23,35,36,38)       -179.9964         estimate D2E/DX2                !
 ! D123  D(37,35,36,15)       -179.9999         estimate D2E/DX2                !
 ! D124  D(37,35,36,38)         -0.0001         estimate D2E/DX2                !
 --------------------------------------------------------------------------------
 Trust Radius=3.00D-01 FncErr=1.00D-07 GrdErr=1.00D-06 EigMax=2.50D+02 EigMin=1.00D-04
 Number of steps in this run=    228 maximum allowed number of steps=    228.
 GradGradGradGradGradGradGradGradGradGradGradGradGradGradGradGradGradGrad

                          Input orientation:                          
 ---------------------------------------------------------------------
 Center     Atomic      Atomic             Coordinates (Angstroms)
 Number     Number       Type             X           Y           Z
 ---------------------------------------------------------------------
      1          6           0       -8.845350   -0.491090    0.023750
      2          6           0       -7.626110    0.269320   -0.045810
      3          6           0       -6.432190   -0.305570   -0.010730
      4          6           0       -6.278670   -1.722720    0.098770
      5          6           0       -8.727560   -1.956230    0.137360
      6          6           0       -7.499700   -2.545080    0.173230
      7          6           0       -5.449320    0.739800   -0.100670
      8          6           0       -4.152400    0.384950   -0.083850
      9          6           0       -3.885310   -1.116970    0.031340
     10          6           0       -4.994200   -2.122570    0.119300
     11          6           0       -3.004260    1.348330   -0.169030
     12          6           0       -1.701130    0.756450   -0.133970
     13          6           0       -1.487650   -0.699620   -0.021770
     14          6           0       -2.502720   -1.566240    0.054760
     15          6           0       -3.094490    2.762180   -0.278860
     16          6           0       -1.894230    3.513630   -0.348100
     17          6           0       -0.637710    2.919550   -0.312540
     18          6           0       -0.542190    1.544300   -0.205700
     19          6           0       -9.967920    0.259940   -0.025690
     20          6           0       -9.905850    1.740820   -0.141990
     21          6           0       -8.744990    2.443750   -0.206550
     22          6           0       -7.497090    1.705200   -0.159160
     23          6           0       -6.171870    2.012690   -0.194190
     24          1           0       -8.734530    3.522880   -0.291020
     25          1           0      -10.859390    2.260600   -0.174740
     26          1           0      -10.953810   -0.191060    0.017740
     27          1           0       -9.634880   -2.547470    0.191120
     28          1           0       -7.396710   -3.621300    0.256540
     29          1           0       -4.728480   -3.170570    0.199000
     30          1           0       -2.306280   -2.630360    0.136420
     31          1           0       -0.466880   -1.068480   -0.001590
     32          1           0        0.444850    1.088500   -0.178590
     33          1           0       -1.924380    4.599570   -0.432830
     34          1           0        0.259020    3.530390   -0.368160
     35          6           0       -5.610140    3.320180   -0.300880
     36          6           0       -4.305630    3.617360   -0.335140
     37          1           0       -6.317180    4.144710   -0.359070
     38          1           0       -4.095450    4.684340   -0.420030
 ---------------------------------------------------------------------
                    Distance matrix (angstroms):
                    1          2          3          4          5
     1  C    0.000000
     2  C    1.438613   0.000000
     3  C    2.420526   1.325584   0.000000
     4  C    2.847874   2.409299   1.429641   0.000000
     5  C    1.474251   2.489943   2.831136   2.460300   0.000000
     6  C    2.460080   2.825740   2.487735   1.474020   1.362230
     7  C    3.614359   2.227729   1.437679   2.606070   4.251129
     8  C    4.775228   3.475842   2.383193   2.999441   5.144137
     9  C    4.999378   3.990155   2.673338   2.469747   4.915586
    10  C    4.183565   3.560246   2.320821   1.345424   3.737107
    11  C    6.126905   4.747730   3.809350   4.497202   6.615902
    12  C    7.254041   5.945625   4.850361   5.210981   7.536775
    13  C    7.360795   6.214508   4.960229   4.900524   7.349877
    14  C    6.433185   5.443209   4.127265   3.779447   6.237592
    15  C    6.614207   5.177281   4.541280   5.513251   7.359899
    16  C    8.030823   6.593283   5.940807   6.844148   8.766381
    17  C    8.894431   7.478810   6.638410   7.317122   9.456284
    18  C    8.552071   7.199518   6.176741   6.608580   8.909079
    19  C    1.351538   2.341915   3.580700   4.190107   2.544894
    20  C    2.476601   2.715102   4.033764   5.021007   3.890319
    21  C    2.945572   2.450689   3.598076   4.851332   4.413434
    22  C    2.583593   1.446114   2.280184   3.647151   3.874022
    23  C    3.669320   2.275120   2.340033   3.748402   4.732209
    24  H    4.027818   3.445922   4.476199   5.805127   5.495835
    25  H    3.415780   3.799463   5.119788   6.076565   4.735373
    26  H    2.129708   3.359996   4.523159   4.920313   2.843646
    27  H    2.209088   3.467794   3.914599   3.457295   1.084290
    28  H    3.457017   3.909087   3.463495   2.208961   2.134906
    29  H    4.915175   4.504335   3.339886   2.123536   4.179840
    30  H    6.881032   6.061513   4.738083   4.074937   6.456569
    31  H    8.398380   7.283285   6.013904   5.849359   8.309407
    32  H    9.425702   8.113512   7.018924   7.292846   9.669711
    33  H    8.603668   7.170117   6.675247   7.695050   9.465035
    34  H    9.960695   8.538956   7.721052   8.399677  10.541213
    35  C    5.009765   3.665644   3.729077   5.102695   6.144173
    36  C    6.133288   4.724264   4.474023   5.709432   7.130331
    37  H    5.294227   4.102448   4.465373   5.885392   6.578590
    38  H    7.038719   5.665510   5.525132   6.788669   8.115682
                    6          7          8          9         10
     6  C    0.000000
     7  C    3.881947   0.000000
     8  C    4.455960   1.344694   0.000000
     9  C    3.888888   2.431285   1.529827   0.000000
    10  C    2.541447   2.906662   2.652839   1.499535   0.000000
    11  C    5.956909   2.520575   1.501194   2.625662   4.011252
    12  C    6.679662   3.748375   2.479768   2.882303   4.381462
    13  C    6.291939   4.215802   2.877679   2.434292   3.786896
    14  C    5.093326   3.744921   2.558867   1.453942   2.553652
    15  C    6.912110   3.109179   2.609296   3.971074   5.256255
    16  C    8.270492   4.515974   3.867531   5.054783   6.449421
    17  C    8.785503   5.286567   4.339302   5.192172   6.677459
    18  C    8.079206   4.973749   3.793752   4.279602   5.776846
    19  C    3.741633   4.544627   5.817154   6.236768   5.516817
    20  C    4.925227   4.567757   5.911341   6.666626   6.254467
    21  C    5.155910   3.711616   5.034441   6.029246   5.918267
    22  C    4.263258   2.264681   3.596621   4.587580   4.581902
    23  C    4.761449   1.466654   2.596146   3.882524   4.311097
    24  H    6.209708   4.309800   5.557467   6.719156   6.784507
    25  H    5.873939   5.620247   6.964915   7.751660   7.327966
    26  H    4.182877   5.583899   6.826513   7.128898   6.265620
    27  H    2.135256   5.330122   6.223527   5.927007   4.660645
    28  H    1.084342   4.789480   5.166377   4.318832   2.834975
    29  H    2.841049   3.987531   3.612976   2.226279   1.084096
    30  H    5.194251   4.614422   3.542425   2.189686   2.735518
    31  H    7.188287   5.301358   3.962611   3.418932   4.649983
    32  H    8.743143   5.904990   4.651738   4.863996   6.323209
    33  H    9.082815   5.237686   4.780050   6.061314   7.410520
    34  H    9.869254   6.359567   5.425426   6.239634   7.732393
    35  C    6.180331   2.593127   3.284461   4.772181   5.493584
    36  C    6.959611   3.105375   3.245782   4.767060   5.798917
    37  H    6.814322   3.523260   4.347162   5.809620   6.423232
    38  H    8.012827   4.182625   4.312889   5.822636   6.887137
                   11         12         13         14         15
    11  C    0.000000
    12  C    1.431677   0.000000
    13  C    2.552624   1.475907   0.000000
    14  C    2.965863   2.464357   1.336882   0.000000
    15  C    1.420977   2.446507   3.825191   4.381405   0.000000
    16  C    2.439827   2.772216   4.245383   5.132021   1.417778
    17  C    2.844273   2.416971   3.728986   4.871908   2.462045
    18  C    2.470129   1.403209   2.441905   3.686052   2.828925
    19  C    7.049660   8.282395   8.534386   7.685741   7.319108
    20  C    6.912794   8.263563   8.765631   8.110591   6.888870
    21  C    5.844428   7.243495   7.910999   7.423896   5.659927
    22  C    4.506992   5.873152   6.474211   5.974263   4.529285
    23  C    3.236628   4.644274   5.415558   5.131606   3.168465
    24  H    6.130216   7.559531   8.391619   8.053208   5.691121
    25  H    7.907929   9.281048   9.829334   9.194091   7.781780
    26  H    8.099380   9.302305   9.479893   8.562325   8.401102
    27  H    7.698837   8.600347   8.356867   7.200633   8.437415
    28  H    6.646198   7.194222   6.597777   5.311791   7.716513
    29  H    4.850653   4.969628   4.081337   2.747487   6.172179
    30  H    4.050981   3.451058   2.103078   1.085177   5.465640
    31  H    3.508177   2.207095   1.085558   2.096565   4.653511
    32  H    3.458896   2.171976   2.637522   3.973697   3.916400
    33  H    3.436029   3.861182   5.333021   6.212039   2.183773
    34  H    3.930653   3.404670   4.589534   5.812203   3.441533
    35  C    3.270503   4.677706   5.764687   5.801693   2.576886
    36  C    2.621002   3.874106   5.164836   5.502019   1.483698
    37  H    4.339504   5.730523   6.848771   6.880139   3.507642
    38  H    3.518900   4.609004   5.995520   6.467764   2.171762
                   16         17         18         19         20
    16  C    0.000000
    17  C    1.390337   0.000000
    18  C    2.393021   1.382697   0.000000
    19  C    8.710621   9.706113   9.514535   0.000000
    20  C    8.208008   9.344352   9.365939   1.486736   0.000000
    21  C    6.935243   8.121921   8.251966   2.509441   1.358630
    22  C    5.890514   6.967730   6.956917   2.865587   2.409085
    23  C    4.535936   5.609218   5.649143   4.184557   3.744228
    24  H    6.840544   8.119296   8.428315   3.498347   2.137741
    25  H    9.053962  10.243825  10.342082   2.195353   1.086500
    26  H    9.794619  10.779930  10.557615   1.085019   2.203609
    27  H    9.846083  10.539974   9.978831   2.835396   4.309735
    28  H    9.030509   9.422879   8.595437   4.664204   5.933544
    29  H    7.280853   7.354294   6.318133   6.266627   7.144451
    30  H    6.176824   5.812675   4.544980   8.190289   8.771442
    31  H    4.811770   4.003780   2.621822   9.593490   9.849164
    32  H    3.373616   2.131343   1.087537  10.446802  10.371299
    33  H    1.089658   2.119542   3.361058   9.148589   8.482977
    34  H    2.153409   1.086436   2.147763  10.742599  10.323676
    35  C    3.721242   4.988557   5.370933   5.332077   4.579601
    36  C    2.413665   3.733776   4.298583   6.590111   5.909414
    37  H    4.467759   5.810298   6.335311   5.341393   4.324854
    38  H    2.494214   3.883556   4.746730   7.363201   6.519384
                   21         22         23         24         25
    21  C    0.000000
    22  C    1.450847   0.000000
    23  C    2.609006   1.360877   0.000000
    24  H    1.082481   2.202863   2.976118   0.000000
    25  H    2.122556   3.407899   4.694111   2.474248   0.000000
    26  H    3.445492   3.946645   5.269571   4.337498   2.461016
    27  H    5.085501   4.772635   5.738986   6.155667   4.975019
    28  H    6.230341   5.343640   5.783185   7.288957   6.839072
    29  H    6.915014   5.618417   5.394827   7.816062   8.199106
    30  H    8.204950   6.769709   6.050620   8.908842   9.857687
    31  H    8.994714   7.559232   6.486726   9.461416  10.914074
    32  H    9.289276   7.965871   6.680970   9.497361  11.364844
    33  H    7.156779   6.285489   4.978963   6.896196   9.239686
    34  H    9.070783   7.970712   6.609843   8.993884  11.192355
    35  C    3.256426   2.487735   1.427044   3.130974   5.356608
    36  C    4.593671   3.724613   2.465296   4.430127   6.694647
    37  H    2.968297   2.717234   2.143317   2.496975   4.920927
    38  H    5.165660   4.529292   3.391200   4.784004   7.189267
                   26         27         28         29         30
    26  H    0.000000
    27  H    2.705976   0.000000
    28  H    4.947376   2.483303   0.000000
    29  H    6.903989   4.945814   2.706644   0.000000
    30  H    8.985769   7.329273   5.187376   2.482498   0.000000
    31  H   10.523590   9.288529   7.389592   4.756075   2.417004
    32  H   11.471934  10.721843   9.157599   6.711602   4.636579
    33  H   10.231508  10.531918   9.899714   8.284761   7.262354
    34  H   11.820561  11.625078  10.495100   8.372556   6.692549
    35  C    6.401963   7.132315   7.189346   6.569402   6.820238
    36  C    7.669869   8.165965   7.893229   6.822031   6.576760
    37  H    6.359184   7.489667   7.864812   7.506579   7.888878
    38  H    8.426047   9.130053   8.963243   7.904653   7.550868
                   31         32         33         34         35
    31  H    0.000000
    32  H    2.348434   0.000000
    33  H    5.868310   4.243289   0.000000
    34  H    4.670215   2.456277   2.431988   0.000000
    35  C    6.767794   6.454321   3.903726   5.873309   0.000000
    36  C    6.066659   5.383930   2.577718   4.565598   1.338371
    37  H    7.844179   7.422806   4.416903   6.604837   1.087723
    38  H    6.814437   5.796782   2.172762   4.505075   2.041915
                   36         37         38
    36  C    0.000000
    37  H    2.079664   0.000000
    38  H    1.090792   2.287138   0.000000
 Stoichiometry    C25H13(2)
 Framework group  C1[X(C25H13)]
 Deg. of freedom   108
 Full point group                 C1      NOp   1
 Largest Abelian subgroup         C1      NOp   1
 Largest concise Abelian subgroup C1      NOp   1
                         Standard orientation:                         
 ---------------------------------------------------------------------
 Center     Atomic      Atomic             Coordinates (Angstroms)
 Number     Number       Type             X           Y           Z
 ---------------------------------------------------------------------
      1          6           0       -3.791353    0.304928    0.000207
      2          6           0       -2.427602   -0.153099    0.000017
      3          6           0       -1.400918    0.685408   -0.000162
      4          6           0       -1.583197    2.103381   -0.000117
      5          6           0       -4.019614    1.761401    0.000197
      6          6           0       -2.963186    2.621419    0.000034
      7          6           0       -0.200380   -0.105560   -0.000268
      8          6           0        0.977973    0.542273   -0.000266
      9          6           0        0.886316    2.069352   -0.000238
     10          6           0       -0.427485    2.792216   -0.000200
     11          6           0        2.320074   -0.130293   -0.000113
     12          6           0        3.449011    0.750161    0.000135
     13          6           0        3.315938    2.220057    0.000020
     14          6           0        2.125900    2.829206   -0.000173
     15          6           0        2.563138   -1.530327   -0.000104
     16          6           0        3.906348   -1.984071    0.000245
     17          6           0        4.989439   -1.112319    0.000558
     18          6           0        4.760550    0.251302    0.000475
     19          6           0       -4.707428   -0.688783    0.000368
     20          6           0       -4.300554   -2.118761    0.000321
     21          6           0       -3.007033   -2.534304    0.000119
     22          6           0       -1.966141   -1.523610   -0.000025
     23          6           0       -0.605291   -1.515213   -0.000214
     24          1           0       -2.744358   -3.584432    0.000099
     25          1           0       -5.106341   -2.847589    0.000454
     26          1           0       -5.771827   -0.478258    0.000522
     27          1           0       -5.040411    2.126994    0.000327
     28          1           0       -3.114840    3.695104    0.000030
     29          1           0       -0.414263    3.876231   -0.000173
     30          1           0        2.067965    3.912836   -0.000260
     31          1           0        4.222431    2.817306    0.000085
     32          1           0        5.613898    0.925492    0.000695
     33          1           0        4.131121   -3.050294    0.000295
     34          1           0        6.004534   -1.499523    0.000843
     35          6           0        0.246974   -2.659808   -0.000521
     36          6           0        1.585275   -2.646188   -0.000500
     37          1           0       -0.247772   -3.628502   -0.000859
     38          1           0        2.039346   -3.637978   -0.000832
 ---------------------------------------------------------------------
 Rotational constants (GHZ):           0.4768445           0.1845332           0.1330460
 Standard basis: 6-311+G(d,p) (5D, 7F)
 There are   653 symmetry adapted cartesian basis functions of A   symmetry.
 There are   628 symmetry adapted basis functions of A   symmetry.
   628 basis functions,  1004 primitive gaussians,   653 cartesian basis functions
    82 alpha electrons       81 beta electrons
       nuclear repulsion energy      1914.8669315055 Hartrees.
 NAtoms=   38 NActive=   38 NUniq=   38 SFac= 1.00D+00 NAtFMM=   60 NAOKFM=F Big=F
 Integral buffers will be    131072 words long.
 Raffenetti 2 integral format.
 Two-electron integral symmetry is turned on.
 One-electron integrals computed using PRISM.
 NBasis=   628 RedAO= T EigKep=  1.04D-06  NBF=   628
 NBsUse=   610 1.00D-06 EigRej=  6.97D-07 NBFU=   610
 ExpMin= 4.38D-02 ExpMax= 4.56D+03 ExpMxC= 6.82D+02 IAcc=2 IRadAn=         4 AccDes= 0.00D+00
 Harris functional with IExCor=  402 and IRadAn=       4 diagonalized for initial guess.
 HarFok:  IExCor=  402 AccDes= 0.00D+00 IRadAn=         4 IDoV= 1 UseB2=F ITyADJ=14
 ICtDFT=  3500011 ScaDFX=  1.000000  1.000000  1.000000  1.000000
 FoFCou: FMM=F IPFlag=           0 FMFlag=      100000 FMFlg1=           0
         NFxFlg=           0 DoJE=T BraDBF=F KetDBF=T FulRan=T
         wScrn=  0.000000 ICntrl=       500 IOpCl=  0 I1Cent=   200000004 NGrid=           0
         NMat0=    1 NMatS0=      1 NMatT0=    0 NMatD0=    1 NMtDS0=    0 NMtDT0=    0
 Petite list used in FoFCou.
 Initial guess <Sx>= 0.0000 <Sy>= 0.0000 <Sz>= 0.5000 <S**2>= 0.7500 S= 0.5000
 Requested convergence on RMS density matrix=1.00D-08 within 128 cycles.
 Requested convergence on MAX density matrix=1.00D-06.
 Requested convergence on             energy=1.00D-06.
 No special actions if energy rises.
 Restarting incremental Fock formation.
 SCF Done:  E(UB3LYP) =  -960.684561424     A.U. after   22 cycles
            NFock= 22  Conv=0.62D-08     -V/T= 2.0046
 <Sx>= 0.0000 <Sy>= 0.0000 <Sz>= 0.5000 <S**2>= 0.7808 S= 0.5153
 <L.S>=  0.00000000000    
 Annihilation of the first spin contaminant:
 S**2 before annihilation     0.7808,   after     0.7508

 **********************************************************************

            Population analysis using the SCF Density.

 **********************************************************************

 Orbital symmetries:
 Alpha Orbitals:
       Occupied  (A) (A) (A) (A) (A) (A) (A) (A) (A) (A) (A) (A)
                 (A) (A) (A) (A) (A) (A) (A) (A) (A) (A) (A) (A)
                 (A) (A) (A) (A) (A) (A) (A) (A) (A) (A) (A) (A)
                 (A) (A) (A) (A) (A) (A) (A) (A) (A) (A) (A) (A)
                 (A) (A) (A) (A) (A) (A) (A) (A) (A) (A) (A) (A)
                 (A) (A) (A) (A) (A) (A) (A) (A) (A) (A) (A) (A)
                 (A) (A) (A) (A) (A) (A) (A) (A) (A) (A)
       Virtual   (A) (A) (A) (A) (A) (A) (A) (A) (A) (A) (A) (A)
                 (A) (A) (A) (A) (A) (A) (A) (A) (A) (A) (A) (A)
                 (A) (A) (A) (A) (A) (A) (A) (A) (A) (A) (A) (A)
                 (A) (A) (A) (A) (A) (A) (A) (A) (A) (A) (A) (A)
                 (A) (A) (A) (A) (A) (A) (A) (A) (A) (A) (A) (A)
                 (A) (A) (A) (A) (A) (A) (A) (A) (A) (A) (A) (A)
                 (A) (A) (A) (A) (A) (A) (A) (A) (A) (A) (A) (A)
                 (A) (A) (A) (A) (A) (A) (A) (A) (A) (A) (A) (A)
                 (A) (A) (A) (A) (A) (A) (A) (A) (A) (A) (A) (A)
                 (A) (A) (A) (A) (A) (A) (A) (A) (A) (A) (A) (A)
                 (A) (A) (A) (A) (A) (A) (A) (A) (A) (A) (A) (A)
                 (A) (A) (A) (A) (A) (A) (A) (A) (A) (A) (A) (A)
                 (A) (A) (A) (A) (A) (A) (A) (A) (A) (A) (A) (A)
                 (A) (A) (A) (A) (A) (A) (A) (A) (A) (A) (A) (A)
                 (A) (A) (A) (A) (A) (A) (A) (A) (A) (A) (A) (A)
                 (A) (A) (A) (A) (A) (A) (A) (A) (A) (A) (A) (A)
                 (A) (A) (A) (A) (A) (A) (A) (A) (A) (A) (A) (A)
                 (A) (A) (A) (A) (A) (A) (A) (A) (A) (A) (A) (A)
                 (A) (A) (A) (A) (A) (A) (A) (A) (A) (A) (A) (A)
                 (A) (A) (A) (A) (A) (A) (A) (A) (A) (A) (A) (A)
                 (A) (A) (A) (A) (A) (A) (A) (A) (A) (A) (A) (A)
                 (A) (A) (A) (A) (A) (A) (A) (A) (A) (A) (A) (A)
                 (A) (A) (A) (A) (A) (A) (A) (A) (A) (A) (A) (A)
                 (A) (A) (A) (A) (A) (A) (A) (A) (A) (A) (A) (A)
                 (A) (A) (A) (A) (A) (A) (A) (A) (A) (A) (A) (A)
                 (A) (A) (A) (A) (A) (A) (A) (A) (A) (A) (A) (A)
                 (A) (A) (A) (A) (A) (A) (A) (A) (A) (A) (A) (A)
                 (A) (A) (A) (A) (A) (A) (A) (A) (A) (A) (A) (A)
                 (A) (A) (A) (A) (A) (A) (A) (A) (A) (A) (A) (A)
                 (A) (A) (A) (A) (A) (A) (A) (A) (A) (A) (A) (A)
                 (A) (A) (A) (A) (A) (A) (A) (A) (A) (A) (A) (A)
                 (A) (A) (A) (A) (A) (A) (A) (A) (A) (A) (A) (A)
                 (A) (A) (A) (A) (A) (A) (A) (A) (A) (A) (A) (A)
                 (A) (A) (A) (A) (A) (A) (A) (A) (A) (A) (A) (A)
                 (A) (A) (A) (A) (A) (A) (A) (A) (A) (A) (A) (A)
                 (A) (A) (A) (A) (A) (A) (A) (A) (A) (A) (A) (A)
                 (A) (A) (A) (A) (A) (A) (A) (A) (A) (A) (A) (A)
                 (A) (A) (A) (A) (A) (A) (A) (A) (A) (A) (A) (A)
                 (A) (A) (A) (A) (A) (A) (A) (A) (A) (A) (A) (A)
                 (A) (A) (A) (A) (A) (A) (A) (A) (A) (A) (A) (A)
                 (A) (A) (A) (A) (A) (A) (A) (A) (A) (A) (A) (A)
                 (A) (A) (A) (A) (A) (A) (A) (A) (A) (A) (A) (A)
                 (A) (A) (A) (A) (A) (A) (A) (A) (A) (A) (A) (A)
                 (A) (A) (A) (A) (A) (A) (A) (A) (A) (A) (A) (A)
 Beta  Orbitals:
       Occupied  (A) (A) (A) (A) (A) (A) (A) (A) (A) (A) (A) (A)
                 (A) (A) (A) (A) (A) (A) (A) (A) (A) (A) (A) (A)
                 (A) (A) (A) (A) (A) (A) (A) (A) (A) (A) (A) (A)
                 (A) (A) (A) (A) (A) (A) (A) (A) (A) (A) (A) (A)
                 (A) (A) (A) (A) (A) (A) (A) (A) (A) (A) (A) (A)
                 (A) (A) (A) (A) (A) (A) (A) (A) (A) (A) (A) (A)
                 (A) (A) (A) (A) (A) (A) (A) (A) (A)
       Virtual   (A) (A) (A) (A) (A) (A) (A) (A) (A) (A) (A) (A)
                 (A) (A) (A) (A) (A) (A) (A) (A) (A) (A) (A) (A)
                 (A) (A) (A) (A) (A) (A) (A) (A) (A) (A) (A) (A)
                 (A) (A) (A) (A) (A) (A) (A) (A) (A) (A) (A) (A)
                 (A) (A) (A) (A) (A) (A) (A) (A) (A) (A) (A) (A)
                 (A) (A) (A) (A) (A) (A) (A) (A) (A) (A) (A) (A)
                 (A) (A) (A) (A) (A) (A) (A) (A) (A) (A) (A) (A)
                 (A) (A) (A) (A) (A) (A) (A) (A) (A) (A) (A) (A)
                 (A) (A) (A) (A) (A) (A) (A) (A) (A) (A) (A) (A)
                 (A) (A) (A) (A) (A) (A) (A) (A) (A) (A) (A) (A)
                 (A) (A) (A) (A) (A) (A) (A) (A) (A) (A) (A) (A)
                 (A) (A) (A) (A) (A) (A) (A) (A) (A) (A) (A) (A)
                 (A) (A) (A) (A) (A) (A) (A) (A) (A) (A) (A) (A)
                 (A) (A) (A) (A) (A) (A) (A) (A) (A) (A) (A) (A)
                 (A) (A) (A) (A) (A) (A) (A) (A) (A) (A) (A) (A)
                 (A) (A) (A) (A) (A) (A) (A) (A) (A) (A) (A) (A)
                 (A) (A) (A) (A) (A) (A) (A) (A) (A) (A) (A) (A)
                 (A) (A) (A) (A) (A) (A) (A) (A) (A) (A) (A) (A)
                 (A) (A) (A) (A) (A) (A) (A) (A) (A) (A) (A) (A)
                 (A) (A) (A) (A) (A) (A) (A) (A) (A) (A) (A) (A)
                 (A) (A) (A) (A) (A) (A) (A) (A) (A) (A) (A) (A)
                 (A) (A) (A) (A) (A) (A) (A) (A) (A) (A) (A) (A)
                 (A) (A) (A) (A) (A) (A) (A) (A) (A) (A) (A) (A)
                 (A) (A) (A) (A) (A) (A) (A) (A) (A) (A) (A) (A)
                 (A) (A) (A) (A) (A) (A) (A) (A) (A) (A) (A) (A)
                 (A) (A) (A) (A) (A) (A) (A) (A) (A) (A) (A) (A)
                 (A) (A) (A) (A) (A) (A) (A) (A) (A) (A) (A) (A)
                 (A) (A) (A) (A) (A) (A) (A) (A) (A) (A) (A) (A)
                 (A) (A) (A) (A) (A) (A) (A) (A) (A) (A) (A) (A)
                 (A) (A) (A) (A) (A) (A) (A) (A) (A) (A) (A) (A)
                 (A) (A) (A) (A) (A) (A) (A) (A) (A) (A) (A) (A)
                 (A) (A) (A) (A) (A) (A) (A) (A) (A) (A) (A) (A)
                 (A) (A) (A) (A) (A) (A) (A) (A) (A) (A) (A) (A)
                 (A) (A) (A) (A) (A) (A) (A) (A) (A) (A) (A) (A)
                 (A) (A) (A) (A) (A) (A) (A) (A) (A) (A) (A) (A)
                 (A) (A) (A) (A) (A) (A) (A) (A) (A) (A) (A) (A)
                 (A) (A) (A) (A) (A) (A) (A) (A) (A) (A) (A) (A)
                 (A) (A) (A) (A) (A) (A) (A) (A) (A) (A) (A) (A)
                 (A) (A) (A) (A) (A) (A) (A) (A) (A) (A) (A) (A)
                 (A) (A) (A) (A) (A) (A) (A) (A) (A) (A) (A) (A)
                 (A) (A) (A) (A) (A) (A) (A) (A) (A) (A) (A) (A)
                 (A) (A) (A) (A) (A) (A) (A) (A) (A) (A) (A) (A)
                 (A) (A) (A) (A) (A) (A) (A) (A) (A) (A) (A) (A)
                 (A) (A) (A) (A) (A) (A) (A) (A) (A) (A) (A) (A)
                 (A)
 The electronic state is 2-A.
 Alpha  occ. eigenvalues --  -10.21003 -10.20992 -10.20914 -10.20880 -10.19905
 Alpha  occ. eigenvalues --  -10.19481 -10.19295 -10.19189 -10.19182 -10.19070
 Alpha  occ. eigenvalues --  -10.19040 -10.18957 -10.18744 -10.18739 -10.18648
 Alpha  occ. eigenvalues --  -10.18591 -10.18554 -10.18500 -10.18267 -10.18264
 Alpha  occ. eigenvalues --  -10.18179 -10.18004 -10.17531 -10.16786 -10.16383
 Alpha  occ. eigenvalues --   -0.91840  -0.88572  -0.85363  -0.84755  -0.82694
 Alpha  occ. eigenvalues --   -0.80957  -0.78857  -0.78430  -0.75769  -0.75048
 Alpha  occ. eigenvalues --   -0.73890  -0.70893  -0.68953  -0.65530  -0.64147
 Alpha  occ. eigenvalues --   -0.62730  -0.61950  -0.59421  -0.58667  -0.56711
 Alpha  occ. eigenvalues --   -0.55317  -0.52533  -0.52275  -0.51131  -0.50170
 Alpha  occ. eigenvalues --   -0.48816  -0.48316  -0.47234  -0.46299  -0.45107
 Alpha  occ. eigenvalues --   -0.44487  -0.43457  -0.43328  -0.42071  -0.41776
 Alpha  occ. eigenvalues --   -0.41300  -0.40851  -0.40393  -0.39830  -0.38297
 Alpha  occ. eigenvalues --   -0.37473  -0.37229  -0.36649  -0.36115  -0.36032
 Alpha  occ. eigenvalues --   -0.34500  -0.33960  -0.33483  -0.32343  -0.31469
 Alpha  occ. eigenvalues --   -0.30009  -0.29256  -0.26398  -0.25533  -0.23863
 Alpha  occ. eigenvalues --   -0.20042  -0.17736
 Alpha virt. eigenvalues --   -0.06670  -0.05873  -0.04425  -0.02612  -0.00200
 Alpha virt. eigenvalues --    0.00494   0.00635   0.00652   0.01704   0.01797
 Alpha virt. eigenvalues --    0.02297   0.03169   0.03235   0.03312   0.03687
 Alpha virt. eigenvalues --    0.04237   0.04922   0.05080   0.05150   0.05476
 Alpha virt. eigenvalues --    0.06193   0.06550   0.07203   0.07412   0.07472
 Alpha virt. eigenvalues --    0.07650   0.08221   0.08590   0.08769   0.09646
 Alpha virt. eigenvalues --    0.10108   0.10186   0.10337   0.10855   0.11686
 Alpha virt. eigenvalues --    0.12445   0.12539   0.12796   0.12883   0.12994
 Alpha virt. eigenvalues --    0.13353   0.13790   0.14016   0.14358   0.15263
 Alpha virt. eigenvalues --    0.15312   0.15323   0.15669   0.15856   0.16150
 Alpha virt. eigenvalues --    0.16504   0.16622   0.17457   0.17543   0.17672
 Alpha virt. eigenvalues --    0.17749   0.18074   0.18251   0.18388   0.18648
 Alpha virt. eigenvalues --    0.19050   0.19303   0.19521   0.19743   0.19779
 Alpha virt. eigenvalues --    0.20055   0.20468   0.20809   0.21016   0.21464
 Alpha virt. eigenvalues --    0.21511   0.21957   0.21962   0.22409   0.22456
 Alpha virt. eigenvalues --    0.23154   0.23246   0.23539   0.23871   0.24213
 Alpha virt. eigenvalues --    0.24230   0.24786   0.24801   0.25343   0.25556
 Alpha virt. eigenvalues --    0.25684   0.25945   0.26438   0.26746   0.26936
 Alpha virt. eigenvalues --    0.27361   0.27901   0.28234   0.28540   0.28640
 Alpha virt. eigenvalues --    0.29008   0.29587   0.29945   0.30100   0.30436
 Alpha virt. eigenvalues --    0.30702   0.30986   0.31430   0.31466   0.32130
 Alpha virt. eigenvalues --    0.32678   0.32830   0.33099   0.33976   0.34338
 Alpha virt. eigenvalues --    0.35528   0.35817   0.36523   0.37570   0.37790
 Alpha virt. eigenvalues --    0.38363   0.38657   0.39207   0.39631   0.40676
 Alpha virt. eigenvalues --    0.41353   0.42208   0.43280   0.43484   0.44140
 Alpha virt. eigenvalues --    0.44590   0.45035   0.46140   0.46954   0.47946
 Alpha virt. eigenvalues --    0.48446   0.48554   0.50555   0.51253   0.51403
 Alpha virt. eigenvalues --    0.51916   0.52641   0.53142   0.53498   0.54083
 Alpha virt. eigenvalues --    0.54677   0.55139   0.55392   0.55460   0.55713
 Alpha virt. eigenvalues --    0.55917   0.56224   0.57227   0.57535   0.57598
 Alpha virt. eigenvalues --    0.58081   0.58444   0.58985   0.58988   0.59560
 Alpha virt. eigenvalues --    0.60039   0.60227   0.60500   0.60986   0.61206
 Alpha virt. eigenvalues --    0.61771   0.63241   0.63502   0.63762   0.63966
 Alpha virt. eigenvalues --    0.64535   0.64761   0.64949   0.65789   0.65992
 Alpha virt. eigenvalues --    0.66528   0.66611   0.67851   0.68572   0.69706
 Alpha virt. eigenvalues --    0.69859   0.70412   0.70684   0.71125   0.71260
 Alpha virt. eigenvalues --    0.71400   0.71738   0.72239   0.72398   0.73042
 Alpha virt. eigenvalues --    0.73463   0.73843   0.74140   0.75166   0.75479
 Alpha virt. eigenvalues --    0.76340   0.76380   0.77340   0.77942   0.78581
 Alpha virt. eigenvalues --    0.79951   0.81141   0.81663   0.82826   0.83843
 Alpha virt. eigenvalues --    0.85025   0.85355   0.86263   0.87120   0.87566
 Alpha virt. eigenvalues --    0.88032   0.88497   0.89532   0.90194   0.91139
 Alpha virt. eigenvalues --    0.91860   0.92617   0.92913   0.92958   0.93430
 Alpha virt. eigenvalues --    0.94043   0.94516   0.95568   0.95624   0.95685
 Alpha virt. eigenvalues --    0.96163   0.96795   0.97315   0.97692   0.98497
 Alpha virt. eigenvalues --    0.99232   0.99483   1.00076   1.00618   1.00980
 Alpha virt. eigenvalues --    1.01446   1.01962   1.02595   1.03398   1.03638
 Alpha virt. eigenvalues --    1.04923   1.05329   1.05582   1.05653   1.06696
 Alpha virt. eigenvalues --    1.06801   1.08075   1.08493   1.08916   1.09076
 Alpha virt. eigenvalues --    1.10840   1.11225   1.12092   1.13802   1.14064
 Alpha virt. eigenvalues --    1.14599   1.15636   1.15694   1.16372   1.17126
 Alpha virt. eigenvalues --    1.19452   1.20909   1.22093   1.24543   1.27432
 Alpha virt. eigenvalues --    1.28029   1.30248   1.32454   1.32671   1.34282
 Alpha virt. eigenvalues --    1.35771   1.36441   1.38939   1.40284   1.42208
 Alpha virt. eigenvalues --    1.42966   1.44532   1.45078   1.46186   1.46266
 Alpha virt. eigenvalues --    1.47336   1.47598   1.47966   1.48938   1.49407
 Alpha virt. eigenvalues --    1.49782   1.50715   1.50984   1.51206   1.52347
 Alpha virt. eigenvalues --    1.54260   1.54383   1.55753   1.55808   1.56771
 Alpha virt. eigenvalues --    1.57087   1.58047   1.58578   1.59119   1.60989
 Alpha virt. eigenvalues --    1.61137   1.62277   1.63580   1.64394   1.65114
 Alpha virt. eigenvalues --    1.66878   1.67734   1.69519   1.69864   1.70771
 Alpha virt. eigenvalues --    1.71597   1.71981   1.72892   1.73425   1.73864
 Alpha virt. eigenvalues --    1.74188   1.75062   1.75913   1.75951   1.77383
 Alpha virt. eigenvalues --    1.78992   1.79633   1.79790   1.81022   1.81183
 Alpha virt. eigenvalues --    1.82934   1.83891   1.84280   1.85004   1.85341
 Alpha virt. eigenvalues --    1.85626   1.88067   1.88107   1.89470   1.89909
 Alpha virt. eigenvalues --    1.90094   1.90268   1.91032   1.92173   1.92464
 Alpha virt. eigenvalues --    1.93082   1.93401   1.93961   1.94795   1.95558
 Alpha virt. eigenvalues --    1.97131   1.97880   1.98149   1.98881   1.99650
 Alpha virt. eigenvalues --    2.01618   2.03184   2.04352   2.04887   2.05268
 Alpha virt. eigenvalues --    2.05441   2.06993   2.07702   2.08915   2.10100
 Alpha virt. eigenvalues --    2.11132   2.11428   2.11643   2.13222   2.13243
 Alpha virt. eigenvalues --    2.14510   2.14663   2.16091   2.19520   2.20759
 Alpha virt. eigenvalues --    2.21457   2.22478   2.23157   2.24805   2.24834
 Alpha virt. eigenvalues --    2.26800   2.29284   2.31295   2.31404   2.33058
 Alpha virt. eigenvalues --    2.35946   2.36535   2.38142   2.39903   2.41366
 Alpha virt. eigenvalues --    2.42681   2.44224   2.44913   2.45049   2.45830
 Alpha virt. eigenvalues --    2.47646   2.49230   2.49557   2.54562   2.55024
 Alpha virt. eigenvalues --    2.56029   2.56805   2.59171   2.60535   2.61064
 Alpha virt. eigenvalues --    2.64037   2.64209   2.65544   2.66697   2.67886
 Alpha virt. eigenvalues --    2.68778   2.68977   2.69732   2.69965   2.71422
 Alpha virt. eigenvalues --    2.72323   2.72822   2.73420   2.74403   2.74704
 Alpha virt. eigenvalues --    2.75054   2.75396   2.75798   2.76341   2.76549
 Alpha virt. eigenvalues --    2.76904   2.77717   2.78812   2.79243   2.80163
 Alpha virt. eigenvalues --    2.80489   2.81205   2.81263   2.81788   2.82631
 Alpha virt. eigenvalues --    2.83823   2.84518   2.85968   2.86508   2.86625
 Alpha virt. eigenvalues --    2.88171   2.90228   2.90247   2.90812   2.91933
 Alpha virt. eigenvalues --    2.92759   2.96351   2.96613   2.98066   2.99658
 Alpha virt. eigenvalues --    3.02026   3.02976   3.03877   3.06103   3.09075
 Alpha virt. eigenvalues --    3.11071   3.12130   3.12646   3.14947   3.16685
 Alpha virt. eigenvalues --    3.18422   3.19760   3.22353   3.23687   3.26381
 Alpha virt. eigenvalues --    3.27452   3.31879   3.33244   3.34935   3.36089
 Alpha virt. eigenvalues --    3.37241   3.38339   3.40869   3.41920   3.43752
 Alpha virt. eigenvalues --    3.46250   3.46964   3.50670   3.51588   3.54101
 Alpha virt. eigenvalues --    3.54492   3.56290   3.56786   3.58224   3.60171
 Alpha virt. eigenvalues --    3.61939   3.64592   3.66452   3.70148   3.75385
 Alpha virt. eigenvalues --    3.79877   3.83242   3.90219   3.99712   4.04327
 Alpha virt. eigenvalues --    4.05455   4.07296   4.07896   4.09207   4.12516
 Alpha virt. eigenvalues --    4.12794   4.21481   4.29547   4.34704   4.36991
 Alpha virt. eigenvalues --    4.59350   4.71109   4.75248   4.76416   4.82399
 Alpha virt. eigenvalues --    4.83381   4.83868   4.87283  23.39793  23.60279
 Alpha virt. eigenvalues --   23.70748  23.74430  23.76320  23.79352  23.82308
 Alpha virt. eigenvalues --   23.84347  23.85174  23.87205  23.89145  23.92580
 Alpha virt. eigenvalues --   23.93739  24.00109  24.05178  24.16701  24.17628
 Alpha virt. eigenvalues --   24.18561  24.19683  24.19875  24.21895  24.24135
 Alpha virt. eigenvalues --   24.26653  24.27400  24.31892
  Beta  occ. eigenvalues --  -10.21058 -10.20877 -10.20866 -10.20827 -10.19950
  Beta  occ. eigenvalues --  -10.19238 -10.19147 -10.19114 -10.19102 -10.19071
  Beta  occ. eigenvalues --  -10.18840 -10.18825 -10.18799 -10.18632 -10.18613
  Beta  occ. eigenvalues --  -10.18534 -10.18343 -10.18302 -10.18273 -10.18262
  Beta  occ. eigenvalues --  -10.18123 -10.18107 -10.17681 -10.16590 -10.16388
  Beta  occ. eigenvalues --   -0.91540  -0.88431  -0.85102  -0.84490  -0.82512
  Beta  occ. eigenvalues --   -0.80673  -0.78664  -0.78274  -0.75592  -0.74846
  Beta  occ. eigenvalues --   -0.73651  -0.70698  -0.68350  -0.65425  -0.64045
  Beta  occ. eigenvalues --   -0.62634  -0.61799  -0.59250  -0.58465  -0.56600
  Beta  occ. eigenvalues --   -0.55142  -0.52419  -0.52119  -0.51080  -0.50067
  Beta  occ. eigenvalues --   -0.48717  -0.48186  -0.47158  -0.46215  -0.45002
  Beta  occ. eigenvalues --   -0.44424  -0.43211  -0.42763  -0.42027  -0.41672
  Beta  occ. eigenvalues --   -0.41218  -0.40796  -0.39990  -0.39720  -0.38185
  Beta  occ. eigenvalues --   -0.37396  -0.36557  -0.36477  -0.35909  -0.35341
  Beta  occ. eigenvalues --   -0.34418  -0.33449  -0.33401  -0.32285  -0.30660
  Beta  occ. eigenvalues --   -0.29472  -0.28674  -0.25888  -0.24618  -0.22974
  Beta  occ. eigenvalues --   -0.19879
  Beta virt. eigenvalues --   -0.12442  -0.06494  -0.05112  -0.03773  -0.02153
  Beta virt. eigenvalues --   -0.00186   0.00499   0.00661   0.01182   0.01709
  Beta virt. eigenvalues --    0.01807   0.02772   0.03171   0.03260   0.03341
  Beta virt. eigenvalues --    0.03942   0.04420   0.04919   0.05101   0.05280
  Beta virt. eigenvalues --    0.05507   0.06369   0.06866   0.07237   0.07492
  Beta virt. eigenvalues --    0.07655   0.07886   0.08315   0.08670   0.08821
  Beta virt. eigenvalues --    0.09671   0.10220   0.10347   0.10412   0.11074
  Beta virt. eigenvalues --    0.11942   0.12539   0.12581   0.12827   0.12910
  Beta virt. eigenvalues --    0.13020   0.13382   0.13825   0.14209   0.14371
  Beta virt. eigenvalues --    0.15319   0.15346   0.15653   0.15690   0.15898
  Beta virt. eigenvalues --    0.16231   0.16539   0.16697   0.17512   0.17589
  Beta virt. eigenvalues --    0.17704   0.17875   0.18146   0.18305   0.18514
  Beta virt. eigenvalues --    0.19019   0.19120   0.19497   0.19601   0.19822
  Beta virt. eigenvalues --    0.19955   0.20099   0.20485   0.20862   0.21074
  Beta virt. eigenvalues --    0.21545   0.21696   0.21997   0.22021   0.22496
  Beta virt. eigenvalues --    0.22720   0.23190   0.23331   0.23610   0.23898
  Beta virt. eigenvalues --    0.24297   0.24389   0.24848   0.24943   0.25399
  Beta virt. eigenvalues --    0.25597   0.25728   0.25975   0.26499   0.26833
  Beta virt. eigenvalues --    0.26990   0.27400   0.27963   0.28287   0.28611
  Beta virt. eigenvalues --    0.28685   0.29069   0.29673   0.29986   0.30153
  Beta virt. eigenvalues --    0.30512   0.30754   0.31047   0.31488   0.31558
  Beta virt. eigenvalues --    0.32177   0.32736   0.32838   0.33191   0.34008
  Beta virt. eigenvalues --    0.34446   0.35552   0.35896   0.36563   0.37656
  Beta virt. eigenvalues --    0.37880   0.38455   0.38890   0.39306   0.39702
  Beta virt. eigenvalues --    0.40756   0.41450   0.42323   0.43341   0.43589
  Beta virt. eigenvalues --    0.44217   0.44738   0.45124   0.46253   0.47063
  Beta virt. eigenvalues --    0.48074   0.48494   0.48649   0.50628   0.51320
  Beta virt. eigenvalues --    0.51695   0.52079   0.52716   0.53356   0.53567
  Beta virt. eigenvalues --    0.54241   0.54742   0.55370   0.55538   0.55562
  Beta virt. eigenvalues --    0.56001   0.56028   0.56305   0.57309   0.57704
  Beta virt. eigenvalues --    0.57901   0.58254   0.58539   0.59054   0.59197
  Beta virt. eigenvalues --    0.59607   0.60101   0.60275   0.60851   0.61222
  Beta virt. eigenvalues --    0.61477   0.62023   0.63536   0.63566   0.63826
  Beta virt. eigenvalues --    0.64022   0.64599   0.64776   0.65015   0.65979
  Beta virt. eigenvalues --    0.66054   0.66681   0.66903   0.68261   0.68658
  Beta virt. eigenvalues --    0.69754   0.69954   0.70626   0.70889   0.71234
  Beta virt. eigenvalues --    0.71469   0.71747   0.72101   0.72288   0.72452
  Beta virt. eigenvalues --    0.73117   0.73537   0.73953   0.74255   0.75237
  Beta virt. eigenvalues --    0.75547   0.76476   0.76649   0.77478   0.78139
  Beta virt. eigenvalues --    0.78751   0.80222   0.81171   0.81655   0.82881
  Beta virt. eigenvalues --    0.83988   0.85206   0.85452   0.86371   0.87235
  Beta virt. eigenvalues --    0.87648   0.88128   0.88640   0.89649   0.90318
  Beta virt. eigenvalues --    0.91301   0.91947   0.92659   0.93004   0.93163
  Beta virt. eigenvalues --    0.93510   0.94158   0.94642   0.95629   0.95736
  Beta virt. eigenvalues --    0.95896   0.96305   0.96973   0.97566   0.97792
  Beta virt. eigenvalues --    0.98592   0.99437   0.99610   1.00239   1.00764
  Beta virt. eigenvalues --    1.01064   1.01679   1.02243   1.02699   1.03518
  Beta virt. eigenvalues --    1.03904   1.05186   1.05599   1.05777   1.06001
  Beta virt. eigenvalues --    1.06783   1.07033   1.08543   1.08616   1.09057
  Beta virt. eigenvalues --    1.09304   1.11122   1.11391   1.12260   1.14064
  Beta virt. eigenvalues --    1.14199   1.14902   1.15806   1.15823   1.16732
  Beta virt. eigenvalues --    1.17246   1.19575   1.21075   1.22223   1.24651
  Beta virt. eigenvalues --    1.27571   1.28157   1.30361   1.32602   1.32811
  Beta virt. eigenvalues --    1.34429   1.35902   1.36571   1.39060   1.40529
  Beta virt. eigenvalues --    1.42331   1.43099   1.44592   1.45316   1.46232
  Beta virt. eigenvalues --    1.46491   1.47422   1.47788   1.48289   1.48997
  Beta virt. eigenvalues --    1.49609   1.49825   1.50929   1.51055   1.51310
  Beta virt. eigenvalues --    1.52450   1.54369   1.54609   1.55932   1.55977
  Beta virt. eigenvalues --    1.56899   1.57303   1.58197   1.58972   1.59263
  Beta virt. eigenvalues --    1.61213   1.61297   1.62440   1.63798   1.64431
  Beta virt. eigenvalues --    1.65217   1.67005   1.67938   1.69592   1.69950
  Beta virt. eigenvalues --    1.70976   1.71677   1.72077   1.73027   1.73621
  Beta virt. eigenvalues --    1.74084   1.74383   1.75153   1.75924   1.76076
  Beta virt. eigenvalues --    1.77503   1.79246   1.79908   1.80099   1.81101
  Beta virt. eigenvalues --    1.81269   1.83176   1.84094   1.84261   1.85253
  Beta virt. eigenvalues --    1.85654   1.85677   1.88275   1.88375   1.89705
  Beta virt. eigenvalues --    1.90108   1.90300   1.90430   1.91214   1.92179
  Beta virt. eigenvalues --    1.92700   1.93258   1.93448   1.94212   1.94890
  Beta virt. eigenvalues --    1.95572   1.97411   1.98253   1.98269   1.99006
  Beta virt. eigenvalues --    1.99693   2.01814   2.03610   2.04555   2.04955
  Beta virt. eigenvalues --    2.05360   2.05747   2.07234   2.07806   2.08972
  Beta virt. eigenvalues --    2.10298   2.11348   2.11472   2.11768   2.13295
  Beta virt. eigenvalues --    2.13432   2.14755   2.14916   2.16211   2.19830
  Beta virt. eigenvalues --    2.20897   2.21595   2.22626   2.23437   2.24935
  Beta virt. eigenvalues --    2.25134   2.26906   2.29459   2.31413   2.31711
  Beta virt. eigenvalues --    2.33075   2.36050   2.36806   2.38241   2.40038
  Beta virt. eigenvalues --    2.41469   2.43062   2.44346   2.45164   2.45189
  Beta virt. eigenvalues --    2.45933   2.47757   2.49275   2.49992   2.54631
  Beta virt. eigenvalues --    2.55126   2.56090   2.56866   2.59260   2.60914
  Beta virt. eigenvalues --    2.61183   2.64314   2.64324   2.65648   2.67036
  Beta virt. eigenvalues --    2.68295   2.68874   2.69082   2.69946   2.70047
  Beta virt. eigenvalues --    2.71453   2.72348   2.72861   2.73461   2.74447
  Beta virt. eigenvalues --    2.74756   2.75082   2.75693   2.75874   2.76363
  Beta virt. eigenvalues --    2.76920   2.77043   2.77741   2.78862   2.79274
  Beta virt. eigenvalues --    2.80516   2.80584   2.81256   2.81669   2.81831
  Beta virt. eigenvalues --    2.82680   2.83958   2.85095   2.85995   2.86564
  Beta virt. eigenvalues --    2.86861   2.88785   2.90299   2.90469   2.91120
  Beta virt. eigenvalues --    2.92170   2.92818   2.96619   2.96699   2.98388
  Beta virt. eigenvalues --    2.99774   3.02536   3.03096   3.04927   3.06444
  Beta virt. eigenvalues --    3.09319   3.11362   3.12174   3.12955   3.15016
  Beta virt. eigenvalues --    3.16742   3.18494   3.19811   3.22408   3.23725
  Beta virt. eigenvalues --    3.26486   3.27539   3.31925   3.33282   3.34999
  Beta virt. eigenvalues --    3.36188   3.37301   3.38392   3.40919   3.41978
  Beta virt. eigenvalues --    3.43819   3.46308   3.47012   3.50764   3.51686
  Beta virt. eigenvalues --    3.54163   3.54563   3.56372   3.56867   3.58287
  Beta virt. eigenvalues --    3.60287   3.62042   3.64708   3.66594   3.70248
  Beta virt. eigenvalues --    3.75547   3.80059   3.83362   3.90299   3.99861
  Beta virt. eigenvalues --    4.04443   4.05554   4.07525   4.07964   4.09263
  Beta virt. eigenvalues --    4.12709   4.12992   4.21591   4.29673   4.34928
  Beta virt. eigenvalues --    4.37167   4.59577   4.71275   4.75443   4.76523
  Beta virt. eigenvalues --    4.82747   4.83516   4.83970   4.87572  23.39873
  Beta virt. eigenvalues --   23.60319  23.70861  23.74483  23.76399  23.79438
  Beta virt. eigenvalues --   23.82346  23.84439  23.85253  23.87369  23.89183
  Beta virt. eigenvalues --   23.92704  23.93740  24.00091  24.05296  24.16729
  Beta virt. eigenvalues --   24.17676  24.18680  24.19776  24.19969  24.22003
  Beta virt. eigenvalues --   24.24192  24.26705  24.27465  24.31999
          Condensed to atoms (all electrons):
               1          2          3          4          5          6
     1  C   10.625690   1.437925  -0.165139   0.584494  -1.541467  -1.109670
     2  C    1.437925   6.589711   0.462701   0.254711  -0.349540   0.128437
     3  C   -0.165139   0.462701   7.092506   0.427346   0.502268   0.273158
     4  C    0.584494   0.254711   0.427346   9.107653  -1.334733  -0.191928
     5  C   -1.541467  -0.349540   0.502268  -1.334733   8.878802   1.655965
     6  C   -1.109670   0.128437   0.273158  -0.191928   1.655965   8.197483
     7  C    0.245069  -0.281206  -0.155567  -0.028109  -0.562952  -0.457883
     8  C   -0.396248   0.126227   0.022487  -0.772285   0.105261  -0.502967
     9  C   -0.465277  -0.452060  -0.798123   0.243677  -0.082256  -0.291541
    10  C   -0.464692  -0.265766   0.454632   1.088787  -0.066636  -0.641542
    11  C    0.023082  -0.263796   0.053307  -0.479035  -0.074132  -0.131953
    12  C   -0.080653  -0.024518  -0.443274   0.140687   0.004483  -0.010758
    13  C    0.011602   0.051656   0.043663  -0.022055  -0.036760  -0.074758
    14  C   -0.172676  -0.006763  -0.946360  -0.890941  -0.091108  -0.226908
    15  C   -0.041001  -0.014221  -0.111242  -0.270476  -0.040758  -0.088323
    16  C    0.036659  -0.006106   0.280269   0.000996  -0.010913   0.001235
    17  C   -0.000972   0.009109  -0.081028  -0.010534   0.000560  -0.003870
    18  C   -0.013081  -0.025590  -0.168187  -0.035082   0.000331  -0.000346
    19  C   -2.117979  -1.546137  -0.194672  -0.794881  -0.347816   0.231001
    20  C    0.227455   0.479013  -0.153590  -0.185752  -0.350043  -0.056890
    21  C    0.087009   0.436013   0.327482   0.298811   0.352700  -0.103025
    22  C   -0.727716  -0.278307  -0.089465  -1.014836  -0.321443  -0.309552
    23  C    0.010868  -0.163296  -0.139665  -0.969133  -0.111213  -0.232658
    24  H   -0.033093   0.047752  -0.006508   0.002085  -0.008607  -0.001950
    25  H    0.012448   0.003305   0.000941   0.003453   0.006828   0.000577
    26  H   -0.061834   0.033231  -0.017983   0.007226   0.010752   0.012897
    27  H   -0.124443  -0.001756  -0.005169   0.010887   0.371520  -0.022872
    28  H   -0.031028  -0.007094   0.004994  -0.095038  -0.021832   0.383167
    29  H    0.002291  -0.006878   0.003793  -0.038750   0.009526   0.019280
    30  H    0.000748   0.001822   0.011253   0.048990   0.000412   0.009835
    31  H    0.000018   0.000070   0.000701   0.003712   0.000022   0.000358
    32  H   -0.000008  -0.000009  -0.000367   0.000332   0.000002   0.000029
    33  H    0.000021   0.000202  -0.001086  -0.000082   0.000005  -0.000005
    34  H    0.000001   0.000013   0.000142   0.000047  -0.000000   0.000002
    35  C   -0.009604  -0.305236  -0.258896   0.438287  -0.120234  -0.076920
    36  C   -0.010157  -0.004715  -0.016242   0.212169  -0.021605  -0.005926
    37  H   -0.000170   0.003303  -0.007150  -0.001061   0.000258  -0.000006
    38  H   -0.000004   0.001370   0.002383  -0.000457  -0.000058  -0.000021
               7          8          9         10         11         12
     1  C    0.245069  -0.396248  -0.465277  -0.464692   0.023082  -0.080653
     2  C   -0.281206   0.126227  -0.452060  -0.265766  -0.263796  -0.024518
     3  C   -0.155567   0.022487  -0.798123   0.454632   0.053307  -0.443274
     4  C   -0.028109  -0.772285   0.243677   1.088787  -0.479035   0.140687
     5  C   -0.562952   0.105261  -0.082256  -0.066636  -0.074132   0.004483
     6  C   -0.457883  -0.502967  -0.291541  -0.641542  -0.131953  -0.010758
     7  C    7.681525   0.557208  -0.351717  -0.121081   0.319666   0.082885
     8  C    0.557208   7.626366  -1.333178  -0.140595   0.721368  -0.694623
     9  C   -0.351717  -1.333178  16.457005   1.491469  -1.231914   1.504354
    10  C   -0.121081  -0.140595   1.491469   7.952689  -0.459611  -0.664210
    11  C    0.319666   0.721368  -1.231914  -0.459611   6.803414   0.548522
    12  C    0.082885  -0.694623   1.504354  -0.664210   0.548522  12.423771
    13  C   -0.663808   0.068327  -2.290840  -0.481487  -0.631192  -0.554727
    14  C   -0.346076   0.360859  -1.205958  -1.595368  -0.122243  -1.646883
    15  C    0.065069   0.237052  -1.933852  -0.189654   2.058916  -1.458339
    16  C   -0.531385  -0.115891   0.635083   0.067115  -0.553328   1.530951
    17  C    0.179715  -0.265430  -0.454015  -0.084057   0.594840  -0.463083
    18  C   -0.035166  -0.125021  -1.244103  -0.071441  -0.251594  -1.660653
    19  C    0.336159  -0.074591   0.049099  -0.033976   0.003516  -0.006013
    20  C   -0.259456  -0.018295  -0.138131  -0.064537  -0.002704   0.000369
    21  C   -0.812765   0.038233  -0.006906  -0.013954   0.002563  -0.013380
    22  C    0.057633  -0.000140  -1.433928  -0.246555  -0.338734  -0.194505
    23  C   -0.455928   0.081098  -2.375917   0.001613  -0.177402  -1.066367
    24  H   -0.013379   0.000522  -0.001308  -0.000137   0.000479   0.000157
    25  H    0.003649  -0.000402   0.000270   0.000387   0.000073  -0.000000
    26  H    0.003899  -0.000378  -0.000652   0.000263   0.000067  -0.000003
    27  H    0.002666  -0.000362   0.003025   0.001146   0.000069  -0.000010
    28  H   -0.009506   0.005976   0.032347   0.066026  -0.000215   0.000521
    29  H   -0.014363  -0.020683  -0.054447   0.338147  -0.003792   0.008461
    30  H   -0.018572  -0.018457  -0.079467   0.109584  -0.024483  -0.022382
    31  H   -0.000723  -0.006895  -0.008898   0.013278  -0.012307  -0.126398
    32  H    0.004666  -0.016245   0.021758   0.000769  -0.007711  -0.125760
    33  H    0.004573  -0.000331  -0.001003   0.000016   0.001485  -0.043455
    34  H   -0.000399   0.002009   0.003515   0.000261  -0.009570   0.046697
    35  C    1.020742   0.292587   0.890391   0.050577  -0.328806  -0.351188
    36  C    0.742391   0.505309   0.297900   0.032601  -0.029004  -0.993519
    37  H    0.000769  -0.009876  -0.002211  -0.000354  -0.009674  -0.000799
    38  H   -0.009549  -0.008064   0.003588   0.000341   0.002238   0.021164
              13         14         15         16         17         18
     1  C    0.011602  -0.172676  -0.041001   0.036659  -0.000972  -0.013081
     2  C    0.051656  -0.006763  -0.014221  -0.006106   0.009109  -0.025590
     3  C    0.043663  -0.946360  -0.111242   0.280269  -0.081028  -0.168187
     4  C   -0.022055  -0.890941  -0.270476   0.000996  -0.010534  -0.035082
     5  C   -0.036760  -0.091108  -0.040758  -0.010913   0.000560   0.000331
     6  C   -0.074758  -0.226908  -0.088323   0.001235  -0.003870  -0.000346
     7  C   -0.663808  -0.346076   0.065069  -0.531385   0.179715  -0.035166
     8  C    0.068327   0.360859   0.237052  -0.115891  -0.265430  -0.125021
     9  C   -2.290840  -1.205958  -1.933852   0.635083  -0.454015  -1.244103
    10  C   -0.481487  -1.595368  -0.189654   0.067115  -0.084057  -0.071441
    11  C   -0.631192  -0.122243   2.058916  -0.553328   0.594840  -0.251594
    12  C   -0.554727  -1.646883  -1.458339   1.530951  -0.463083  -1.660653
    13  C   10.011392   2.149791  -0.940000   0.265787  -1.095740   0.551876
    14  C    2.149791  11.037344  -0.396680  -0.191780  -0.375133   0.818960
    15  C   -0.940000  -0.396680  14.147936  -3.513156  -0.272298   0.773737
    16  C    0.265787  -0.191780  -3.513156  10.713628   0.306003  -1.749438
[...]
 000392,0.00003238,0.00003608,-0.00000314,-0.00005274,-0.00000777,0.000
 00105,0.00009485,0.00002708,-0.00000279,-0.00001156,0.00009400,-0.0000
 0762,0.00000569,0.00000225,-0.00000019,-0.00000791,0.00000301,-0.00000
 016,-0.00000423,-0.00000407,0.00000037,-0.00000596,-0.00000343,0.00000
 033,0.00000147,-0.00000608,0.00000048,0.,-0.00000712,0.00000053,0.0000
 0441,0.00000940,-0.00000076,-0.00000378,-0.00000206,0.00000084,0.00067
 679,-0.00040768,-0.00000913,0.00091715,0.00029593,-0.00006192,0.255893
 71,0.00001877,0.00002642,-0.00000294,-0.00004467,-0.00002072,0.0000020
 2,0.00001757,0.00004502,0.00000271,0.00006582,-0.00000114,-0.00000154,
 0.00001300,-0.00003082,0.00000207,-0.00004286,0.00000953,-0.00000018,-
 0.00014702,-0.00000565,0.00000146,0.00005841,0.00017877,-0.00009084,0.
 00023651,0.00000295,0.00000763,-0.00009654,-0.00001058,0.00000431,0.00
 057727,-0.00057693,-0.00001676,0.00234084,-0.00496785,0.00098646,-0.00
 149795,-0.00004019,0.00002643,0.00007035,-0.00058454,0.00001180,0.0030
 8689,-0.00039134,0.00054448,0.01223543,0.01127553,-0.00074071,-0.13012
 297,-0.15164530,0.01004236,-0.02779194,-0.01243107,0.00148959,0.000000
 74,0.00001405,-0.00000116,-0.00001965,-0.00000641,0.00000026,0.0000208
 8,-0.00000846,0.00000047,-0.00003022,0.00001667,0.00000015,-0.00000219
 ,-0.00015614,0.00000890,-0.00000032,0.00000387,0.00000003,-0.00000317,
 0.00000159,0.,-0.00000413,-0.00000102,0.00000024,-0.00000412,-0.000001
 63,0.00000028,-0.00000003,-0.00000400,0.00000043,0.00000516,0.00000260
 ,-0.00000049,-0.00012692,-0.00010448,0.00000941,0.00005557,-0.00002988
 ,0.00000781,0.00039048,0.00098270,-0.00040609,-0.00039115,0.00075371,-
 0.00034184,0.14066791,0.15727036,-0.00000099,-0.00000276,-0.00000885,0
 .00000308,0.00000195,0.00000008,-0.00000014,0.00000293,0.00008138,-0.0
 0000548,-0.00000078,-0.00001361,-0.00000103,0.00000202,-0.00000314,0.0
 0000322,-0.00000063,0.00000264,0.00001108,-0.00000009,-0.00000286,-0.0
 0001275,-0.00008906,-0.00096924,-0.00001646,0.00000963,0.00012546,0.00
 000768,0.00000355,0.00003378,-0.00005189,-0.00001832,-0.00072685,-0.00
 012900,0.00099414,0.00782053,0.00011801,0.00001389,0.00013372,-0.00001
 026,0.00001221,-0.00042704,-0.00015996,0.00053880,0.00686418,-0.000775
 51,-0.00047671,0.00317340,0.01191992,0.01004273,-0.03822320,0.00215304
 ,0.00122529,0.00349181,-0.00000009,-0.00000072,-0.00000056,0.00000122,
 -0.00000021,-0.00000516,-0.00000119,0.00000071,-0.00000023,0.00000169,
 -0.00000033,0.00001540,-0.00000009,0.00000811,-0.00004323,0.00000001,0
 .00000001,0.00000424,0.00000033,-0.00000005,0.00000127,0.00000037,0.00
 000024,0.00000156,0.00000039,0.00000027,0.00000145,0.,0.00000048,0.000
 00148,-0.00000043,-0.00000039,-0.00000313,0.00000991,0.00000826,0.0000
 0137,-0.00000367,0.00000830,0.00007532,-0.00007153,-0.00039932,-0.0041
 3497,-0.00000816,-0.00034762,-0.00363219,-0.01295323,-0.01149765,0.026
 50553,-0.00622975,0.00065178,0.00001074,-0.00863434,0.01133900,-0.0007
 9533,0.00946704,0.01657980,-0.00135463,0.00916158,-0.00751600,0.000518
 29,0.00146022,-0.00186842,0.00013264,-0.00228742,0.00051578,-0.0000217
 9,0.02741363,-0.01586706,0.00102429,-0.00780742,0.00263193,-0.00014528
 ,0.00053746,-0.00107335,0.00008053,-0.00614309,0.00191577,-0.00010036,
 0.00691651,-0.00983687,0.00070469,-0.00774313,-0.00058074,0.00010923,0
 .00019816,0.00113977,-0.00009087,-0.00119583,-0.00013025,0.00001967,-0
 .05704617,0.01293000,-0.00051146,0.01624975,0.00826653,-0.00075515,-0.
 00579628,0.00495699,-0.00033629,0.00473468,-0.00201389,0.00011726,0.00
 329918,-0.00154952,0.00009193,0.00065272,-0.00084590,0.00005930,0.0061
 7182,-0.00333629,0.00020298,-0.03195364,-0.03759479,0.00322586,-0.1253
 2368,-0.01792824,0.00202039,-0.00020884,0.00053671,-0.00004011,-0.0001
 1761,0.00004663,-0.00000277,0.00005081,-0.00005804,0.00000457,0.000055
 88,-0.00012096,0.00000771,0.00019967,0.00015766,-0.00001486,-0.0001293
 4,0.00002263,-0.00000019,-0.00007195,0.00001002,-0.00000009,0.00001401
 ,-0.00003619,0.00000275,-0.00005061,0.00005903,-0.00000384,0.00022714,
 -0.00020814,0.00001356,-0.00029258,0.00023563,-0.00001806,0.66996661,-
 0.00606907,0.00104181,0.00005537,0.00083515,0.01196819,-0.00077182,0.0
 1381341,0.00668275,-0.00043990,0.00432776,-0.00586462,0.00049248,0.001
 15559,-0.00101635,0.00005253,-0.00089216,0.00016761,-0.00001647,0.0000
 5595,-0.05355308,0.00432757,-0.00727270,0.00539501,-0.00040699,-0.0015
 1145,-0.00423438,0.00034690,-0.00241608,0.00259405,-0.00020021,0.00386
 738,-0.00619282,0.00040079,-0.00357661,0.00081886,-0.00004823,-0.00046
 475,0.00030659,-0.00002135,-0.00011220,-0.00011785,0.00000898,-0.01001
 618,0.02510273,-0.00171681,0.01662564,0.00047079,0.00009187,-0.0048287
 0,0.00702016,-0.00049330,0.00272326,-0.00374613,0.00026849,0.00302929,
 -0.00040417,-0.00000471,-0.00001814,-0.00184657,0.00013775,0.00664572,
 -0.00116998,-0.00001945,-0.02892149,-0.00713004,0.00096641,-0.07860869
 ,-0.26995833,0.01770634,0.00088529,-0.00022121,0.00001146,0.00010854,0
 .00006850,-0.00000681,0.00005620,-0.00006524,0.00000964,0.00002151,0.0
 0013517,-0.00002222,-0.00005008,0.00001042,-0.00000777,-0.00003953,0.0
 0002776,0.00000270,-0.00009007,0.00000449,0.00000050,0.00002205,-0.000
 03074,0.00000269,-0.00005174,0.00000951,0.00000334,0.00026724,0.000865
 96,-0.00007579,0.00033722,-0.00004225,-0.00001879,-0.02143973,0.647611
 99,0.00053632,-0.00000105,0.00109341,0.00002586,-0.00086013,0.00225507
 ,-0.00113837,-0.00046332,0.00258818,-0.00040804,0.00059203,0.00085329,
 -0.00010457,0.00007748,-0.00023199,0.00008781,-0.00002864,-0.00014144,
 -0.00022011,0.00446305,0.00146775,0.00062940,-0.00049019,-0.00055743,0
 .00011387,0.00034254,0.00000310,0.00023882,-0.00023635,-0.00020615,-0.
 00036614,0.00051688,-0.00068140,0.00034340,-0.00007342,-0.00017961,0.0
 0003451,-0.00003494,-0.00001482,0.00001878,0.00000948,-0.00001192,0.00
 128277,-0.00191120,0.00219045,-0.00140769,0.00016306,0.00344869,0.0004
 2808,-0.00057645,0.00022427,-0.00025298,0.00030848,-0.00004031,-0.0002
 6581,0.00003402,-0.00013650,-0.00000475,0.00014516,-0.00009195,-0.0005
 7752,0.00006468,-0.00070292,0.00254846,0.00103972,0.00201401,0.0067621
 0,0.01719229,-0.05332623,-0.00006729,0.00001432,0.00001940,-0.00000754
 ,-0.00000624,-0.00000576,-0.00000427,0.00001065,0.00006384,-0.00000339
 ,-0.00002100,-0.00014482,0.00000144,-0.00000948,-0.00009313,0.00000467
 ,0.00000218,0.00005792,0.00000765,-0.00000041,0.00000032,-0.00000179,0
 .00000318,0.00000579,0.00000487,0.00000245,0.00004697,-0.00002340,-0.0
 0007160,-0.00006643,-0.00002596,-0.00001790,-0.00024403,-0.00291988,-0
 .04069950,0.12780938,0.00685437,-0.00158546,0.00005794,-0.00006537,-0.
 00981142,0.00077115,-0.01049466,-0.01076824,0.00093108,-0.00727865,0.0
 0789226,-0.00055577,-0.00150860,0.00098605,-0.00006409,0.00090646,-0.0
 0019151,0.00000647,-0.00786249,0.02587204,-0.00197697,0.00333271,-0.00
 570426,0.00040530,-0.00144706,0.00323274,-0.00024118,0.00560115,-0.001
 05318,0.00003629,-0.00005506,0.02577254,-0.00200711,0.01091610,-0.0016
 3616,0.00007816,-0.00000109,-0.00213537,0.00017025,0.00262059,-0.00024
 954,-0.00000273,-0.15585283,0.04518664,-0.00268879,-0.08212661,0.00464
 751,0.00039512,0.00928851,-0.01481718,0.00113376,-0.00690735,0.0053627
 0,-0.00037113,-0.00307956,0.00236328,-0.00015769,-0.00141057,-0.000804
 85,0.00007424,-0.00163209,0.00213332,-0.00015423,0.01833544,0.00483171
 ,-0.00048811,-0.03887844,-0.08918665,0.00735363,0.00004047,0.00002174,
 -0.00000196,0.00002650,-0.00005908,0.00000451,-0.00007315,0.00008070,-
 0.00000546,-0.00000174,-0.00005041,0.00000451,-0.00006176,-0.00005186,
 0.00000480,0.00007542,-0.00006391,0.00000388,0.00006769,-0.00001719,0.
 00000095,0.00004272,-0.00025567,0.00001947,0.00017500,0.00013958,-0.00
 001949,-0.00138178,0.00370759,-0.00030887,-0.00067950,0.00017244,-0.00
 000785,-0.32783531,0.01588330,0.00108588,0.67519622,-0.00031595,0.0000
 0769,-0.00007563,-0.00060860,-0.00135788,0.00014471,-0.00126453,0.0010
 7434,-0.00006416,0.00133790,-0.00122702,0.00008733,0.00014011,0.000125
 84,-0.00000118,0.00016535,-0.00010715,0.00000317,-0.00160210,0.0011277
 7,-0.00026873,0.00173634,0.00205724,-0.00029588,0.00209398,-0.00017623
 ,-0.00000085,-0.00184427,-0.00064721,0.00007264,0.02755842,-0.02040941
 ,0.00142216,-0.00509837,-0.00636634,0.00093249,0.00172710,0.00103046,-
 0.00006449,-0.00136865,0.00024381,-0.00001351,0.07470719,-0.15441945,0
 .00705065,0.00091669,0.01544938,-0.00063411,-0.00631554,-0.00019989,0.
 00056898,0.00205666,-0.00078933,-0.00004915,0.00006056,-0.00105296,0.0
 0008994,0.00065642,0.00149934,-0.00013483,-0.00201013,0.00005667,0.000
 00111,0.00468879,-0.00342801,0.00063615,-0.04252613,-0.00750536,0.0014
 5649,-0.00046582,0.00027469,-0.00001712,-0.00005106,0.00000288,0.00000
 069,0.00000535,-0.00000124,0.00000151,-0.00000778,-0.00006003,0.000009
 52,0.00004120,0.00001266,0.00000010,0.00001385,0.00005400,-0.00000881,
 -0.00006653,0.00001053,0.00000206,0.00003380,-0.00038145,0.00002780,0.
 00000584,0.00007099,-0.00007141,-0.00369366,-0.00041640,-0.00022026,-0
 .00114891,0.00051718,-0.00003214,-0.07041560,-0.12314370,0.00619409,0.
 05242257,0.60737850,-0.00004150,-0.00006497,-0.00098881,0.00005173,0.0
 0022222,0.00041002,0.00018830,0.00001615,0.00011543,-0.00004272,0.0000
 3187,0.00003200,0.00000288,-0.00000823,0.00012770,-0.00002099,0.000006
 22,-0.00004841,0.00017060,-0.00050057,-0.00244601,-0.00017692,-0.00023
 325,-0.00151877,-0.00015107,-0.00001028,0.00004143,0.00009741,0.000065
 81,0.00007620,-0.00214777,0.00143836,0.00067367,0.00034868,0.00090294,
 0.00493109,-0.00013164,-0.00003183,0.00039579,0.00008415,-0.00002296,-
 0.00007631,-0.00499569,0.00729967,-0.05666371,0.00068661,-0.00066584,0
 .00748327,0.00046938,0.00064104,0.00634056,-0.00011262,-0.00007712,-0.
 00118876,0.00002211,0.00007036,0.00009736,-0.00004065,-0.00012247,-0.0
 0014560,0.00016951,-0.00003378,-0.00014482,-0.00047672,0.00063503,0.00
 517066,0.00370622,0.00184995,0.00637158,0.00003613,-0.00002117,0.00000
 748,0.00000381,0.00000076,0.00000610,0.00000035,0.00000087,0.00001850,
 0.00000113,0.00000988,0.00006016,-0.00000254,0.00000087,0.00001823,-0.
 00000220,-0.00000815,-0.00005647,0.00000488,0.00000166,0.00002978,-0.0
 0000319,0.00003022,-0.00002478,-0.00000905,-0.00007258,-0.00083604,0.0
 0026966,-0.00028320,-0.00361523,0.00009541,-0.00004332,-0.00001553,0.0
 0783388,0.00546681,-0.05198504,-0.00882244,-0.03889403,0.11850641,-0.0
 0011921,0.00006406,-0.00000261,0.00012291,0.00032191,-0.00002361,0.000
 59400,-0.00026161,0.00001054,-0.00004842,-0.00018222,0.00000931,0.0000
 1744,-0.00001502,0.00000127,0.00002005,-0.00001774,0.00000179,-0.00045
 346,-0.00275990,0.00027288,-0.00041212,-0.00000172,0.00000509,0.000068
 78,-0.00008022,0.00000248,-0.00003664,0.00006090,-0.00000378,0.0000474
 3,-0.00029479,0.00002398,0.00001610,0.00014553,-0.00001569,-0.00003154
 ,-0.00000224,0.00000018,-0.00003213,-0.00000199,0.00000033,-0.00314284
 ,-0.00301912,0.00032942,-0.00027345,0.00119600,-0.00009401,-0.00046061
 ,-0.00023295,0.00001808,0.00009263,-0.00012719,0.00000956,0.00009380,0
 .00000927,-0.00000131,-0.00008424,0.00003971,-0.00000341,0.00042284,-0
 .00034839,0.00002381,-0.00047546,-0.00020873,-0.00000615,0.01169670,-0
 .00953386,0.00068707,-0.00042689,0.00000891,0.00000566,0.00003009,0.00
 000326,-0.00000054,0.00000481,0.00002819,-0.00000206,0.00000553,0.0000
 1220,-0.00000123,-0.00001666,-0.00000551,0.00000067,0.00000243,0.00000
 669,-0.00000005,0.00000895,0.00000501,-0.00000050,-0.00001060,0.000021
 96,-0.00000160,-0.00001536,0.00001104,-0.00000037,-0.00001278,-0.00012
 794,0.00001029,-0.00013310,0.00006026,-0.00000282,-0.15966882,0.128113
 71,-0.00900288,-0.01922161,0.02591769,-0.00182519,0.17144473,0.0000792
 1,0.00010423,0.00000420,-0.00005815,-0.00011463,0.00003346,0.00135589,
 -0.00114875,0.00003268,-0.00034551,-0.00021892,-0.00002973,-0.00001200
 ,-0.00007056,0.00000752,0.00006832,-0.00006130,0.00000935,-0.00396101,
 -0.00228003,0.00070579,-0.00040430,0.00004104,0.00001428,0.00012429,-0
 .00003002,-0.00002888,-0.00007943,0.00001325,0.00000607,-0.00011994,-0
 .00022792,0.00003114,-0.00006881,0.00009786,-0.00004575,-0.00000359,-0
 .00000071,-0.00000236,-0.00004900,-0.00005303,0.00000379,-0.00200938,0
 .00112339,0.00055067,0.00022568,0.00016495,-0.00004072,-0.00004790,0.0
 0004174,-0.00004072,0.00005744,0.00000310,0.00000296,0.00003064,0.0001
 0725,-0.00000655,-0.00030760,0.00024968,-0.00002617,-0.00026763,-0.000
 47379,0.00004046,0.00074890,0.00125936,-0.00035007,0.02017944,-0.02120
 117,0.00186173,-0.00054892,0.00040863,-0.00000156,-0.00001149,-0.00001
 056,0.00000070,-0.00000681,0.00004138,-0.00000146,-0.00001068,0.000006
 92,-0.00000253,-0.00005184,-0.00003902,0.00000446,0.00000825,-0.000018
 43,0.00000594,0.00002150,-0.00001656,0.00000073,0.00000892,0.00000605,
 -0.00000032,0.00000908,0.00000132,0.00000323,0.00003248,-0.00003898,0.
 00000449,-0.00001627,0.00000501,0.00000684,0.13079239,-0.22538129,0.01
 341173,-0.00595845,0.00622791,-0.00007977,-0.13878067,0.24001491,-0.00
 000386,0.00000435,0.00016627,0.00000609,0.00003041,0.00030484,-0.00011
 575,0.00004626,-0.00058826,0.00002207,-0.00003124,-0.00063471,0.000001
 01,0.00000755,0.00002392,-0.00000496,0.00001008,0.00006506,0.00036664,
 0.00069584,0.00626785,0.00003653,0.00001091,0.00017863,-0.00001352,-0.
 00002717,-0.00038376,0.00000716,0.00000491,0.00008182,0.00001041,0.000
 03247,0.00015506,0.00000096,-0.00004759,-0.00049130,0.00000028,-0.0000
 0235,-0.00003102,0.00000400,0.00000336,-0.00001029,0.00025039,0.000559
 18,0.00790552,-0.00001815,-0.00004877,-0.00032784,0.00000349,-0.000039
 22,-0.00048126,-0.00000479,0.00000454,0.00004681,-0.00000293,-0.000006
 39,0.00002735,0.00002377,-0.00002909,-0.00011644,0.00001751,0.00004105
 ,0.00001164,-0.00008125,-0.00034213,-0.00311183,-0.00163485,0.00211282
 ,0.00463896,0.00004928,-0.00000619,0.00033021,0.00000062,0.00000057,-0
 .00000290,0.00000068,-0.00000175,0.00002216,0.00000056,-0.00000273,-0.
 00002643,0.00000430,0.00000407,0.00001206,-0.00000017,0.00000596,0.000
 05807,-0.00000180,0.00000087,-0.00000492,-0.00000058,-0.00000043,0.000
 00297,-0.00000021,0.00000322,0.00004342,-0.00000224,0.00000583,0.00002
 157,0.00000316,0.00000620,0.00009026,-0.00921310,0.01343346,-0.0406607
 3,0.00066713,-0.00034824,0.00458573,0.00961791,-0.01559419,0.02667968,
 0.00013605,-0.00012910,0.00000819,-0.00045881,-0.00024929,0.00002052,-
 0.00015170,-0.00029375,0.00002444,-0.00012111,0.00012764,-0.00000949,-
 0.00005455,0.00002865,-0.00000161,0.00002188,-0.00002518,0.00000182,-0
 .00006917,0.00068990,-0.00005509,-0.00025720,-0.00040227,0.00003370,0.
 00002869,0.00005504,-0.00000633,0.00009113,-0.00002117,0.00000093,-0.0
 0398379,0.00113730,-0.00002365,0.00043355,0.00123251,-0.00010061,-0.00
 040185,-0.00005416,0.00000553,0.00006872,-0.00002046,0.00000143,0.0033
 5007,0.02420393,-0.00189276,-0.00249357,0.00449574,-0.00034716,0.00014
 742,-0.00035055,0.00002673,-0.00008437,0.00009240,-0.00000523,-0.00005
 780,0.00002200,-0.00000125,-0.00004964,0.00001953,-0.00000100,-0.00002
 574,-0.00007412,0.00000565,0.00041546,-0.00100630,0.00007705,-0.005260
 46,-0.00015366,0.00011550,-0.00003374,0.00002696,-0.00000193,-0.000030
 11,-0.00000857,0.00000106,-0.00001015,-0.00000200,0.00000019,-0.000003
 69,-0.00002103,0.00000190,-0.00000121,-0.00000829,0.00000069,0.0000113
 8,0.00000102,-0.00000002,0.00001047,0.00000491,-0.00000025,-0.00000451
 ,0.00012556,-0.00000974,-0.00000821,-0.00007129,0.00000560,-0.00196197
 ,-0.00017911,0.00003431,-0.00000960,-0.00000408,0.00000065,-0.00824106
 ,-0.03239484,0.00264767,-0.06562408,-0.05748218,0.00476008,0.00038670,
 -0.00062305,0.00000423,0.08429659,0.00005662,-0.00006544,-0.00000248,-
 0.00025570,0.00002247,-0.00002600,0.00004974,0.00002831,-0.00000089,-0
 .00006730,0.00000511,-0.00000477,-0.00005326,0.00001069,0.00000126,0.0
 0003614,0.00001954,-0.00000150,0.00014364,0.00025188,-0.00003686,0.000
 22369,0.00032522,-0.00002691,-0.00009239,-0.00010976,-0.00000697,0.000
 09199,-0.00000113,-0.00000040,0.00299530,0.00073325,0.00020782,-0.0005
 3407,-0.00104066,0.00008123,0.00035598,0.00005567,-0.00002659,-0.00002
 193,0.00000656,0.00000336,-0.00347113,-0.01997187,0.00184302,-0.003496
 84,0.00003807,-0.00012855,0.00039562,0.00078511,-0.00005984,-0.0001390
 5,0.00020198,-0.00000299,-0.00001979,0.00004782,-0.00000375,-0.0000634
 0,-0.00002173,0.00000316,0.00004327,-0.00008516,0.00000279,0.00002877,
 -0.00034652,0.00004445,-0.00112059,0.00210194,0.00039377,-0.00000096,0
 .00001488,-0.00000209,-0.00001893,-0.00000381,0.00000170,-0.00000882,-
 0.00000240,-0.00000024,-0.00000570,-0.00000861,0.00000276,-0.00000127,
 -0.00000916,0.00000103,-0.00000614,-0.00001989,0.00000303,-0.00000337,
 -0.00002144,0.00000379,0.00003613,-0.00010951,0.00000872,0.00003666,0.
 00008717,-0.00000751,0.00020188,0.00170625,-0.00010177,0.00007474,-0.0
 0004555,0.00000522,-0.00036807,-0.00618363,0.00091435,-0.05630834,-0.3
 1553281,0.02248283,-0.00002448,0.00146771,-0.00049645,0.06131136,0.335
 66945,-0.00000638,-0.00000091,-0.00009103,0.00002103,-0.00002601,-0.00
 033583,-0.00000236,0.00000211,0.00002212,0.00000582,-0.00000648,-0.000
 06271,0.00000480,0.00000059,0.00002107,-0.00000297,-0.00000098,0.00000
 442,-0.00001236,-0.00004163,-0.00020074,-0.00001522,-0.00002155,0.0000
 0681,0.00000523,-0.00000828,-0.00020830,-0.00000797,0.00000055,0.00000
 367,-0.00016886,0.00022364,0.00370247,0.00003745,0.00006615,-0.0000656
 9,-0.00002649,-0.00002313,-0.00024407,0.00000150,0.00000338,0.00004681
 ,0.00026935,0.00160965,0.00310280,0.00027801,-0.00019643,-0.00197460,-
 0.00003178,-0.00005339,0.00006634,0.00001290,-0.00000498,0.00014931,0.
 00000204,-0.00000413,-0.00000197,0.00000548,0.00000247,0.00001152,-0.0
 0000357,0.00000378,-0.00004503,-0.00000390,0.00005317,0.00022104,0.000
 19119,0.00038610,0.00698811,0.00000026,-0.00000233,-0.00001182,0.00000
 187,0.00000161,0.00001577,0.00000073,-0.00000030,-0.00000641,0.0000007
 0,0.00000290,0.00002592,0.00000014,0.00000109,0.00000376,0.00000054,0.
 00000297,0.00001797,0.00000040,0.00000372,0.00002643,-0.00000274,0.000
 00795,0.00000521,-0.00000284,-0.00000658,-0.00000417,0.00000454,-0.000
 09841,0.00043558,-0.00000551,0.00000589,0.00002895,0.00014380,0.001184
 05,0.00538078,0.00466937,0.02249293,-0.03574488,-0.00004251,-0.0004914
 7,-0.00484815,-0.00532168,-0.02506771,0.02355857\\0.00018255,-0.000145
 49,0.00000978,-0.00038495,0.00012568,-0.00000646,0.00051810,-0.0000948
 9,0.00000326,-0.00026494,0.00002783,0.00000014,-0.00004725,0.00003805,
 -0.00000257,0.00008407,0.00001091,-0.00000183,-0.00015951,-0.00011041,
 0.00001030,0.00013732,0.00009465,-0.00000927,-0.00004769,0.00005208,-0
 .00000258,0.00007112,-0.00013757,0.00000982,-0.00004929,-0.00007000,0.
 00000583,0.00006353,0.00000742,-0.00000077,-0.00001311,0.00000552,-0.0
 0000032,0.00009670,-0.00000160,-0.00000101,-0.00005105,0.00009737,-0.0
 0000797,0.00003915,-0.00002388,0.00000137,-0.00004769,0.00001154,-0.00
 000051,-0.00002137,-0.00001475,0.00000122,-0.00013855,0.00011035,-0.00
 000740,-0.00000508,-0.00001324,0.00000114,-0.00000962,0.00007222,-0.00
 000586,0.00022192,-0.00010171,0.00000670,-0.00023601,0.00020866,-0.000
 01567,-0.00001228,-0.00001142,0.00000094,0.00000285,0.00001146,-0.0000
 0096,0.00001240,-0.00000398,0.00000019,0.00000697,-0.00000552,0.000000
 38,-0.00002742,0.00000873,-0.00000041,-0.00005301,0.00001940,-0.000001
 05,-0.00000186,0.00001317,-0.00000091,0.00001278,-0.00001137,0.0000008
 1,0.00000365,-0.00002214,0.00000172,-0.00002331,0.00001530,-0.00000097
 ,0.00000492,-0.00000692,0.00000037,-0.00008154,-0.00015213,0.00001283,
 0.00019771,-0.00005554,0.00000382,0.00002645,0.00002957,-0.00000257,-0
 .00000668,0.00002263,-0.00000151\\\@


 The lyf so short, the craft so long to lerne.
                             -- Chaucer
 Job cpu time:       0 days 21 hours 53 minutes 25.1 seconds.
 Elapsed time:       0 days  1 hours  5 minutes 52.5 seconds.
 File lengths (MBytes):  RWF=   2634 Int=      0 D2E=      0 Chk=     44 Scr=      1
 Normal termination of Gaussian 16 at Fri Jun 14 21:30:01 2019.
