 Entering Gaussian System, Link 0=g09
 Initial command:
 /usr/local/Cluster-Apps/gaussian/g09/l1.exe "/rds/user/am2145/hpc-work/scratch/19186649/Gau-145514.inp" -scrdir="/rds/user/am2145/hpc-work/scratch/19186649/"
 Entering Link 1 = /usr/local/Cluster-Apps/gaussian/g09/l1.exe PID=    145515.
  
 Copyright (c) 1988,1990,1992,1993,1995,1998,2003,2009,2013,
            Gaussian, Inc.  All Rights Reserved.
  
 This is part of the Gaussian(R) 09 program.  It is based on
 the Gaussian(R) 03 system (copyright 2003, Gaussian, Inc.),
 the Gaussian(R) 98 system (copyright 1998, Gaussian, Inc.),
 the Gaussian(R) 94 system (copyright 1995, Gaussian, Inc.),
 the Gaussian 92(TM) system (copyright 1992, Gaussian, Inc.),
 the Gaussian 90(TM) system (copyright 1990, Gaussian, Inc.),
 the Gaussian 88(TM) system (copyright 1988, Gaussian, Inc.),
 the Gaussian 86(TM) system (copyright 1986, Carnegie Mellon
 University), and the Gaussian 82(TM) system (copyright 1983,
 Carnegie Mellon University). Gaussian is a federally registered
 trademark of Gaussian, Inc.
  
 This software contains proprietary and confidential information,
 including trade secrets, belonging to Gaussian, Inc.
  
 This software is provided under written license and may be
 used, copied, transmitted, or stored only in accord with that
 written license.
  
 The following legend is applicable only to US Government
 contracts under FAR:
  
                    RESTRICTED RIGHTS LEGEND
  
 Use, reproduction and disclosure by the US Government is
 subject to restrictions as set forth in subparagraphs (a)
 and (c) of the Commercial Computer Software - Restricted
 Rights clause in FAR 52.227-19.
  
 Gaussian, Inc.
 340 Quinnipiac St., Bldg. 40, Wallingford CT 06492
  
  
 ---------------------------------------------------------------
 Warning -- This program may not be used in any manner that
 competes with the business of Gaussian, Inc. or will provide
 assistance to any competitor of Gaussian, Inc.  The licensee
 of this program is prohibited from giving any competitor of
 Gaussian, Inc. access to this program.  By using this program,
 the user acknowledges that Gaussian, Inc. is engaged in the
 business of creating and licensing software in the field of
 computational chemistry and represents and warrants to the
 licensee that it is not a competitor of Gaussian, Inc. and that
 it will not use this program in any manner prohibited above.
 ---------------------------------------------------------------
  

 Cite this work as:
 Gaussian 09, Revision D.01,
 M. J. Frisch, G. W. Trucks, H. B. Schlegel, G. E. Scuseria, 
 M. A. Robb, J. R. Cheeseman, G. Scalmani, V. Barone, B. Mennucci, 
 G. A. Petersson, H. Nakatsuji, M. Caricato, X. Li, H. P. Hratchian, 
 A. F. Izmaylov, J. Bloino, G. Zheng, J. L. Sonnenberg, M. Hada, 
 M. Ehara, K. Toyota, R. Fukuda, J. Hasegawa, M. Ishida, T. Nakajima, 
 Y. Honda, O. Kitao, H. Nakai, T. Vreven, J. A. Montgomery, Jr., 
 J. E. Peralta, F. Ogliaro, M. Bearpark, J. J. Heyd, E. Brothers, 
 K. N. Kudin, V. N. Staroverov, T. Keith, R. Kobayashi, J. Normand, 
 K. Raghavachari, A. Rendell, J. C. Burant, S. S. Iyengar, J. Tomasi, 
 M. Cossi, N. Rega, J. M. Millam, M. Klene, J. E. Knox, J. B. Cross, 
 V. Bakken, C. Adamo, J. Jaramillo, R. Gomperts, R. E. Stratmann, 
 O. Yazyev, A. J. Austin, R. Cammi, C. Pomelli, J. W. Ochterski, 
 R. L. Martin, K. Morokuma, V. G. Zakrzewski, G. A. Voth, 
 P. Salvador, J. J. Dannenberg, S. Dapprich, A. D. Daniels, 
 O. Farkas, J. B. Foresman, J. V. Ortiz, J. Cioslowski, 
 and D. J. Fox, Gaussian, Inc., Wallingford CT, 2013.
 
 ******************************************
 Gaussian 09:  ES64L-G09RevD.01 24-Apr-2013
                 2-Feb-2020 
 ******************************************
 %NProcShared=20
 Will use up to   20 processors via shared memory.
 %mem=64GB
 %Chk=BPrad.chk
 ------------------------------
 #n opt freq b3lyp/6-311+g(d,p)
 ------------------------------
 1/14=-1,18=20,19=15,26=3,38=1/1,3;
 2/9=110,12=2,17=6,18=5,40=1/2;
 3/5=4,6=6,7=111,11=2,16=1,25=1,30=1,71=1,74=-5/1,2,3;
 4//1;
 5/5=2,38=5/2;
 6/7=2,8=2,9=2,10=2,28=1/1;
 7//1,2,3,16;
 1/14=-1,18=20,19=15,26=3/3(2);
 2/9=110/2;
 99//99;
 2/9=110/2;
 3/5=4,6=6,7=111,11=2,16=1,25=1,30=1,71=1,74=-5/1,2,3;
 4/5=5,16=3,69=1/1;
 5/5=2,38=5/2;
 7//1,2,3,16;
 1/14=-1,18=20,19=15,26=3/3(-5);
 2/9=110/2;
 6/7=2,8=2,9=2,10=2,19=2,28=1/1;
 99/9=1/99;
 -----
 BPrad
 -----
 Symbolic Z-matrix:
 Charge =  0 Multiplicity = 3
 C                    -3.82751   0.3863   -0.00015 
 C                    -2.53132  -0.10884  -0.00019 
 C                    -1.39131   0.70288  -0.00022 
 C                    -1.48161   2.09152  -0.00018 
 C                    -3.93432   1.82964  -0.00023 
 C                    -2.8226    2.63598  -0.00023 
 C                    -0.22102  -0.10125  -0.0001 
 C                     1.04152   0.56173   0. 
 C                     0.96953   2.01503   0.00009 
 C                    -0.24313   2.74498  -0.00002 
 C                     2.34097  -0.08844   0. 
 C                     3.50354   0.7417    0.00016 
 C                     3.38718   2.16822   0.00038 
 C                     2.18038   2.77532   0.00032 
 C                     2.55719  -1.53808  -0.00015 
 C                     3.90863  -2.00128  -0.00031 
 C                     5.00864  -1.16381  -0.00023 
 C                     4.81149   0.20289   0.00006 
 C                    -4.84541  -0.6033    0.00003 
 C                    -4.49695  -1.95271   0.00033 
 C                    -3.15729  -2.41109   0.00038 
 C                    -2.13506  -1.4644    0.00005 
 C                    -0.67519  -1.46404   0. 
 H                    -2.9612   -3.47803   0.00064 
 H                    -5.2909   -2.69157   0.00055 
 H                    -5.89237  -0.31919   0.00014 
 H                    -4.91925   2.2853   -0.00025 
 H                    -2.94896   3.71377  -0.00026 
 H                    -0.18422   3.82861   0.00007 
 H                     2.10691   3.85746   0.00047 
 H                     4.30027   2.75317   0.00061 
 H                     5.65284   0.88634   0.00021 
 H                     4.0667   -3.07347  -0.0005 
 H                     6.00937  -1.58065  -0.00036 
 C                     0.1423   -2.69503  -0.00002 
 C                     1.625    -2.59247   0.00005 
 H                    -0.15464  -3.31757  -0.86353 
 H                     2.08833  -3.5749    0.00012 
 H                    -0.15481  -3.31778   0.86325 
 

 GradGradGradGradGradGradGradGradGradGradGradGradGradGradGradGradGradGrad
 Berny optimization.
 Initialization pass.
                           ----------------------------
                           !    Initial Parameters    !
                           ! (Angstroms and Degrees)  !
 --------------------------                            --------------------------
 ! Name  Definition              Value          Derivative Info.                !
 --------------------------------------------------------------------------------
 ! R1    R(1,2)                  1.3875         estimate D2E/DX2                !
 ! R2    R(1,5)                  1.4473         estimate D2E/DX2                !
 ! R3    R(1,19)                 1.4197         estimate D2E/DX2                !
 ! R4    R(2,3)                  1.3995         estimate D2E/DX2                !
 ! R5    R(2,22)                 1.4123         estimate D2E/DX2                !
 ! R6    R(3,4)                  1.3916         estimate D2E/DX2                !
 ! R7    R(3,7)                  1.4199         estimate D2E/DX2                !
 ! R8    R(4,6)                  1.4473         estimate D2E/DX2                !
 ! R9    R(4,10)                 1.4003         estimate D2E/DX2                !
 ! R10   R(5,6)                  1.3734         estimate D2E/DX2                !
 ! R11   R(5,27)                 1.0852         estimate D2E/DX2                !
 ! R12   R(6,28)                 1.0852         estimate D2E/DX2                !
 ! R13   R(7,8)                  1.426          estimate D2E/DX2                !
 ! R14   R(7,23)                 1.4365         estimate D2E/DX2                !
 ! R15   R(8,9)                  1.4551         estimate D2E/DX2                !
 ! R16   R(8,11)                 1.453          estimate D2E/DX2                !
 ! R17   R(9,10)                 1.4154         estimate D2E/DX2                !
 ! R18   R(9,14)                 1.4298         estimate D2E/DX2                !
 ! R19   R(10,29)                1.0852         estimate D2E/DX2                !
 ! R20   R(11,12)                1.4285         estimate D2E/DX2                !
 ! R21   R(11,15)                1.4657         estimate D2E/DX2                !
 ! R22   R(12,13)                1.4313         estimate D2E/DX2                !
 ! R23   R(12,18)                1.4146         estimate D2E/DX2                !
 ! R24   R(13,14)                1.3509         estimate D2E/DX2                !
 ! R25   R(13,31)                1.0844         estimate D2E/DX2                !
 ! R26   R(14,30)                1.0846         estimate D2E/DX2                !
 ! R27   R(15,16)                1.4286         estimate D2E/DX2                !
 ! R28   R(15,36)                1.4074         estimate D2E/DX2                !
 ! R29   R(16,17)                1.3825         estimate D2E/DX2                !
 ! R30   R(16,33)                1.0838         estimate D2E/DX2                !
 ! R31   R(17,18)                1.3808         estimate D2E/DX2                !
 ! R32   R(17,34)                1.0841         estimate D2E/DX2                !
 ! R33   R(18,32)                1.084          estimate D2E/DX2                !
 ! R34   R(19,20)                1.3937         estimate D2E/DX2                !
 ! R35   R(19,26)                1.0848         estimate D2E/DX2                !
 ! R36   R(20,21)                1.4159         estimate D2E/DX2                !
 ! R37   R(20,25)                1.0846         estimate D2E/DX2                !
 ! R38   R(21,22)                1.3933         estimate D2E/DX2                !
 ! R39   R(21,24)                1.0848         estimate D2E/DX2                !
 ! R40   R(22,23)                1.4599         estimate D2E/DX2                !
 ! R41   R(23,35)                1.4777         estimate D2E/DX2                !
 ! R42   R(35,36)                1.4862         estimate D2E/DX2                !
 ! R43   R(35,37)                1.1052         estimate D2E/DX2                !
 ! R44   R(35,39)                1.1051         estimate D2E/DX2                !
 ! R45   R(36,38)                1.0862         estimate D2E/DX2                !
 ! A1    A(2,1,5)              115.139          estimate D2E/DX2                !
 ! A2    A(2,1,19)             114.901          estimate D2E/DX2                !
 ! A3    A(5,1,19)             129.9601         estimate D2E/DX2                !
 ! A4    A(1,2,3)              123.6414         estimate D2E/DX2                !
 ! A5    A(1,2,22)             127.2015         estimate D2E/DX2                !
 ! A6    A(3,2,22)             109.1572         estimate D2E/DX2                !
 ! A7    A(2,3,4)              121.7314         estimate D2E/DX2                !
 ! A8    A(2,3,7)              110.0543         estimate D2E/DX2                !
 ! A9    A(4,3,7)              128.2143         estimate D2E/DX2                !
 ! A10   A(3,4,6)              115.8184         estimate D2E/DX2                !
 ! A11   A(3,4,10)             114.0969         estimate D2E/DX2                !
 ! A12   A(6,4,10)             130.0847         estimate D2E/DX2                !
 ! A13   A(1,5,6)              121.7214         estimate D2E/DX2                !
 ! A14   A(1,5,27)             119.0591         estimate D2E/DX2                !
 ! A15   A(6,5,27)             119.2195         estimate D2E/DX2                !
 ! A16   A(4,6,5)              121.9485         estimate D2E/DX2                !
 ! A17   A(4,6,28)             118.7846         estimate D2E/DX2                !
 ! A18   A(5,6,28)             119.2669         estimate D2E/DX2                !
 ! A19   A(3,7,8)              117.8016         estimate D2E/DX2                !
 ! A20   A(3,7,23)             106.0623         estimate D2E/DX2                !
 ! A21   A(8,7,23)             136.1361         estimate D2E/DX2                !
 ! A22   A(7,8,9)              114.8688         estimate D2E/DX2                !
 ! A23   A(7,8,11)             125.7146         estimate D2E/DX2                !
 ! A24   A(9,8,11)             119.4166         estimate D2E/DX2                !
 ! A25   A(8,9,10)             123.8813         estimate D2E/DX2                !
 ! A26   A(8,9,14)             119.2888         estimate D2E/DX2                !
 ! A27   A(10,9,14)            116.8299         estimate D2E/DX2                !
 ! A28   A(4,10,9)             121.137          estimate D2E/DX2                !
 ! A29   A(4,10,29)            120.9292         estimate D2E/DX2                !
 ! A30   A(9,10,29)            117.9337         estimate D2E/DX2                !
 ! A31   A(8,11,12)            117.8903         estimate D2E/DX2                !
 ! A32   A(8,11,15)            125.0641         estimate D2E/DX2                !
 ! A33   A(12,11,15)           117.0456         estimate D2E/DX2                !
 ! A34   A(11,12,13)           120.8657         estimate D2E/DX2                !
 ! A35   A(11,12,18)           122.0818         estimate D2E/DX2                !
 ! A36   A(13,12,18)           117.0525         estimate D2E/DX2                !
 ! A37   A(12,13,14)           121.3687         estimate D2E/DX2                !
 ! A38   A(12,13,31)           117.9815         estimate D2E/DX2                !
 ! A39   A(14,13,31)           120.6499         estimate D2E/DX2                !
 ! A40   A(9,14,13)            121.17           estimate D2E/DX2                !
 ! A41   A(9,14,30)            118.2406         estimate D2E/DX2                !
 ! A42   A(13,14,30)           120.5894         estimate D2E/DX2                !
 ! A43   A(11,15,16)           117.4023         estimate D2E/DX2                !
 ! A44   A(11,15,36)           130.0366         estimate D2E/DX2                !
 ! A45   A(16,15,36)           112.5611         estimate D2E/DX2                !
 ! A46   A(15,16,17)           123.798          estimate D2E/DX2                !
 ! A47   A(15,16,33)           117.3055         estimate D2E/DX2                !
 ! A48   A(17,16,33)           118.8965         estimate D2E/DX2                !
 ! A49   A(16,17,18)           119.0746         estimate D2E/DX2                !
 ! A50   A(16,17,34)           120.1034         estimate D2E/DX2                !
 ! A51   A(18,17,34)           120.8219         estimate D2E/DX2                !
 ! A52   A(12,18,17)           120.5977         estimate D2E/DX2                !
 ! A53   A(12,18,32)           118.523          estimate D2E/DX2                !
 ! A54   A(17,18,32)           120.8794         estimate D2E/DX2                !
 ! A55   A(1,19,20)            119.7131         estimate D2E/DX2                !
 ! A56   A(1,19,26)            120.6251         estimate D2E/DX2                !
 ! A57   A(20,19,26)           119.6618         estimate D2E/DX2                !
 ! A58   A(19,20,21)           123.3682         estimate D2E/DX2                !
 ! A59   A(19,20,25)           118.4624         estimate D2E/DX2                !
 ! A60   A(21,20,25)           118.1694         estimate D2E/DX2                !
 ! A61   A(20,21,22)           118.3082         estimate D2E/DX2                !
 ! A62   A(20,21,24)           119.303          estimate D2E/DX2                !
 ! A63   A(22,21,24)           122.3888         estimate D2E/DX2                !
 ! A64   A(2,22,21)            116.5081         estimate D2E/DX2                !
 ! A65   A(2,22,23)            106.2807         estimate D2E/DX2                !
 ! A66   A(21,22,23)           137.2113         estimate D2E/DX2                !
 ! A67   A(7,23,22)            108.4455         estimate D2E/DX2                !
 ! A68   A(7,23,35)            127.9808         estimate D2E/DX2                !
 ! A69   A(22,23,35)           123.5737         estimate D2E/DX2                !
 ! A70   A(23,35,36)           119.6309         estimate D2E/DX2                !
 ! A71   A(23,35,37)           108.7006         estimate D2E/DX2                !
 ! A72   A(23,35,39)           108.7042         estimate D2E/DX2                !
 ! A73   A(36,35,37)           107.8757         estimate D2E/DX2                !
 ! A74   A(36,35,39)           107.8817         estimate D2E/DX2                !
 ! A75   A(37,35,39)           102.7491         estimate D2E/DX2                !
 ! A76   A(15,36,35)           135.4369         estimate D2E/DX2                !
 ! A77   A(15,36,38)           113.2707         estimate D2E/DX2                !
 ! A78   A(35,36,38)           111.2924         estimate D2E/DX2                !
 ! D1    D(5,1,2,3)              0.0039         estimate D2E/DX2                !
 ! D2    D(5,1,2,22)           179.9908         estimate D2E/DX2                !
 ! D3    D(19,1,2,3)          -179.9931         estimate D2E/DX2                !
 ! D4    D(19,1,2,22)           -0.0062         estimate D2E/DX2                !
 ! D5    D(2,1,5,6)             -0.0053         estimate D2E/DX2                !
 ! D6    D(2,1,5,27)           179.9972         estimate D2E/DX2                !
 ! D7    D(19,1,5,6)           179.9912         estimate D2E/DX2                !
 ! D8    D(19,1,5,27)           -0.0063         estimate D2E/DX2                !
 ! D9    D(2,1,19,20)            0.0085         estimate D2E/DX2                !
 ! D10   D(2,1,19,26)          179.996          estimate D2E/DX2                !
 ! D11   D(5,1,19,20)         -179.988          estimate D2E/DX2                !
 ! D12   D(5,1,19,26)           -0.0005         estimate D2E/DX2                !
 ! D13   D(1,2,3,4)              0.0015         estimate D2E/DX2                !
 ! D14   D(1,2,3,7)            179.9932         estimate D2E/DX2                !
 ! D15   D(22,2,3,4)          -179.9874         estimate D2E/DX2                !
 ! D16   D(22,2,3,7)             0.0043         estimate D2E/DX2                !
 ! D17   D(1,2,22,21)           -0.0008         estimate D2E/DX2                !
 ! D18   D(1,2,22,23)         -179.9954         estimate D2E/DX2                !
 ! D19   D(3,2,22,21)          179.9876         estimate D2E/DX2                !
 ! D20   D(3,2,22,23)           -0.007          estimate D2E/DX2                !
 ! D21   D(2,3,4,6)             -0.0055         estimate D2E/DX2                !
 ! D22   D(2,3,4,10)           179.9911         estimate D2E/DX2                !
 ! D23   D(7,3,4,6)           -179.9955         estimate D2E/DX2                !
 ! D24   D(7,3,4,10)             0.001          estimate D2E/DX2                !
 ! D25   D(2,3,7,8)           -179.9949         estimate D2E/DX2                !
 ! D26   D(2,3,7,23)             0.0003         estimate D2E/DX2                !
 ! D27   D(4,3,7,8)             -0.0039         estimate D2E/DX2                !
 ! D28   D(4,3,7,23)           179.9913         estimate D2E/DX2                !
 ! D29   D(3,4,6,5)              0.004          estimate D2E/DX2                !
 ! D30   D(3,4,6,28)          -179.9965         estimate D2E/DX2                !
 ! D31   D(10,4,6,5)          -179.9919         estimate D2E/DX2                !
 ! D32   D(10,4,6,28)            0.0076         estimate D2E/DX2                !
 ! D33   D(3,4,10,9)            -0.0001         estimate D2E/DX2                !
 ! D34   D(3,4,10,29)         -179.9973         estimate D2E/DX2                !
 ! D35   D(6,4,10,9)           179.9958         estimate D2E/DX2                !
 ! D36   D(6,4,10,29)           -0.0013         estimate D2E/DX2                !
 ! D37   D(1,5,6,4)              0.0014         estimate D2E/DX2                !
 ! D38   D(1,5,6,28)          -179.9981         estimate D2E/DX2                !
 ! D39   D(27,5,6,4)           179.9989         estimate D2E/DX2                !
 ! D40   D(27,5,6,28)           -0.0006         estimate D2E/DX2                !
 ! D41   D(3,7,8,9)              0.0054         estimate D2E/DX2                !
 ! D42   D(3,7,8,11)          -179.9938         estimate D2E/DX2                !
 ! D43   D(23,7,8,9)          -179.988          estimate D2E/DX2                !
 ! D44   D(23,7,8,11)            0.0128         estimate D2E/DX2                !
 ! D45   D(3,7,23,22)           -0.0046         estimate D2E/DX2                !
 ! D46   D(3,7,23,35)          179.992          estimate D2E/DX2                !
 ! D47   D(8,7,23,22)          179.9893         estimate D2E/DX2                !
 ! D48   D(8,7,23,35)           -0.014          estimate D2E/DX2                !
 ! D49   D(7,8,9,10)            -0.005          estimate D2E/DX2                !
 ! D50   D(7,8,9,14)           179.9942         estimate D2E/DX2                !
 ! D51   D(11,8,9,10)          179.9943         estimate D2E/DX2                !
 ! D52   D(11,8,9,14)           -0.0066         estimate D2E/DX2                !
 ! D53   D(7,8,11,12)         -179.9977         estimate D2E/DX2                !
 ! D54   D(7,8,11,15)            0.0022         estimate D2E/DX2                !
 ! D55   D(9,8,11,12)            0.0032         estimate D2E/DX2                !
 ! D56   D(9,8,11,15)         -179.9969         estimate D2E/DX2                !
 ! D57   D(8,9,10,4)             0.0023         estimate D2E/DX2                !
 ! D58   D(8,9,10,29)          179.9995         estimate D2E/DX2                !
 ! D59   D(14,9,10,4)         -179.9969         estimate D2E/DX2                !
 ! D60   D(14,9,10,29)           0.0003         estimate D2E/DX2                !
 ! D61   D(8,9,14,13)            0.0037         estimate D2E/DX2                !
 ! D62   D(8,9,14,30)         -179.9948         estimate D2E/DX2                !
 ! D63   D(10,9,14,13)        -179.9971         estimate D2E/DX2                !
 ! D64   D(10,9,14,30)           0.0044         estimate D2E/DX2                !
 ! D65   D(8,11,12,13)           0.003          estimate D2E/DX2                !
 ! D66   D(8,11,12,18)        -179.9946         estimate D2E/DX2                !
 ! D67   D(15,11,12,13)       -179.9969         estimate D2E/DX2                !
 ! D68   D(15,11,12,18)          0.0055         estimate D2E/DX2                !
 ! D69   D(8,11,15,16)         179.9917         estimate D2E/DX2                !
 ! D70   D(8,11,15,36)          -0.0197         estimate D2E/DX2                !
 ! D71   D(12,11,15,16)         -0.0084         estimate D2E/DX2                !
 ! D72   D(12,11,15,36)        179.9802         estimate D2E/DX2                !
 ! D73   D(11,12,13,14)         -0.0061         estimate D2E/DX2                !
 ! D74   D(11,12,13,31)        179.9931         estimate D2E/DX2                !
 ! D75   D(18,12,13,14)        179.9916         estimate D2E/DX2                !
 ! D76   D(18,12,13,31)         -0.0091         estimate D2E/DX2                !
 ! D77   D(11,12,18,17)          0.0015         estimate D2E/DX2                !
 ! D78   D(11,12,18,32)       -179.9989         estimate D2E/DX2                !
 ! D79   D(13,12,18,17)       -179.9962         estimate D2E/DX2                !
 ! D80   D(13,12,18,32)          0.0034         estimate D2E/DX2                !
 ! D81   D(12,13,14,9)           0.0026         estimate D2E/DX2                !
 ! D82   D(12,13,14,30)       -179.9988         estimate D2E/DX2                !
 ! D83   D(31,13,14,9)        -179.9966         estimate D2E/DX2                !
 ! D84   D(31,13,14,30)          0.0019         estimate D2E/DX2                !
 ! D85   D(11,15,16,17)          0.005          estimate D2E/DX2                !
 ! D86   D(11,15,16,33)       -179.9953         estimate D2E/DX2                !
 ! D87   D(36,15,16,17)       -179.9856         estimate D2E/DX2                !
 ! D88   D(36,15,16,33)          0.0141         estimate D2E/DX2                !
 ! D89   D(11,15,36,35)          0.0266         estimate D2E/DX2                !
 ! D90   D(11,15,36,38)       -179.985          estimate D2E/DX2                !
 ! D91   D(16,15,36,35)       -179.9843         estimate D2E/DX2                !
 ! D92   D(16,15,36,38)          0.0041         estimate D2E/DX2                !
 ! D93   D(15,16,17,18)          0.002          estimate D2E/DX2                !
 ! D94   D(15,16,17,34)        179.9999         estimate D2E/DX2                !
 ! D95   D(33,16,17,18)       -179.9977         estimate D2E/DX2                !
 ! D96   D(33,16,17,34)          0.0002         estimate D2E/DX2                !
 ! D97   D(16,17,18,12)         -0.0053         estimate D2E/DX2                !
 ! D98   D(16,17,18,32)        179.9951         estimate D2E/DX2                !
 ! D99   D(34,17,18,12)        179.9968         estimate D2E/DX2                !
 ! D100  D(34,17,18,32)         -0.0029         estimate D2E/DX2                !
 ! D101  D(1,19,20,21)          -0.0044         estimate D2E/DX2                !
 ! D102  D(1,19,20,25)         179.9948         estimate D2E/DX2                !
 ! D103  D(26,19,20,21)       -179.992          estimate D2E/DX2                !
 ! D104  D(26,19,20,25)          0.0072         estimate D2E/DX2                !
 ! D105  D(19,20,21,22)         -0.0031         estimate D2E/DX2                !
 ! D106  D(19,20,21,24)        179.9988         estimate D2E/DX2                !
 ! D107  D(25,20,21,22)        179.9978         estimate D2E/DX2                !
 ! D108  D(25,20,21,24)         -0.0003         estimate D2E/DX2                !
 ! D109  D(20,21,22,2)           0.0055         estimate D2E/DX2                !
 ! D110  D(20,21,22,23)        179.9978         estimate D2E/DX2                !
 ! D111  D(24,21,22,2)        -179.9965         estimate D2E/DX2                !
 ! D112  D(24,21,22,23)         -0.0041         estimate D2E/DX2                !
 ! D113  D(2,22,23,7)            0.0072         estimate D2E/DX2                !
 ! D114  D(2,22,23,35)        -179.9897         estimate D2E/DX2                !
 ! D115  D(21,22,23,7)        -179.9857         estimate D2E/DX2                !
 ! D116  D(21,22,23,35)          0.0175         estimate D2E/DX2                !
 ! D117  D(7,23,35,36)           0.0092         estimate D2E/DX2                !
 ! D118  D(7,23,35,37)        -124.4172         estimate D2E/DX2                !
 ! D119  D(7,23,35,39)         124.4473         estimate D2E/DX2                !
 ! D120  D(22,23,35,36)       -179.9946         estimate D2E/DX2                !
 ! D121  D(22,23,35,37)         55.579          estimate D2E/DX2                !
 ! D122  D(22,23,35,39)        -55.5565         estimate D2E/DX2                !
 ! D123  D(23,35,36,15)         -0.0168         estimate D2E/DX2                !
 ! D124  D(23,35,36,38)        179.9947         estimate D2E/DX2                !
 ! D125  D(37,35,36,15)        124.8045         estimate D2E/DX2                !
 ! D126  D(37,35,36,38)        -55.1841         estimate D2E/DX2                !
 ! D127  D(39,35,36,15)       -124.8485         estimate D2E/DX2                !
 ! D128  D(39,35,36,38)         55.1629         estimate D2E/DX2                !
 --------------------------------------------------------------------------------
 Trust Radius=3.00D-01 FncErr=1.00D-07 GrdErr=1.00D-06
 Number of steps in this run=    234 maximum allowed number of steps=    234.
 GradGradGradGradGradGradGradGradGradGradGradGradGradGradGradGradGradGrad

                          Input orientation:                          
 ---------------------------------------------------------------------
 Center     Atomic      Atomic             Coordinates (Angstroms)
 Number     Number       Type             X           Y           Z
 ---------------------------------------------------------------------
      1          6           0       -3.827510    0.386300   -0.000150
      2          6           0       -2.531320   -0.108840   -0.000190
      3          6           0       -1.391310    0.702880   -0.000220
      4          6           0       -1.481610    2.091520   -0.000180
      5          6           0       -3.934320    1.829640   -0.000230
      6          6           0       -2.822600    2.635980   -0.000230
      7          6           0       -0.221020   -0.101250   -0.000100
      8          6           0        1.041520    0.561730    0.000000
      9          6           0        0.969530    2.015030    0.000090
     10          6           0       -0.243130    2.744980   -0.000020
     11          6           0        2.340970   -0.088440    0.000000
     12          6           0        3.503540    0.741700    0.000160
     13          6           0        3.387180    2.168220    0.000380
     14          6           0        2.180380    2.775320    0.000320
     15          6           0        2.557190   -1.538080   -0.000150
     16          6           0        3.908630   -2.001280   -0.000310
     17          6           0        5.008640   -1.163810   -0.000230
     18          6           0        4.811490    0.202890    0.000060
     19          6           0       -4.845410   -0.603300    0.000030
     20          6           0       -4.496950   -1.952710    0.000330
     21          6           0       -3.157290   -2.411090    0.000380
     22          6           0       -2.135060   -1.464400    0.000050
     23          6           0       -0.675190   -1.464040    0.000000
     24          1           0       -2.961200   -3.478030    0.000640
     25          1           0       -5.290900   -2.691570    0.000550
     26          1           0       -5.892370   -0.319190    0.000140
     27          1           0       -4.919250    2.285300   -0.000250
     28          1           0       -2.948960    3.713770   -0.000260
     29          1           0       -0.184220    3.828610    0.000070
     30          1           0        2.106910    3.857460    0.000470
     31          1           0        4.300270    2.753170    0.000610
     32          1           0        5.652840    0.886340    0.000210
     33          1           0        4.066700   -3.073470   -0.000500
     34          1           0        6.009370   -1.580650   -0.000360
     35          6           0        0.142300   -2.695030   -0.000020
     36          6           0        1.625000   -2.592470    0.000050
     37          1           0       -0.154640   -3.317570   -0.863530
     38          1           0        2.088330   -3.574900    0.000120
     39          1           0       -0.154810   -3.317780    0.863250
 ---------------------------------------------------------------------
                    Distance matrix (angstroms):
                    1          2          3          4          5
     1  C    0.000000
     2  C    1.387542   0.000000
     3  C    2.456683   1.399469   0.000000
     4  C    2.900176   2.437924   1.391573   0.000000
     5  C    1.447287   2.392930   2.781454   2.466651   0.000000
     6  C    2.463920   2.760232   2.405300   1.447305   1.373356
     7  C    3.639296   2.310312   1.419931   2.529294   4.185324
     8  C    4.872189   3.635223   2.436921   2.950668   5.134840
     9  C    5.066000   4.094725   2.700982   2.452333   4.907353
    10  C    4.290822   3.657882   2.342753   1.400301   3.802990
    11  C    6.186722   4.872333   3.815246   4.400494   6.561882
    12  C    7.339660   6.094502   4.895004   5.164662   7.517006
    13  C    7.431486   6.341423   4.998118   4.869394   7.329325
    14  C    6.465459   5.524355   4.129404   3.725286   6.187396
    15  C    6.668406   5.285420   4.540105   5.430092   7.313087
    16  C    8.096197   6.712249   5.949945   6.767991   8.728563
    17  C    8.971086   7.613406   6.666625   7.260890   9.430656
    18  C    8.640947   7.349424   6.222919   6.570390   8.895814
    19  C    1.419658   2.366327   3.692819   4.310128   2.597938
    20  C    2.432924   2.695099   4.086216   5.044608   3.823967
    21  C    2.876558   2.385832   3.579874   4.804311   4.311330
    22  C    2.507883   1.412291   2.291346   3.615462   3.753403
    23  C    3.655254   2.298214   2.282185   3.645863   4.633601
    24  H    3.960245   3.396504   4.465934   5.762732   5.396140
    25  H    3.408048   3.779653   5.170019   6.114625   4.720344
    26  H    2.182055   3.367626   4.615644   5.026562   2.907134
    27  H    2.190456   3.381437   3.866576   3.443097   1.085225
    28  H    3.441498   3.845357   3.389946   2.187421   2.126236
    29  H    5.012291   4.583927   3.350710   2.168110   4.249604
    30  H    6.875049   6.102845   4.710512   3.999503   6.372481
    31  H    8.465393   7.406870   6.049609   5.819615   8.286216
    32  H    9.493528   8.244444   7.046539   7.235526   9.633455
    33  H    8.619081   7.233457   6.637070   7.580295   9.383859
    34  H   10.031605   8.666580   7.744971   8.342638  10.512233
    35  C    5.025334   3.719761   3.727969   5.054517   6.090277
    36  C    6.213126   4.841840   4.467377   5.620568   7.103597
    37  H    5.287159   4.085329   4.294028   5.635998   6.443992
    38  H    7.119569   5.775356   5.514281   6.697222   8.092056
    39  H    5.287191   4.085416   4.294208   5.636172   6.444085
                    6          7          8          9         10
     6  C    0.000000
     7  C    3.776327   0.000000
     8  C    4.385651   1.426026   0.000000
     9  C    3.842633   2.428178   1.455082   0.000000
    10  C    2.581772   2.846316   2.533161   1.415405   0.000000
    11  C    5.838229   2.562022   1.453028   2.511062   3.834820
    12  C    6.603661   3.818758   2.468589   2.835944   4.248608
    13  C    6.227372   4.262582   2.843050   2.422498   3.675840
    14  C    5.004920   3.747183   2.489374   1.429755   2.423700
    15  C    6.809179   3.127768   2.589683   3.891691   5.117264
    16  C    8.173961   4.545781   3.845691   4.976852   6.305878
    17  C    8.704408   5.336514   4.326145   5.139984   6.546734
    18  C    8.012444   5.041692   3.787009   4.247883   5.657862
    19  C    3.818991   4.651563   6.001103   6.377239   5.691394
    20  C    4.884621   4.659558   6.082521   6.754655   6.337450
    21  C    5.058155   3.735913   5.144673   6.051544   5.922617
    22  C    4.157623   2.349836   3.767740   4.663144   4.615006
    23  C    4.628340   1.436477   2.655341   3.848251   4.231138
    24  H    6.115581   4.348704   5.686952   6.754580   6.790711
    25  H    5.871567   5.693280   7.119235   7.832309   7.418629
    26  H    4.261047   5.675536   6.989624   7.248052   6.426745
    27  H    2.125775   5.269629   6.204955   5.894979   4.698660
    28  H    1.085172   4.689993   5.085203   4.270864   2.874034
    29  H    2.895413   3.930032   3.489261   2.149468   1.085230
    30  H    5.078591   4.592455   3.463653   2.165221   2.600058
    31  H    7.123834   5.346941   3.927068   3.411551   4.543407
    32  H    8.654151   5.956305   4.622731   4.817399   6.181990
    33  H    8.947641   5.217148   4.729312   5.956953   7.240787
    34  H    9.786913   6.403623   5.410113   6.191034   7.602949
    35  C    6.100025   2.619102   3.378621   4.782152   5.453647
    36  C    6.864243   3.100640   3.207714   4.653891   5.654934
    37  H    6.580886   3.330861   4.150356   5.517809   6.124377
    38  H    7.917845   4.171252   4.267027   5.700792   6.736215
    39  H    6.581030   3.331039   4.150543   5.517975   6.124549
                   11         12         13         14         15
    11  C    0.000000
    12  C    1.428531   0.000000
    13  C    2.487382   1.431258   0.000000
    14  C    2.868259   2.426183   1.350902   0.000000
    15  C    1.465676   2.468395   3.798097   4.329827   0.000000
    16  C    2.473159   2.772731   4.201981   5.079641   1.428616
    17  C    2.876262   2.428229   3.705612   4.849309   2.479856
    18  C    2.487638   1.414585   2.427176   3.679692   2.848306
    19  C    7.204800   8.456595   8.686591   7.795948   7.461387
    20  C    7.087500   8.442019   8.896155   8.181748   7.066315
    21  C    5.968716   7.369311   7.987501   7.442417   5.780781
    22  C    4.682746   6.054807   6.609922   6.049649   4.692828
    23  C    3.315041   4.725153   5.449419   5.111404   3.233228
    24  H    6.293038   7.720038   8.496003   8.095692   5.849447
    25  H    8.063605   9.440843   9.946187   9.257803   7.932405
    26  H    8.236573   9.455613   9.607146   8.645536   8.537023
    27  H    7.638418   8.563066   8.307255   7.116521   8.397344
    28  H    6.514611   7.104080   6.521917   5.214482   7.609180
    29  H    4.660458   4.809219   3.938501   2.588581   6.026333
    30  H    3.952836   3.414460   2.119581   1.084631   5.414296
    31  H    3.451609   2.163513   1.084389   2.120006   4.631755
    32  H    3.452344   2.154161   2.603158   3.953002   3.932030
    33  H    3.447977   3.856510   5.285552   6.145449   2.153147
    34  H    3.960284   3.416503   4.574922   5.799624   3.452442
    35  C    3.410053   4.807187   5.846405   5.837679   2.677728
    36  C    2.604377   3.826957   5.076362   5.396445   1.407379
    37  H    4.171455   5.532261   6.586708   6.581935   3.356491
    38  H    3.495602   4.542670   5.888161   6.350887   2.090087
    39  H    4.171661   5.532434   6.586838   6.582069   3.356745
                   16         17         18         19         20
    16  C    0.000000
    17  C    1.382526   0.000000
    18  C    2.381916   1.380847   0.000000
    19  C    8.864963   9.869978   9.690493   0.000000
    20  C    8.405720   9.538271   9.554772   1.393676   0.000000
    21  C    7.077794   8.260637   8.386557   2.473430   1.415910
    22  C    6.067490   7.150021   7.143837   2.843851   2.411840
    23  C    4.615196   5.691754   5.734310   4.258123   3.852875
    24  H    7.026760   8.299034   8.600226   3.437197   2.164516
    25  H    9.225392  10.412232  10.508862   2.135260   1.084560
    26  H    9.944296  10.933682  10.716585   1.084824   2.148391
    27  H    9.813574  10.509965   9.951067   2.889544   4.258998
    28  H    8.926832   9.333498   8.517679   4.715254   5.874119
    29  H    7.123134   7.203475   6.172760   6.431836   7.212718
    30  H    6.129521   5.799413   4.546497   8.260335   8.795967
    31  H    4.770553   3.980518   2.601014   9.742143   9.976792
    32  H    3.373517   2.148979   1.083962  10.603409  10.539376
    33  H    1.083779   2.129331   3.359948   9.248105   8.636678
    34  H    2.142437   1.084074   2.148472  10.898691  10.512906
    35  C    3.829691   5.101559   5.495387   5.408566   4.698263
    36  C    2.358913   3.672886   4.238839   6.769269   6.155288
    37  H    4.357514   5.660692   6.148323   5.487834   4.633007
    38  H    2.406195   3.787026   4.656962   7.543683   6.782139
    39  H    4.357804   5.660954   6.148524   5.487739   4.632734
                   21         22         23         24         25
    21  C    0.000000
    22  C    1.393261   0.000000
    23  C    2.656638   1.459870   0.000000
    24  H    1.084810   2.176514   3.046637   0.000000
    25  H    2.151967   3.386041   4.776150   2.458866   0.000000
    26  H    3.443357   3.927962   5.341315   4.309296   2.447438
    27  H    5.016033   4.670328   5.663002   6.086866   4.990727
    28  H    6.128402   5.241744   5.655064   7.191810   6.820049
    29  H    6.911802   5.641075   5.315374   7.816560   8.281964
    30  H    8.185751   6.805623   6.004868   8.916005   9.880151
    31  H    9.071096   7.694243   6.522274   9.568532  11.028859
    32  H    9.406989   8.134947   6.750426   9.656573  11.513769
    33  H    7.254294   6.407100   5.007573   7.039535   9.365390
    34  H    9.204199   8.145260   6.685577   9.169034  11.354746
    35  C    3.311784   2.588594   1.477710   3.200750   5.433201
    36  C    4.785728   3.925633   2.562075   4.670915   6.916610
    37  H    3.253299   2.846414   2.110031   2.940972   5.245920
    38  H    5.373173   4.721359   3.477466   5.050459   7.431911
    39  H    3.252924   2.846317   2.110059   2.940340   5.245552
                   26         27         28         29         30
    26  H    0.000000
    27  H    2.780347   0.000000
    28  H    4.992838   2.433633   0.000000
    29  H    7.056006   4.980192   2.767124   0.000000
    30  H    9.024017   7.199904   5.057912   2.291312   0.000000
    31  H   10.645624   9.231384   7.312598   4.611640   2.455664
    32  H   11.607979  10.664248   9.054575   6.536683   4.626140
    33  H   10.332915  10.462491   9.761461   8.106111   7.202678
    34  H   11.968404  11.592252  10.405891   8.223178   6.693447
    35  C    6.485511   7.100914   7.115378   6.531806   6.840674
    36  C    7.853576   8.162098   7.790364   6.671098   6.467908
    37  H    6.531290   7.405330   7.615327   7.198234   7.572461
    38  H    8.619235   9.134994   8.859966   7.744446   7.432383
    39  H    6.531163   7.405405   7.615485   7.198391   7.572571
                   31         32         33         34         35
    31  H    0.000000
    32  H    2.305320   0.000000
    33  H    5.831320   4.265669   0.000000
    34  H    4.658650   2.492620   2.449996   0.000000
    35  C    6.853583   6.572082   3.942605   5.971964   0.000000
    36  C    5.977703   5.322181   2.488626   4.499609   1.486243
    37  H    7.579370   7.221200   4.315567   6.461964   1.105160
    38  H    6.703518   5.710376   2.040926   4.399044   2.135698
    39  H    7.579467   7.221375   4.315889   6.462241   1.105137
                   36         37         38         39
    36  C    0.000000
    37  H    2.106813   0.000000
    38  H    1.086206   2.417235   0.000000
    39  H    2.106873   1.726780   2.417185   0.000000
 Stoichiometry    C25H14(3)
 Framework group  C1[X(C25H14)]
 Deg. of freedom   111
 Full point group                 C1      NOp   1
 Largest Abelian subgroup         C1      NOp   1
 Largest concise Abelian subgroup C1      NOp   1
                         Standard orientation:                         
 ---------------------------------------------------------------------
 Center     Atomic      Atomic             Coordinates (Angstroms)
 Number     Number       Type             X           Y           Z
 ---------------------------------------------------------------------
      1          6           0        3.827510    0.386298    0.000150
      2          6           0        2.531320   -0.108842    0.000190
      3          6           0        1.391310    0.702879    0.000220
      4          6           0        1.481610    2.091519    0.000180
      5          6           0        3.934320    1.829638    0.000230
      6          6           0        2.822600    2.635978    0.000230
      7          6           0        0.221020   -0.101251    0.000100
      8          6           0       -1.041520    0.561729    0.000000
      9          6           0       -0.969530    2.015029   -0.000090
     10          6           0        0.243130    2.744979    0.000020
     11          6           0       -2.340970   -0.088441    0.000000
     12          6           0       -3.503540    0.741700   -0.000160
     13          6           0       -3.387180    2.168220   -0.000380
     14          6           0       -2.180380    2.775319   -0.000320
     15          6           0       -2.557190   -1.538081    0.000150
     16          6           0       -3.908631   -2.001280    0.000310
     17          6           0       -5.008640   -1.163810    0.000230
     18          6           0       -4.811490    0.202890   -0.000060
     19          6           0        4.845410   -0.603302   -0.000030
     20          6           0        4.496949   -1.952712   -0.000330
     21          6           0        3.157289   -2.411092   -0.000380
     22          6           0        2.135060   -1.464402   -0.000050
     23          6           0        0.675190   -1.464041    0.000000
     24          1           0        2.961199   -3.478032   -0.000640
     25          1           0        5.290899   -2.691572   -0.000550
     26          1           0        5.892370   -0.319192   -0.000140
     27          1           0        4.919250    2.285298    0.000250
     28          1           0        2.948961    3.713768    0.000260
     29          1           0        0.184221    3.828609   -0.000070
     30          1           0       -2.106909    3.857459   -0.000470
     31          1           0       -4.300270    2.753170   -0.000610
     32          1           0       -5.652840    0.886340   -0.000210
     33          1           0       -4.066701   -3.073470    0.000500
     34          1           0       -6.009371   -1.580650    0.000360
     35          6           0       -0.142301   -2.695031    0.000020
     36          6           0       -1.625001   -2.592471   -0.000050
     37          1           0        0.154639   -3.317571    0.863530
     38          1           0       -2.088331   -3.574901   -0.000120
     39          1           0        0.154809   -3.317781   -0.863250
 ---------------------------------------------------------------------
 Rotational constants (GHZ):      0.4857741      0.1796389      0.1312449
 Standard basis: 6-311+G(d,p) (5D, 7F)
 There are   659 symmetry adapted cartesian basis functions of A   symmetry.
 There are   634 symmetry adapted basis functions of A   symmetry.
   634 basis functions,  1012 primitive gaussians,   659 cartesian basis functions
    83 alpha electrons       81 beta electrons
       nuclear repulsion energy      1935.1186606371 Hartrees.
 NAtoms=   39 NActive=   39 NUniq=   39 SFac= 1.00D+00 NAtFMM=   60 NAOKFM=F Big=F
 Integral buffers will be    131072 words long.
 Raffenetti 2 integral format.
 Two-electron integral symmetry is turned on.
 One-electron integrals computed using PRISM.
 NBasis=   634 RedAO= T EigKep=  1.23D-06  NBF=   634
 NBsUse=   615 1.00D-06 EigRej=  9.84D-07 NBFU=   615
 ExpMin= 4.38D-02 ExpMax= 4.56D+03 ExpMxC= 6.82D+02 IAcc=2 IRadAn=         4 AccDes= 0.00D+00
 Harris functional with IExCor=  402 and IRadAn=       4 diagonalized for initial guess.
 HarFok:  IExCor=  402 AccDes= 0.00D+00 IRadAn=         4 IDoV= 1 UseB2=F ITyADJ=14
 ICtDFT=  3500011 ScaDFX=  1.000000  1.000000  1.000000  1.000000
 FoFCou: FMM=F IPFlag=           0 FMFlag=      100000 FMFlg1=           0
         NFxFlg=           0 DoJE=T BraDBF=F KetDBF=T FulRan=T
         wScrn=  0.000000 ICntrl=     500 IOpCl=  0 I1Cent=   200000004 NGrid=           0
         NMat0=    1 NMatS0=      1 NMatT0=    0 NMatD0=    1 NMtDS0=    0 NMtDT0=    0
 Petite list used in FoFCou.
 Initial guess <Sx>= 0.0000 <Sy>= 0.0000 <Sz>= 1.0000 <S**2>= 2.0000 S= 1.0000
 Requested convergence on RMS density matrix=1.00D-08 within 128 cycles.
 Requested convergence on MAX density matrix=1.00D-06.
 Requested convergence on             energy=1.00D-06.
 No special actions if energy rises.
 Restarting incremental Fock formation.
 SCF Done:  E(UB3LYP) =  -961.287200144     A.U. after   24 cycles
            NFock= 24  Conv=0.38D-08     -V/T= 2.0044
 <Sx>= 0.0000 <Sy>= 0.0000 <Sz>= 1.0000 <S**2>= 2.0436 S= 1.0145
 <L.S>= 0.000000000000E+00
 Annihilation of the first spin contaminant:
 S**2 before annihilation     2.0436,   after     2.0011

 **********************************************************************

            Population analysis using the SCF density.

 **********************************************************************

 Orbital symmetries:
 Alpha Orbitals:
       Occupied  (A) (A) (A) (A) (A) (A) (A) (A) (A) (A) (A) (A)
                 (A) (A) (A) (A) (A) (A) (A) (A) (A) (A) (A) (A)
                 (A) (A) (A) (A) (A) (A) (A) (A) (A) (A) (A) (A)
                 (A) (A) (A) (A) (A) (A) (A) (A) (A) (A) (A) (A)
                 (A) (A) (A) (A) (A) (A) (A) (A) (A) (A) (A) (A)
                 (A) (A) (A) (A) (A) (A) (A) (A) (A) (A) (A) (A)
                 (A) (A) (A) (A) (A) (A) (A) (A) (A) (A) (A)
       Virtual   (A) (A) (A) (A) (A) (A) (A) (A) (A) (A) (A) (A)
                 (A) (A) (A) (A) (A) (A) (A) (A) (A) (A) (A) (A)
                 (A) (A) (A) (A) (A) (A) (A) (A) (A) (A) (A) (A)
                 (A) (A) (A) (A) (A) (A) (A) (A) (A) (A) (A) (A)
                 (A) (A) (A) (A) (A) (A) (A) (A) (A) (A) (A) (A)
                 (A) (A) (A) (A) (A) (A) (A) (A) (A) (A) (A) (A)
                 (A) (A) (A) (A) (A) (A) (A) (A) (A) (A) (A) (A)
                 (A) (A) (A) (A) (A) (A) (A) (A) (A) (A) (A) (A)
                 (A) (A) (A) (A) (A) (A) (A) (A) (A) (A) (A) (A)
                 (A) (A) (A) (A) (A) (A) (A) (A) (A) (A) (A) (A)
                 (A) (A) (A) (A) (A) (A) (A) (A) (A) (A) (A) (A)
                 (A) (A) (A) (A) (A) (A) (A) (A) (A) (A) (A) (A)
                 (A) (A) (A) (A) (A) (A) (A) (A) (A) (A) (A) (A)
                 (A) (A) (A) (A) (A) (A) (A) (A) (A) (A) (A) (A)
                 (A) (A) (A) (A) (A) (A) (A) (A) (A) (A) (A) (A)
                 (A) (A) (A) (A) (A) (A) (A) (A) (A) (A) (A) (A)
                 (A) (A) (A) (A) (A) (A) (A) (A) (A) (A) (A) (A)
                 (A) (A) (A) (A) (A) (A) (A) (A) (A) (A) (A) (A)
                 (A) (A) (A) (A) (A) (A) (A) (A) (A) (A) (A) (A)
                 (A) (A) (A) (A) (A) (A) (A) (A) (A) (A) (A) (A)
                 (A) (A) (A) (A) (A) (A) (A) (A) (A) (A) (A) (A)
                 (A) (A) (A) (A) (A) (A) (A) (A) (A) (A) (A) (A)
                 (A) (A) (A) (A) (A) (A) (A) (A) (A) (A) (A) (A)
                 (A) (A) (A) (A) (A) (A) (A) (A) (A) (A) (A) (A)
                 (A) (A) (A) (A) (A) (A) (A) (A) (A) (A) (A) (A)
                 (A) (A) (A) (A) (A) (A) (A) (A) (A) (A) (A) (A)
                 (A) (A) (A) (A) (A) (A) (A) (A) (A) (A) (A) (A)
                 (A) (A) (A) (A) (A) (A) (A) (A) (A) (A) (A) (A)
                 (A) (A) (A) (A) (A) (A) (A) (A) (A) (A) (A) (A)
                 (A) (A) (A) (A) (A) (A) (A) (A) (A) (A) (A) (A)
                 (A) (A) (A) (A) (A) (A) (A) (A) (A) (A) (A) (A)
                 (A) (A) (A) (A) (A) (A) (A) (A) (A) (A) (A) (A)
                 (A) (A) (A) (A) (A) (A) (A) (A) (A) (A) (A) (A)
                 (A) (A) (A) (A) (A) (A) (A) (A) (A) (A) (A) (A)
                 (A) (A) (A) (A) (A) (A) (A) (A) (A) (A) (A) (A)
                 (A) (A) (A) (A) (A) (A) (A) (A) (A) (A) (A) (A)
                 (A) (A) (A) (A) (A) (A) (A) (A) (A) (A) (A) (A)
                 (A) (A) (A) (A) (A) (A) (A) (A) (A) (A) (A) (A)
                 (A) (A) (A) (A) (A) (A) (A) (A) (A) (A) (A) (A)
                 (A) (A) (A) (A) (A) (A) (A) (A) (A) (A) (A) (A)
                 (A) (A) (A) (A) (A) (A) (A) (A) (A) (A) (A) (A)
                 (A) (A) (A) (A) (A) (A) (A) (A) (A) (A) (A) (A)
                 (A) (A) (A) (A) (A) (A) (A) (A) (A) (A) (A) (A)
                 (A) (A) (A) (A) (A) (A) (A) (A) (A) (A) (A) (A)
                 (A) (A) (A) (A)
 Beta  Orbitals:
       Occupied  (A) (A) (A) (A) (A) (A) (A) (A) (A) (A) (A) (A)
                 (A) (A) (A) (A) (A) (A) (A) (A) (A) (A) (A) (A)
                 (A) (A) (A) (A) (A) (A) (A) (A) (A) (A) (A) (A)
                 (A) (A) (A) (A) (A) (A) (A) (A) (A) (A) (A) (A)
                 (A) (A) (A) (A) (A) (A) (A) (A) (A) (A) (A) (A)
                 (A) (A) (A) (A) (A) (A) (A) (A) (A) (A) (A) (A)
                 (A) (A) (A) (A) (A) (A) (A) (A) (A)
       Virtual   (A) (A) (A) (A) (A) (A) (A) (A) (A) (A) (A) (A)
                 (A) (A) (A) (A) (A) (A) (A) (A) (A) (A) (A) (A)
                 (A) (A) (A) (A) (A) (A) (A) (A) (A) (A) (A) (A)
                 (A) (A) (A) (A) (A) (A) (A) (A) (A) (A) (A) (A)
                 (A) (A) (A) (A) (A) (A) (A) (A) (A) (A) (A) (A)
                 (A) (A) (A) (A) (A) (A) (A) (A) (A) (A) (A) (A)
                 (A) (A) (A) (A) (A) (A) (A) (A) (A) (A) (A) (A)
                 (A) (A) (A) (A) (A) (A) (A) (A) (A) (A) (A) (A)
                 (A) (A) (A) (A) (A) (A) (A) (A) (A) (A) (A) (A)
                 (A) (A) (A) (A) (A) (A) (A) (A) (A) (A) (A) (A)
                 (A) (A) (A) (A) (A) (A) (A) (A) (A) (A) (A) (A)
                 (A) (A) (A) (A) (A) (A) (A) (A) (A) (A) (A) (A)
                 (A) (A) (A) (A) (A) (A) (A) (A) (A) (A) (A) (A)
                 (A) (A) (A) (A) (A) (A) (A) (A) (A) (A) (A) (A)
                 (A) (A) (A) (A) (A) (A) (A) (A) (A) (A) (A) (A)
                 (A) (A) (A) (A) (A) (A) (A) (A) (A) (A) (A) (A)
                 (A) (A) (A) (A) (A) (A) (A) (A) (A) (A) (A) (A)
                 (A) (A) (A) (A) (A) (A) (A) (A) (A) (A) (A) (A)
                 (A) (A) (A) (A) (A) (A) (A) (A) (A) (A) (A) (A)
                 (A) (A) (A) (A) (A) (A) (A) (A) (A) (A) (A) (A)
                 (A) (A) (A) (A) (A) (A) (A) (A) (A) (A) (A) (A)
                 (A) (A) (A) (A) (A) (A) (A) (A) (A) (A) (A) (A)
                 (A) (A) (A) (A) (A) (A) (A) (A) (A) (A) (A) (A)
                 (A) (A) (A) (A) (A) (A) (A) (A) (A) (A) (A) (A)
                 (A) (A) (A) (A) (A) (A) (A) (A) (A) (A) (A) (A)
                 (A) (A) (A) (A) (A) (A) (A) (A) (A) (A) (A) (A)
                 (A) (A) (A) (A) (A) (A) (A) (A) (A) (A) (A) (A)
                 (A) (A) (A) (A) (A) (A) (A) (A) (A) (A) (A) (A)
                 (A) (A) (A) (A) (A) (A) (A) (A) (A) (A) (A) (A)
                 (A) (A) (A) (A) (A) (A) (A) (A) (A) (A) (A) (A)
                 (A) (A) (A) (A) (A) (A) (A) (A) (A) (A) (A) (A)
                 (A) (A) (A) (A) (A) (A) (A) (A) (A) (A) (A) (A)
                 (A) (A) (A) (A) (A) (A) (A) (A) (A) (A) (A) (A)
                 (A) (A) (A) (A) (A) (A) (A) (A) (A) (A) (A) (A)
                 (A) (A) (A) (A) (A) (A) (A) (A) (A) (A) (A) (A)
                 (A) (A) (A) (A) (A) (A) (A) (A) (A) (A) (A) (A)
                 (A) (A) (A) (A) (A) (A) (A) (A) (A) (A) (A) (A)
                 (A) (A) (A) (A) (A) (A) (A) (A) (A) (A) (A) (A)
                 (A) (A) (A) (A) (A) (A) (A) (A) (A) (A) (A) (A)
                 (A) (A) (A) (A) (A) (A) (A) (A) (A) (A) (A) (A)
                 (A) (A) (A) (A) (A) (A) (A) (A) (A) (A) (A) (A)
                 (A) (A) (A) (A) (A) (A) (A) (A) (A) (A) (A) (A)
                 (A) (A) (A) (A) (A) (A) (A) (A) (A) (A) (A) (A)
                 (A) (A) (A) (A) (A) (A) (A) (A) (A) (A) (A) (A)
                 (A) (A) (A) (A) (A) (A)
 The electronic state is 3-A.
 Alpha  occ. eigenvalues --  -10.20434 -10.20425 -10.19981 -10.19888 -10.19428
 Alpha  occ. eigenvalues --  -10.19387 -10.19215 -10.19159 -10.18897 -10.18884
 Alpha  occ. eigenvalues --  -10.18877 -10.18837 -10.18712 -10.18648 -10.18495
 Alpha  occ. eigenvalues --  -10.18366 -10.18254 -10.18142 -10.18103 -10.18072
 Alpha  occ. eigenvalues --  -10.17945 -10.17784 -10.17706 -10.17114 -10.16592
 Alpha  occ. eigenvalues --   -0.91568  -0.88522  -0.85810  -0.84570  -0.83093
 Alpha  occ. eigenvalues --   -0.80719  -0.79140  -0.78046  -0.75526  -0.74971
 Alpha  occ. eigenvalues --   -0.73368  -0.71282  -0.68584  -0.66785  -0.64426
 Alpha  occ. eigenvalues --   -0.63009  -0.61868  -0.59382  -0.58495  -0.56863
 Alpha  occ. eigenvalues --   -0.55946  -0.52448  -0.52122  -0.51266  -0.50044
 Alpha  occ. eigenvalues --   -0.48229  -0.47508  -0.46968  -0.46389  -0.46127
 Alpha  occ. eigenvalues --   -0.45070  -0.43859  -0.43367  -0.42313  -0.42177
 Alpha  occ. eigenvalues --   -0.41550  -0.41079  -0.40453  -0.40424  -0.39440
 Alpha  occ. eigenvalues --   -0.39223  -0.36924  -0.36880  -0.36496  -0.35520
 Alpha  occ. eigenvalues --   -0.34514  -0.34507  -0.33476  -0.33473  -0.32808
 Alpha  occ. eigenvalues --   -0.31243  -0.29627  -0.26589  -0.25968  -0.24425
 Alpha  occ. eigenvalues --   -0.21661  -0.18808  -0.17433
 Alpha virt. eigenvalues --   -0.06680  -0.04599  -0.02289  -0.00290  -0.00035
 Alpha virt. eigenvalues --    0.00524   0.00670   0.01341   0.01724   0.01835
 Alpha virt. eigenvalues --    0.02358   0.03049   0.03290   0.03353   0.03669
 Alpha virt. eigenvalues --    0.04432   0.04918   0.05165   0.05546   0.05668
 Alpha virt. eigenvalues --    0.05884   0.06580   0.06970   0.07498   0.07694
 Alpha virt. eigenvalues --    0.07930   0.08460   0.08550   0.09392   0.09709
 Alpha virt. eigenvalues --    0.10219   0.10421   0.10498   0.11640   0.12107
 Alpha virt. eigenvalues --    0.12286   0.12570   0.12595   0.13121   0.13172
 Alpha virt. eigenvalues --    0.13394   0.13748   0.14016   0.14564   0.15182
 Alpha virt. eigenvalues --    0.15587   0.15996   0.16260   0.16528   0.16545
 Alpha virt. eigenvalues --    0.16769   0.17448   0.17507   0.17694   0.17936
 Alpha virt. eigenvalues --    0.18065   0.18414   0.18480   0.18717   0.18977
 Alpha virt. eigenvalues --    0.19171   0.19589   0.19771   0.20046   0.20320
 Alpha virt. eigenvalues --    0.20487   0.21093   0.21095   0.21491   0.21671
 Alpha virt. eigenvalues --    0.21978   0.22076   0.22664   0.22721   0.22909
 Alpha virt. eigenvalues --    0.22947   0.23472   0.23722   0.23923   0.24316
 Alpha virt. eigenvalues --    0.24502   0.24687   0.24778   0.24858   0.25422
 Alpha virt. eigenvalues --    0.26212   0.26456   0.26563   0.26803   0.27045
 Alpha virt. eigenvalues --    0.27760   0.27990   0.28577   0.28845   0.28888
 Alpha virt. eigenvalues --    0.29223   0.29393   0.29447   0.29967   0.30525
 Alpha virt. eigenvalues --    0.30619   0.30949   0.31217   0.31721   0.32010
 Alpha virt. eigenvalues --    0.32246   0.32892   0.33159   0.33414   0.33831
 Alpha virt. eigenvalues --    0.34440   0.35107   0.36272   0.37305   0.37637
 Alpha virt. eigenvalues --    0.38251   0.38686   0.39781   0.40003   0.40617
 Alpha virt. eigenvalues --    0.41330   0.42735   0.43611   0.44402   0.44742
 Alpha virt. eigenvalues --    0.44927   0.46043   0.46931   0.47043   0.47511
 Alpha virt. eigenvalues --    0.47839   0.48579   0.50339   0.51541   0.52427
 Alpha virt. eigenvalues --    0.52692   0.53072   0.53231   0.53541   0.53868
 Alpha virt. eigenvalues --    0.54443   0.54707   0.55379   0.55472   0.55694
 Alpha virt. eigenvalues --    0.56553   0.56920   0.57459   0.57531   0.57729
 Alpha virt. eigenvalues --    0.58025   0.58342   0.59048   0.59088   0.59658
 Alpha virt. eigenvalues --    0.60183   0.60500   0.60957   0.60991   0.61610
 Alpha virt. eigenvalues --    0.62146   0.62627   0.63506   0.63900   0.63970
 Alpha virt. eigenvalues --    0.64498   0.64868   0.65413   0.65500   0.66332
 Alpha virt. eigenvalues --    0.66730   0.66882   0.67184   0.67727   0.68956
 Alpha virt. eigenvalues --    0.70018   0.70294   0.70424   0.71193   0.71279
 Alpha virt. eigenvalues --    0.71636   0.71901   0.71917   0.72215   0.72621
 Alpha virt. eigenvalues --    0.72982   0.74038   0.74052   0.74271   0.75462
 Alpha virt. eigenvalues --    0.75602   0.76184   0.76525   0.76956   0.77882
 Alpha virt. eigenvalues --    0.77900   0.80161   0.80572   0.82044   0.83293
 Alpha virt. eigenvalues --    0.83498   0.84626   0.85279   0.86163   0.86906
 Alpha virt. eigenvalues --    0.87895   0.88101   0.88949   0.89936   0.90654
 Alpha virt. eigenvalues --    0.91166   0.92106   0.92639   0.93249   0.93570
 Alpha virt. eigenvalues --    0.94291   0.94496   0.94936   0.95383   0.95780
 Alpha virt. eigenvalues --    0.96024   0.96480   0.96868   0.97466   0.98073
 Alpha virt. eigenvalues --    0.98721   0.98886   0.99435   1.00616   1.01471
 Alpha virt. eigenvalues --    1.01569   1.02070   1.02176   1.03348   1.03576
 Alpha virt. eigenvalues --    1.04359   1.04592   1.06342   1.06410   1.06905
 Alpha virt. eigenvalues --    1.06935   1.07593   1.08713   1.09190   1.10229
 Alpha virt. eigenvalues --    1.10777   1.11171   1.13440   1.13986   1.14011
 Alpha virt. eigenvalues --    1.15341   1.15584   1.15884   1.17357   1.17621
 Alpha virt. eigenvalues --    1.19247   1.21612   1.23449   1.26163   1.27346
 Alpha virt. eigenvalues --    1.30155   1.31889   1.32823   1.33430   1.33493
 Alpha virt. eigenvalues --    1.37188   1.38539   1.38640   1.40117   1.40980
 Alpha virt. eigenvalues --    1.42383   1.43643   1.44811   1.45794   1.46508
 Alpha virt. eigenvalues --    1.47565   1.47612   1.48794   1.48891   1.49203
 Alpha virt. eigenvalues --    1.50012   1.50339   1.50450   1.51460   1.52150
 Alpha virt. eigenvalues --    1.52665   1.54623   1.55907   1.56284   1.56417
 Alpha virt. eigenvalues --    1.56556   1.57459   1.58339   1.58487   1.60189
 Alpha virt. eigenvalues --    1.60786   1.61635   1.63467   1.64012   1.64560
 Alpha virt. eigenvalues --    1.65626   1.66184   1.66530   1.67747   1.68345
 Alpha virt. eigenvalues --    1.69181   1.69729   1.71605   1.72051   1.73177
 Alpha virt. eigenvalues --    1.73401   1.73924   1.74231   1.75531   1.75713
 Alpha virt. eigenvalues --    1.77285   1.78700   1.79514   1.79913   1.80944
 Alpha virt. eigenvalues --    1.82036   1.83029   1.84337   1.84605   1.84973
 Alpha virt. eigenvalues --    1.85945   1.86680   1.87470   1.87587   1.88804
 Alpha virt. eigenvalues --    1.89280   1.89827   1.90788   1.90880   1.91600
 Alpha virt. eigenvalues --    1.92101   1.93107   1.93677   1.94524   1.94817
 Alpha virt. eigenvalues --    1.95273   1.96709   1.97496   1.99277   1.99366
 Alpha virt. eigenvalues --    2.00401   2.00747   2.03650   2.03679   2.04078
 Alpha virt. eigenvalues --    2.04716   2.05586   2.05673   2.06846   2.07536
 Alpha virt. eigenvalues --    2.09295   2.10143   2.11305   2.12219   2.13154
 Alpha virt. eigenvalues --    2.14067   2.14605   2.14887   2.17012   2.18411
 Alpha virt. eigenvalues --    2.18559   2.21354   2.21833   2.22373   2.23371
 Alpha virt. eigenvalues --    2.24679   2.26419   2.27317   2.28364   2.30669
 Alpha virt. eigenvalues --    2.30816   2.32987   2.36095   2.36581   2.38208
 Alpha virt. eigenvalues --    2.40094   2.40538   2.41858   2.43716   2.44059
 Alpha virt. eigenvalues --    2.44947   2.45850   2.46389   2.49766   2.52322
 Alpha virt. eigenvalues --    2.52491   2.54882   2.55171   2.56414   2.57225
 Alpha virt. eigenvalues --    2.58103   2.60104   2.60740   2.60850   2.62786
 Alpha virt. eigenvalues --    2.64513   2.64648   2.66678   2.67253   2.69192
 Alpha virt. eigenvalues --    2.69943   2.70659   2.71105   2.71210   2.72399
 Alpha virt. eigenvalues --    2.72911   2.73668   2.73874   2.74764   2.76227
 Alpha virt. eigenvalues --    2.76283   2.76284   2.76692   2.77250   2.77481
 Alpha virt. eigenvalues --    2.79026   2.79346   2.79712   2.81786   2.81934
 Alpha virt. eigenvalues --    2.82390   2.83236   2.83943   2.85633   2.86067
 Alpha virt. eigenvalues --    2.86288   2.88201   2.88206   2.89216   2.89451
 Alpha virt. eigenvalues --    2.90989   2.91367   2.92019   2.93271   2.95211
 Alpha virt. eigenvalues --    2.97819   2.98895   3.01171   3.02302   3.02904
 Alpha virt. eigenvalues --    3.04793   3.06571   3.06835   3.09668   3.12246
 Alpha virt. eigenvalues --    3.13229   3.16662   3.19923   3.20481   3.22363
 Alpha virt. eigenvalues --    3.24118   3.25024   3.26277   3.29130   3.32742
 Alpha virt. eigenvalues --    3.34660   3.36497   3.37256   3.38975   3.39859
 Alpha virt. eigenvalues --    3.40484   3.41509   3.43824   3.45352   3.47664
 Alpha virt. eigenvalues --    3.48952   3.49507   3.50381   3.52735   3.55180
 Alpha virt. eigenvalues --    3.56454   3.58291   3.59443   3.61174   3.65700
 Alpha virt. eigenvalues --    3.67099   3.72103   3.74681   3.77292   3.81797
 Alpha virt. eigenvalues --    3.83929   3.88423   3.99334   4.03730   4.06660
 Alpha virt. eigenvalues --    4.07437   4.07668   4.11730   4.12056   4.14098
 Alpha virt. eigenvalues --    4.23860   4.28901   4.35302   4.39930   4.58892
 Alpha virt. eigenvalues --    4.76319   4.78503   4.81416   4.82007   4.82948
 Alpha virt. eigenvalues --    4.84134   4.88397  23.40730  23.60879  23.74651
 Alpha virt. eigenvalues --   23.80724  23.81658  23.86835  23.88550  23.89512
 Alpha virt. eigenvalues --   23.93015  23.94935  23.95410  23.96627  23.99691
 Alpha virt. eigenvalues --   24.00199  24.04227  24.05208  24.05722  24.06815
 Alpha virt. eigenvalues --   24.08969  24.11188  24.14896  24.16129  24.18661
 Alpha virt. eigenvalues --   24.19593  24.24047
  Beta  occ. eigenvalues --  -10.20271 -10.20103 -10.19788 -10.19652 -10.19520
  Beta  occ. eigenvalues --  -10.19429 -10.19221 -10.18904 -10.18896 -10.18715
  Beta  occ. eigenvalues --  -10.18675 -10.18652 -10.18566 -10.18504 -10.18308
  Beta  occ. eigenvalues --  -10.18295 -10.18220 -10.18203 -10.17953 -10.17930
  Beta  occ. eigenvalues --  -10.17849 -10.17706 -10.17678 -10.16929 -10.16510
  Beta  occ. eigenvalues --   -0.91180  -0.88231  -0.85407  -0.84049  -0.82854
  Beta  occ. eigenvalues --   -0.80013  -0.78808  -0.77622  -0.75244  -0.74679
  Beta  occ. eigenvalues --   -0.72997  -0.71079  -0.67578  -0.66178  -0.64198
  Beta  occ. eigenvalues --   -0.62705  -0.61660  -0.59098  -0.58079  -0.56455
  Beta  occ. eigenvalues --   -0.55683  -0.52118  -0.51951  -0.51116  -0.49785
  Beta  occ. eigenvalues --   -0.48043  -0.47293  -0.46754  -0.46217  -0.44798
  Beta  occ. eigenvalues --   -0.44447  -0.43711  -0.43220  -0.42191  -0.41406
  Beta  occ. eigenvalues --   -0.41381  -0.40911  -0.40174  -0.39677  -0.39235
  Beta  occ. eigenvalues --   -0.39043  -0.36634  -0.36285  -0.36058  -0.35241
  Beta  occ. eigenvalues --   -0.34459  -0.33669  -0.33317  -0.32789  -0.32641
  Beta  occ. eigenvalues --   -0.29653  -0.28529  -0.25390  -0.25316  -0.23015
  Beta  occ. eigenvalues --   -0.20807
  Beta virt. eigenvalues --   -0.12066  -0.09413  -0.05537  -0.03435  -0.01704
  Beta virt. eigenvalues --   -0.00220   0.00542   0.00686   0.01083   0.01748
  Beta virt. eigenvalues --    0.01849   0.02449   0.03106   0.03215   0.03311
  Beta virt. eigenvalues --    0.03386   0.03787   0.04842   0.04933   0.05201
  Beta virt. eigenvalues --    0.05598   0.05723   0.06241   0.06670   0.07454
  Beta virt. eigenvalues --    0.07526   0.07720   0.08093   0.08629   0.08664
  Beta virt. eigenvalues --    0.09754   0.09898   0.10260   0.10461   0.10700
  Beta virt. eigenvalues --    0.12143   0.12168   0.12577   0.12668   0.12804
  Beta virt. eigenvalues --    0.13241   0.13368   0.13488   0.13806   0.14231
  Beta virt. eigenvalues --    0.14659   0.15379   0.15662   0.16051   0.16304
  Beta virt. eigenvalues --    0.16644   0.16686   0.16858   0.17622   0.17683
  Beta virt. eigenvalues --    0.17862   0.17982   0.18488   0.18600   0.18602
  Beta virt. eigenvalues --    0.18904   0.19265   0.19324   0.19675   0.20108
  Beta virt. eigenvalues --    0.20120   0.20409   0.20563   0.21209   0.21617
  Beta virt. eigenvalues --    0.21755   0.21788   0.22060   0.22211   0.22779
  Beta virt. eigenvalues --    0.23055   0.23064   0.23235   0.23640   0.23795
  Beta virt. eigenvalues --    0.24227   0.24404   0.24744   0.24795   0.24935
  Beta virt. eigenvalues --    0.25011   0.25516   0.26304   0.26552   0.26632
  Beta virt. eigenvalues --    0.26983   0.27162   0.28054   0.28105   0.28713
  Beta virt. eigenvalues --    0.28942   0.29046   0.29388   0.29453   0.29522
  Beta virt. eigenvalues --    0.30188   0.30694   0.30757   0.31076   0.31369
  Beta virt. eigenvalues --    0.31875   0.32111   0.32310   0.32978   0.33210
  Beta virt. eigenvalues --    0.33499   0.34027   0.34513   0.35242   0.36407
  Beta virt. eigenvalues --    0.37455   0.37997   0.38448   0.38849   0.39910
  Beta virt. eigenvalues --    0.40148   0.40754   0.41478   0.42977   0.43742
  Beta virt. eigenvalues --    0.44548   0.44928   0.45134   0.46171   0.47134
  Beta virt. eigenvalues --    0.47653   0.48030   0.48068   0.48747   0.50616
  Beta virt. eigenvalues --    0.51755   0.52491   0.53053   0.53203   0.53705
  Beta virt. eigenvalues --    0.53757   0.54122   0.54728   0.55205   0.55574
  Beta virt. eigenvalues --    0.55932   0.56182   0.56733   0.57542   0.57675
  Beta virt. eigenvalues --    0.57690   0.58100   0.58474   0.58491   0.59366
  Beta virt. eigenvalues --    0.59809   0.59847   0.60376   0.60584   0.61087
  Beta virt. eigenvalues --    0.61184   0.62330   0.62678   0.62864   0.63760
  Beta virt. eigenvalues --    0.64102   0.64579   0.64592   0.64948   0.65530
  Beta virt. eigenvalues --    0.65848   0.66840   0.66898   0.67187   0.67814
  Beta virt. eigenvalues --    0.67952   0.69349   0.70366   0.70621   0.70698
  Beta virt. eigenvalues --    0.71440   0.71462   0.71988   0.72058   0.72368
  Beta virt. eigenvalues --    0.72544   0.72766   0.73190   0.74186   0.74306
  Beta virt. eigenvalues --    0.74412   0.75576   0.75696   0.76499   0.76676
  Beta virt. eigenvalues --    0.77222   0.78109   0.78302   0.80677   0.80751
  Beta virt. eigenvalues --    0.82096   0.83402   0.83945   0.84894   0.85457
  Beta virt. eigenvalues --    0.86478   0.87006   0.88048   0.88285   0.89163
  Beta virt. eigenvalues --    0.90178   0.90851   0.91479   0.92279   0.92821
  Beta virt. eigenvalues --    0.93507   0.93649   0.94801   0.94813   0.95088
  Beta virt. eigenvalues --    0.95850   0.96172   0.96202   0.96693   0.97342
  Beta virt. eigenvalues --    0.97698   0.98330   0.98955   0.99212   0.99856
  Beta virt. eigenvalues --    1.00871   1.01595   1.02017   1.02248   1.02732
  Beta virt. eigenvalues --    1.03746   1.03786   1.04859   1.05082   1.06556
  Beta virt. eigenvalues --    1.06645   1.07126   1.07708   1.08027   1.08883
  Beta virt. eigenvalues --    1.09571   1.10709   1.11162   1.11356   1.13785
  Beta virt. eigenvalues --    1.14204   1.14561   1.15756   1.15830   1.16152
  Beta virt. eigenvalues --    1.17571   1.17833   1.19452   1.21857   1.23709
  Beta virt. eigenvalues --    1.26515   1.27608   1.30451   1.32147   1.33040
  Beta virt. eigenvalues --    1.33731   1.34549   1.37414   1.38800   1.39937
  Beta virt. eigenvalues --    1.40291   1.41533   1.42588   1.43912   1.45084
  Beta virt. eigenvalues --    1.45968   1.47312   1.47702   1.47971   1.49040
  Beta virt. eigenvalues --    1.49274   1.49294   1.50174   1.50752   1.50896
  Beta virt. eigenvalues --    1.51696   1.52454   1.53237   1.54846   1.56149
  Beta virt. eigenvalues --    1.56499   1.56562   1.56846   1.57988   1.58605
  Beta virt. eigenvalues --    1.59025   1.60639   1.60866   1.62145   1.63754
  Beta virt. eigenvalues --    1.64252   1.64901   1.65773   1.66558   1.67008
  Beta virt. eigenvalues --    1.68467   1.68566   1.69374   1.69854   1.71934
  Beta virt. eigenvalues --    1.72184   1.73345   1.73605   1.74211   1.74431
  Beta virt. eigenvalues --    1.75711   1.75900   1.77742   1.79067   1.79620
  Beta virt. eigenvalues --    1.80630   1.81830   1.82247   1.83397   1.84601
  Beta virt. eigenvalues --    1.84951   1.85487   1.86214   1.87087   1.87923
  Beta virt. eigenvalues --    1.88161   1.89114   1.89547   1.90152   1.91159
  Beta virt. eigenvalues --    1.91447   1.91948   1.92519   1.93199   1.93885
  Beta virt. eigenvalues --    1.94878   1.94901   1.95466   1.97466   1.97660
  Beta virt. eigenvalues --    1.99476   1.99830   2.00559   2.00977   2.03831
  Beta virt. eigenvalues --    2.04369   2.04762   2.05779   2.05782   2.06297
  Beta virt. eigenvalues --    2.07343   2.07629   2.09458   2.10519   2.11445
  Beta virt. eigenvalues --    2.12381   2.13400   2.14182   2.15027   2.15239
  Beta virt. eigenvalues --    2.17220   2.18749   2.19010   2.21542   2.22166
  Beta virt. eigenvalues --    2.22539   2.23904   2.25270   2.27073   2.27602
  Beta virt. eigenvalues --    2.28504   2.31248   2.31252   2.33295   2.36470
  Beta virt. eigenvalues --    2.36740   2.38610   2.40358   2.40842   2.42025
  Beta virt. eigenvalues --    2.44164   2.44236   2.45119   2.46018   2.46767
  Beta virt. eigenvalues --    2.50035   2.52558   2.53460   2.55151   2.55768
  Beta virt. eigenvalues --    2.56622   2.57487   2.58206   2.60267   2.61063
  Beta virt. eigenvalues --    2.61700   2.63380   2.64722   2.65113   2.66823
  Beta virt. eigenvalues --    2.67841   2.69421   2.70432   2.70739   2.71135
  Beta virt. eigenvalues --    2.72039   2.72429   2.72996   2.73712   2.73974
  Beta virt. eigenvalues --    2.74849   2.76341   2.76361   2.76727   2.76874
  Beta virt. eigenvalues --    2.77572   2.78202   2.79116   2.79454   2.79780
  Beta virt. eigenvalues --    2.81849   2.82705   2.82996   2.83302   2.84066
  Beta virt. eigenvalues --    2.86150   2.86362   2.86954   2.88300   2.88864
  Beta virt. eigenvalues --    2.89546   2.90505   2.91517   2.91568   2.92143
  Beta virt. eigenvalues --    2.93389   2.96682   2.97980   2.99530   3.01737
  Beta virt. eigenvalues --    3.02548   3.04290   3.05676   3.07178   3.07232
  Beta virt. eigenvalues --    3.10113   3.12654   3.13644   3.16798   3.20008
  Beta virt. eigenvalues --    3.20624   3.22481   3.24264   3.25191   3.26407
  Beta virt. eigenvalues --    3.29265   3.32923   3.34764   3.36644   3.37388
  Beta virt. eigenvalues --    3.39041   3.39977   3.40563   3.41578   3.43982
  Beta virt. eigenvalues --    3.45493   3.47762   3.49148   3.49636   3.50504
  Beta virt. eigenvalues --    3.52811   3.55278   3.56528   3.58516   3.59556
  Beta virt. eigenvalues --    3.61305   3.65937   3.67407   3.72317   3.74892
  Beta virt. eigenvalues --    3.77890   3.82023   3.84138   3.88631   3.99747
  Beta virt. eigenvalues --    4.04039   4.06912   4.07615   4.08015   4.11812
  Beta virt. eigenvalues --    4.12373   4.14413   4.24079   4.29179   4.35848
  Beta virt. eigenvalues --    4.40213   4.59495   4.76829   4.78733   4.81710
  Beta virt. eigenvalues --    4.82400   4.83151   4.84481   4.88544  23.40842
  Beta virt. eigenvalues --   23.61007  23.74788  23.80919  23.81823  23.87132
  Beta virt. eigenvalues --   23.88888  23.89654  23.93165  23.94948  23.95474
  Beta virt. eigenvalues --   23.96665  23.99717  24.00214  24.04346  24.05560
  Beta virt. eigenvalues --   24.06215  24.06973  24.09060  24.11281  24.14978
  Beta virt. eigenvalues --   24.16155  24.18741  24.19711  24.24045
          Condensed to atoms (all electrons):
               1          2          3          4          5          6
     1  C    9.151112   1.325549   0.312370   0.082847  -0.575549  -0.489779
     2  C    1.325549   6.175345   0.508354   0.222647  -0.038279   0.152505
     3  C    0.312370   0.508354   6.615935   1.189042   0.154287   0.071330
     4  C    0.082847   0.222647   1.189042   8.766801  -1.015374   0.254251
     5  C   -0.575549  -0.038279   0.154287  -1.015374   8.246889   1.441019
     6  C   -0.489779   0.152505   0.071330   0.254251   1.441019   8.220042
     7  C    0.105465  -0.217776   0.014919  -0.156374  -0.412476  -0.448006
     8  C   -0.400955  -0.077317  -0.054477  -0.879786  -0.002920  -0.612737
     9  C   -0.674530  -0.263385  -0.823520  -0.643087   0.100741  -0.393473
    10  C   -0.598890  -0.162889   0.629944   1.166788  -0.031846  -0.726762
    11  C   -0.012926  -0.177028  -0.229576  -0.733850  -0.023752  -0.182143
    12  C   -0.070685   0.044039  -0.522851  -0.168611   0.030515  -0.007268
    13  C    0.042091   0.050710   0.031796   0.052839  -0.047875  -0.083509
    14  C   -0.144140   0.020101  -1.117599  -1.116012  -0.153798  -0.454708
    15  C    0.021289  -0.069894  -0.142574  -0.364585  -0.036332  -0.104374
    16  C    0.037823  -0.017629   0.223542   0.002412  -0.007590  -0.001637
    17  C   -0.001890  -0.011070  -0.049920  -0.026701  -0.000051  -0.003428
    18  C   -0.007406   0.022803  -0.200384  -0.008215   0.002016  -0.003691
    19  C   -1.970205  -1.571727  -0.414283  -0.329504  -0.703874   0.152516
    20  C    0.542314   0.595211  -0.089819  -0.153271  -0.223844  -0.039019
    21  C   -0.130161   0.099697   0.187584   0.077437   0.052024  -0.098949
    22  C   -0.504068   0.047834   0.017951  -0.474518  -0.545874  -0.360153
    23  C   -0.034266  -0.174619  -0.027873  -0.454981  -0.195111  -0.364304
    24  H   -0.016208   0.033828  -0.005014   0.002436  -0.005499  -0.001686
    25  H   -0.001835  -0.007255   0.000506   0.002274   0.007630   0.000438
    26  H   -0.068488   0.027761  -0.012017   0.001321   0.037698   0.017058
    27  H   -0.096772   0.005629  -0.004488   0.024997   0.369759  -0.029582
    28  H   -0.031845  -0.007107   0.005511  -0.087594  -0.034506   0.380275
    29  H    0.001910  -0.005348   0.007554  -0.044330   0.014015   0.027885
    30  H    0.001045   0.001757   0.014349   0.065038   0.000392   0.011306
    31  H    0.000033   0.000108   0.001505   0.004247   0.000013   0.000327
    32  H   -0.000006   0.000019  -0.000368   0.000409   0.000003   0.000028
    33  H   -0.000024  -0.000018  -0.000166  -0.000131  -0.000003  -0.000005
    34  H    0.000002   0.000020   0.000141   0.000093   0.000000   0.000003
    35  C   -0.033142  -0.408470  -0.166613   0.292382  -0.035485  -0.023885
    36  C    0.014431  -0.136056   0.053895   0.184682   0.003068   0.015782
    37  H   -0.000278  -0.000232  -0.001789  -0.002253  -0.000086  -0.000220
    38  H    0.000330   0.002208   0.001520  -0.000421  -0.000017  -0.000017
    39  H   -0.000279  -0.000223  -0.001813  -0.002256  -0.000088  -0.000220
               7          8          9         10         11         12
     1  C    0.105465  -0.400955  -0.674530  -0.598890  -0.012926  -0.070685
     2  C   -0.217776  -0.077317  -0.263385  -0.162889  -0.177028   0.044039
     3  C    0.014919  -0.054477  -0.823520   0.629944  -0.229576  -0.522851
     4  C   -0.156374  -0.879786  -0.643087   1.166788  -0.733850  -0.168611
     5  C   -0.412476  -0.002920   0.100741  -0.031846  -0.023752   0.030515
     6  C   -0.448006  -0.612737  -0.393473  -0.726762  -0.182143  -0.007268
     7  C    6.832038   0.161803   0.361778  -0.024912   0.260391   0.282291
     8  C    0.161803   6.762752   0.118501   0.111172   0.774031  -0.277568
     9  C    0.361778   0.118501  13.923869   1.253603  -1.225331   0.998867
    10  C   -0.024912   0.111172   1.253603   8.157648  -0.632686  -0.908307
    11  C    0.260391   0.774031  -1.225331  -0.632686   6.613401   0.102732
    12  C    0.282291  -0.277568   0.998867  -0.908307   0.102732  10.095707
    13  C   -0.539191   0.118993  -2.163383  -0.220471  -0.487726  -0.339947
    14  C   -0.253766   0.508435  -1.684871  -2.166657   0.791496  -0.022421
    15  C    0.080770   0.144203  -1.041173  -0.118050   1.534154  -2.194851
    16  C   -0.490577  -0.028246   0.396857   0.059581  -0.726115   1.249524
    17  C    0.084044  -0.288426  -0.359932  -0.078002   0.330070  -0.560067
    18  C    0.135355  -0.227228  -1.271199  -0.192208   0.432035  -1.083863
    19  C    0.407378  -0.091963   0.002128  -0.055651   0.006350  -0.001719
    20  C   -0.313167  -0.015044  -0.133456  -0.064152  -0.028974  -0.007966
    21  C   -0.319828   0.081754   0.100725  -0.024185   0.038976  -0.011001
    22  C    0.365429  -0.016712  -0.673189  -0.184322  -0.127534  -0.065325
    23  C   -0.577542   0.153945  -1.153650   0.111926   0.057322  -0.691698
    24  H   -0.012205   0.001309  -0.000828  -0.000046  -0.000132  -0.000032
    25  H    0.003170  -0.000219   0.000234   0.000326   0.000041  -0.000002
    26  H    0.001238  -0.000269  -0.000670  -0.000076   0.000009  -0.000006
    27  H    0.001631   0.000099   0.002933   0.001975   0.000034  -0.000008
    28  H   -0.010164   0.006995   0.035389   0.072988  -0.000005   0.000585
    29  H   -0.010908  -0.012585  -0.071960   0.337219  -0.006206   0.009344
    30  H   -0.013238  -0.015402  -0.086071   0.142713  -0.035491  -0.046564
    31  H   -0.001003  -0.010505   0.009983   0.014264  -0.008581  -0.110933
    32  H    0.004455  -0.012588   0.019813   0.000414   0.005693  -0.104156
    33  H    0.000549  -0.004415   0.000833   0.000409   0.006218   0.008151
    34  H    0.000009   0.003021   0.004184   0.000345  -0.010162   0.051374
[...]
 12,0.,-0.00000827,0.00000984,0.,-0.00001338,0.00003860,0.,0.00001978,-
 0.00003838,-0.00000005,0.00022215,-0.00012559,-0.00000030,-0.00000694,
 -0.00004329,0.00000006,0.51884263,0.00198504,0.00101764,-0.00000007,-0
 .00464533,0.00197960,-0.00000016,-0.00288294,-0.00272076,-0.00000033,0
 .00118383,0.00058488,0.00000029,-0.00007735,0.00004762,0.,-0.00025353,
 0.00003323,0.00000003,0.01716828,-0.02016219,-0.00000023,-0.00095621,0
 .00273195,-0.00000032,0.00349004,-0.00247477,0.00000015,-0.00259738,0.
 00097929,-0.00000008,0.00193062,0.00092163,-0.00000038,-0.00427385,0.0
 0145564,0.00000036,0.00141102,-0.00139765,-0.00000003,-0.00203645,0.00
 004225,-0.00000007,-0.02079672,0.00699527,-0.00000252,-0.00127310,-0.0
 0412078,-0.00000007,0.00048048,0.00414643,0.00000028,0.00304913,-0.003
 05628,-0.00000032,-0.00105193,-0.00053320,0.00000012,0.00010299,-0.000
 44307,0.00000010,-0.00230994,-0.00027287,0.00000003,0.00817865,0.00501
 545,-0.00000011,0.06453293,-0.19743459,0.00000011,-0.00016931,-0.00013
 401,-0.00000012,-0.00014135,0.00003232,0.,-0.00001658,-0.00000048,-0.0
 0000004,-0.00001452,0.00013686,0.00000001,0.00007385,-0.00001296,0.,-0
 .00004914,0.00004393,0.,0.00005268,0.00004310,0.,-0.00000166,0.0000282
 7,0.,0.00004674,-0.00001101,0.00000003,-0.00060340,0.00091456,0.000000
 29,-0.00024007,-0.00014438,0.00000002,-0.02466103,0.51407057,0.0000005
 9,0.00000061,0.00079020,-0.00000100,-0.00000008,0.00231881,0.00000036,
 0.00000110,0.00413144,-0.00000043,0.00000043,0.00043364,-0.00000006,-0
 .00000021,-0.00009972,0.00000011,0.00000031,-0.00031466,-0.00000145,0.
 00000298,0.00571054,-0.00000151,0.00000058,-0.00159199,0.00000113,-0.0
 0000092,-0.00009501,-0.00000074,0.00000011,-0.00003660,0.00000110,-0.0
 0000280,-0.00155095,-0.00000097,0.00000066,-0.00015552,0.00000051,-0.0
 0000034,0.00002132,-0.00000054,0.00000017,-0.00005003,0.00001018,0.000
 00513,0.00297415,-0.00000329,0.00000054,0.00567673,0.00000234,0.000003
 49,-0.00004437,0.00000066,-0.00000269,-0.00000532,-0.00000031,-0.00000
 074,-0.00000961,-0.00000056,0.00000074,-0.00027634,0.00000054,-0.00000
 027,-0.00101298,-0.00000106,0.00000139,0.00087129,0.00000309,-0.000000
 73,-0.05670856,0.00000034,0.00000029,0.00067095,-0.00000004,0.00000002
 ,0.00002005,-0.00000001,0.00000001,0.00004434,0.,0.00000005,-0.0001236
 0,-0.00000006,0.00000003,-0.00016242,0.,0.00000003,0.00013082,0.000000
 03,0.,-0.00002635,0.,0.00000003,-0.00001503,0.00000005,0.,0.00011676,0
 .,0.00000012,-0.00005251,0.00000013,0.00000016,-0.00042163,-0.00001397
 ,-0.00003176,0.45057994,0.00032417,0.00133403,-0.00000010,0.00071918,0
 .00078571,0.00000008,-0.00335324,0.00173143,0.00000007,-0.00226263,-0.
 00351121,-0.00000009,-0.00064365,-0.00105882,0.00000007,0.00085115,-0.
 00014518,-0.00000008,0.00389951,-0.00279626,0.00000065,-0.00332373,0.0
 0308903,0.00000002,-0.00365195,-0.00088643,-0.00000022,0.00427160,-0.0
 0037906,0.00000006,0.01289363,-0.02132722,0.00000206,0.01267732,0.0025
 3445,-0.00000020,-0.00200970,0.00360003,0.00000007,0.00472775,0.000925
 22,0.00000031,-0.16368309,-0.07707264,0.00000706,-0.07773371,-0.025420
 30,0.00000670,0.00209354,0.01619743,0.00000127,-0.00689642,-0.00440693
 ,-0.00000067,-0.00011552,-0.00085026,0.00000002,-0.00082114,0.00043495
 ,0.,0.00071252,0.00033170,0.,0.00073377,-0.00010479,-0.00000055,-0.018
 02711,0.00572426,-0.00000241,-0.00009528,-0.00012106,0.00000002,0.0000
 2535,0.00002776,0.,0.00000336,-0.00004177,0.00000001,0.00000385,-0.000
 02082,0.00000001,0.00001590,-0.00001603,0.,0.00003903,-0.00001927,-0.0
 0000003,-0.00001885,-0.00003603,0.00000003,-0.00003052,0.00032531,0.00
 000006,0.00015485,-0.00012430,-0.00000007,-0.00143854,-0.00376260,0.00
 000033,-0.00083239,-0.00053006,0.00000007,-0.23189172,-0.00483734,-0.0
 0001958,0.60945361,-0.00000190,0.00073097,-0.00000010,0.00238297,0.000
 69460,-0.00000010,-0.00231455,0.00330676,-0.00000013,-0.00261250,-0.00
 393053,-0.00000016,-0.00048399,-0.00094027,0.00000008,0.00069888,-0.00
 006536,-0.00000005,0.00204486,0.00014730,0.00000030,-0.00734246,0.0033
 1388,0.00000054,-0.00510832,-0.00103670,-0.00000054,0.00484613,-0.0002
 4362,0.00000016,-0.02038732,-0.04787664,0.00000564,0.02047270,-0.00484
 943,-0.00000113,-0.00369241,0.00353250,-0.00000013,0.00519031,0.000452
 76,0.00000036,-0.07598039,-0.20123939,0.00001259,-0.04130686,0.0111146
 2,0.00000275,0.00969614,0.01080757,-0.00000048,-0.00951116,-0.00370561
 ,-0.00000046,-0.00001622,-0.00073904,0.00000003,-0.00068450,0.00087353
 ,-0.00000003,0.00105442,0.00002731,0.00000007,-0.00025140,-0.00549892,
 -0.00000005,0.03722956,0.00843902,0.00000443,0.00025530,0.00039892,-0.
 00000007,0.00006177,0.00000795,0.,-0.00001063,-0.00000398,0.00000001,-
 0.00000133,-0.00006759,0.,-0.00003089,0.00001222,0.,0.00003105,0.00000
 543,-0.00000004,0.00008288,-0.00002860,0.00000005,0.00001159,-0.000398
 77,-0.00000003,-0.00002305,0.00009169,-0.00000003,0.00329971,-0.000278
 23,0.00000006,0.00080423,0.00072203,0.00000019,-0.00512511,-0.09212436
 ,0.00000054,0.02109802,0.60138687,0.00000006,0.00000006,-0.00013937,0.
 00000017,-0.00000006,0.00051594,0.00000045,-0.00000054,-0.00018816,-0.
 00000026,0.00000030,0.00005912,-0.00000020,0.00000003,-0.00008708,0.00
 000028,-0.00000014,0.00002422,-0.00000054,0.00000042,-0.00098170,0.000
 00206,-0.00000112,0.00017405,-0.00000020,0.00000077,-0.00027395,0.0000
 0023,-0.00000028,0.00002615,-0.00000100,0.00000637,0.00222470,-0.00000
 111,-0.00000089,0.00317907,-0.00000008,-0.00000037,0.00017062,-0.00000
 033,-0.00000009,-0.00000752,-0.00000179,0.00000815,-0.04244036,0.00001
 546,0.00000113,0.00753462,-0.00000359,-0.00000625,0.00341031,0.0000009
 8,0.00000424,-0.00102258,0.,0.,0.00008467,0.00000003,-0.00000019,-0.00
 011606,-0.00000029,-0.00000001,0.00004709,0.00000031,-0.00000044,0.001
 18921,0.00000055,0.00000105,-0.00086891,-0.00000017,-0.00000011,-0.000
 14315,0.,0.,-0.00001490,0.,-0.00000001,0.00000702,0.,-0.00000002,0.000
 00713,0.,0.00000001,0.00001295,0.,0.00000001,-0.00001300,-0.00000003,0
 .00000003,0.00001417,0.,-0.00000003,0.00002796,-0.00000009,0.00000005,
 -0.00042334,-0.00000011,0.00000058,-0.00216860,-0.00000012,-0.00000020
 ,0.00027219,-0.00001494,0.00000483,-0.05162932,0.00001950,-0.00003088,
 0.10266177,-0.00062262,-0.00063997,0.00001160,0.00036040,-0.00021759,-
 0.00005824,0.00012275,0.00026831,-0.00040420,0.00075684,0.00042817,-0.
 00005644,0.00030512,0.00036323,-0.00000496,-0.00044878,-0.00002258,0.0
 0003944,-0.00063271,0.00082562,0.00016811,-0.00071731,0.00008810,-0.00
 020045,0.00028804,-0.00014752,0.00000557,-0.00069149,0.00009482,-0.000
 00971,0.00026295,-0.00053639,-0.00005455,-0.00013061,0.00022894,0.0000
 4546,0.00022014,-0.00011654,-0.00000251,-0.00024056,-0.00015460,0.0000
 1166,-0.00096556,0.00346469,-0.00107319,-0.00127530,-0.00076773,0.0011
 8424,0.00029406,0.00077632,-0.00007472,-0.00014890,-0.00070907,0.00002
 154,0.00032118,0.00050661,0.00002371,0.00018873,-0.00022924,-0.0000296
 6,0.00008255,0.00028420,-0.00002456,-0.00091121,0.00018433,-0.00029110
 ,0.00581390,0.00852452,0.01267664,-0.00029686,-0.00014647,0.00006857,0
 .00001213,-0.00001205,0.00000273,0.00000897,-0.00000795,0.00000128,-0.
 00000068,-0.00000578,0.00000366,-0.00000345,-0.00000197,0.00002455,-0.
 00000629,-0.00001977,-0.00000786,0.00000866,-0.00001398,0.00000342,0.0
 0000242,-0.00000862,-0.00001002,0.00001359,-0.00001225,0.00002516,-0.0
 0008054,0.00010272,0.00002334,-0.00008610,-0.00002862,-0.00010620,-0.0
 5736893,-0.02969879,-0.05013335,-0.01732579,-0.02143739,-0.02250335,0.
 06961210,-0.00013639,0.00014011,-0.00000109,0.00003025,-0.00091758,0.0
 0017074,0.00016381,-0.00122940,0.00103358,0.00016238,0.00016648,0.0000
 7586,-0.00000820,-0.00010788,-0.00001006,0.00008835,-0.00003060,-0.000
 06646,0.00323367,0.00011084,-0.00065956,-0.00018477,0.00000629,-0.0001
 3684,-0.00007390,0.00011057,-0.00000406,0.00004810,-0.00017211,0.00003
 033,0.00018488,-0.00040019,-0.00023700,0.00013820,-0.00001285,-0.00001
 657,-0.00011271,-0.00001942,0.00002570,0.00003870,0.00004446,-0.000011
 19,0.00007478,0.00141963,-0.00041844,-0.00057285,-0.00019589,0.0002511
 3,-0.00015475,0.00027626,0.00002721,0.00014107,0.00003595,-0.00000050,
 0.00003485,-0.00012297,0.00002506,-0.00005243,0.00024363,0.00001658,0.
 00062173,0.00038397,-0.00011328,-0.00162973,0.00091144,0.00101889,-0.0
 0371863,-0.02391954,-0.02045183,0.00009846,0.00008701,-0.00011354,0.00
 000059,0.00000752,-0.00000482,0.00000856,0.00000719,-0.00001198,0.0000
 1186,0.00000462,-0.00001170,0.00003655,-0.00002262,-0.00003346,-0.0000
 0338,-0.00000994,0.00001453,-0.00001000,-0.00001071,-0.00001128,-0.000
 01226,-0.00000637,0.00000092,-0.00001633,-0.00000858,0.00000095,0.0000
 1485,0.00000621,-0.00000786,-0.00001457,-0.00001432,-0.00002678,-0.029
 45530,-0.10924506,-0.10529301,-0.00736154,-0.00348481,-0.00255326,0.03
 486723,0.12742707,-0.00012157,0.00000671,-0.00002237,0.00019851,-0.000
 46357,-0.00015651,0.00019739,-0.00001567,-0.00000458,0.00000028,0.0000
 8401,0.00010187,0.00005573,-0.00002896,-0.00000256,-0.00001077,0.00005
 935,0.00000450,0.00032308,0.00127227,-0.00104855,-0.00021358,-0.000018
 00,-0.00005806,0.00005469,0.00004886,0.00006393,-0.00002126,-0.0000399
 1,-0.00000992,0.00011205,-0.00031745,-0.00015520,0.00002342,0.00009002
 ,0.00004613,0.00003574,-0.00002098,0.00000409,-0.00004891,0.00000094,-
 0.00000018,0.00113675,0.00141439,-0.00111293,-0.00044911,-0.00009718,-
 0.00010268,0.00010564,0.00023684,0.00008571,-0.00000882,-0.00016094,0.
 00001143,-0.00000344,-0.00004711,0.00000546,0.00001103,0.00034107,0.00
 003647,0.00018807,-0.00033841,-0.00006653,-0.00089385,-0.00028194,0.00
 106109,0.00273890,-0.00090944,0.00255405,0.00027135,0.00029407,-0.0001
 4156,0.00000637,-0.00000226,0.00000101,-0.00000294,0.00002864,-0.00000
 584,0.00000435,0.00000196,0.00000236,0.00000585,-0.00000404,0.00000244
 ,0.00000158,-0.00000300,-0.00001088,0.00000198,-0.00000619,0.00000115,
 -0.00000599,-0.00000108,0.00000116,-0.00000185,-0.00000466,-0.00000747
 ,-0.00002675,-0.00000611,0.00000994,-0.00000363,0.00000356,-0.00000992
 ,-0.04835040,-0.10284427,-0.18125815,-0.00217832,0.00091618,0.00351084
 ,0.05365053,0.11370788,0.20365391,-0.00003353,0.00008370,-0.00000001,-
 0.00067224,-0.00004567,0.00000006,0.00001929,0.00014742,-0.00000003,0.
 00009941,0.00000250,0.00000002,-0.00000470,0.00002403,0.,-0.00006804,0
 .00002156,0.,0.00023375,-0.00021147,0.00000007,-0.00058284,0.00017465,
 -0.00000004,-0.00000749,0.00001284,0.,-0.00001392,0.00002902,-0.000000
 02,-0.00257999,-0.00200829,0.00000064,0.00046514,-0.00085144,-0.000000
 08,-0.00026608,0.00000211,-0.00000010,0.00005429,-0.00001878,0.0000000
 1,0.00712714,-0.01786842,0.00000086,-0.00297168,-0.00568290,0.00000060
 ,0.00026776,0.00023517,0.00000009,-0.00017560,-0.00028713,0.00000004,0
 .00002176,0.00007943,0.,0.00000488,-0.00007079,-0.00000001,0.00004716,
 0.00017159,0.,-0.00021362,0.00163866,-0.00000001,-0.00526342,-0.003859
 11,-0.00000108,0.00000087,-0.00005380,0.00000001,-0.00004065,-0.000001
 30,0.,-0.00001500,0.00000320,0.,-0.00001250,0.00002820,0.,-0.00000204,
 0.00001123,0.,0.00000881,0.00000250,0.,0.00001075,-0.00000015,0.000000
 01,0.00002758,-0.00009224,-0.00000001,-0.00000645,0.00004122,0.,-0.001
 83412,-0.00077492,0.00000046,0.00000155,0.00002172,-0.00000004,-0.0156
 6508,0.02963873,-0.00000119,-0.10212167,0.10850401,-0.00000812,0.00065
 311,0.00005414,-0.00059606,0.12285430,-0.00001163,0.00001154,0.,0.0000
 7907,0.00002435,-0.00000002,-0.00005722,0.00010159,0.00000003,-0.00002
 053,-0.00004102,-0.00000002,0.00001306,-0.00000088,0.,-0.00001156,0.00
 001398,0.,-0.00009953,0.00014824,-0.00000003,-0.00029374,0.00019056,-0
 .00000003,0.00009708,-0.00005914,-0.00000003,-0.00000620,-0.00004109,0
 .,-0.00379387,0.00004922,0.00000103,0.00097349,-0.00125068,-0.00000003
 ,-0.00046094,-0.00003651,-0.00000008,0.00003796,0.00001692,0.,0.009429
 39,-0.02460812,0.00000091,0.00329879,-0.00073974,-0.00000093,-0.000685
 72,0.00081130,0.,0.00012683,0.00033243,0.00000007,0.00000879,-0.000002
 16,-0.00000002,0.00001416,0.00001712,0.,0.00002766,-0.00003170,0.,-0.0
 0018395,0.00005072,0.00000004,-0.00050150,0.00101343,-0.00000003,-0.00
 001264,0.00000132,0.,0.00001222,0.00000253,0.,0.00000753,-0.00000160,0
 .,0.00000706,-0.00000248,0.,0.00000147,-0.00000765,0.,0.00001429,-0.00
 001881,0.,0.00001053,-0.00002119,0.,-0.00000822,-0.00014899,-0.0000000
 2,-0.00006691,0.00008939,0.00000004,-0.00105989,0.00160319,0.00000034,
 -0.00008546,-0.00008237,0.00000002,-0.00261627,0.00237718,-0.00000039,
 0.10405012,-0.27606833,0.00001694,0.00046093,0.00052647,0.00018675,-0.
 10915548,0.29525414,0.,-0.00000003,-0.00006288,-0.00000009,-0.00000002
 ,-0.00011217,0.00000015,-0.00000012,0.00003525,0.00000007,0.00000014,-
 0.00005066,0.00000002,0.00000001,-0.00000056,0.,0.00000002,0.00000908,
 -0.00000014,0.,-0.00001067,0.00000035,-0.00000030,-0.00006108,0.000000
 13,0.00000015,-0.00019951,-0.00000011,0.00000003,0.00000045,0.00000095
 ,0.00000105,0.00538526,-0.00000077,0.00000039,0.00029931,0.00000028,-0
 .00000010,-0.00041126,-0.00000023,-0.00000007,0.00006560,-0.00000364,0
 .00000053,0.00383031,0.00000095,0.00000053,-0.00363138,-0.00000031,-0.
 00000094,0.00029571,0.00000015,0.00000021,0.00018456,0.,0.00000005,0.0
 0000718,0.00000005,-0.00000005,-0.00003068,-0.00000009,-0.00000003,-0.
 00003485,0.00000020,0.00000022,0.00031087,-0.00000041,-0.00000098,0.00
 175181,0.,0.,0.00003197,0.,0.,0.00001438,0.,0.,0.00000350,0.,0.,0.0000
 0652,0.,0.,0.00000201,0.,0.,-0.00000039,0.,0.,0.00005051,0.,0.00000003
 ,-0.00002793,0.,0.,-0.00005336,0.00000036,0.00000006,0.00016842,-0.000
 00002,-0.00000001,0.00010754,-0.00000223,0.00000329,0.00234767,-0.0000
 0379,0.00001459,-0.02815176,0.00086007,0.00070330,0.00072637,0.0000078
 6,-0.00001807,0.01647885,-0.00062229,-0.00063973,-0.00001145,0.0003602
 6,-0.00021762,0.00005826,0.00012347,0.00026833,0.00040413,0.00075637,0
 .00042827,0.00005656,0.00030496,0.00036308,0.00000494,-0.00044851,-0.0
 0002255,-0.00003946,-0.00063330,0.00082769,-0.00016772,-0.00071718,0.0
 0008768,0.00020059,0.00028783,-0.00014714,-0.00000562,-0.00069110,0.00
 009459,0.00000963,0.00026263,-0.00053461,0.00005449,-0.00013080,0.0002
 2858,-0.00004541,0.00021997,-0.00011650,0.00000252,-0.00024049,-0.0001
 5450,-0.00001170,-0.00097119,0.00346220,0.00107287,-0.00127332,-0.0007
 6835,-0.00118373,0.00029301,0.00077506,0.00007466,-0.00014860,-0.00070
 802,-0.00002166,0.00032105,0.00050628,-0.00002382,0.00018852,-0.000229
 09,0.00002966,0.00008246,0.00028422,0.00002446,-0.00091076,0.00018377,
 0.00029067,0.00581907,0.00852564,-0.01267513,-0.00029730,-0.00014641,-
 0.00006857,0.00001214,-0.00001204,-0.00000273,0.00000897,-0.00000796,-
 0.00000127,-0.00000068,-0.00000579,-0.00000366,-0.00000347,-0.00000197
 ,-0.00002456,-0.00000628,-0.00001976,0.00000787,0.00000866,-0.00001397
 ,-0.00000342,0.00000241,-0.00000863,0.00001002,0.00001357,-0.00001225,
 -0.00002514,-0.00008053,0.00010275,-0.00002325,-0.00008616,-0.00002871
 ,0.00010621,-0.05740166,-0.02973709,0.05015898,-0.01732343,-0.02144214
 ,0.02249621,0.00262604,0.00346474,-0.00618605,0.00065310,0.00046081,-0
 .00085975,0.06964258,-0.00013650,0.00014001,0.00000103,0.00003033,-0.0
 0091720,-0.00017039,0.00016291,-0.00122973,-0.00103318,0.00016260,0.00
 016609,-0.00007593,-0.00000818,-0.00010779,0.00001006,0.00008820,-0.00
 003070,0.00006642,0.00323505,0.00010913,0.00066025,-0.00018414,0.00000
 635,0.00013688,-0.00007410,0.00011059,0.00000395,0.00004830,-0.0001719
 8,-0.00003031,0.00018465,-0.00039995,0.00023724,0.00013856,-0.00001283
 ,0.00001642,-0.00011271,-0.00001936,-0.00002571,0.00003880,0.00004438,
 0.00001120,0.00007414,0.00142019,0.00041902,-0.00057256,-0.00019601,-0
 .00025103,-0.00015496,0.00027582,-0.00002713,0.00014072,0.00003632,0.0
 0000051,0.00003489,-0.00012271,-0.00002504,-0.00005217,0.00024356,-0.0
 0001669,0.00062149,0.00038370,0.00011311,-0.00162947,0.00091147,-0.001
 01939,-0.00372701,-0.02392089,0.02044607,0.00009851,0.00008715,0.00011
 374,0.00000060,0.00000752,0.00000483,0.00000856,0.00000721,0.00001199,
 0.00001187,0.00000461,0.00001170,0.00003658,-0.00002263,0.00003345,-0.
 00000338,-0.00000995,-0.00001451,-0.00001001,-0.00001073,0.00001127,-0
 .00001226,-0.00000637,-0.00000093,-0.00001634,-0.00000858,-0.00000095,
 0.00001485,0.00000621,0.00000782,-0.00001459,-0.00001434,0.00002677,-0
 .02949525,-0.10930925,0.10531440,-0.00735953,-0.00348574,0.00254991,0.
 00346613,0.00801512,-0.01308232,0.00005425,0.00052687,-0.00070386,0.03
 491117,0.12749446,0.00012108,-0.00000692,-0.00002235,-0.00019827,0.000
 46297,-0.00015669,-0.00019660,0.00001486,-0.00000458,0.00000012,-0.000
 08359,0.00010178,-0.00005564,0.00002900,-0.00000255,0.00001072,-0.0000
 5940,0.00000450,-0.00032215,-0.00127093,-0.00104816,0.00021271,0.00001
 777,-0.00005790,-0.00005513,-0.00004851,0.00006389,0.00002126,0.000039
 67,-0.00000989,-0.00011185,0.00031642,-0.00015507,-0.00002279,-0.00009
 016,0.00004612,-0.00003595,0.00002122,0.00000408,0.00004920,-0.0000009
 8,-0.00000018,-0.00113571,-0.00141258,-0.00111208,0.00044781,0.0000971
 6,-0.00010288,-0.00010551,-0.00023651,0.00008569,0.00000839,0.00016083
 ,0.00001146,0.00000365,0.00004741,0.00000545,-0.00001085,-0.00034131,0
 .00003648,-0.00018799,0.00033876,-0.00006667,0.00089287,0.00028227,0.0
 0106087,-0.00273848,0.00090213,0.00255539,-0.00027155,-0.00029419,-0.0
 0014132,-0.00000637,0.00000226,0.00000102,0.00000295,-0.00002865,-0.00
 000584,-0.00000435,-0.00000197,0.00000236,-0.00000584,0.00000403,0.000
 00245,-0.00000158,0.00000299,-0.00001088,-0.00000198,0.00000617,0.0000
 0115,0.00000598,0.00000108,0.00000116,0.00000185,0.00000466,-0.0000074
 7,0.00002675,0.00000612,0.00000989,0.00000361,-0.00000356,-0.00000991,
 0.04838077,0.10287093,-0.18119799,0.00216761,-0.00092418,0.00351598,0.
 00619382,0.01309191,-0.02771002,0.00059605,-0.00018652,0.00072603,-0.0
 5367861,-0.11373067,0.20358664\\-0.00012222,0.00003090,-0.00000128,0.0
 0005428,0.00001979,0.00000013,0.00000384,-0.00005960,-0.00000261,0.000
 03868,0.00013075,0.00000003,0.00007848,0.00006452,0.00000128,-0.000090
 96,-0.00005497,0.00000018,0.00002198,0.00002413,-0.00000470,0.00002858
 ,-0.00005953,-0.00000068,-0.00003495,0.00013682,-0.00000054,-0.0000229
 2,-0.00008990,-0.00000005,-0.00007161,0.00001968,0.00000265,0.00010306
 ,0.00007060,-0.00000017,-0.00005891,0.00002781,-0.00000019,0.00005779,
 -0.00003323,0.00000062,-0.00000226,-0.00008489,0.00000057,0.00004680,0
 .00001699,-0.00000296,0.00001226,0.00002093,0.00000032,0.00001269,-0.0
 0005435,-0.00000069,0.00001197,-0.00006153,0.00000498,0.00000342,-0.00
 000567,0.00000047,-0.00007886,-0.00001120,-0.00000428,0.00003928,-0.00
 005714,-0.00000467,-0.00002130,0.00000352,0.00000988,0.00002598,-0.000
 01300,0.00000138,-0.00001090,-0.00001387,-0.00000021,-0.00001452,0.000
 02185,-0.00000092,-0.00002989,-0.00001536,-0.00000056,0.00002152,0.000
 01921,-0.00000012,0.00000251,0.00001785,0.00000020,-0.00001994,0.00001
 509,-0.00000016,0.00002391,-0.00000642,0.00000076,0.00000468,0.0000213
 5,0.00000044,0.,-0.00000546,-0.00000071,0.00001401,-0.00000549,-0.0000
 0026,0.00007658,-0.00000989,0.00000136,-0.00006088,0.00000039,0.000003
 09,-0.00001186,-0.00000679,-0.00000083,-0.00001830,-0.00000732,0.00000
 016,-0.00001201,-0.00000661,-0.00000189\\\@


 FROM WHENCE IT HAPPENS, THAT THEY WHICH TRUST TO BOOKS, DO AS THEY THAT CAST UP MANY LITTLE SUMMS INTO GREATER,
 WITHOUT CONSIDERING WETHER THOSE LITTLE SUMMES WERE RIGHTLY CAST UP OR NOT...
 AND AT LAST FINDING THE ERROUR VISIBLE, AND NOT MISTRUSTING THEIR FIRST GROUNDS,
 KNOW NOT WHICH WAY TO CLEERE THEMSELVES...
 BUT SPEND TIME IN FLUTTERING OVER THEIR BOOKES....
 AS BIRDS THAT ENTERING BY THE CHIMNEY, AND FINDING THEMSELVES INCLOSED IN A CHAMBER,
 FLUTTER AT THE FALSE LIGHT OF A GLASSE WINDOW,
 FOR WANT OF WIT TO CONSIDER WHICH WAY THEY CAME IN....
           LEVIATHAN
 Job cpu time:       2 days 11 hours 33 minutes  0.0 seconds.
 File lengths (MBytes):  RWF=   6307 Int=      0 D2E=      0 Chk=     41 Scr=      1
 Normal termination of Gaussian 09 at Sun Feb  2 04:21:18 2020.
