 Entering Gaussian System, Link 0=g09
 Initial command:
 /usr/local/Cluster-Apps/gaussian/g09/l1.exe "/rds/user/am2145/hpc-work/scratch/19186850/Gau-127758.inp" -scrdir="/rds/user/am2145/hpc-work/scratch/19186850/"
 Entering Link 1 = /usr/local/Cluster-Apps/gaussian/g09/l1.exe PID=    127759.
  
 Copyright (c) 1988,1990,1992,1993,1995,1998,2003,2009,2013,
            Gaussian, Inc.  All Rights Reserved.
  
 This is part of the Gaussian(R) 09 program.  It is based on
 the Gaussian(R) 03 system (copyright 2003, Gaussian, Inc.),
 the Gaussian(R) 98 system (copyright 1998, Gaussian, Inc.),
 the Gaussian(R) 94 system (copyright 1995, Gaussian, Inc.),
 the Gaussian 92(TM) system (copyright 1992, Gaussian, Inc.),
 the Gaussian 90(TM) system (copyright 1990, Gaussian, Inc.),
 the Gaussian 88(TM) system (copyright 1988, Gaussian, Inc.),
 the Gaussian 86(TM) system (copyright 1986, Carnegie Mellon
 University), and the Gaussian 82(TM) system (copyright 1983,
 Carnegie Mellon University). Gaussian is a federally registered
 trademark of Gaussian, Inc.
  
 This software contains proprietary and confidential information,
 including trade secrets, belonging to Gaussian, Inc.
  
 This software is provided under written license and may be
 used, copied, transmitted, or stored only in accord with that
 written license.
  
 The following legend is applicable only to US Government
 contracts under FAR:
  
                    RESTRICTED RIGHTS LEGEND
  
 Use, reproduction and disclosure by the US Government is
 subject to restrictions as set forth in subparagraphs (a)
 and (c) of the Commercial Computer Software - Restricted
 Rights clause in FAR 52.227-19.
  
 Gaussian, Inc.
 340 Quinnipiac St., Bldg. 40, Wallingford CT 06492
  
  
 ---------------------------------------------------------------
 Warning -- This program may not be used in any manner that
 competes with the business of Gaussian, Inc. or will provide
 assistance to any competitor of Gaussian, Inc.  The licensee
 of this program is prohibited from giving any competitor of
 Gaussian, Inc. access to this program.  By using this program,
 the user acknowledges that Gaussian, Inc. is engaged in the
 business of creating and licensing software in the field of
 computational chemistry and represents and warrants to the
 licensee that it is not a competitor of Gaussian, Inc. and that
 it will not use this program in any manner prohibited above.
 ---------------------------------------------------------------
  

 Cite this work as:
 Gaussian 09, Revision D.01,
 M. J. Frisch, G. W. Trucks, H. B. Schlegel, G. E. Scuseria, 
 M. A. Robb, J. R. Cheeseman, G. Scalmani, V. Barone, B. Mennucci, 
 G. A. Petersson, H. Nakatsuji, M. Caricato, X. Li, H. P. Hratchian, 
 A. F. Izmaylov, J. Bloino, G. Zheng, J. L. Sonnenberg, M. Hada, 
 M. Ehara, K. Toyota, R. Fukuda, J. Hasegawa, M. Ishida, T. Nakajima, 
 Y. Honda, O. Kitao, H. Nakai, T. Vreven, J. A. Montgomery, Jr., 
 J. E. Peralta, F. Ogliaro, M. Bearpark, J. J. Heyd, E. Brothers, 
 K. N. Kudin, V. N. Staroverov, T. Keith, R. Kobayashi, J. Normand, 
 K. Raghavachari, A. Rendell, J. C. Burant, S. S. Iyengar, J. Tomasi, 
 M. Cossi, N. Rega, J. M. Millam, M. Klene, J. E. Knox, J. B. Cross, 
 V. Bakken, C. Adamo, J. Jaramillo, R. Gomperts, R. E. Stratmann, 
 O. Yazyev, A. J. Austin, R. Cammi, C. Pomelli, J. W. Ochterski, 
 R. L. Martin, K. Morokuma, V. G. Zakrzewski, G. A. Voth, 
 P. Salvador, J. J. Dannenberg, S. Dapprich, A. D. Daniels, 
 O. Farkas, J. B. Foresman, J. V. Ortiz, J. Cioslowski, 
 and D. J. Fox, Gaussian, Inc., Wallingford CT, 2013.
 
 ******************************************
 Gaussian 09:  ES64L-G09RevD.01 24-Apr-2013
                 2-Feb-2020 
 ******************************************
 %NProcShared=20
 Will use up to   20 processors via shared memory.
 %mem=64GB
 %Chk=BPrad2.chk
 ------------------------------
 #n opt freq b3lyp/6-311+g(d,p)
 ------------------------------
 1/14=-1,18=20,19=15,26=3,38=1/1,3;
 2/9=110,12=2,17=6,18=5,40=1/2;
 3/5=4,6=6,7=111,11=2,16=1,25=1,30=1,71=1,74=-5/1,2,3;
 4//1;
 5/5=2,38=5/2;
 6/7=2,8=2,9=2,10=2,28=1/1;
 7//1,2,3,16;
 1/14=-1,18=20,19=15,26=3/3(2);
 2/9=110/2;
 99//99;
 2/9=110/2;
 3/5=4,6=6,7=111,11=2,16=1,25=1,30=1,71=1,74=-5/1,2,3;
 4/5=5,16=3,69=1/1;
 5/5=2,38=5/2;
 7//1,2,3,16;
 1/14=-1,18=20,19=15,26=3/3(-5);
 2/9=110/2;
 6/7=2,8=2,9=2,10=2,19=2,28=1/1;
 99/9=1/99;
 ------
 BPrad2
 ------
 Symbolic Z-matrix:
 Charge =  0 Multiplicity = 3
 C                     3.81154   0.35219   0.027 
 C                     2.48646  -0.1251   -0.09505 
 C                     1.38263   0.70323  -0.00021 
 C                     1.48489   2.0793    0.19398 
 C                     3.93524   1.75514   0.23969 
 C                     2.82025   2.58415   0.3161 
 C                     0.17302  -0.05047  -0.13307 
 C                    -1.05538   0.57835  -0.02199 
 C                    -1.01678   2.0392    0.05152 
 C                     0.24351   2.7592    0.21543 
 C                    -2.33654  -0.10614  -0.01837 
 C                    -3.53012   0.69076  -0.23936 
 C                    -3.44037   2.0783   -0.28922 
 C                    -2.19771   2.74316  -0.0889 
 C                    -2.50195  -1.49269   0.27717 
 C                    -3.78929  -2.04956   0.22286 
 C                    -4.92331  -1.29923  -0.13371 
 C                    -4.80261   0.04691  -0.3474 
 C                     4.81446  -0.6477   -0.08324 
 C                     4.45355  -1.96631  -0.29523 
 C                     3.09446  -2.40283  -0.41955 
 C                     2.09858  -1.46569  -0.31861 
 C                     0.56176  -1.50134  -0.41798 
 H                     2.88978  -3.45364  -0.59413 
 H                     5.23628  -2.71293  -0.3755 
 H                     5.86339  -0.38299  -0.00147 
 H                     4.923     2.19267   0.34004 
 H                     2.96861   3.64824   0.46892 
 H                     0.19542   3.83554   0.33896 
 H                    -2.17444   3.82733  -0.07701 
 H                    -4.34043   2.66181  -0.44466 
 H                    -5.6717    0.65707  -0.56781 
 H                    -3.90645  -3.0985    0.47097 
 H                    -5.89064  -1.78434  -0.19856 
 C                    -0.1411   -2.43727   0.52921 
 C                    -1.45639  -2.40701   0.77023 
 H                    -1.84585  -3.18836   1.41803 
 H                     0.46336  -3.19179   1.02382 
 H                     0.27675  -1.76142  -1.44941 
 

 GradGradGradGradGradGradGradGradGradGradGradGradGradGradGradGradGradGrad
 Berny optimization.
 Initialization pass.
                           ----------------------------
                           !    Initial Parameters    !
                           ! (Angstroms and Degrees)  !
 --------------------------                            --------------------------
 ! Name  Definition              Value          Derivative Info.                !
 --------------------------------------------------------------------------------
 ! R1    R(1,2)                  1.4137         estimate D2E/DX2                !
 ! R2    R(1,5)                  1.4244         estimate D2E/DX2                !
 ! R3    R(1,19)                 1.4205         estimate D2E/DX2                !
 ! R4    R(2,3)                  1.3833         estimate D2E/DX2                !
 ! R5    R(2,22)                 1.4134         estimate D2E/DX2                !
 ! R6    R(3,4)                  1.3935         estimate D2E/DX2                !
 ! R7    R(3,7)                  1.4314         estimate D2E/DX2                !
 ! R8    R(4,6)                  1.4328         estimate D2E/DX2                !
 ! R9    R(4,10)                 1.4155         estimate D2E/DX2                !
 ! R10   R(5,6)                  1.3915         estimate D2E/DX2                !
 ! R11   R(5,27)                 1.085          estimate D2E/DX2                !
 ! R12   R(6,28)                 1.0852         estimate D2E/DX2                !
 ! R13   R(7,8)                  1.3845         estimate D2E/DX2                !
 ! R14   R(7,23)                 1.5288         estimate D2E/DX2                !
 ! R15   R(8,9)                  1.4632         estimate D2E/DX2                !
 ! R16   R(8,11)                 1.4526         estimate D2E/DX2                !
 ! R17   R(9,10)                 1.4607         estimate D2E/DX2                !
 ! R18   R(9,14)                 1.382          estimate D2E/DX2                !
 ! R19   R(10,29)                1.0845         estimate D2E/DX2                !
 ! R20   R(11,12)                1.4521         estimate D2E/DX2                !
 ! R21   R(11,15)                1.4273         estimate D2E/DX2                !
 ! R22   R(12,13)                1.3913         estimate D2E/DX2                !
 ! R23   R(12,18)                1.4302         estimate D2E/DX2                !
 ! R24   R(13,14)                1.4235         estimate D2E/DX2                !
 ! R25   R(13,31)                1.0839         estimate D2E/DX2                !
 ! R26   R(14,30)                1.0845         estimate D2E/DX2                !
 ! R27   R(15,16)                1.4037         estimate D2E/DX2                !
 ! R28   R(15,36)                1.4739         estimate D2E/DX2                !
 ! R29   R(16,17)                1.4058         estimate D2E/DX2                !
 ! R30   R(16,33)                1.0842         estimate D2E/DX2                !
 ! R31   R(17,18)                1.3683         estimate D2E/DX2                !
 ! R32   R(17,34)                1.0841         estimate D2E/DX2                !
 ! R33   R(18,32)                1.0845         estimate D2E/DX2                !
 ! R34   R(19,20)                1.3834         estimate D2E/DX2                !
 ! R35   R(19,26)                1.0849         estimate D2E/DX2                !
 ! R36   R(20,21)                1.4329         estimate D2E/DX2                !
 ! R37   R(20,25)                1.0847         estimate D2E/DX2                !
 ! R38   R(21,22)                1.3712         estimate D2E/DX2                !
 ! R39   R(21,24)                1.0847         estimate D2E/DX2                !
 ! R40   R(22,23)                1.5404         estimate D2E/DX2                !
 ! R41   R(23,35)                1.5057         estimate D2E/DX2                !
 ! R42   R(23,39)                1.1012         estimate D2E/DX2                !
 ! R43   R(35,36)                1.3375         estimate D2E/DX2                !
 ! R44   R(35,38)                1.086          estimate D2E/DX2                !
 ! R45   R(36,37)                1.0871         estimate D2E/DX2                !
 ! A1    A(2,1,5)              115.267          estimate D2E/DX2                !
 ! A2    A(2,1,19)             114.6724         estimate D2E/DX2                !
 ! A3    A(5,1,19)             130.0606         estimate D2E/DX2                !
 ! A4    A(1,2,3)              122.6737         estimate D2E/DX2                !
 ! A5    A(1,2,22)             126.2367         estimate D2E/DX2                !
 ! A6    A(3,2,22)             111.0892         estimate D2E/DX2                !
 ! A7    A(2,3,4)              122.8418         estimate D2E/DX2                !
 ! A8    A(2,3,7)              110.6502         estimate D2E/DX2                !
 ! A9    A(4,3,7)              126.5077         estimate D2E/DX2                !
 ! A10   A(3,4,6)              115.3547         estimate D2E/DX2                !
 ! A11   A(3,4,10)             114.3351         estimate D2E/DX2                !
 ! A12   A(6,4,10)             130.2998         estimate D2E/DX2                !
 ! A13   A(1,5,6)              121.6964         estimate D2E/DX2                !
 ! A14   A(1,5,27)             119.3456         estimate D2E/DX2                !
 ! A15   A(6,5,27)             118.9573         estimate D2E/DX2                !
 ! A16   A(4,6,5)              122.153          estimate D2E/DX2                !
 ! A17   A(4,6,28)             119.0066         estimate D2E/DX2                !
 ! A18   A(5,6,28)             118.8399         estimate D2E/DX2                !
 ! A19   A(3,7,8)              120.2118         estimate D2E/DX2                !
 ! A20   A(3,7,23)             107.5852         estimate D2E/DX2                !
 ! A21   A(8,7,23)             132.1909         estimate D2E/DX2                !
 ! A22   A(7,8,9)              115.7275         estimate D2E/DX2                !
 ! A23   A(7,8,11)             124.6632         estimate D2E/DX2                !
 ! A24   A(9,8,11)             119.5785         estimate D2E/DX2                !
 ! A25   A(8,9,10)             121.3674         estimate D2E/DX2                !
 ! A26   A(8,9,14)             118.7453         estimate D2E/DX2                !
 ! A27   A(10,9,14)            119.8415         estimate D2E/DX2                !
 ! A28   A(4,10,9)             121.2115         estimate D2E/DX2                !
 ! A29   A(4,10,29)            121.153          estimate D2E/DX2                !
 ! A30   A(9,10,29)            117.629          estimate D2E/DX2                !
 ! A31   A(8,11,12)            117.775          estimate D2E/DX2                !
 ! A32   A(8,11,15)            124.0907         estimate D2E/DX2                !
 ! A33   A(12,11,15)           117.9941         estimate D2E/DX2                !
 ! A34   A(11,12,13)           119.9825         estimate D2E/DX2                !
 ! A35   A(11,12,18)           119.7213         estimate D2E/DX2                !
 ! A36   A(13,12,18)           120.2414         estimate D2E/DX2                !
 ! A37   A(12,13,14)           121.1348         estimate D2E/DX2                !
 ! A38   A(12,13,31)           119.2399         estimate D2E/DX2                !
 ! A39   A(14,13,31)           119.5812         estimate D2E/DX2                !
 ! A40   A(9,14,13)            121.4897         estimate D2E/DX2                !
 ! A41   A(9,14,30)            119.3266         estimate D2E/DX2                !
 ! A42   A(13,14,30)           119.1565         estimate D2E/DX2                !
 ! A43   A(11,15,16)           118.9251         estimate D2E/DX2                !
 ! A44   A(11,15,36)           126.1353         estimate D2E/DX2                !
 ! A45   A(16,15,36)           114.6731         estimate D2E/DX2                !
 ! A46   A(15,16,17)           122.541          estimate D2E/DX2                !
 ! A47   A(15,16,33)           118.2981         estimate D2E/DX2                !
 ! A48   A(17,16,33)           119.1604         estimate D2E/DX2                !
 ! A49   A(16,17,18)           119.5745         estimate D2E/DX2                !
 ! A50   A(16,17,34)           119.7449         estimate D2E/DX2                !
 ! A51   A(18,17,34)           120.6365         estimate D2E/DX2                !
 ! A52   A(12,18,17)           120.6352         estimate D2E/DX2                !
 ! A53   A(12,18,32)           118.3639         estimate D2E/DX2                !
 ! A54   A(17,18,32)           120.9663         estimate D2E/DX2                !
 ! A55   A(1,19,20)            119.9087         estimate D2E/DX2                !
 ! A56   A(1,19,26)            120.3334         estimate D2E/DX2                !
 ! A57   A(20,19,26)           119.7579         estimate D2E/DX2                !
 ! A58   A(19,20,21)           123.443          estimate D2E/DX2                !
 ! A59   A(19,20,25)           118.6301         estimate D2E/DX2                !
 ! A60   A(21,20,25)           117.9267         estimate D2E/DX2                !
 ! A61   A(20,21,22)           118.3129         estimate D2E/DX2                !
 ! A62   A(20,21,24)           119.214          estimate D2E/DX2                !
 ! A63   A(22,21,24)           122.4723         estimate D2E/DX2                !
 ! A64   A(2,22,21)            117.4243         estimate D2E/DX2                !
 ! A65   A(2,22,23)            107.8151         estimate D2E/DX2                !
 ! A66   A(21,22,23)           134.7495         estimate D2E/DX2                !
 ! A67   A(7,23,22)            102.6909         estimate D2E/DX2                !
 ! A68   A(7,23,35)            110.7301         estimate D2E/DX2                !
 ! A69   A(7,23,39)            109.4428         estimate D2E/DX2                !
 ! A70   A(22,23,35)           116.0724         estimate D2E/DX2                !
 ! A71   A(22,23,39)           108.9101         estimate D2E/DX2                !
 ! A72   A(35,23,39)           108.7584         estimate D2E/DX2                !
 ! A73   A(23,35,36)           123.9403         estimate D2E/DX2                !
 ! A74   A(23,35,38)           117.2946         estimate D2E/DX2                !
 ! A75   A(36,35,38)           118.7509         estimate D2E/DX2                !
 ! A76   A(15,36,35)           130.6438         estimate D2E/DX2                !
 ! A77   A(15,36,37)           113.0212         estimate D2E/DX2                !
 ! A78   A(35,36,37)           116.3215         estimate D2E/DX2                !
 ! D1    D(5,1,2,3)             -0.722          estimate D2E/DX2                !
 ! D2    D(5,1,2,22)           179.5092         estimate D2E/DX2                !
 ! D3    D(19,1,2,3)           179.318          estimate D2E/DX2                !
 ! D4    D(19,1,2,22)           -0.4507         estimate D2E/DX2                !
 ! D5    D(2,1,5,6)             -0.1556         estimate D2E/DX2                !
 ! D6    D(2,1,5,27)          -179.8357         estimate D2E/DX2                !
 ! D7    D(19,1,5,6)           179.7968         estimate D2E/DX2                !
 ! D8    D(19,1,5,27)            0.1167         estimate D2E/DX2                !
 ! D9    D(2,1,19,20)            0.0856         estimate D2E/DX2                !
 ! D10   D(2,1,19,26)         -179.8795         estimate D2E/DX2                !
 ! D11   D(5,1,19,20)         -179.867          estimate D2E/DX2                !
 ! D12   D(5,1,19,26)            0.1679         estimate D2E/DX2                !
 ! D13   D(1,2,3,4)              1.4443         estimate D2E/DX2                !
 ! D14   D(1,2,3,7)           -178.7534         estimate D2E/DX2                !
 ! D15   D(22,2,3,4)          -178.7556         estimate D2E/DX2                !
 ! D16   D(22,2,3,7)             1.0467         estimate D2E/DX2                !
 ! D17   D(1,2,22,21)            0.4658         estimate D2E/DX2                !
 ! D18   D(1,2,22,23)         -178.5022         estimate D2E/DX2                !
 ! D19   D(3,2,22,21)         -179.3256         estimate D2E/DX2                !
 ! D20   D(3,2,22,23)            1.7064         estimate D2E/DX2                !
 ! D21   D(2,3,4,6)             -1.1532         estimate D2E/DX2                !
 ! D22   D(2,3,4,10)           177.7979         estimate D2E/DX2                !
 ! D23   D(7,3,4,6)            179.077          estimate D2E/DX2                !
 ! D24   D(7,3,4,10)            -1.9719         estimate D2E/DX2                !
 ! D25   D(2,3,7,8)            177.7576         estimate D2E/DX2                !
 ! D26   D(2,3,7,23)            -3.3602         estimate D2E/DX2                !
 ! D27   D(4,3,7,8)             -2.449          estimate D2E/DX2                !
 ! D28   D(4,3,7,23)           176.4331         estimate D2E/DX2                !
 ! D29   D(3,4,6,5)              0.2669         estimate D2E/DX2                !
 ! D30   D(3,4,6,28)           179.9964         estimate D2E/DX2                !
 ! D31   D(10,4,6,5)          -178.4799         estimate D2E/DX2                !
 ! D32   D(10,4,6,28)            1.2496         estimate D2E/DX2                !
 ! D33   D(3,4,10,9)             0.3305         estimate D2E/DX2                !
 ! D34   D(3,4,10,29)         -178.7189         estimate D2E/DX2                !
 ! D35   D(6,4,10,9)           179.0876         estimate D2E/DX2                !
 ! D36   D(6,4,10,29)            0.0382         estimate D2E/DX2                !
 ! D37   D(1,5,6,4)              0.371          estimate D2E/DX2                !
 ! D38   D(1,5,6,28)          -179.359          estimate D2E/DX2                !
 ! D39   D(27,5,6,4)          -179.9477         estimate D2E/DX2                !
 ! D40   D(27,5,6,28)            0.3223         estimate D2E/DX2                !
 ! D41   D(3,7,8,9)              7.9118         estimate D2E/DX2                !
 ! D42   D(3,7,8,11)          -174.1212         estimate D2E/DX2                !
 ! D43   D(23,7,8,9)          -170.6499         estimate D2E/DX2                !
 ! D44   D(23,7,8,11)            7.3171         estimate D2E/DX2                !
 ! D45   D(3,7,23,22)            4.0818         estimate D2E/DX2                !
 ! D46   D(3,7,23,35)          128.6181         estimate D2E/DX2                !
 ! D47   D(3,7,23,39)         -111.4989         estimate D2E/DX2                !
 ! D48   D(8,7,23,22)         -177.222          estimate D2E/DX2                !
 ! D49   D(8,7,23,35)          -52.6858         estimate D2E/DX2                !
 ! D50   D(8,7,23,39)           67.1972         estimate D2E/DX2                !
 ! D51   D(7,8,9,10)            -9.5155         estimate D2E/DX2                !
 ! D52   D(7,8,9,14)           168.019          estimate D2E/DX2                !
 ! D53   D(11,8,9,10)          172.4071         estimate D2E/DX2                !
 ! D54   D(11,8,9,14)          -10.0583         estimate D2E/DX2                !
 ! D55   D(7,8,11,12)         -164.5203         estimate D2E/DX2                !
 ! D56   D(7,8,11,15)           19.8781         estimate D2E/DX2                !
 ! D57   D(9,8,11,12)           13.3738         estimate D2E/DX2                !
 ! D58   D(9,8,11,15)         -162.2278         estimate D2E/DX2                !
 ! D59   D(8,9,10,4)             5.4999         estimate D2E/DX2                !
 ! D60   D(8,9,10,29)         -175.4183         estimate D2E/DX2                !
 ! D61   D(14,9,10,4)         -172.008          estimate D2E/DX2                !
 ! D62   D(14,9,10,29)           7.0737         estimate D2E/DX2                !
 ! D63   D(8,9,14,13)            0.5937         estimate D2E/DX2                !
 ! D64   D(8,9,14,30)         -177.491          estimate D2E/DX2                !
 ! D65   D(10,9,14,13)         178.1668         estimate D2E/DX2                !
 ! D66   D(10,9,14,30)           0.0821         estimate D2E/DX2                !
 ! D67   D(8,11,12,13)          -7.5084         estimate D2E/DX2                !
 ! D68   D(8,11,12,18)         175.1783         estimate D2E/DX2                !
 ! D69   D(15,11,12,13)        168.3669         estimate D2E/DX2                !
 ! D70   D(15,11,12,18)         -8.9464         estimate D2E/DX2                !
 ! D71   D(8,11,15,16)        -178.7264         estimate D2E/DX2                !
 ! D72   D(8,11,15,36)           7.5388         estimate D2E/DX2                !
 ! D73   D(12,11,15,16)          5.6809         estimate D2E/DX2                !
 ! D74   D(12,11,15,36)       -168.0539         estimate D2E/DX2                !
 ! D75   D(11,12,13,14)         -1.8053         estimate D2E/DX2                !
 ! D76   D(11,12,13,31)       -179.3777         estimate D2E/DX2                !
 ! D77   D(18,12,13,14)        175.4938         estimate D2E/DX2                !
 ! D78   D(18,12,13,31)         -2.0785         estimate D2E/DX2                !
 ! D79   D(11,12,18,17)          5.5001         estimate D2E/DX2                !
 ! D80   D(11,12,18,32)       -176.619          estimate D2E/DX2                !
 ! D81   D(13,12,18,17)       -171.8062         estimate D2E/DX2                !
 ! D82   D(13,12,18,32)          6.0747         estimate D2E/DX2                !
 ! D83   D(12,13,14,9)           5.4551         estimate D2E/DX2                !
 ! D84   D(12,13,14,30)       -176.457          estimate D2E/DX2                !
 ! D85   D(31,13,14,9)        -176.9808         estimate D2E/DX2                !
 ! D86   D(31,13,14,30)          1.1071         estimate D2E/DX2                !
 ! D87   D(11,15,16,17)          1.0858         estimate D2E/DX2                !
 ! D88   D(11,15,16,33)       -178.644          estimate D2E/DX2                !
 ! D89   D(36,15,16,17)        175.5198         estimate D2E/DX2                !
 ! D90   D(36,15,16,33)         -4.21           estimate D2E/DX2                !
 ! D91   D(11,15,36,35)        -33.0937         estimate D2E/DX2                !
 ! D92   D(11,15,36,37)        148.3118         estimate D2E/DX2                !
 ! D93   D(16,15,36,35)        152.94           estimate D2E/DX2                !
 ! D94   D(16,15,36,37)        -25.6545         estimate D2E/DX2                !
 ! D95   D(15,16,17,18)         -4.7744         estimate D2E/DX2                !
 ! D96   D(15,16,17,34)        177.6244         estimate D2E/DX2                !
 ! D97   D(33,16,17,18)        174.9532         estimate D2E/DX2                !
 ! D98   D(33,16,17,34)         -2.648          estimate D2E/DX2                !
 ! D99   D(16,17,18,12)          1.3447         estimate D2E/DX2                !
 ! D100  D(16,17,18,32)       -176.4806         estimate D2E/DX2                !
 ! D101  D(34,17,18,12)        178.924          estimate D2E/DX2                !
 ! D102  D(34,17,18,32)          1.0987         estimate D2E/DX2                !
 ! D103  D(1,19,20,21)           0.2413         estimate D2E/DX2                !
 ! D104  D(1,19,20,25)        -179.9579         estimate D2E/DX2                !
 ! D105  D(26,19,20,21)       -179.7935         estimate D2E/DX2                !
 ! D106  D(26,19,20,25)          0.0073         estimate D2E/DX2                !
 ! D107  D(19,20,21,22)         -0.2335         estimate D2E/DX2                !
 ! D108  D(19,20,21,24)        179.4459         estimate D2E/DX2                !
 ! D109  D(25,20,21,22)        179.9644         estimate D2E/DX2                !
 ! D110  D(25,20,21,24)         -0.3563         estimate D2E/DX2                !
 ! D111  D(20,21,22,2)          -0.104          estimate D2E/DX2                !
 ! D112  D(20,21,22,23)        178.5124         estimate D2E/DX2                !
 ! D113  D(24,21,22,2)        -179.7722         estimate D2E/DX2                !
 ! D114  D(24,21,22,23)         -1.1558         estimate D2E/DX2                !
 ! D115  D(2,22,23,7)           -3.5082         estimate D2E/DX2                !
 ! D116  D(2,22,23,35)        -124.447          estimate D2E/DX2                !
 ! D117  D(2,22,23,39)         112.4562         estimate D2E/DX2                !
 ! D118  D(21,22,23,7)         177.7817         estimate D2E/DX2                !
 ! D119  D(21,22,23,35)         56.8429         estimate D2E/DX2                !
 ! D120  D(21,22,23,39)        -66.2539         estimate D2E/DX2                !
 ! D121  D(7,23,35,36)          49.6151         estimate D2E/DX2                !
 ! D122  D(7,23,35,38)        -131.7749         estimate D2E/DX2                !
 ! D123  D(22,23,35,36)        166.1469         estimate D2E/DX2                !
 ! D124  D(22,23,35,38)        -15.2431         estimate D2E/DX2                !
 ! D125  D(39,23,35,36)        -70.677          estimate D2E/DX2                !
 ! D126  D(39,23,35,38)        107.933          estimate D2E/DX2                !
 ! D127  D(23,35,36,15)         -3.0962         estimate D2E/DX2                !
 ! D128  D(23,35,36,37)        175.4606         estimate D2E/DX2                !
 ! D129  D(38,35,36,15)        178.3128         estimate D2E/DX2                !
 ! D130  D(38,35,36,37)         -3.1304         estimate D2E/DX2                !
 --------------------------------------------------------------------------------
 Trust Radius=3.00D-01 FncErr=1.00D-07 GrdErr=1.00D-06
 Number of steps in this run=    234 maximum allowed number of steps=    234.
 GradGradGradGradGradGradGradGradGradGradGradGradGradGradGradGradGradGrad

                          Input orientation:                          
 ---------------------------------------------------------------------
 Center     Atomic      Atomic             Coordinates (Angstroms)
 Number     Number       Type             X           Y           Z
 ---------------------------------------------------------------------
      1          6           0        3.811540    0.352190    0.027000
      2          6           0        2.486460   -0.125100   -0.095050
      3          6           0        1.382630    0.703230   -0.000210
      4          6           0        1.484890    2.079300    0.193980
      5          6           0        3.935240    1.755140    0.239690
      6          6           0        2.820250    2.584150    0.316100
      7          6           0        0.173020   -0.050470   -0.133070
      8          6           0       -1.055380    0.578350   -0.021990
      9          6           0       -1.016780    2.039200    0.051520
     10          6           0        0.243510    2.759200    0.215430
     11          6           0       -2.336540   -0.106140   -0.018370
     12          6           0       -3.530120    0.690760   -0.239360
     13          6           0       -3.440370    2.078300   -0.289220
     14          6           0       -2.197710    2.743160   -0.088900
     15          6           0       -2.501950   -1.492690    0.277170
     16          6           0       -3.789290   -2.049560    0.222860
     17          6           0       -4.923310   -1.299230   -0.133710
     18          6           0       -4.802610    0.046910   -0.347400
     19          6           0        4.814460   -0.647700   -0.083240
     20          6           0        4.453550   -1.966310   -0.295230
     21          6           0        3.094460   -2.402830   -0.419550
     22          6           0        2.098580   -1.465690   -0.318610
     23          6           0        0.561760   -1.501340   -0.417980
     24          1           0        2.889780   -3.453640   -0.594130
     25          1           0        5.236280   -2.712930   -0.375500
     26          1           0        5.863390   -0.382990   -0.001470
     27          1           0        4.923000    2.192670    0.340040
     28          1           0        2.968610    3.648240    0.468920
     29          1           0        0.195420    3.835540    0.338960
     30          1           0       -2.174440    3.827330   -0.077010
     31          1           0       -4.340430    2.661810   -0.444660
     32          1           0       -5.671700    0.657070   -0.567810
     33          1           0       -3.906450   -3.098500    0.470970
     34          1           0       -5.890640   -1.784340   -0.198560
     35          6           0       -0.141100   -2.437270    0.529210
     36          6           0       -1.456390   -2.407010    0.770230
     37          1           0       -1.845850   -3.188360    1.418030
     38          1           0        0.463360   -3.191790    1.023820
     39          1           0        0.276750   -1.761420   -1.449410
 ---------------------------------------------------------------------
                    Distance matrix (angstroms):
                    1          2          3          4          5
     1  C    0.000000
     2  C    1.413697   0.000000
     3  C    2.454297   1.383317   0.000000
     4  C    2.902429   2.438454   1.393462   0.000000
     5  C    1.424362   2.397148   2.771260   2.472121   0.000000
     6  C    2.459244   2.760525   2.388444   1.432820   1.391510
     7  C    3.664231   2.314956   1.431388   2.522674   4.189687
     8  C    4.872418   3.611760   2.441303   2.958457   5.134160
     9  C    5.114614   4.120481   2.746754   2.506044   4.963728
    10  C    4.308137   3.666935   2.360319   1.415538   3.825911
    11  C    6.165307   4.823647   3.806263   4.407331   6.547227
    12  C    7.354288   6.073359   4.918583   5.221700   7.556057
    13  C    7.461210   6.326135   5.023512   4.948906   7.401608
    14  C    6.468482   5.492577   4.121652   3.752636   6.220710
    15  C    6.582273   5.185854   4.470902   5.353590   7.210216
    16  C    7.973668   6.571883   5.863136   6.698156   8.610714
    17  C    8.891042   7.502317   6.617594   7.251681   9.377767
    18  C    8.627685   7.295465   6.229646   6.629959   8.922598
    19  C    1.420486   2.385966   3.689087   4.312704   2.578944
    20  C    2.427231   2.701772   4.079710   5.041749   3.795257
    21  C    2.881622   2.379710   3.571249   4.801731   4.293044
    22  C    2.521580   1.413369   2.306117   3.634050   3.749502
    23  C    3.767579   2.388052   2.389244   3.748019   4.734718
    24  H    3.964819   3.389827   4.461369   5.762661   5.377698
    25  H    3.403946   3.786427   5.163488   6.112504   4.694125
    26  H    2.179768   3.388056   4.610541   5.027160   2.889208
    27  H    2.172718   3.390883   3.855959   3.443078   1.084976
    28  H    3.430710   3.845598   3.377647   2.176830   2.137931
    29  H    5.030643   4.596074   3.366878   2.183605   4.280674
    30  H    6.922382   6.111139   4.734833   4.064448   6.459293
    31  H    8.485954   7.382108   6.065228   5.889103   8.353269
    32  H    9.506766   8.209194   7.077279   7.336201   9.703149
    33  H    8.465916   7.073244   6.530661   7.480166   9.225151
    34  H    9.937200   8.540468   7.689461   8.335481  10.453129
    35  C    4.863812   3.555264   3.530549   4.812029   5.854628
    36  C    5.993051   4.637013   4.281029   5.395384   6.831884
    37  H    6.817369   5.517416   5.251567   6.351407   7.697251
    38  H    4.976319   3.840494   4.130965   5.432913   6.094336
    39  H    4.375143   3.065070   3.065559   4.348731   5.348252
                    6          7          8          9         10
     6  C    0.000000
     7  C    3.761755   0.000000
     8  C    4.376991   1.384457   0.000000
     9  C    3.884556   2.411725   1.463208   0.000000
    10  C    2.584640   2.832078   2.549429   1.460684   0.000000
    11  C    5.825977   2.512797   1.452553   2.519749   3.862835
    12  C    6.649862   3.778090   2.486810   2.867016   4.327304
    13  C    6.310124   4.196741   2.830095   2.447738   3.780115
    14  C    5.036788   3.664243   2.448632   1.381982   2.460169
    15  C    6.704323   3.066555   2.543869   3.838085   5.061613
    16  C    8.072545   4.452297   3.800017   4.943089   6.275962
    17  C    8.674427   5.247093   4.301008   5.142023   6.579421
    18  C    8.061378   4.981196   3.798691   4.296611   5.756442
    19  C    3.818534   4.679971   5.996830   6.421912   5.708744
    20  C    4.873200   4.692513   6.074394   6.788877   6.349461
    21  C    5.048400   3.761712   5.125101   6.070900   5.931077
    22  C    4.162315   2.396884   3.770086   4.703905   4.645017
    23  C    4.725556   1.528828   2.664031   3.904823   4.319108
    24  H    6.106411   4.378919   5.669971   6.771216   6.801288
    25  H    5.862983   5.725737   7.109323   7.865484   7.431094
    26  H    4.262097   5.701596   6.985268   7.294282   6.442318
    27  H    2.139015   5.274260   6.203074   5.948763   4.715306
    28  H    1.085197   4.675272   5.085048   4.318167   2.877641
    29  H    2.907960   3.914638   3.507716   2.186067   1.084472
    30  H    5.162069   4.533326   3.436742   2.134035   2.659493
    31  H    7.201397   5.274920   3.912928   3.417673   4.632247
    32  H    8.752608   5.903420   4.649143   4.895113   6.326304
    33  H    8.807099   5.128102   4.678764   5.909492   7.183322
    34  H    9.758493   6.307025   5.384535   6.199718   7.644798
    35  C    5.833495   2.496818   3.199014   4.586261   5.220123
    36  C    6.588442   3.004032   3.114610   4.525327   5.466918
    37  H    7.503906   4.040804   4.109331   5.466451   6.417565
    38  H    6.278318   3.360146   4.196933   5.522630   6.009668
    39  H    5.335766   2.161217   3.047396   4.286108   4.817551
                   11         12         13         14         15
    11  C    0.000000
    12  C    1.452074   0.000000
    13  C    2.462433   1.391333   0.000000
    14  C    2.853552   2.451591   1.423507   0.000000
    15  C    1.427314   2.468074   3.735425   4.262510   0.000000
    16  C    2.438351   2.791088   4.174111   5.059692   1.403673
    17  C    2.850990   2.431502   3.692019   4.875635   2.463581
    18  C    2.492626   1.430191   2.446554   3.757937   2.837868
    19  C    7.171771   8.452684   8.695730   7.788998   7.373856
    20  C    7.045723   8.414400   8.869773   8.152358   6.995065
    21  C    5.910287   7.313537   7.924741   7.389019   5.712581
    22  C    4.648528   6.028169   6.575766   6.018745   4.639026
    23  C    3.241360   4.645502   5.370982   5.073337   3.141596
    24  H    6.233111   7.649642   8.412261   8.033563   5.803037
    25  H    8.016888   9.404967   9.911992   9.225793   7.860990
    26  H    8.204620   9.457672   9.628120   8.646490   8.443221
    27  H    7.623248   8.605038   8.387789   7.154826   8.289494
    28  H    6.517472   7.175085   6.641876   5.274580   7.509524
    29  H    4.698441   4.909556   4.086743   2.665226   5.972408
    30  H    3.937245   3.420862   2.169497   1.084485   5.341846
    31  H    3.443667   2.140978   1.083860   2.173576   4.600100
    32  H    3.465208   2.166882   2.660139   4.080408   3.922088
    33  H    3.414424   3.873588   5.253035   6.112139   2.142149
    34  H    3.934520   3.420503   4.575154   5.843630   3.434327
    35  C    3.248687   4.675546   5.652025   5.607902   2.555263
    36  C    2.586611   3.862099   5.017631   5.273700   1.473867
    37  H    3.435710   4.542167   5.761502   6.130055   2.146468
    38  H    4.294978   5.711191   6.688575   6.598717   3.498212
    39  H    3.408388   4.687181   5.468681   5.316501   3.282448
                   16         17         18         19         20
    16  C    0.000000
    17  C    1.405752   0.000000
    18  C    2.397332   1.368329   0.000000
    19  C    8.722581   9.759672   9.645740   0.000000
    20  C    8.259525   9.401946   9.472712   1.383448   0.000000
    21  C    6.922680   8.098412   8.268624   2.480320   1.432875
    22  C    5.941473   7.026296   7.065070   2.846140   2.407707
    23  C    4.432026   5.496149   5.583773   4.350426   3.921389
    24  H    6.873783   8.117749   8.455033   3.440741   2.178731
    25  H    9.069675  10.260325  10.411379   2.128033   1.084689
    26  H    9.798062  10.826351  10.680264   1.084902   2.140291
    27  H    9.690936  10.457898   9.983203   2.873786   4.233328
    28  H    8.842776   9.333971   8.603942   4.708200   5.857657
    29  H    7.108150   7.265719   6.309129   6.450831   7.224634
    30  H    6.102090   5.817312   4.612154   8.298835   8.805915
    31  H    4.790234   4.015754   2.657211   9.741432   9.938607
    32  H    3.390350   2.139075   1.084524  10.578128  10.463131
    33  H    1.084233   2.153373   3.371415   9.075673   8.471040
    34  H    2.159539   1.084096   2.135284  10.765891  10.346242
    35  C    3.681502   4.960255   5.354369   5.304265   4.691728
    36  C    2.422768   3.750176   4.297442   6.568648   6.021363
    37  H    2.549952   3.930327   4.725055   7.284813   6.641619
    38  H    4.475629   5.825622   6.332445   5.160431   4.377592
    39  H    4.405927   5.383801   5.503125   4.868019   4.338176
                   21         22         23         24         25
    21  C    0.000000
    22  C    1.371203   0.000000
    23  C    2.688356   1.540442   0.000000
    24  H    1.084700   2.157279   3.043383   0.000000
    25  H    2.164601   3.376982   4.829171   2.470326   0.000000
    26  H    3.452755   3.930218   5.434286   4.315379   2.441677
    27  H    5.003914   4.668486   5.765476   6.073506   4.967399
    28  H    6.117243   5.246850   5.753059   7.181434   6.805869
    29  H    6.920768   5.670754   5.402726   7.827029   8.294768
    30  H    8.166611   6.806844   5.999815   8.884045   9.888522
    31  H    8.996043   7.649379   6.431485   9.470850  10.982076
    32  H    9.286040   8.058875   6.598273   9.497240  11.418315
    33  H    7.091525   6.272949   4.827634   6.888346   9.189923
    34  H    9.009073   7.996473   6.462329   8.946441  11.167002
    35  C    3.371970   2.584363   1.505704   3.388382   5.459918
    36  C    4.703810   3.835292   2.510978   4.673982   6.796920
    37  H    5.329204   4.641340   3.466058   5.152218   7.321158
    38  H    3.102976   2.730473   2.223981   2.928112   4.996816
    39  H    3.067818   2.164539   1.101236   3.228473   5.162905
                   26         27         28         29         30
    26  H    0.000000
    27  H    2.763148   0.000000
    28  H    4.985161   2.440273   0.000000
    29  H    7.073738   5.004901   2.782544   0.000000
    30  H    9.074096   7.295183   5.175044   2.406104   0.000000
    31  H   10.657634   9.308436   7.431671   4.750330   2.486989
    32  H   11.595722  10.743832   9.202003   6.734092   4.745762
    33  H   10.151205  10.294310   9.632495   8.057523   7.160116
    34  H   11.838912  11.534362  10.413682   8.301332   6.731698
    35  C    6.368327   6.864200   6.834279   6.284711   6.614166
    36  C    7.633568   7.876467   7.505829   6.471777   6.332488
    37  H    8.325711   8.714062   8.415399   7.393669   7.180740
    38  H    6.172593   7.024838   7.305491   7.065705   7.578777
    39  H    5.933561   6.358034   6.339599   5.876295   6.255073
                   31         32         33         34         35
    31  H    0.000000
    32  H    2.409653   0.000000
    33  H    5.848751   4.277789   0.000000
    34  H    4.715079   2.478863   2.472306   0.000000
    35  C    6.677081   6.431635   3.823412   5.832082   0.000000
    36  C    5.957061   5.380314   2.563300   4.581358   1.337533
    37  H    6.626993   5.776506   2.269597   4.576567   2.064052
    38  H    7.713460   7.415253   4.405631   6.621816   1.085961
    39  H    6.472468   6.481541   4.793204   6.293000   2.132208
                   36         37         38         39
    36  C    0.000000
    37  H    1.087121   0.000000
    38  H    2.089408   2.342619   0.000000
    39  H    2.889180   3.842369   2.863154   0.000000
 Stoichiometry    C25H14(3)
 Framework group  C1[X(C25H14)]
 Deg. of freedom   111
 Full point group                 C1      NOp   1
 Largest Abelian subgroup         C1      NOp   1
 Largest concise Abelian subgroup C1      NOp   1
                         Standard orientation:                         
 ---------------------------------------------------------------------
 Center     Atomic      Atomic             Coordinates (Angstroms)
 Number     Number       Type             X           Y           Z
 ---------------------------------------------------------------------
      1          6           0        3.811541    0.352189    0.027000
      2          6           0        2.486461   -0.125101   -0.095050
      3          6           0        1.382631    0.703230   -0.000210
      4          6           0        1.484891    2.079300    0.193980
      5          6           0        3.935241    1.755139    0.239690
      6          6           0        2.820252    2.584149    0.316100
      7          6           0        0.173021   -0.050470   -0.133070
      8          6           0       -1.055379    0.578350   -0.021990
      9          6           0       -1.016779    2.039200    0.051520
     10          6           0        0.243512    2.759200    0.215430
     11          6           0       -2.336539   -0.106139   -0.018370
     12          6           0       -3.530119    0.690761   -0.239360
     13          6           0       -3.440369    2.078301   -0.289220
     14          6           0       -2.197708    2.743161   -0.088900
     15          6           0       -2.501950   -1.492689    0.277170
     16          6           0       -3.789290   -2.049559    0.222860
     17          6           0       -4.923310   -1.299228   -0.133710
     18          6           0       -4.802609    0.046912   -0.347400
     19          6           0        4.814461   -0.647702   -0.083240
     20          6           0        4.453550   -1.966311   -0.295230
     21          6           0        3.094460   -2.402831   -0.419550
     22          6           0        2.098580   -1.465691   -0.318610
     23          6           0        0.561760   -1.501340   -0.417980
     24          1           0        2.889780   -3.453641   -0.594130
     25          1           0        5.236280   -2.712932   -0.375500
     26          1           0        5.863391   -0.382992   -0.001470
     27          1           0        4.923001    2.192668    0.340040
     28          1           0        2.968612    3.648239    0.468920
     29          1           0        0.195422    3.835540    0.338960
     30          1           0       -2.174438    3.827331   -0.077010
     31          1           0       -4.340428    2.661812   -0.444660
     32          1           0       -5.671699    0.657072   -0.567810
     33          1           0       -3.906450   -3.098499    0.470970
     34          1           0       -5.890640   -1.784338   -0.198560
     35          6           0       -0.141100   -2.437270    0.529210
     36          6           0       -1.456390   -2.407009    0.770230
     37          1           0       -1.845850   -3.188359    1.418030
     38          1           0        0.463360   -3.191790    1.023820
     39          1           0        0.276750   -1.761420   -1.449410
 ---------------------------------------------------------------------
 Rotational constants (GHZ):      0.4928652      0.1807469      0.1345158
 Standard basis: 6-311+G(d,p) (5D, 7F)
 There are   659 symmetry adapted cartesian basis functions of A   symmetry.
 There are   634 symmetry adapted basis functions of A   symmetry.
   634 basis functions,  1012 primitive gaussians,   659 cartesian basis functions
    83 alpha electrons       81 beta electrons
       nuclear repulsion energy      1942.7400859001 Hartrees.
 NAtoms=   39 NActive=   39 NUniq=   39 SFac= 1.00D+00 NAtFMM=   60 NAOKFM=F Big=F
 Integral buffers will be    131072 words long.
 Raffenetti 2 integral format.
 Two-electron integral symmetry is turned on.
 One-electron integrals computed using PRISM.
 NBasis=   634 RedAO= T EigKep=  1.35D-06  NBF=   634
 NBsUse=   619 1.00D-06 EigRej=  9.84D-07 NBFU=   619
 ExpMin= 4.38D-02 ExpMax= 4.56D+03 ExpMxC= 6.82D+02 IAcc=2 IRadAn=         4 AccDes= 0.00D+00
 Harris functional with IExCor=  402 and IRadAn=       4 diagonalized for initial guess.
 HarFok:  IExCor=  402 AccDes= 0.00D+00 IRadAn=         4 IDoV= 1 UseB2=F ITyADJ=14
 ICtDFT=  3500011 ScaDFX=  1.000000  1.000000  1.000000  1.000000
 FoFCou: FMM=F IPFlag=           0 FMFlag=      100000 FMFlg1=           0
         NFxFlg=           0 DoJE=T BraDBF=F KetDBF=T FulRan=T
         wScrn=  0.000000 ICntrl=     500 IOpCl=  0 I1Cent=   200000004 NGrid=           0
         NMat0=    1 NMatS0=      1 NMatT0=    0 NMatD0=    1 NMtDS0=    0 NMtDT0=    0
 Petite list used in FoFCou.
 Initial guess <Sx>= 0.0000 <Sy>= 0.0000 <Sz>= 1.0000 <S**2>= 2.0000 S= 1.0000
 Requested convergence on RMS density matrix=1.00D-08 within 128 cycles.
 Requested convergence on MAX density matrix=1.00D-06.
 Requested convergence on             energy=1.00D-06.
 No special actions if energy rises.
 Restarting incremental Fock formation.
 SCF Done:  E(UB3LYP) =  -961.253814209     A.U. after   26 cycles
            NFock= 26  Conv=0.55D-08     -V/T= 2.0045
 <Sx>= 0.0000 <Sy>= 0.0000 <Sz>= 1.0000 <S**2>= 2.0387 S= 1.0128
 <L.S>= 0.000000000000E+00
 Annihilation of the first spin contaminant:
 S**2 before annihilation     2.0387,   after     2.0009

 **********************************************************************

            Population analysis using the SCF density.

 **********************************************************************

 Orbital symmetries:
 Alpha Orbitals:
       Occupied  (A) (A) (A) (A) (A) (A) (A) (A) (A) (A) (A) (A)
                 (A) (A) (A) (A) (A) (A) (A) (A) (A) (A) (A) (A)
                 (A) (A) (A) (A) (A) (A) (A) (A) (A) (A) (A) (A)
                 (A) (A) (A) (A) (A) (A) (A) (A) (A) (A) (A) (A)
                 (A) (A) (A) (A) (A) (A) (A) (A) (A) (A) (A) (A)
                 (A) (A) (A) (A) (A) (A) (A) (A) (A) (A) (A) (A)
                 (A) (A) (A) (A) (A) (A) (A) (A) (A) (A) (A)
       Virtual   (A) (A) (A) (A) (A) (A) (A) (A) (A) (A) (A) (A)
                 (A) (A) (A) (A) (A) (A) (A) (A) (A) (A) (A) (A)
                 (A) (A) (A) (A) (A) (A) (A) (A) (A) (A) (A) (A)
                 (A) (A) (A) (A) (A) (A) (A) (A) (A) (A) (A) (A)
                 (A) (A) (A) (A) (A) (A) (A) (A) (A) (A) (A) (A)
                 (A) (A) (A) (A) (A) (A) (A) (A) (A) (A) (A) (A)
                 (A) (A) (A) (A) (A) (A) (A) (A) (A) (A) (A) (A)
                 (A) (A) (A) (A) (A) (A) (A) (A) (A) (A) (A) (A)
                 (A) (A) (A) (A) (A) (A) (A) (A) (A) (A) (A) (A)
                 (A) (A) (A) (A) (A) (A) (A) (A) (A) (A) (A) (A)
                 (A) (A) (A) (A) (A) (A) (A) (A) (A) (A) (A) (A)
                 (A) (A) (A) (A) (A) (A) (A) (A) (A) (A) (A) (A)
                 (A) (A) (A) (A) (A) (A) (A) (A) (A) (A) (A) (A)
                 (A) (A) (A) (A) (A) (A) (A) (A) (A) (A) (A) (A)
                 (A) (A) (A) (A) (A) (A) (A) (A) (A) (A) (A) (A)
                 (A) (A) (A) (A) (A) (A) (A) (A) (A) (A) (A) (A)
                 (A) (A) (A) (A) (A) (A) (A) (A) (A) (A) (A) (A)
                 (A) (A) (A) (A) (A) (A) (A) (A) (A) (A) (A) (A)
                 (A) (A) (A) (A) (A) (A) (A) (A) (A) (A) (A) (A)
                 (A) (A) (A) (A) (A) (A) (A) (A) (A) (A) (A) (A)
                 (A) (A) (A) (A) (A) (A) (A) (A) (A) (A) (A) (A)
                 (A) (A) (A) (A) (A) (A) (A) (A) (A) (A) (A) (A)
                 (A) (A) (A) (A) (A) (A) (A) (A) (A) (A) (A) (A)
                 (A) (A) (A) (A) (A) (A) (A) (A) (A) (A) (A) (A)
                 (A) (A) (A) (A) (A) (A) (A) (A) (A) (A) (A) (A)
                 (A) (A) (A) (A) (A) (A) (A) (A) (A) (A) (A) (A)
                 (A) (A) (A) (A) (A) (A) (A) (A) (A) (A) (A) (A)
                 (A) (A) (A) (A) (A) (A) (A) (A) (A) (A) (A) (A)
                 (A) (A) (A) (A) (A) (A) (A) (A) (A) (A) (A) (A)
                 (A) (A) (A) (A) (A) (A) (A) (A) (A) (A) (A) (A)
                 (A) (A) (A) (A) (A) (A) (A) (A) (A) (A) (A) (A)
                 (A) (A) (A) (A) (A) (A) (A) (A) (A) (A) (A) (A)
                 (A) (A) (A) (A) (A) (A) (A) (A) (A) (A) (A) (A)
                 (A) (A) (A) (A) (A) (A) (A) (A) (A) (A) (A) (A)
                 (A) (A) (A) (A) (A) (A) (A) (A) (A) (A) (A) (A)
                 (A) (A) (A) (A) (A) (A) (A) (A) (A) (A) (A) (A)
                 (A) (A) (A) (A) (A) (A) (A) (A) (A) (A) (A) (A)
                 (A) (A) (A) (A) (A) (A) (A) (A) (A) (A) (A) (A)
                 (A) (A) (A) (A) (A) (A) (A) (A) (A) (A) (A) (A)
                 (A) (A) (A) (A) (A) (A) (A) (A) (A) (A) (A) (A)
                 (A) (A) (A) (A) (A) (A) (A) (A) (A) (A) (A) (A)
                 (A) (A) (A) (A) (A) (A) (A) (A) (A) (A) (A) (A)
                 (A) (A) (A) (A) (A) (A) (A) (A) (A) (A) (A) (A)
                 (A) (A) (A) (A) (A) (A) (A) (A) (A) (A) (A) (A)
                 (A) (A) (A) (A) (A) (A) (A) (A)
 Beta  Orbitals:
       Occupied  (A) (A) (A) (A) (A) (A) (A) (A) (A) (A) (A) (A)
                 (A) (A) (A) (A) (A) (A) (A) (A) (A) (A) (A) (A)
                 (A) (A) (A) (A) (A) (A) (A) (A) (A) (A) (A) (A)
                 (A) (A) (A) (A) (A) (A) (A) (A) (A) (A) (A) (A)
                 (A) (A) (A) (A) (A) (A) (A) (A) (A) (A) (A) (A)
                 (A) (A) (A) (A) (A) (A) (A) (A) (A) (A) (A) (A)
                 (A) (A) (A) (A) (A) (A) (A) (A) (A)
       Virtual   (A) (A) (A) (A) (A) (A) (A) (A) (A) (A) (A) (A)
                 (A) (A) (A) (A) (A) (A) (A) (A) (A) (A) (A) (A)
                 (A) (A) (A) (A) (A) (A) (A) (A) (A) (A) (A) (A)
                 (A) (A) (A) (A) (A) (A) (A) (A) (A) (A) (A) (A)
                 (A) (A) (A) (A) (A) (A) (A) (A) (A) (A) (A) (A)
                 (A) (A) (A) (A) (A) (A) (A) (A) (A) (A) (A) (A)
                 (A) (A) (A) (A) (A) (A) (A) (A) (A) (A) (A) (A)
                 (A) (A) (A) (A) (A) (A) (A) (A) (A) (A) (A) (A)
                 (A) (A) (A) (A) (A) (A) (A) (A) (A) (A) (A) (A)
                 (A) (A) (A) (A) (A) (A) (A) (A) (A) (A) (A) (A)
                 (A) (A) (A) (A) (A) (A) (A) (A) (A) (A) (A) (A)
                 (A) (A) (A) (A) (A) (A) (A) (A) (A) (A) (A) (A)
                 (A) (A) (A) (A) (A) (A) (A) (A) (A) (A) (A) (A)
                 (A) (A) (A) (A) (A) (A) (A) (A) (A) (A) (A) (A)
                 (A) (A) (A) (A) (A) (A) (A) (A) (A) (A) (A) (A)
                 (A) (A) (A) (A) (A) (A) (A) (A) (A) (A) (A) (A)
                 (A) (A) (A) (A) (A) (A) (A) (A) (A) (A) (A) (A)
                 (A) (A) (A) (A) (A) (A) (A) (A) (A) (A) (A) (A)
                 (A) (A) (A) (A) (A) (A) (A) (A) (A) (A) (A) (A)
                 (A) (A) (A) (A) (A) (A) (A) (A) (A) (A) (A) (A)
                 (A) (A) (A) (A) (A) (A) (A) (A) (A) (A) (A) (A)
                 (A) (A) (A) (A) (A) (A) (A) (A) (A) (A) (A) (A)
                 (A) (A) (A) (A) (A) (A) (A) (A) (A) (A) (A) (A)
                 (A) (A) (A) (A) (A) (A) (A) (A) (A) (A) (A) (A)
                 (A) (A) (A) (A) (A) (A) (A) (A) (A) (A) (A) (A)
                 (A) (A) (A) (A) (A) (A) (A) (A) (A) (A) (A) (A)
                 (A) (A) (A) (A) (A) (A) (A) (A) (A) (A) (A) (A)
                 (A) (A) (A) (A) (A) (A) (A) (A) (A) (A) (A) (A)
                 (A) (A) (A) (A) (A) (A) (A) (A) (A) (A) (A) (A)
                 (A) (A) (A) (A) (A) (A) (A) (A) (A) (A) (A) (A)
                 (A) (A) (A) (A) (A) (A) (A) (A) (A) (A) (A) (A)
                 (A) (A) (A) (A) (A) (A) (A) (A) (A) (A) (A) (A)
                 (A) (A) (A) (A) (A) (A) (A) (A) (A) (A) (A) (A)
                 (A) (A) (A) (A) (A) (A) (A) (A) (A) (A) (A) (A)
                 (A) (A) (A) (A) (A) (A) (A) (A) (A) (A) (A) (A)
                 (A) (A) (A) (A) (A) (A) (A) (A) (A) (A) (A) (A)
                 (A) (A) (A) (A) (A) (A) (A) (A) (A) (A) (A) (A)
                 (A) (A) (A) (A) (A) (A) (A) (A) (A) (A) (A) (A)
                 (A) (A) (A) (A) (A) (A) (A) (A) (A) (A) (A) (A)
                 (A) (A) (A) (A) (A) (A) (A) (A) (A) (A) (A) (A)
                 (A) (A) (A) (A) (A) (A) (A) (A) (A) (A) (A) (A)
                 (A) (A) (A) (A) (A) (A) (A) (A) (A) (A) (A) (A)
                 (A) (A) (A) (A) (A) (A) (A) (A) (A) (A) (A) (A)
                 (A) (A) (A) (A) (A) (A) (A) (A) (A) (A) (A) (A)
                 (A) (A) (A) (A) (A) (A) (A) (A) (A) (A)
 The electronic state is 3-A.
 Alpha  occ. eigenvalues --  -10.20443 -10.19947 -10.19716 -10.19666 -10.19652
 Alpha  occ. eigenvalues --  -10.19513 -10.19270 -10.19214 -10.19168 -10.19108
 Alpha  occ. eigenvalues --  -10.18984 -10.18789 -10.18665 -10.18595 -10.18457
 Alpha  occ. eigenvalues --  -10.18433 -10.18378 -10.18333 -10.18294 -10.18293
 Alpha  occ. eigenvalues --  -10.18205 -10.18175 -10.17960 -10.17938 -10.17605
 Alpha  occ. eigenvalues --   -0.91653  -0.88682  -0.85755  -0.84566  -0.83184
 Alpha  occ. eigenvalues --   -0.80398  -0.79075  -0.77846  -0.75508  -0.75027
 Alpha  occ. eigenvalues --   -0.73600  -0.71086  -0.69126  -0.65817  -0.64760
 Alpha  occ. eigenvalues --   -0.62758  -0.61977  -0.59729  -0.59056  -0.57053
 Alpha  occ. eigenvalues --   -0.55259  -0.52522  -0.52259  -0.51403  -0.50332
 Alpha  occ. eigenvalues --   -0.48642  -0.48332  -0.47513  -0.46431  -0.45613
 Alpha  occ. eigenvalues --   -0.44774  -0.44062  -0.43774  -0.41972  -0.41932
 Alpha  occ. eigenvalues --   -0.41657  -0.40884  -0.40542  -0.40309  -0.39873
 Alpha  occ. eigenvalues --   -0.39062  -0.37352  -0.36870  -0.36542  -0.35314
 Alpha  occ. eigenvalues --   -0.34983  -0.34343  -0.33844  -0.32911  -0.31818
 Alpha  occ. eigenvalues --   -0.30392  -0.29869  -0.27358  -0.26267  -0.24700
 Alpha  occ. eigenvalues --   -0.22327  -0.21562  -0.12452
 Alpha virt. eigenvalues --   -0.06674  -0.04043  -0.02925  -0.01785  -0.00397
 Alpha virt. eigenvalues --    0.00055   0.00628   0.00800   0.01785   0.01879
 Alpha virt. eigenvalues --    0.02014   0.02406   0.03108   0.03275   0.03673
 Alpha virt. eigenvalues --    0.03950   0.04728   0.05164   0.05249   0.05408
 Alpha virt. eigenvalues --    0.06103   0.06647   0.06977   0.07305   0.07536
 Alpha virt. eigenvalues --    0.07837   0.07983   0.08244   0.08933   0.09416
 Alpha virt. eigenvalues --    0.09993   0.10274   0.10639   0.11174   0.11557
 Alpha virt. eigenvalues --    0.11923   0.12199   0.12373   0.12752   0.12946
 Alpha virt. eigenvalues --    0.13333   0.13925   0.14244   0.14337   0.14569
 Alpha virt. eigenvalues --    0.15098   0.15543   0.15767   0.16195   0.16440
 Alpha virt. eigenvalues --    0.16720   0.16823   0.16910   0.17251   0.17462
 Alpha virt. eigenvalues --    0.17604   0.17981   0.18289   0.18493   0.19024
 Alpha virt. eigenvalues --    0.19138   0.19329   0.19613   0.19839   0.20031
 Alpha virt. eigenvalues --    0.20239   0.20440   0.20605   0.21069   0.21421
 Alpha virt. eigenvalues --    0.21629   0.21729   0.21903   0.22235   0.22445
 Alpha virt. eigenvalues --    0.22845   0.23001   0.23151   0.23309   0.23842
 Alpha virt. eigenvalues --    0.23941   0.24485   0.24562   0.24896   0.25295
 Alpha virt. eigenvalues --    0.25447   0.25750   0.26096   0.26201   0.26366
 Alpha virt. eigenvalues --    0.26692   0.27110   0.27190   0.27739   0.27915
 Alpha virt. eigenvalues --    0.28295   0.28456   0.28782   0.29213   0.29428
 Alpha virt. eigenvalues --    0.29648   0.29783   0.30201   0.30522   0.30802
 Alpha virt. eigenvalues --    0.31099   0.31803   0.32101   0.32376   0.32763
 Alpha virt. eigenvalues --    0.32843   0.33361   0.33400   0.34099   0.34311
 Alpha virt. eigenvalues --    0.35144   0.35431   0.35914   0.37052   0.37432
 Alpha virt. eigenvalues --    0.37788   0.38825   0.39238   0.39855   0.40078
 Alpha virt. eigenvalues --    0.40609   0.41440   0.42459   0.43643   0.44704
 Alpha virt. eigenvalues --    0.45066   0.45727   0.46578   0.47135   0.48201
 Alpha virt. eigenvalues --    0.48986   0.50127   0.50426   0.50659   0.51280
 Alpha virt. eigenvalues --    0.52490   0.52944   0.53223   0.53839   0.54606
 Alpha virt. eigenvalues --    0.54775   0.54850   0.55292   0.55656   0.56041
 Alpha virt. eigenvalues --    0.56542   0.57239   0.57443   0.58086   0.58197
 Alpha virt. eigenvalues --    0.58974   0.59196   0.59324   0.59900   0.60466
 Alpha virt. eigenvalues --    0.60807   0.61494   0.61841   0.62404   0.63221
 Alpha virt. eigenvalues --    0.63346   0.63516   0.64218   0.65041   0.65488
 Alpha virt. eigenvalues --    0.65786   0.66164   0.66744   0.66902   0.67409
 Alpha virt. eigenvalues --    0.67907   0.67955   0.68483   0.68900   0.69493
 Alpha virt. eigenvalues --    0.69907   0.70298   0.70671   0.70942   0.71132
 Alpha virt. eigenvalues --    0.71678   0.72412   0.72776   0.73520   0.73887
 Alpha virt. eigenvalues --    0.74084   0.74353   0.74989   0.75021   0.75609
 Alpha virt. eigenvalues --    0.76241   0.76773   0.77250   0.77421   0.78770
 Alpha virt. eigenvalues --    0.80836   0.81061   0.82099   0.82452   0.82848
 Alpha virt. eigenvalues --    0.83969   0.84062   0.84726   0.85526   0.86504
 Alpha virt. eigenvalues --    0.86903   0.87740   0.88101   0.88855   0.89328
 Alpha virt. eigenvalues --    0.90335   0.90718   0.91214   0.92054   0.92778
 Alpha virt. eigenvalues --    0.93265   0.93562   0.93870   0.94284   0.94620
 Alpha virt. eigenvalues --    0.95405   0.95730   0.96737   0.96748   0.97489
 Alpha virt. eigenvalues --    0.97761   0.98102   0.99085   0.99779   0.99942
 Alpha virt. eigenvalues --    1.00377   1.01053   1.02716   1.03142   1.03686
 Alpha virt. eigenvalues --    1.04530   1.04759   1.04987   1.05830   1.06780
 Alpha virt. eigenvalues --    1.07896   1.09028   1.09692   1.10056   1.10532
 Alpha virt. eigenvalues --    1.11530   1.12392   1.13172   1.13527   1.14930
 Alpha virt. eigenvalues --    1.15274   1.16489   1.17529   1.18565   1.19206
 Alpha virt. eigenvalues --    1.21336   1.22640   1.25083   1.26241   1.27058
 Alpha virt. eigenvalues --    1.30383   1.32098   1.33520   1.34922   1.35855
 Alpha virt. eigenvalues --    1.36903   1.38250   1.40087   1.40597   1.41817
 Alpha virt. eigenvalues --    1.43228   1.44956   1.45129   1.46536   1.47012
 Alpha virt. eigenvalues --    1.47771   1.48020   1.49127   1.49616   1.50149
 Alpha virt. eigenvalues --    1.50850   1.51865   1.52108   1.52395   1.54463
 Alpha virt. eigenvalues --    1.54681   1.54953   1.55958   1.56308   1.57213
 Alpha virt. eigenvalues --    1.57528   1.57993   1.59145   1.60457   1.60799
 Alpha virt. eigenvalues --    1.62005   1.62288   1.62561   1.64620   1.65010
 Alpha virt. eigenvalues --    1.65942   1.67248   1.68236   1.68439   1.69124
 Alpha virt. eigenvalues --    1.70363   1.70852   1.71231   1.72964   1.74173
 Alpha virt. eigenvalues --    1.74547   1.75154   1.75268   1.75686   1.76628
 Alpha virt. eigenvalues --    1.77857   1.79595   1.80505   1.82230   1.82298
 Alpha virt. eigenvalues --    1.83211   1.83778   1.83956   1.84657   1.85169
 Alpha virt. eigenvalues --    1.86605   1.86760   1.88441   1.88968   1.89159
 Alpha virt. eigenvalues --    1.90091   1.90641   1.90767   1.91412   1.92220
 Alpha virt. eigenvalues --    1.92536   1.93324   1.93564   1.94113   1.94324
 Alpha virt. eigenvalues --    1.94725   1.95645   1.98141   1.98380   2.00080
 Alpha virt. eigenvalues --    2.00748   2.01384   2.02862   2.03742   2.04141
 Alpha virt. eigenvalues --    2.04884   2.04969   2.05633   2.06241   2.07947
 Alpha virt. eigenvalues --    2.09042   2.10359   2.12165   2.13005   2.14591
 Alpha virt. eigenvalues --    2.15002   2.15386   2.16328   2.17154   2.18974
 Alpha virt. eigenvalues --    2.20075   2.20826   2.22029   2.23207   2.24023
 Alpha virt. eigenvalues --    2.24546   2.25559   2.27915   2.28847   2.31815
 Alpha virt. eigenvalues --    2.33624   2.34210   2.35167   2.36090   2.38161
 Alpha virt. eigenvalues --    2.39155   2.42048   2.42935   2.43134   2.44100
 Alpha virt. eigenvalues --    2.45787   2.46377   2.47102   2.49179   2.52309
 Alpha virt. eigenvalues --    2.54916   2.55164   2.56898   2.57518   2.58707
 Alpha virt. eigenvalues --    2.60511   2.60591   2.63535   2.64120   2.65152
 Alpha virt. eigenvalues --    2.66188   2.67992   2.69259   2.69655   2.70708
 Alpha virt. eigenvalues --    2.71427   2.71540   2.72640   2.72836   2.73526
 Alpha virt. eigenvalues --    2.73920   2.74541   2.75060   2.75599   2.76094
 Alpha virt. eigenvalues --    2.76406   2.76508   2.77103   2.77712   2.77941
 Alpha virt. eigenvalues --    2.78907   2.79304   2.80874   2.81192   2.81440
 Alpha virt. eigenvalues --    2.82330   2.83297   2.83639   2.84157   2.86548
 Alpha virt. eigenvalues --    2.87138   2.87404   2.87563   2.88536   2.90414
 Alpha virt. eigenvalues --    2.90497   2.91741   2.92636   2.94193   2.94324
 Alpha virt. eigenvalues --    2.97243   2.99883   3.01185   3.03883   3.05453
 Alpha virt. eigenvalues --    3.07933   3.09619   3.10398   3.13066   3.14288
 Alpha virt. eigenvalues --    3.15925   3.17743   3.19426   3.20559   3.21089
 Alpha virt. eigenvalues --    3.23414   3.23867   3.27992   3.29186   3.32328
 Alpha virt. eigenvalues --    3.32991   3.36033   3.38038   3.38456   3.40432
 Alpha virt. eigenvalues --    3.41570   3.42945   3.44343   3.45167   3.45629
 Alpha virt. eigenvalues --    3.47913   3.50258   3.50652   3.53986   3.56533
 Alpha virt. eigenvalues --    3.57098   3.59694   3.62713   3.64126   3.65575
 Alpha virt. eigenvalues --    3.68442   3.72001   3.79981   3.81001   3.87249
 Alpha virt. eigenvalues --    3.93818   3.99992   4.03789   4.05700   4.06674
 Alpha virt. eigenvalues --    4.07347   4.10529   4.11720   4.13165   4.21340
 Alpha virt. eigenvalues --    4.25957   4.31092   4.36321   4.50636   4.55440
 Alpha virt. eigenvalues --    4.69837   4.77999   4.78752   4.80465   4.80965
 Alpha virt. eigenvalues --    4.86758  23.44519  23.61977  23.74386  23.77556
 Alpha virt. eigenvalues --   23.81974  23.84739  23.89695  23.90458  23.91132
 Alpha virt. eigenvalues --   23.93881  23.95043  23.97095  23.99253  24.01634
 Alpha virt. eigenvalues --   24.05848  24.06040  24.07400  24.09540  24.11661
 Alpha virt. eigenvalues --   24.12001  24.13187  24.16144  24.18203  24.18883
 Alpha virt. eigenvalues --   24.26884
  Beta  occ. eigenvalues --  -10.20467 -10.19816 -10.19802 -10.19683 -10.19677
  Beta  occ. eigenvalues --  -10.19157 -10.19156 -10.19124 -10.19044 -10.19010
  Beta  occ. eigenvalues --  -10.18616 -10.18597 -10.18529 -10.18463 -10.18444
  Beta  occ. eigenvalues --  -10.18432 -10.18359 -10.18169 -10.18114 -10.18049
  Beta  occ. eigenvalues --  -10.17929 -10.17890 -10.17839 -10.17797 -10.17558
  Beta  occ. eigenvalues --   -0.91227  -0.88298  -0.85313  -0.84218  -0.82793
  Beta  occ. eigenvalues --   -0.80167  -0.78472  -0.77293  -0.75084  -0.74758
  Beta  occ. eigenvalues --   -0.73361  -0.70106  -0.68798  -0.65272  -0.64371
  Beta  occ. eigenvalues --   -0.62540  -0.61605  -0.59139  -0.58862  -0.56783
  Beta  occ. eigenvalues --   -0.54988  -0.52324  -0.51976  -0.51217  -0.50145
  Beta  occ. eigenvalues --   -0.48454  -0.48104  -0.47258  -0.46200  -0.45252
  Beta  occ. eigenvalues --   -0.44540  -0.43878  -0.43571  -0.41789  -0.41659
  Beta  occ. eigenvalues --   -0.40975  -0.40699  -0.40162  -0.39715  -0.39410
  Beta  occ. eigenvalues --   -0.38717  -0.36949  -0.36320  -0.35890  -0.35145
  Beta  occ. eigenvalues --   -0.34776  -0.33820  -0.33132  -0.32441  -0.30933
  Beta  occ. eigenvalues --   -0.29592  -0.27594  -0.26304  -0.24933  -0.23683
  Beta  occ. eigenvalues --   -0.21488
  Beta virt. eigenvalues --   -0.14979  -0.06036  -0.05854  -0.03243  -0.01874
  Beta virt. eigenvalues --   -0.00756   0.00091   0.00618   0.00844   0.01366
  Beta virt. eigenvalues --    0.01817   0.01906   0.02369   0.02801   0.03146
  Beta virt. eigenvalues --    0.03341   0.03795   0.04467   0.04782   0.05256
  Beta virt. eigenvalues --    0.05369   0.05616   0.06348   0.06903   0.07265
  Beta virt. eigenvalues --    0.07562   0.07694   0.07952   0.08112   0.08459
  Beta virt. eigenvalues --    0.09024   0.09552   0.10212   0.10518   0.10824
  Beta virt. eigenvalues --    0.11471   0.11878   0.12173   0.12413   0.12457
  Beta virt. eigenvalues --    0.12859   0.13053   0.13478   0.14006   0.14409
  Beta virt. eigenvalues --    0.14501   0.14748   0.15265   0.15644   0.15971
  Beta virt. eigenvalues --    0.16284   0.16507   0.16840   0.16926   0.17035
  Beta virt. eigenvalues --    0.17340   0.17561   0.18081   0.18132   0.18386
  Beta virt. eigenvalues --    0.18653   0.19154   0.19250   0.19420   0.19858
  Beta virt. eigenvalues --    0.19892   0.20210   0.20396   0.20560   0.20759
  Beta virt. eigenvalues --    0.21251   0.21546   0.21764   0.21895   0.22099
  Beta virt. eigenvalues --    0.22374   0.22672   0.22938   0.23207   0.23334
  Beta virt. eigenvalues --    0.23755   0.23990   0.24062   0.24544   0.24721
  Beta virt. eigenvalues --    0.25035   0.25410   0.25542   0.25945   0.26169
  Beta virt. eigenvalues --    0.26317   0.26486   0.26761   0.27198   0.27351
  Beta virt. eigenvalues --    0.27850   0.28088   0.28369   0.28572   0.28939
  Beta virt. eigenvalues --    0.29296   0.29568   0.29789   0.30035   0.30325
  Beta virt. eigenvalues --    0.30606   0.30986   0.31282   0.31894   0.32256
  Beta virt. eigenvalues --    0.32461   0.32868   0.32985   0.33438   0.33569
  Beta virt. eigenvalues --    0.34241   0.34424   0.35232   0.35537   0.36048
  Beta virt. eigenvalues --    0.37270   0.37629   0.37875   0.39021   0.39385
  Beta virt. eigenvalues --    0.40053   0.40321   0.40773   0.41614   0.42644
  Beta virt. eigenvalues --    0.43809   0.44964   0.45314   0.45944   0.46854
  Beta virt. eigenvalues --    0.47445   0.48511   0.49196   0.50312   0.50766
  Beta virt. eigenvalues --    0.50919   0.51577   0.52990   0.53137   0.53832
  Beta virt. eigenvalues --    0.54066   0.54889   0.55040   0.55269   0.55753
  Beta virt. eigenvalues --    0.55852   0.56451   0.57031   0.57542   0.57828
  Beta virt. eigenvalues --    0.58296   0.58576   0.59281   0.59298   0.59764
  Beta virt. eigenvalues --    0.60511   0.60813   0.61144   0.61735   0.62075
  Beta virt. eigenvalues --    0.62704   0.63599   0.63681   0.63891   0.64413
  Beta virt. eigenvalues --    0.65314   0.65804   0.66066   0.66372   0.66989
  Beta virt. eigenvalues --    0.67107   0.67667   0.68091   0.68410   0.68798
  Beta virt. eigenvalues --    0.69234   0.69781   0.70081   0.70706   0.71026
  Beta virt. eigenvalues --    0.71228   0.71281   0.71891   0.72648   0.72908
  Beta virt. eigenvalues --    0.73809   0.74086   0.74179   0.74611   0.75203
  Beta virt. eigenvalues --    0.75295   0.75862   0.76546   0.77020   0.77415
  Beta virt. eigenvalues --    0.77573   0.79016   0.81064   0.81379   0.82287
  Beta virt. eigenvalues --    0.82596   0.83015   0.84182   0.84271   0.84904
  Beta virt. eigenvalues --    0.85636   0.86700   0.87250   0.87993   0.88254
  Beta virt. eigenvalues --    0.89304   0.89712   0.90639   0.90989   0.91478
  Beta virt. eigenvalues --    0.92342   0.92961   0.93576   0.93743   0.94066
  Beta virt. eigenvalues --    0.94651   0.94865   0.95780   0.95952   0.96966
  Beta virt. eigenvalues --    0.97008   0.97758   0.98131   0.98498   0.99420
  Beta virt. eigenvalues --    1.00149   1.00370   1.00656   1.01558   1.03262
  Beta virt. eigenvalues --    1.03567   1.04013   1.04867   1.05169   1.05308
  Beta virt. eigenvalues --    1.06073   1.07043   1.08261   1.09445   1.09990
  Beta virt. eigenvalues --    1.10874   1.11060   1.11842   1.12884   1.13414
  Beta virt. eigenvalues --    1.13930   1.15419   1.15697   1.16958   1.17865
  Beta virt. eigenvalues --    1.18800   1.19499   1.21692   1.22814   1.25392
  Beta virt. eigenvalues --    1.26527   1.27346   1.30567   1.32439   1.33847
  Beta virt. eigenvalues --    1.35232   1.36235   1.37174   1.38604   1.40436
  Beta virt. eigenvalues --    1.40965   1.42208   1.43459   1.45127   1.45339
  Beta virt. eigenvalues --    1.46771   1.47501   1.47941   1.48419   1.49338
  Beta virt. eigenvalues --    1.49861   1.50620   1.51109   1.52173   1.52630
  Beta virt. eigenvalues --    1.52752   1.54652   1.54880   1.55197   1.56183
  Beta virt. eigenvalues --    1.56594   1.57442   1.57865   1.58438   1.59513
  Beta virt. eigenvalues --    1.60853   1.61229   1.62423   1.62535   1.62821
  Beta virt. eigenvalues --    1.64835   1.65208   1.66177   1.67598   1.68583
  Beta virt. eigenvalues --    1.68736   1.69254   1.70533   1.71153   1.71388
  Beta virt. eigenvalues --    1.73189   1.74452   1.74759   1.75353   1.75529
  Beta virt. eigenvalues --    1.76078   1.76876   1.78061   1.79788   1.80947
  Beta virt. eigenvalues --    1.82467   1.82584   1.83782   1.84134   1.84468
  Beta virt. eigenvalues --    1.85144   1.85666   1.87177   1.87212   1.88862
  Beta virt. eigenvalues --    1.89256   1.89395   1.90482   1.90992   1.91203
  Beta virt. eigenvalues --    1.91684   1.92606   1.92947   1.93650   1.94023
  Beta virt. eigenvalues --    1.94391   1.94799   1.94994   1.95946   1.98495
  Beta virt. eigenvalues --    1.98783   2.00387   2.01296   2.01691   2.03060
  Beta virt. eigenvalues --    2.03995   2.04388   2.05237   2.05691   2.06106
  Beta virt. eigenvalues --    2.06366   2.08236   2.09266   2.10592   2.12503
  Beta virt. eigenvalues --    2.13293   2.15099   2.15305   2.15683   2.16766
  Beta virt. eigenvalues --    2.17589   2.19200   2.20393   2.21021   2.22294
  Beta virt. eigenvalues --    2.23583   2.24304   2.25003   2.25965   2.28202
  Beta virt. eigenvalues --    2.29278   2.32169   2.34036   2.34484   2.35500
  Beta virt. eigenvalues --    2.36288   2.38481   2.39617   2.42231   2.43138
  Beta virt. eigenvalues --    2.43246   2.44344   2.46087   2.46823   2.47471
  Beta virt. eigenvalues --    2.49357   2.52512   2.55329   2.55444   2.57127
  Beta virt. eigenvalues --    2.57684   2.58978   2.60703   2.60759   2.63859
  Beta virt. eigenvalues --    2.64731   2.65822   2.66561   2.68528   2.69510
  Beta virt. eigenvalues --    2.69797   2.71068   2.71569   2.71819   2.72720
  Beta virt. eigenvalues --    2.72998   2.73747   2.74035   2.74571   2.75529
  Beta virt. eigenvalues --    2.75682   2.76324   2.76619   2.76861   2.77613
  Beta virt. eigenvalues --    2.77911   2.78096   2.79078   2.79997   2.81045
  Beta virt. eigenvalues --    2.81542   2.81710   2.82685   2.83799   2.84272
  Beta virt. eigenvalues --    2.84296   2.86712   2.87539   2.87848   2.88511
  Beta virt. eigenvalues --    2.89171   2.90607   2.90743   2.92308   2.93140
  Beta virt. eigenvalues --    2.94519   2.95036   2.97745   3.00584   3.01871
  Beta virt. eigenvalues --    3.04417   3.05961   3.08344   3.10019   3.10909
  Beta virt. eigenvalues --    3.13499   3.14470   3.16570   3.17967   3.19557
  Beta virt. eigenvalues --    3.20670   3.21201   3.23479   3.24032   3.28116
  Beta virt. eigenvalues --    3.29326   3.32547   3.33157   3.36156   3.38169
  Beta virt. eigenvalues --    3.38551   3.40544   3.41717   3.43060   3.44500
  Beta virt. eigenvalues --    3.45391   3.45776   3.48111   3.50372   3.50794
  Beta virt. eigenvalues --    3.54131   3.56610   3.57230   3.59788   3.63026
  Beta virt. eigenvalues --    3.64442   3.65815   3.68898   3.72094   3.80251
  Beta virt. eigenvalues --    3.81180   3.87470   3.94014   4.00142   4.03937
  Beta virt. eigenvalues --    4.05857   4.06880   4.07620   4.11206   4.11977
  Beta virt. eigenvalues --    4.13380   4.21974   4.26199   4.31444   4.36683
  Beta virt. eigenvalues --    4.50782   4.55791   4.70313   4.78498   4.79184
  Beta virt. eigenvalues --    4.80777   4.81277   4.87074  23.44662  23.62091
  Beta virt. eigenvalues --   23.74482  23.77672  23.82094  23.84891  23.89841
  Beta virt. eigenvalues --   23.90555  23.91311  23.93992  23.95301  23.97218
  Beta virt. eigenvalues --   23.99442  24.01900  24.06085  24.06199  24.07653
  Beta virt. eigenvalues --   24.09732  24.11787  24.12059  24.13513  24.16224
  Beta virt. eigenvalues --   24.18266  24.18961  24.26894
          Condensed to atoms (all electrons):
               1          2          3          4          5          6
     1  C   10.161480   1.514118  -0.880438   0.395182  -2.273050   0.390503
     2  C    1.514118   7.566871   0.613743   0.151566  -0.199158   0.772761
     3  C   -0.880438   0.613743   6.908767   0.585595   1.246479  -0.643736
     4  C    0.395182   0.151566   0.585595   8.625836  -1.275592  -0.422556
     5  C   -2.273050  -0.199158   1.246479  -1.275592   9.379283   0.100905
     6  C    0.390503   0.772761  -0.643736  -0.422556   0.100905  10.337467
     7  C   -0.265948  -1.419788  -0.013265   0.266000   0.028255  -1.254778
     8  C   -0.744238  -0.418274  -0.050491  -1.172121   0.327297  -1.019176
     9  C    0.233686   0.186017   0.118069   0.054094  -0.459710  -0.006716
    10  C   -0.326482  -0.322431   0.110066   1.130013  -0.276130  -1.000313
    11  C    0.062617  -0.174598   0.163619  -0.534993  -0.024046  -0.144281
    12  C   -0.001730   0.207843  -0.017338   0.189904  -0.024855   0.147907
    13  C   -0.007852  -0.088990  -0.301098  -0.288358  -0.012376  -0.263784
    14  C   -0.036485  -0.005102  -0.586534  -0.543256  -0.140573  -0.269962
    15  C   -0.167334  -0.301883  -0.472181  -0.334854   0.044812  -0.085884
    16  C    0.026000   0.021452   0.013393   0.050719  -0.002369   0.011480
    17  C    0.000707  -0.002412   0.003355  -0.037081  -0.000958  -0.006460
    18  C   -0.002383   0.018854  -0.039530   0.048960   0.001451   0.009346
    19  C   -1.441458  -1.997087  -0.804270   0.026294  -0.385056   0.351064
    20  C    0.137814   0.672846  -0.109586  -0.134527  -0.321654  -0.027550
    21  C    0.161772  -0.059491  -0.159852  -0.034957  -0.356044   0.045723
    22  C    0.548029   0.916867  -0.062919   0.134505  -0.465598  -0.063608
    23  C   -1.616158  -1.951923   0.142773  -1.077273   1.004505  -0.888444
    24  H   -0.009777   0.034323   0.003199   0.001811  -0.002721  -0.001719
    25  H    0.005299  -0.007830   0.003262   0.001703   0.011149  -0.001415
    26  H   -0.080439   0.035478  -0.009160   0.003032   0.039582   0.017409
    27  H   -0.079212   0.000416  -0.007010   0.027534   0.374062  -0.049671
    28  H   -0.027460  -0.005541   0.033523  -0.060285  -0.001648   0.328006
    29  H    0.008096  -0.004724   0.008375  -0.062579   0.005857   0.038020
    30  H    0.000492   0.001250   0.006885   0.048502   0.001121   0.009336
    31  H    0.000023   0.000045   0.000983   0.004084   0.000022   0.000342
    32  H   -0.000007   0.000009  -0.000385   0.000215   0.000001   0.000020
    33  H   -0.000028  -0.000018  -0.000699  -0.000164   0.000005  -0.000019
    34  H    0.000000  -0.000003  -0.000069   0.000053   0.000000   0.000002
    35  C   -0.028294   0.155140  -0.027080  -0.098290  -0.022839   0.222436
    36  C    0.074718   0.186819   0.226764  -0.040319  -0.016291  -0.192314
    37  H   -0.000031  -0.002205  -0.003275  -0.000543  -0.000069   0.000041
    38  H   -0.002711   0.000363  -0.002137  -0.000094   0.000776  -0.000649
    39  H   -0.005951  -0.037775  -0.017814  -0.012867  -0.000102  -0.007390
               7          8          9         10         11         12
     1  C   -0.265948  -0.744238   0.233686  -0.326482   0.062617  -0.001730
     2  C   -1.419788  -0.418274   0.186017  -0.322431  -0.174598   0.207843
     3  C   -0.013265  -0.050491   0.118069   0.110066   0.163619  -0.017338
     4  C    0.266000  -1.172121   0.054094   1.130013  -0.534993   0.189904
     5  C    0.028255   0.327297  -0.459710  -0.276130  -0.024046  -0.024855
     6  C   -1.254778  -1.019176  -0.006716  -1.000313  -0.144281   0.147907
     7  C    9.644380   0.563144  -0.068970   0.465793   0.093700   0.158058
     8  C    0.563144   9.487048  -2.617574   0.298665   1.037589  -1.966396
     9  C   -0.068970  -2.617574  14.324041   0.562333  -0.309390   1.845329
    10  C    0.465793   0.298665   0.562333   8.158767  -0.644837  -0.521905
    11  C    0.093700   1.037589  -0.309390  -0.644837   8.478893   0.279865
    12  C    0.158058  -1.966396   1.845329  -0.521905   0.279865  11.584213
    13  C   -0.672518   1.027331  -2.910813  -0.713722  -0.670820  -1.559640
    14  C   -0.613393  -0.149478   0.107746  -1.325194  -0.318186  -1.181176
    15  C    0.014566   1.202709  -1.999652   0.038275   0.624187  -1.266388
    16  C   -0.236193  -0.871764   0.440942   0.055895  -1.313252   1.440478
    17  C   -0.004440   0.075144  -0.334996  -0.113902   1.051020  -0.830512
    18  C    0.128589  -0.303238  -0.211897   0.125790  -0.626514  -0.468474
    19  C    0.398484  -0.037482   0.060026   0.088961   0.007794   0.003358
    20  C   -0.342765  -0.054183  -0.088005  -0.049703   0.003683  -0.003409
    21  C   -0.106928   0.015244  -0.020868  -0.083250   0.048070   0.005362
    22  C   -1.310578  -0.621336   0.052923  -0.135955   0.378777   0.003663
    23  C    0.515671   1.641266  -2.824725   0.258623  -0.546877  -0.786926
    24  H   -0.007861   0.000991  -0.000734  -0.000075  -0.001247  -0.000065
    25  H    0.005664   0.000088   0.000045   0.000271  -0.000039  -0.000006
    26  H    0.001465  -0.000500  -0.000264   0.000088   0.000004  -0.000006
    27  H    0.003229   0.000111   0.002751   0.003672   0.000077  -0.000003
    28  H   -0.006028   0.012132   0.012939   0.041749   0.000545  -0.000223
    29  H   -0.018075  -0.031701  -0.034482   0.312834  -0.005681   0.010461
    30  H   -0.013582  -0.000011  -0.077463   0.116721  -0.027660  -0.026951
[...]
 .00112957,0.00058856,0.00172146,0.00127752,-0.00161157,-0.00111135,0.0
 0219188,-0.00089733,-0.00090092,0.00140700,-0.00204158,-0.00034648,-0.
 00237579,0.00035984,0.00002984,-0.00969000,-0.02949344,0.01495366,0.00
 056176,0.00397114,-0.00011138,-0.00091870,-0.00228022,-0.00126438,-0.0
 0085019,0.00087071,0.00006390,0.00080470,0.00106589,0.00174812,-0.0019
 7433,-0.00063304,0.00009535,0.00130107,0.00150127,0.00005021,-0.001852
 74,0.00002857,-0.00008479,0.01224478,0.00643943,-0.00632556,0.00716561
 ,-0.00253205,0.00189389,-0.00012806,0.00266048,-0.00082321,0.00138891,
 -0.00053908,0.00026934,0.00109329,-0.00093828,-0.00019584,0.00063272,0
 .00068422,0.00035714,0.00131492,0.00027797,0.00055253,-0.00725057,0.00
 042490,-0.00280883,-0.02990900,-0.11673439,0.06445362,0.00004589,-0.00
 006319,-0.00042114,0.00018663,0.00003863,0.00002413,-0.00000060,-0.000
 00195,0.00000780,0.00002136,0.00003004,-0.00000373,-0.00005294,-0.0000
 0164,0.00016048,-0.00002549,0.00003052,0.00002530,-0.00014943,0.000027
 07,0.00012596,0.00001836,-0.00001583,-0.00006912,-0.00003573,0.0000039
 6,0.00011018,0.00027372,0.00053833,0.00009162,0.00032656,-0.00019280,0
 .00008928,-0.09141255,0.40424885,0.00091859,-0.00020423,-0.00025595,-0
 .00268147,-0.00088216,-0.00095927,-0.00070660,-0.00247934,0.00013300,-
 0.00009845,0.00024595,-0.00029101,0.00015923,-0.00024331,0.00010021,-0
 .00030375,-0.00036349,-0.00014225,-0.00354367,0.00876312,0.00232711,-0
 .00015493,-0.00093148,0.00055880,0.00100546,-0.00070866,0.00018614,-0.
 00009891,0.00039382,0.00000946,-0.00160291,0.00061177,-0.00102261,0.00
 035965,-0.00114612,-0.00068818,0.00034272,0.00083526,0.00016014,-0.001
 17797,-0.00089760,-0.00022618,-0.01347461,-0.00134163,0.00808506,0.000
 27687,0.00382870,0.00086497,-0.00119292,0.00031115,-0.00029160,-0.0000
 4117,0.00027000,0.00009473,-0.00042236,0.00045883,0.00008489,-0.000422
 05,0.00005127,-0.00032932,-0.00098760,-0.00045378,0.00026505,0.0056319
 5,-0.00358469,0.00226484,0.03772900,0.06012853,-0.12201824,-0.00021149
 ,0.00020633,0.00054799,-0.00016585,-0.00002831,-0.00004251,-0.00004165
 ,0.00001205,0.00005394,-0.00003577,-0.00009892,-0.00003439,-0.00006400
 ,-0.00004149,-0.00000789,0.00003185,-0.00005086,0.00002190,0.00004061,
 -0.00000523,-0.00004888,0.00000733,0.00007093,0.00003085,-0.00001815,0
 .00003805,0.00004720,-0.00007814,-0.00028035,0.00001618,-0.00023637,0.
 00013263,-0.00018833,-0.06811690,-0.20523756,0.32170271,-0.00080569,-0
 .00373978,-0.00020034,0.00113302,-0.00064618,-0.00076178,-0.00159993,-
 0.00235957,0.00151718,-0.00538676,0.00233740,0.00002781,-0.00264920,0.
 00373708,0.00049124,0.00431781,-0.00059678,-0.00009848,-0.00309908,0.0
 0116438,0.00614919,0.00052610,-0.00555701,0.00057146,-0.00030745,0.005
 15150,0.00032030,0.00215483,-0.00193016,0.00003054,0.01042159,0.005932
 48,-0.00651312,0.00541912,-0.00127649,-0.00057689,-0.00200503,-0.00393
 249,-0.00021008,0.00481093,0.00130130,0.00044038,-0.13995081,0.0499668
 4,-0.01911523,-0.06036394,0.01834965,-0.01291815,0.00167287,-0.0110327
 0,0.00116648,-0.00298713,0.00230143,-0.00082265,-0.00064952,0.00172898
 ,0.00024913,-0.00114197,-0.00143817,-0.00044911,0.00164078,-0.00011397
 ,0.00031048,-0.00003425,-0.00032920,0.00029381,-0.01345440,-0.01143431
 ,0.00097714,-0.00003257,0.00000383,0.00011858,-0.00004660,-0.00001622,
 0.00001573,0.00001314,0.00001362,0.00002073,-0.00001190,0.00008525,-0.
 00007878,0.00003125,-0.00003805,-0.00003497,0.00000774,-0.00002639,-0.
 00005280,0.00008846,-0.00006298,0.00003717,-0.00005314,-0.00035860,0.0
 0021785,0.00012611,0.00012028,-0.00004545,-0.00029937,0.00272370,-0.00
 039841,-0.00081615,0.00052490,-0.00027855,-0.48884136,0.02802002,0.078
 87279,0.79452599,0.00099057,0.00221286,-0.00031845,-0.00195813,0.00032
 328,0.00007973,0.00055879,0.00100958,0.00002081,0.00350873,-0.00126883
 ,-0.00010088,0.00172953,-0.00227690,-0.00020099,-0.00280549,0.00019163
 ,-0.00008278,-0.00005578,0.00248224,-0.00143796,-0.00117141,0.00310671
 ,0.00009276,0.00075886,-0.00327394,-0.00050618,-0.00144344,0.00129855,
 0.00003990,0.02147109,-0.01659441,0.01170804,-0.00484105,-0.00484846,0
 .00136282,0.00289624,0.00241859,0.00033494,-0.00364790,-0.00130062,-0.
 00035102,0.05357735,-0.14911664,0.04107670,0.00967578,0.01297147,-0.00
 087043,-0.00708101,0.00392797,0.00071608,0.00135482,-0.00211961,0.0005
 8508,0.00006787,-0.00077821,-0.00006249,0.00023545,0.00079578,-0.00000
 125,-0.00105035,-0.00045605,-0.00048283,0.00062627,-0.00260075,0.00304
 833,-0.02304568,0.00263720,0.01103415,-0.00014288,0.00018927,0.0002543
 6,-0.00006165,-0.00001157,-0.00004598,-0.00001601,0.00000463,0.0000224
 2,-0.00000643,-0.00011542,0.00008508,-0.00002980,0.00002914,-0.0000398
 0,0.00001070,0.00000285,0.00010641,-0.00008032,0.00003982,-0.00004435,
 0.00001498,-0.00027821,-0.00017681,0.00005181,0.00006606,-0.00026029,-
 0.00173832,-0.00030597,-0.00197341,-0.00089193,0.00059614,-0.00028175,
 0.00593601,-0.09319455,0.02326935,-0.00639958,0.42803567,-0.00030254,-
 0.00099190,-0.00000673,0.00160452,0.00019297,0.00025304,0.00018098,0.0
 0015275,0.00065309,-0.00158528,0.00058531,0.00005269,-0.00088114,0.001
 19394,0.00015800,0.00140282,-0.00001538,-0.00009992,0.00065873,-0.0013
 4022,0.00102772,0.00221760,-0.00194857,-0.00221349,-0.00056228,0.00175
 172,-0.00005367,0.00073676,-0.00080199,0.00010815,-0.00551684,0.002352
 50,-0.00046162,0.00023069,0.00281596,0.00603512,-0.00144538,-0.0011987
 8,0.00001958,0.00170393,0.00063496,0.00021598,-0.03323593,0.04849990,-
 0.08740993,-0.01270280,-0.00017831,0.00351262,0.00200923,-0.00106244,0
 .00613290,0.00036839,0.00104311,-0.00112707,0.00005394,0.00057785,0.00
 002484,-0.00039489,-0.00049328,0.00010872,0.00091908,0.00013638,0.0003
 6808,-0.00183428,0.00260264,-0.00230752,0.02422308,0.00232521,-0.00618
 553,0.00003671,-0.00007590,-0.00022271,0.00007398,0.00000942,0.0000028
 2,0.00000907,0.00001094,-0.00001929,0.00000661,0.00007181,0.00002150,0
 .00002654,0.00000698,-0.00001148,-0.00004422,-0.00000801,-0.00002492,0
 .00002238,-0.00003606,0.00001871,0.00007185,0.00006808,-0.00017730,0.0
 0014190,-0.00007864,-0.00078442,0.00177457,0.00014900,-0.00271060,0.00
 030146,-0.00014900,0.00025316,0.08263556,0.02479930,-0.08686507,-0.108
 17872,-0.21064876,0.30410880,-0.00001463,-0.00024989,-0.00013502,-0.00
 023338,-0.00006921,-0.00013969,-0.00022908,-0.00014453,0.00006045,-0.0
 0033936,0.00011809,0.00000025,-0.00017011,0.00024971,0.00003009,0.0002
 9545,-0.00007211,-0.00000463,-0.00019734,0.00109500,0.00013197,0.00022
 199,-0.00054906,-0.00027970,0.00014564,0.00027753,0.00012127,0.0000904
 2,-0.00008716,-0.00001448,-0.00311062,0.00039841,-0.00114144,0.0002469
 4,0.00098899,0.00041177,-0.00056881,-0.00017807,-0.00001120,0.00034036
 ,-0.00000534,0.00003493,0.00675620,0.01734940,-0.01239206,-0.00140242,
 0.00261281,-0.00122272,0.00058235,-0.00078870,-0.00011531,0.00000847,0
 .00048392,-0.00017061,-0.00014443,0.00007385,0.00002028,-0.00004429,-0
 .00006847,-0.00009137,-0.00006607,-0.00010068,-0.00010095,0.00041492,-
 0.00061727,0.00104667,-0.00427588,0.00185129,0.00050329,0.00000240,0.0
 0001509,0.00007555,-0.00004249,-0.00000347,0.00000391,-0.00000597,-0.0
 0000477,0.00001174,-0.00000758,-0.00001347,0.00000358,-0.00000061,-0.0
 0001110,-0.00000076,0.00001513,-0.00000196,-0.00001171,0.00001742,0.00
 000356,0.00000434,0.00001813,0.00010233,-0.00001133,-0.00002270,-0.000
 03334,0.00008294,-0.00071434,-0.00017983,0.00000640,0.00000585,-0.0000
 2015,0.00000499,-0.01170408,-0.02325824,0.02173969,-0.08699702,-0.0690
 9527,0.05744098,0.10091848,-0.00009822,-0.00019669,-0.00001289,0.00016
 298,-0.00000860,-0.00003516,-0.00009852,-0.00004939,0.00018799,-0.0003
 2502,0.00013193,0.00002641,-0.00017920,0.00022685,0.00002046,0.0002685
 7,-0.00001639,0.00000239,0.00003639,0.00058358,-0.00009612,0.00011888,
 -0.00027211,-0.00009231,-0.00009430,0.00038995,0.00001704,0.00011865,-
 0.00016693,0.00000381,0.00270983,0.00075840,0.00173765,-0.00009220,-0.
 00056148,-0.00016569,0.00006482,-0.00031797,-0.00010885,0.00034140,0.0
 0011481,0.00005352,-0.00265402,-0.01615570,0.01342665,-0.00332232,-0.0
 0019110,-0.00173896,0.00080136,-0.00066589,-0.00028830,-0.00017603,0.0
 0035594,0.00000241,-0.00002568,0.00003699,0.00001151,-0.00002794,-0.00
 003677,0.00000159,0.00004030,-0.00004403,-0.00003190,0.00013927,0.0003
 3080,0.00005741,0.00129334,0.00398321,0.00284755,0.00002002,0.00000628
 ,-0.00001491,-0.00000636,0.00000017,0.00000541,-0.00000228,-0.00000031
 ,-0.00000311,-0.00000357,0.00000645,0.00000170,0.00000094,-0.00000495,
 -0.00001257,-0.00001225,-0.00001524,-0.00000368,0.00000175,-0.00002219
 ,0.00000816,0.00000660,-0.00010480,-0.00000190,0.00002449,0.00005068,0
 .00009336,0.00020686,0.00102713,0.00037502,0.00004341,-0.00002275,0.00
 005845,0.00362750,0.00302138,0.00119876,-0.07297906,-0.18604402,0.1250
 5877,0.07094735,0.19635760,-0.00003796,0.00000865,0.00007314,0.0003083
 9,0.00001687,-0.00007448,0.00001251,-0.00006569,0.00020225,-0.00005695
 ,0.00008113,0.00005131,0.00000946,0.00005359,0.00001056,0.00004109,-0.
 00002322,-0.00001804,-0.00001320,0.00037903,0.00005169,-0.00068548,-0.
 00041199,-0.00007207,0.00008922,0.00011867,-0.00005291,-0.00001574,-0.
 00003626,-0.00000586,-0.00194340,0.00121678,0.00013868,0.00084615,0.00
 050092,0.00042242,-0.00025740,-0.00002590,-0.00011558,-0.00000293,-0.0
 0001261,0.00002917,0.00738509,0.00705423,-0.00226422,0.00031394,0.0000
 6818,0.00028324,-0.00011738,-0.00057152,0.00016426,-0.00009168,-0.0000
 4746,0.00000046,-0.00000984,0.00000115,0.00000563,0.00000543,-0.000033
 40,0.00002590,0.00008815,0.00001960,-0.00005800,0.00009165,0.00066482,
 -0.00028428,0.00241918,0.00309218,0.00674473,0.00002767,-0.00000645,-0
 .00003150,0.00001904,-0.00000254,0.00000726,0.00000841,0.00000315,-0.0
 0000940,0.00000570,0.00000961,-0.00000448,0.00000023,0.00000654,-0.000
 01322,0.00000488,0.00000676,0.00000484,0.00000444,0.00000799,0.0000061
 2,0.00000338,0.00007242,-0.00003103,-0.00002566,-0.00006179,-0.0000241
 6,-0.00073366,-0.00052579,-0.00001318,-0.00001993,0.00001805,-0.000018
 89,0.00516343,0.00728846,-0.00059398,0.05417898,0.12616331,-0.14056816
 ,-0.06527557,-0.13935214,0.13915583,0.00012119,0.00021756,0.00009879,-
 0.00002703,-0.00016273,0.00016551,-0.00006385,-0.00034776,-0.00063259,
 0.00037626,-0.00009557,-0.00014763,0.00026238,-0.00030001,-0.00008287,
 -0.00043534,-0.00003411,0.00004658,-0.00051441,-0.00015125,0.00168601,
 -0.00020551,0.00004213,0.00003644,0.00021042,-0.00018250,-0.00007404,-
 0.00028116,0.00018729,-0.00001496,-0.00036924,0.00029392,-0.00008831,0
 .00003363,-0.00001012,-0.00024269,-0.00013953,0.00006790,-0.00002567,-
 0.00011103,-0.00008775,0.00000702,-0.00315613,-0.00148474,0.00289461,0
 .00037149,0.00124031,-0.00019551,-0.00047946,0.00000586,-0.00029541,0.
 00005712,-0.00008883,0.00007288,0.00012969,-0.00003399,-0.00000361,-0.
 00017112,0.00009260,-0.00013649,0.00017023,0.00012461,-0.00015936,0.00
 125100,-0.00065759,0.00030689,0.00718224,-0.01177241,0.00828181,-0.000
 09721,0.00008655,0.00024515,0.00001783,-0.00000670,0.00002823,0.000001
 11,0.00001547,0.00002070,0.00000464,-0.00000584,-0.00001464,-0.0000164
 0,-0.00000071,0.00003583,0.00000321,0.00000246,-0.00000537,0.00000313,
 0.00000748,0.00001298,-0.00000962,0.00002937,0.00000978,-0.00001912,0.
 00002008,0.00003054,-0.00001886,-0.00007974,0.00011196,-0.00010984,0.0
 0007124,-0.00004553,-0.13696487,0.10754082,-0.06640599,-0.01607228,0.0
 2326354,-0.01387104,0.00022272,-0.00051181,-0.00098972,0.14895614,0.00
 032492,0.00038419,0.00013556,-0.00049609,-0.00029925,-0.00007312,0.000
 29350,-0.00017067,-0.00050847,0.00057312,-0.00035673,-0.00008735,0.000
 31261,-0.00050033,-0.00007351,-0.00060283,0.00001650,0.00002080,-0.000
 97968,0.00003479,0.00172816,-0.00049871,0.00041383,0.00010691,0.000115
 61,-0.00055355,-0.00010174,-0.00026634,0.00033827,-0.00001801,-0.00074
 120,0.00107841,-0.00020881,-0.00016521,-0.00050235,-0.00051906,0.00036
 765,0.00049591,0.00006305,-0.00070056,-0.00029628,-0.00009850,-0.00128
 898,0.00482466,0.00472392,0.00258824,-0.00033335,0.00005513,-0.0002555
 9,0.00090659,-0.00065305,0.00012767,-0.00014998,0.00017087,0.00007848,
 -0.00002477,0.00001662,-0.00015678,0.00023203,-0.00003319,-0.00070985,
 0.00018247,-0.00025639,0.00188169,0.00071638,-0.00044299,0.00825385,-0
 .00922402,0.00951232,-0.00009080,0.00013455,0.00014613,-0.00001845,-0.
 00000841,0.00001189,-0.00001250,0.00000881,0.00001027,-0.00000565,-0.0
 0001336,-0.00001053,-0.00002380,-0.00000767,0.00002562,-0.00001104,-0.
 00001301,0.00000800,-0.00001382,-0.00000833,0.00001122,-0.00000023,0.0
 0001767,0.00001141,-0.00001272,0.00000130,0.00006032,0.00004254,0.0000
 2305,0.00014326,0.00003163,-0.00001031,0.00003668,0.11012976,-0.181872
 63,0.09614432,0.00004548,0.00227162,0.00345483,-0.00089294,-0.00175948
 ,-0.00455688,-0.11694789,0.18553096,0.00002326,0.00115680,0.00015662,-
 0.00033998,0.00006219,0.00013946,-0.00057251,0.00052990,-0.00056841,0.
 00159412,-0.00022546,0.00011846,0.00080143,-0.00120487,-0.00013744,-0.
 00139973,0.00027554,0.00007789,0.00223564,0.00006732,-0.00204959,-0.00
 070464,0.00127820,0.00074894,-0.00013546,-0.00104717,-0.00004922,-0.00
 051719,0.00032150,-0.00003626,-0.00024515,0.00166735,-0.00057461,-0.00
 034282,-0.00056477,-0.00051409,0.00056739,0.00076199,0.00007134,-0.000
 97102,-0.00016827,-0.00010092,-0.00025254,0.00344016,0.00630049,0.0033
 9495,-0.00038714,0.00055167,-0.00034646,0.00122088,-0.00084780,0.00021
 809,-0.00037264,0.00020864,0.00016588,-0.00076911,-0.00011179,0.000702
 10,0.00032845,0.00010873,-0.00042737,0.00022483,0.00010533,-0.00095095
 ,-0.00044440,0.00072248,-0.00921208,0.01293516,-0.00245753,0.00027054,
 -0.00028462,-0.00022583,0.00003015,0.00002030,0.00000809,-0.00000558,-
 0.00003848,-0.00000786,0.00000750,-0.00001665,-0.00002686,0.00001033,0
 .00001775,-0.00000723,-0.00000304,0.00001370,0.00001391,-0.00003348,0.
 00001985,-0.00001374,0.00000204,0.00000699,-0.00000025,-0.00002220,0.0
 0000307,0.00008551,0.00001083,0.00004283,0.00016862,0.00005477,-0.0000
 2405,0.00001606,-0.06985860,0.09826822,-0.10054766,0.00779528,-0.00406
 123,0.00700532,-0.00079046,-0.00390082,-0.00404243,0.06868892,-0.10950
 407,0.09709907,-0.00003548,-0.00099672,0.00090434,-0.00267112,0.000579
 50,0.00058321,-0.00024951,0.00107736,-0.00018041,0.00003688,-0.0004912
 7,-0.00028436,-0.00024051,0.00044501,-0.00004515,0.00040630,-0.0000181
 8,-0.00006957,0.00344551,0.00241216,0.00885883,0.00040299,0.00065915,0
 .00043767,-0.00009862,-0.00049192,-0.00067877,0.00005678,0.00011154,0.
 00001304,0.00016580,0.00004500,-0.00034554,-0.00023285,0.00008789,-0.0
 0002945,0.00038986,0.00027473,0.00002565,-0.00030398,-0.00000091,-0.00
 004742,0.00018352,-0.00055831,-0.00045476,0.00002092,0.00005990,-0.000
 17243,0.00005720,0.00012540,0.00005622,-0.00001352,0.00003857,-0.00002
 962,-0.00058558,0.00066844,-0.00010313,-0.00047019,-0.00111060,0.00134
 529,0.00096778,-0.00041354,0.00065971,-0.01249128,-0.00815796,-0.02860
 073,-0.05882495,-0.01299684,-0.06127854,-0.00008557,0.00060977,-0.0009
 0680,-0.00008103,0.00002689,0.00001759,0.00001056,0.00004482,-0.000194
 55,-0.00002503,-0.00007392,0.00004698,0.00003777,-0.00002229,0.0000565
 6,0.00002543,0.00001149,0.00001280,-0.00003386,0.00002136,0.00010949,0
 .00001143,0.00000804,-0.00000148,0.00000778,0.00000982,0.00000249,0.00
 006824,0.00001875,-0.00000100,-0.00002192,0.00000863,0.00000409,0.0023
 0333,0.00125801,0.01516795,0.00071579,-0.00116598,0.00170400,-0.000011
 66,-0.00036595,-0.00074994,-0.00011241,-0.00027505,0.00055805,0.067275
 19,0.00006631,-0.00058246,0.00005892,0.00015330,0.00031800,-0.00019415
 ,0.00201523,-0.00121568,-0.00013630,-0.00039597,-0.00127511,0.00075580
 ,-0.00006779,0.00047814,0.00008761,0.00035738,-0.00050537,0.00006513,-
 0.00669153,-0.01360305,-0.02787767,-0.00325494,0.00098729,0.00027500,0
 .00008692,-0.00128804,0.00111728,0.00009668,0.00067703,0.00006764,0.00
 058485,0.00176035,-0.00068106,0.00005001,-0.00076258,-0.00003998,0.001
 12728,0.00105336,0.00029551,-0.00170032,-0.00083949,-0.00025957,0.0000
 7674,-0.00053304,0.00042968,0.00064480,0.00055886,-0.00002669,-0.00020
 829,0.00013770,-0.00007300,0.00020113,0.00021387,0.00008821,-0.0000469
 4,0.00075159,0.00016112,-0.00065291,-0.00051793,-0.00013201,0.00076993
 ,0.00048047,-0.00001958,-0.00084797,0.00052112,0.00149754,-0.01365310,
 -0.05339204,-0.05438036,0.00009157,-0.00013948,-0.00008659,0.00000071,
 -0.00001313,-0.00000415,-0.00001514,0.00001556,-0.00005393,-0.00001225
 ,0.00000262,-0.00001913,-0.00004077,0.00000373,-0.00015676,0.00000013,
 -0.00002308,-0.00003081,0.00001539,-0.00000857,-0.00022970,0.00001177,
 0.00004207,-0.00000937,-0.00001156,0.00000447,0.00002117,0.00005967,0.
 00002093,0.00000896,-0.00000066,0.00001604,-0.00000598,0.00236300,0.00
 438581,0.02200836,0.00075957,-0.00002690,0.00053292,-0.00012229,-0.000
 72536,-0.00111843,-0.00034714,-0.00150754,0.00035075,0.01853719,0.0645
 2984,-0.00004982,-0.00092400,-0.00028505,-0.00009749,0.00081178,-0.000
 26464,0.00131918,0.00023201,-0.00078183,-0.00074654,-0.00030734,-0.000
 14361,-0.00048730,0.00077116,0.00012338,0.00078597,-0.00018256,-0.0000
 0040,0.00059883,-0.00754695,-0.00279306,-0.00146610,0.00037059,0.00103
 071,0.00012689,-0.00056828,-0.00007830,0.00038848,0.00019691,0.0000995
 3,0.00123140,0.00012921,-0.00070179,0.00008702,0.00026100,0.00022713,0
 .00051392,-0.00003812,0.00018189,-0.00033839,0.00001765,-0.00011579,0.
 00168884,-0.00138734,-0.00058996,-0.00125033,-0.00032373,0.00010002,0.
 00028942,-0.00035971,0.00017116,-0.00023621,-0.00002396,-0.00009132,0.
 00005343,0.00095880,0.00009332,-0.00102691,-0.00064398,-0.00002790,0.0
 0102640,-0.00021818,0.00083313,-0.00338122,-0.00020111,0.00005323,-0.0
 6159612,-0.05424957,-0.25145085,-0.00010655,0.00012494,-0.00026634,-0.
 00003449,-0.00001930,0.00000531,-0.00000557,0.00002051,-0.00002044,-0.
 00000875,0.00001457,0.00002186,0.00001043,-0.00000553,0.00000362,0.000
 00269,-0.00000008,-0.00002284,-0.00000589,-0.00000687,-0.00000608,0.00
 000720,0.00000049,-0.00001588,0.00001564,-0.00001180,-0.00001627,-0.00
 003185,0.00001641,-0.00006590,0.00001455,-0.00000690,-0.00000807,0.001
 34366,0.00222669,-0.02300186,-0.00306877,0.00194735,0.00116860,0.00017
 391,0.00066329,0.00091836,0.00065080,0.00054837,-0.00138712,0.06360964
 ,0.05771359,0.27710406\\0.00001210,0.00005331,0.00001474,-0.00003513,0
 .00000907,0.00000876,-0.00000213,-0.00002881,0.00001765,0.00004310,0.0
 0001806,0.00000533,0.00003425,-0.00004195,-0.00001686,-0.00004214,0.00
 001771,-0.00000082,0.00006254,-0.00000806,0.00001152,-0.00010749,-0.00
 000662,0.00000111,0.00003562,-0.00001623,-0.00000530,-0.00002089,-0.00
 000655,-0.00000175,0.00008949,0.00007432,-0.00000313,-0.00000977,0.000
 01273,-0.00000202,0.00003675,0.00002463,0.00000747,-0.00006143,-0.0000
 0510,-0.00000735,-0.00006689,-0.00007578,-0.00000527,0.00007006,0.0000
 0690,0.00001093,-0.00004299,0.00002933,-0.00001520,-0.00001184,-0.0000
 1830,-0.00000421,0.00001389,-0.00003934,-0.00000734,0.00003191,0.00001
 383,0.00000566,-0.00002811,-0.00002055,-0.00000258,-0.00000103,-0.0000
 1286,0.00000789,0.00001349,0.00000158,-0.00005636,-0.00000542,-0.00000
 170,-0.00000127,-0.00000255,-0.00000357,0.00000178,0.00000162,0.000005
 30,0.00000524,0.00000405,-0.00000261,0.00000533,-0.00000190,0.00000197
 ,0.00000301,0.,0.00000835,-0.00000618,0.00000487,0.00000543,-0.0000049
 2,-0.00000190,0.00000383,-0.00000264,0.00000004,0.00001062,0.00000235,
 -0.00000273,-0.00000476,-0.00000176,0.00000181,0.00000033,-0.00000160,
 -0.00000062,-0.00001461,0.00002067,-0.00000069,0.00000686,-0.00000393,
 -0.00001150,0.00000116,0.00000446,0.00000820,0.00000359,0.00000008,-0.
 00000663,-0.00000153,0.00001650\\\@


 THE SECRET OF SUCCESS IN LIFE IS TO EAT WHAT YOU LIKE, AND LET THE FOOD
 FIGHT IT OUT INSIDE YOU. -- FROM A FORTUNE COOKIE
 Job cpu time:       3 days 13 hours 35 minutes 56.5 seconds.
 File lengths (MBytes):  RWF=   8995 Int=      0 D2E=      0 Chk=     41 Scr=      1
 Normal termination of Gaussian 09 at Sun Feb  2 06:16:10 2020.
