 Entering Gaussian System, Link 0=g09
 Initial command:
 /usr/local/Cluster-Apps/gaussian/g09/l1.exe "/rds/user/am2145/hpc-work/scratch/19186858/Gau-174118.inp" -scrdir="/rds/user/am2145/hpc-work/scratch/19186858/"
 Entering Link 1 = /usr/local/Cluster-Apps/gaussian/g09/l1.exe PID=    174119.
  
 Copyright (c) 1988,1990,1992,1993,1995,1998,2003,2009,2013,
            Gaussian, Inc.  All Rights Reserved.
  
 This is part of the Gaussian(R) 09 program.  It is based on
 the Gaussian(R) 03 system (copyright 2003, Gaussian, Inc.),
 the Gaussian(R) 98 system (copyright 1998, Gaussian, Inc.),
 the Gaussian(R) 94 system (copyright 1995, Gaussian, Inc.),
 the Gaussian 92(TM) system (copyright 1992, Gaussian, Inc.),
 the Gaussian 90(TM) system (copyright 1990, Gaussian, Inc.),
 the Gaussian 88(TM) system (copyright 1988, Gaussian, Inc.),
 the Gaussian 86(TM) system (copyright 1986, Carnegie Mellon
 University), and the Gaussian 82(TM) system (copyright 1983,
 Carnegie Mellon University). Gaussian is a federally registered
 trademark of Gaussian, Inc.
  
 This software contains proprietary and confidential information,
 including trade secrets, belonging to Gaussian, Inc.
  
 This software is provided under written license and may be
 used, copied, transmitted, or stored only in accord with that
 written license.
  
 The following legend is applicable only to US Government
 contracts under FAR:
  
                    RESTRICTED RIGHTS LEGEND
  
 Use, reproduction and disclosure by the US Government is
 subject to restrictions as set forth in subparagraphs (a)
 and (c) of the Commercial Computer Software - Restricted
 Rights clause in FAR 52.227-19.
  
 Gaussian, Inc.
 340 Quinnipiac St., Bldg. 40, Wallingford CT 06492
  
  
 ---------------------------------------------------------------
 Warning -- This program may not be used in any manner that
 competes with the business of Gaussian, Inc. or will provide
 assistance to any competitor of Gaussian, Inc.  The licensee
 of this program is prohibited from giving any competitor of
 Gaussian, Inc. access to this program.  By using this program,
 the user acknowledges that Gaussian, Inc. is engaged in the
 business of creating and licensing software in the field of
 computational chemistry and represents and warrants to the
 licensee that it is not a competitor of Gaussian, Inc. and that
 it will not use this program in any manner prohibited above.
 ---------------------------------------------------------------
  

 Cite this work as:
 Gaussian 09, Revision D.01,
 M. J. Frisch, G. W. Trucks, H. B. Schlegel, G. E. Scuseria, 
 M. A. Robb, J. R. Cheeseman, G. Scalmani, V. Barone, B. Mennucci, 
 G. A. Petersson, H. Nakatsuji, M. Caricato, X. Li, H. P. Hratchian, 
 A. F. Izmaylov, J. Bloino, G. Zheng, J. L. Sonnenberg, M. Hada, 
 M. Ehara, K. Toyota, R. Fukuda, J. Hasegawa, M. Ishida, T. Nakajima, 
 Y. Honda, O. Kitao, H. Nakai, T. Vreven, J. A. Montgomery, Jr., 
 J. E. Peralta, F. Ogliaro, M. Bearpark, J. J. Heyd, E. Brothers, 
 K. N. Kudin, V. N. Staroverov, T. Keith, R. Kobayashi, J. Normand, 
 K. Raghavachari, A. Rendell, J. C. Burant, S. S. Iyengar, J. Tomasi, 
 M. Cossi, N. Rega, J. M. Millam, M. Klene, J. E. Knox, J. B. Cross, 
 V. Bakken, C. Adamo, J. Jaramillo, R. Gomperts, R. E. Stratmann, 
 O. Yazyev, A. J. Austin, R. Cammi, C. Pomelli, J. W. Ochterski, 
 R. L. Martin, K. Morokuma, V. G. Zakrzewski, G. A. Voth, 
 P. Salvador, J. J. Dannenberg, S. Dapprich, A. D. Daniels, 
 O. Farkas, J. B. Foresman, J. V. Ortiz, J. Cioslowski, 
 and D. J. Fox, Gaussian, Inc., Wallingford CT, 2013.
 
 ******************************************
 Gaussian 09:  ES64L-G09RevD.01 24-Apr-2013
                 2-Feb-2020 
 ******************************************
 %NProcShared=20
 Will use up to   20 processors via shared memory.
 %mem=64GB
 %Chk=BPtri.chk
 ------------------------------
 #n opt freq b3lyp/6-311+g(d,p)
 ------------------------------
 1/14=-1,18=20,19=15,26=3,38=1/1,3;
 2/9=110,12=2,17=6,18=5,40=1/2;
 3/5=4,6=6,7=111,11=2,16=1,25=1,30=1,71=1,74=-5/1,2,3;
 4//1;
 5/5=2,38=5/2;
 6/7=2,8=2,9=2,10=2,28=1/1;
 7//1,2,3,16;
 1/14=-1,18=20,19=15,26=3/3(2);
 2/9=110/2;
 99//99;
 2/9=110/2;
 3/5=4,6=6,7=111,11=2,16=1,25=1,30=1,71=1,74=-5/1,2,3;
 4/5=5,16=3,69=1/1;
 5/5=2,38=5/2;
 7//1,2,3,16;
 1/14=-1,18=20,19=15,26=3/3(-5);
 2/9=110/2;
 6/7=2,8=2,9=2,10=2,19=2,28=1/1;
 99/9=1/99;
 -----
 BPtri
 -----
 Symbolic Z-matrix:
 Charge =  0 Multiplicity = 3
 C                    -3.78168   0.32009   0.12017 
 C                    -2.48418  -0.21713   0.10533 
 C                    -1.34049   0.54362   0.35931 
 C                    -1.40319   1.93629   0.39455 
 C                    -3.86332   1.73046   0.38766 
 C                    -2.73134   2.50127   0.48633 
 C                    -0.11486  -0.25605   0.20409 
 C                     1.11099   0.52556  -0.04001 
 C                     1.02475   1.93771  -0.1129 
 C                    -0.20201   2.64016   0.16174 
 C                     2.37566  -0.11151  -0.05069 
 C                     3.5392    0.62753  -0.38189 
 C                     3.41426   2.0244   -0.60272 
 C                     2.2129    2.65946  -0.42684 
 C                     2.50195  -1.48971   0.39361 
 C                     3.77884  -2.08946   0.33692 
 C                     4.90275  -1.37319  -0.09739 
 C                     4.80173  -0.04026  -0.43541 
 C                    -4.81777  -0.56504  -0.26324 
 C                    -4.50913  -1.84523  -0.69835 
 C                    -3.17257  -2.32005  -0.80158 
 C                    -2.14788  -1.49766  -0.38931 
 C                    -0.6495   -1.61763  -0.40779 
 H                    -2.98517  -3.3042   -1.21691 
 H                    -5.31457  -2.50197  -1.00816 
 H                    -5.8501   -0.23125  -0.2582 
 H                    -4.83808   2.20479   0.43744 
 H                    -2.82838   3.577     0.59206 
 H                    -0.19763   3.724     0.12558 
 H                     2.14946   3.73751  -0.53191 
 H                     4.29874   2.59386  -0.86804 
 H                     5.68088   0.52434  -0.72547 
 H                     3.88792  -3.11751   0.66497 
 H                     5.86653  -1.86877  -0.13535 
 C                     0.03684  -1.59852   0.94563 
 C                     1.40391  -2.14459   0.96944 
 H                    -0.5947   -1.78087   1.81106 
 H                     1.54437  -3.13172   1.39797 
 H                    -0.13445  -2.10851  -1.2251 
 

 GradGradGradGradGradGradGradGradGradGradGradGradGradGradGradGradGradGrad
 Berny optimization.
 Initialization pass.
                           ----------------------------
                           !    Initial Parameters    !
                           ! (Angstroms and Degrees)  !
 --------------------------                            --------------------------
 ! Name  Definition              Value          Derivative Info.                !
 --------------------------------------------------------------------------------
 ! R1    R(1,2)                  1.4044         estimate D2E/DX2                !
 ! R2    R(1,5)                  1.4378         estimate D2E/DX2                !
 ! R3    R(1,19)                 1.4156         estimate D2E/DX2                !
 ! R4    R(2,3)                  1.3969         estimate D2E/DX2                !
 ! R5    R(2,22)                 1.4133         estimate D2E/DX2                !
 ! R6    R(3,4)                  1.3945         estimate D2E/DX2                !
 ! R7    R(3,7)                  1.4716         estimate D2E/DX2                !
 ! R8    R(4,6)                  1.4462         estimate D2E/DX2                !
 ! R9    R(4,10)                 1.4115         estimate D2E/DX2                !
 ! R10   R(5,6)                  1.373          estimate D2E/DX2                !
 ! R11   R(5,27)                 1.0852         estimate D2E/DX2                !
 ! R12   R(6,28)                 1.0853         estimate D2E/DX2                !
 ! R13   R(7,8)                  1.4742         estimate D2E/DX2                !
 ! R14   R(7,23)                 1.5856         estimate D2E/DX2                !
 ! R15   R(7,35)                 1.5411         estimate D2E/DX2                !
 ! R16   R(8,9)                  1.4167         estimate D2E/DX2                !
 ! R17   R(8,11)                 1.4161         estimate D2E/DX2                !
 ! R18   R(9,10)                 1.4401         estimate D2E/DX2                !
 ! R19   R(9,14)                 1.4252         estimate D2E/DX2                !
 ! R20   R(10,29)                1.0845         estimate D2E/DX2                !
 ! R21   R(11,12)                1.4176         estimate D2E/DX2                !
 ! R22   R(11,15)                1.4535         estimate D2E/DX2                !
 ! R23   R(12,13)                1.4197         estimate D2E/DX2                !
 ! R24   R(12,18)                1.4293         estimate D2E/DX2                !
 ! R25   R(13,14)                1.3702         estimate D2E/DX2                !
 ! R26   R(13,31)                1.0849         estimate D2E/DX2                !
 ! R27   R(14,30)                1.085          estimate D2E/DX2                !
 ! R28   R(15,16)                1.4119         estimate D2E/DX2                !
 ! R29   R(15,36)                1.4022         estimate D2E/DX2                !
 ! R30   R(16,17)                1.4017         estimate D2E/DX2                !
 ! R31   R(16,33)                1.0846         estimate D2E/DX2                !
 ! R32   R(17,18)                1.3788         estimate D2E/DX2                !
 ! R33   R(17,34)                1.0844         estimate D2E/DX2                !
 ! R34   R(18,32)                1.0843         estimate D2E/DX2                !
 ! R35   R(19,20)                1.3869         estimate D2E/DX2                !
 ! R36   R(19,26)                1.085          estimate D2E/DX2                !
 ! R37   R(20,21)                1.4221         estimate D2E/DX2                !
 ! R38   R(20,25)                1.0844         estimate D2E/DX2                !
 ! R39   R(21,22)                1.3771         estimate D2E/DX2                !
 ! R40   R(21,24)                1.0845         estimate D2E/DX2                !
 ! R41   R(22,23)                1.5033         estimate D2E/DX2                !
 ! R42   R(23,35)                1.5176         estimate D2E/DX2                !
 ! R43   R(23,39)                1.0836         estimate D2E/DX2                !
 ! R44   R(35,36)                1.4723         estimate D2E/DX2                !
 ! R45   R(35,37)                1.0868         estimate D2E/DX2                !
 ! R46   R(36,38)                1.0853         estimate D2E/DX2                !
 ! A1    A(2,1,5)              115.445          estimate D2E/DX2                !
 ! A2    A(2,1,19)             115.7314         estimate D2E/DX2                !
 ! A3    A(5,1,19)             128.4735         estimate D2E/DX2                !
 ! A4    A(1,2,3)              123.1052         estimate D2E/DX2                !
 ! A5    A(1,2,22)             124.7583         estimate D2E/DX2                !
 ! A6    A(3,2,22)             111.2382         estimate D2E/DX2                !
 ! A7    A(2,3,4)              120.7748         estimate D2E/DX2                !
 ! A8    A(2,3,7)              111.5165         estimate D2E/DX2                !
 ! A9    A(4,3,7)              125.6458         estimate D2E/DX2                !
 ! A10   A(3,4,6)              115.6599         estimate D2E/DX2                !
 ! A11   A(3,4,10)             117.1009         estimate D2E/DX2                !
 ! A12   A(6,4,10)             126.666          estimate D2E/DX2                !
 ! A13   A(1,5,6)              121.1461         estimate D2E/DX2                !
 ! A14   A(1,5,27)             119.2279         estimate D2E/DX2                !
 ! A15   A(6,5,27)             119.463          estimate D2E/DX2                !
 ! A16   A(4,6,5)              122.2248         estimate D2E/DX2                !
 ! A17   A(4,6,28)             118.3933         estimate D2E/DX2                !
 ! A18   A(5,6,28)             119.3235         estimate D2E/DX2                !
 ! A19   A(3,7,8)              114.9546         estimate D2E/DX2                !
 ! A20   A(3,7,23)             103.091          estimate D2E/DX2                !
 ! A21   A(3,7,35)             120.3025         estimate D2E/DX2                !
 ! A22   A(8,7,23)             132.2043         estimate D2E/DX2                !
 ! A23   A(8,7,35)             117.3659         estimate D2E/DX2                !
 ! A24   A(7,8,9)              119.105          estimate D2E/DX2                !
 ! A25   A(7,8,11)             120.3544         estimate D2E/DX2                !
 ! A26   A(9,8,11)             120.1602         estimate D2E/DX2                !
 ! A27   A(8,9,10)             121.8895         estimate D2E/DX2                !
 ! A28   A(8,9,14)             117.7357         estimate D2E/DX2                !
 ! A29   A(10,9,14)            120.3426         estimate D2E/DX2                !
 ! A30   A(4,10,9)             120.8729         estimate D2E/DX2                !
 ! A31   A(4,10,29)            120.4846         estimate D2E/DX2                !
 ! A32   A(9,10,29)            118.5362         estimate D2E/DX2                !
 ! A33   A(8,11,12)            120.0147         estimate D2E/DX2                !
 ! A34   A(8,11,15)            120.122          estimate D2E/DX2                !
 ! A35   A(12,11,15)           119.63           estimate D2E/DX2                !
 ! A36   A(11,12,13)           118.492          estimate D2E/DX2                !
 ! A37   A(11,12,18)           119.3529         estimate D2E/DX2                !
 ! A38   A(13,12,18)           122.1148         estimate D2E/DX2                !
 ! A39   A(12,13,14)           120.8775         estimate D2E/DX2                !
 ! A40   A(12,13,31)           118.8648         estimate D2E/DX2                !
 ! A41   A(14,13,31)           120.1931         estimate D2E/DX2                !
 ! A42   A(9,14,13)            121.6345         estimate D2E/DX2                !
 ! A43   A(9,14,30)            118.4087         estimate D2E/DX2                !
 ! A44   A(13,14,30)           119.9558         estimate D2E/DX2                !
 ! A45   A(11,15,16)           117.9745         estimate D2E/DX2                !
 ! A46   A(11,15,36)           120.0212         estimate D2E/DX2                !
 ! A47   A(16,15,36)           121.7571         estimate D2E/DX2                !
 ! A48   A(15,16,17)           121.3676         estimate D2E/DX2                !
 ! A49   A(15,16,33)           118.78           estimate D2E/DX2                !
 ! A50   A(17,16,33)           119.8291         estimate D2E/DX2                !
 ! A51   A(16,17,18)           120.7434         estimate D2E/DX2                !
 ! A52   A(16,17,34)           119.3365         estimate D2E/DX2                !
 ! A53   A(18,17,34)           119.8897         estimate D2E/DX2                !
 ! A54   A(12,18,17)           120.4784         estimate D2E/DX2                !
 ! A55   A(12,18,32)           118.8765         estimate D2E/DX2                !
 ! A56   A(17,18,32)           120.6322         estimate D2E/DX2                !
 ! A57   A(1,19,20)            119.9507         estimate D2E/DX2                !
 ! A58   A(1,19,26)            120.1839         estimate D2E/DX2                !
 ! A59   A(20,19,26)           119.8139         estimate D2E/DX2                !
 ! A60   A(19,20,21)           122.6911         estimate D2E/DX2                !
 ! A61   A(19,20,25)           118.9044         estimate D2E/DX2                !
 ! A62   A(21,20,25)           118.3652         estimate D2E/DX2                !
 ! A63   A(20,21,22)           118.5685         estimate D2E/DX2                !
 ! A64   A(20,21,24)           119.5494         estimate D2E/DX2                !
 ! A65   A(22,21,24)           121.8714         estimate D2E/DX2                !
 ! A66   A(2,22,21)            117.957          estimate D2E/DX2                !
 ! A67   A(2,22,23)            108.2871         estimate D2E/DX2                !
 ! A68   A(21,22,23)           133.6575         estimate D2E/DX2                !
 ! A69   A(7,23,22)            105.2368         estimate D2E/DX2                !
 ! A70   A(7,23,39)            121.3182         estimate D2E/DX2                !
 ! A71   A(22,23,35)           116.0275         estimate D2E/DX2                !
 ! A72   A(22,23,39)           121.277          estimate D2E/DX2                !
 ! A73   A(35,23,39)           117.6056         estimate D2E/DX2                !
 ! A74   A(7,35,36)            114.9777         estimate D2E/DX2                !
 ! A75   A(7,35,37)            118.1724         estimate D2E/DX2                !
 ! A76   A(23,35,36)           115.4471         estimate D2E/DX2                !
 ! A77   A(23,35,37)           116.4395         estimate D2E/DX2                !
 ! A78   A(36,35,37)           117.6763         estimate D2E/DX2                !
 ! A79   A(15,36,35)           123.1791         estimate D2E/DX2                !
 ! A80   A(15,36,38)           119.0528         estimate D2E/DX2                !
 ! A81   A(35,36,38)           117.6405         estimate D2E/DX2                !
 ! D1    D(5,1,2,3)              1.3458         estimate D2E/DX2                !
 ! D2    D(5,1,2,22)          -166.8443         estimate D2E/DX2                !
 ! D3    D(19,1,2,3)           175.1371         estimate D2E/DX2                !
 ! D4    D(19,1,2,22)            6.9471         estimate D2E/DX2                !
 ! D5    D(2,1,5,6)              6.1439         estimate D2E/DX2                !
 ! D6    D(2,1,5,27)          -178.5222         estimate D2E/DX2                !
 ! D7    D(19,1,5,6)          -166.7075         estimate D2E/DX2                !
 ! D8    D(19,1,5,27)            8.6263         estimate D2E/DX2                !
 ! D9    D(2,1,19,20)           -3.8596         estimate D2E/DX2                !
 ! D10   D(2,1,19,26)          178.7554         estimate D2E/DX2                !
 ! D11   D(5,1,19,20)          168.9746         estimate D2E/DX2                !
 ! D12   D(5,1,19,26)           -8.4104         estimate D2E/DX2                !
 ! D13   D(1,2,3,4)            -12.2656         estimate D2E/DX2                !
 ! D14   D(1,2,3,7)           -176.8181         estimate D2E/DX2                !
 ! D15   D(22,2,3,4)           157.3414         estimate D2E/DX2                !
 ! D16   D(22,2,3,7)            -7.2111         estimate D2E/DX2                !
 ! D17   D(1,2,22,21)           -4.8013         estimate D2E/DX2                !
 ! D18   D(1,2,22,23)          172.0816         estimate D2E/DX2                !
 ! D19   D(3,2,22,21)         -174.2023         estimate D2E/DX2                !
 ! D20   D(3,2,22,23)            2.6806         estimate D2E/DX2                !
 ! D21   D(2,3,4,6)             14.6814         estimate D2E/DX2                !
 ! D22   D(2,3,4,10)          -157.2241         estimate D2E/DX2                !
 ! D23   D(7,3,4,6)            176.9276         estimate D2E/DX2                !
 ! D24   D(7,3,4,10)             5.0221         estimate D2E/DX2                !
 ! D25   D(2,3,7,8)            158.4925         estimate D2E/DX2                !
 ! D26   D(2,3,7,23)             8.1579         estimate D2E/DX2                !
 ! D27   D(2,3,7,35)           -52.2821         estimate D2E/DX2                !
 ! D28   D(4,3,7,8)             -5.1509         estimate D2E/DX2                !
 ! D29   D(4,3,7,23)          -155.4855         estimate D2E/DX2                !
 ! D30   D(4,3,7,35)           144.0745         estimate D2E/DX2                !
 ! D31   D(3,4,6,5)             -7.3332         estimate D2E/DX2                !
 ! D32   D(3,4,6,28)           175.4663         estimate D2E/DX2                !
 ! D33   D(10,4,6,5)           163.6765         estimate D2E/DX2                !
 ! D34   D(10,4,6,28)          -13.5241         estimate D2E/DX2                !
 ! D35   D(3,4,10,9)             0.6321         estimate D2E/DX2                !
 ! D36   D(3,4,10,29)          176.828          estimate D2E/DX2                !
 ! D37   D(6,4,10,9)          -170.2638         estimate D2E/DX2                !
 ! D38   D(6,4,10,29)            5.9321         estimate D2E/DX2                !
 ! D39   D(1,5,6,4)             -3.1151         estimate D2E/DX2                !
 ! D40   D(1,5,6,28)           174.0603         estimate D2E/DX2                !
 ! D41   D(27,5,6,4)          -178.4382         estimate D2E/DX2                !
 ! D42   D(27,5,6,28)           -1.2628         estimate D2E/DX2                !
 ! D43   D(3,7,8,9)             -0.3481         estimate D2E/DX2                !
 ! D44   D(3,7,8,11)           172.5844         estimate D2E/DX2                !
 ! D45   D(23,7,8,9)           139.0511         estimate D2E/DX2                !
 ! D46   D(23,7,8,11)          -48.0164         estimate D2E/DX2                !
 ! D47   D(35,7,8,9)          -150.5185         estimate D2E/DX2                !
 ! D48   D(35,7,8,11)           22.414          estimate D2E/DX2                !
 ! D49   D(3,7,23,22)           -6.1873         estimate D2E/DX2                !
 ! D50   D(3,7,23,39)          136.5245         estimate D2E/DX2                !
 ! D51   D(8,7,23,22)         -148.9029         estimate D2E/DX2                !
 ! D52   D(8,7,23,39)           -6.1911         estimate D2E/DX2                !
 ! D53   D(3,7,35,36)         -166.216          estimate D2E/DX2                !
 ! D54   D(3,7,35,37)          -20.0404         estimate D2E/DX2                !
 ! D55   D(8,7,35,36)          -17.7061         estimate D2E/DX2                !
 ! D56   D(8,7,35,37)          128.4695         estimate D2E/DX2                !
 ! D57   D(7,8,9,10)             5.6204         estimate D2E/DX2                !
 ! D58   D(7,8,9,14)          -176.4366         estimate D2E/DX2                !
 ! D59   D(11,8,9,10)         -167.3261         estimate D2E/DX2                !
 ! D60   D(11,8,9,14)           10.6169         estimate D2E/DX2                !
 ! D61   D(7,8,11,12)          175.4112         estimate D2E/DX2                !
 ! D62   D(7,8,11,15)          -10.158          estimate D2E/DX2                !
 ! D63   D(9,8,11,12)          -11.7311         estimate D2E/DX2                !
 ! D64   D(9,8,11,15)          162.6997         estimate D2E/DX2                !
 ! D65   D(8,9,10,4)            -5.956          estimate D2E/DX2                !
 ! D66   D(8,9,10,29)          177.7754         estimate D2E/DX2                !
 ! D67   D(14,9,10,4)          176.1537         estimate D2E/DX2                !
 ! D68   D(14,9,10,29)          -0.1149         estimate D2E/DX2                !
 ! D69   D(8,9,14,13)           -2.5061         estimate D2E/DX2                !
 ! D70   D(8,9,14,30)          177.1409         estimate D2E/DX2                !
 ! D71   D(10,9,14,13)         175.4702         estimate D2E/DX2                !
 ! D72   D(10,9,14,30)          -4.8828         estimate D2E/DX2                !
 ! D73   D(8,11,12,13)           4.5031         estimate D2E/DX2                !
 ! D74   D(8,11,12,18)        -177.7571         estimate D2E/DX2                !
 ! D75   D(15,11,12,13)       -169.9552         estimate D2E/DX2                !
 ! D76   D(15,11,12,18)          7.7846         estimate D2E/DX2                !
 ! D77   D(8,11,15,16)         178.6621         estimate D2E/DX2                !
 ! D78   D(8,11,15,36)          -6.9487         estimate D2E/DX2                !
 ! D79   D(12,11,15,16)         -6.8857         estimate D2E/DX2                !
 ! D80   D(12,11,15,36)        167.5035         estimate D2E/DX2                !
 ! D81   D(11,12,13,14)          3.6331         estimate D2E/DX2                !
 ! D82   D(11,12,13,31)       -179.2843         estimate D2E/DX2                !
 ! D83   D(18,12,13,14)       -174.041          estimate D2E/DX2                !
 ! D84   D(18,12,13,31)          3.0417         estimate D2E/DX2                !
 ! D85   D(11,12,18,17)         -3.5519         estimate D2E/DX2                !
 ! D86   D(11,12,18,32)        177.7486         estimate D2E/DX2                !
 ! D87   D(13,12,18,17)        174.1027         estimate D2E/DX2                !
 ! D88   D(13,12,18,32)         -4.5967         estimate D2E/DX2                !
 ! D89   D(12,13,14,9)          -4.6415         estimate D2E/DX2                !
 ! D90   D(12,13,14,30)        175.7168         estimate D2E/DX2                !
 ! D91   D(31,13,14,9)         178.3144         estimate D2E/DX2                !
 ! D92   D(31,13,14,30)         -1.3272         estimate D2E/DX2                !
 ! D93   D(11,15,16,17)          1.7799         estimate D2E/DX2                !
 ! D94   D(11,15,16,33)       -179.9818         estimate D2E/DX2                !
 ! D95   D(36,15,16,17)       -172.5063         estimate D2E/DX2                !
 ! D96   D(36,15,16,33)          5.732          estimate D2E/DX2                !
 ! D97   D(11,15,36,35)         11.1103         estimate D2E/DX2                !
 ! D98   D(11,15,36,38)       -173.0984         estimate D2E/DX2                !
 ! D99   D(16,15,36,35)       -174.7181         estimate D2E/DX2                !
 ! D100  D(16,15,36,38)          1.0732         estimate D2E/DX2                !
 ! D101  D(15,16,17,18)          2.4859         estimate D2E/DX2                !
 ! D102  D(15,16,17,34)       -179.5199         estimate D2E/DX2                !
 ! D103  D(33,16,17,18)       -175.7343         estimate D2E/DX2                !
 ! D104  D(33,16,17,34)          2.2599         estimate D2E/DX2                !
 ! D105  D(16,17,18,12)         -1.6289         estimate D2E/DX2                !
 ! D106  D(16,17,18,32)        177.0476         estimate D2E/DX2                !
 ! D107  D(34,17,18,12)       -179.6121         estimate D2E/DX2                !
 ! D108  D(34,17,18,32)         -0.9356         estimate D2E/DX2                !
 ! D109  D(1,19,20,21)          -1.0178         estimate D2E/DX2                !
 ! D110  D(1,19,20,25)        -178.6999         estimate D2E/DX2                !
 ! D111  D(26,19,20,21)        176.3769         estimate D2E/DX2                !
 ! D112  D(26,19,20,25)         -1.3052         estimate D2E/DX2                !
 ! D113  D(19,20,21,22)          3.3313         estimate D2E/DX2                !
 ! D114  D(19,20,21,24)       -175.5042         estimate D2E/DX2                !
 ! D115  D(25,20,21,22)       -178.9747         estimate D2E/DX2                !
 ! D116  D(25,20,21,24)          2.1898         estimate D2E/DX2                !
 ! D117  D(20,21,22,2)          -0.5181         estimate D2E/DX2                !
 ! D118  D(20,21,22,23)       -176.4258         estimate D2E/DX2                !
 ! D119  D(24,21,22,2)         178.289          estimate D2E/DX2                !
 ! D120  D(24,21,22,23)          2.3813         estimate D2E/DX2                !
 ! D121  D(2,22,23,7)            2.4063         estimate D2E/DX2                !
 ! D122  D(2,22,23,35)          65.5161         estimate D2E/DX2                !
 ! D123  D(2,22,23,39)        -140.3245         estimate D2E/DX2                !
 ! D124  D(21,22,23,7)         178.5998         estimate D2E/DX2                !
 ! D125  D(21,22,23,35)       -118.2904         estimate D2E/DX2                !
 ! D126  D(21,22,23,39)         35.8689         estimate D2E/DX2                !
 ! D127  D(22,23,35,36)        160.8185         estimate D2E/DX2                !
 ! D128  D(22,23,35,37)         16.6165         estimate D2E/DX2                !
 ! D129  D(39,23,35,36)          5.6771         estimate D2E/DX2                !
 ! D130  D(39,23,35,37)       -138.5249         estimate D2E/DX2                !
 ! D131  D(7,35,36,15)           1.4707         estimate D2E/DX2                !
 ! D132  D(7,35,36,38)        -174.3763         estimate D2E/DX2                !
 ! D133  D(23,35,36,15)         71.3769         estimate D2E/DX2                !
 ! D134  D(23,35,36,38)       -104.4701         estimate D2E/DX2                !
 ! D135  D(37,35,36,15)       -144.8805         estimate D2E/DX2                !
 ! D136  D(37,35,36,38)         39.2725         estimate D2E/DX2                !
 --------------------------------------------------------------------------------
 Trust Radius=3.00D-01 FncErr=1.00D-07 GrdErr=1.00D-06
 Number of steps in this run=    234 maximum allowed number of steps=    234.
 GradGradGradGradGradGradGradGradGradGradGradGradGradGradGradGradGradGrad

                          Input orientation:                          
 ---------------------------------------------------------------------
 Center     Atomic      Atomic             Coordinates (Angstroms)
 Number     Number       Type             X           Y           Z
 ---------------------------------------------------------------------
      1          6           0       -3.781680    0.320090    0.120170
      2          6           0       -2.484180   -0.217130    0.105330
      3          6           0       -1.340490    0.543620    0.359310
      4          6           0       -1.403190    1.936290    0.394550
      5          6           0       -3.863320    1.730460    0.387660
      6          6           0       -2.731340    2.501270    0.486330
      7          6           0       -0.114860   -0.256050    0.204090
      8          6           0        1.110990    0.525560   -0.040010
      9          6           0        1.024750    1.937710   -0.112900
     10          6           0       -0.202010    2.640160    0.161740
     11          6           0        2.375660   -0.111510   -0.050690
     12          6           0        3.539200    0.627530   -0.381890
     13          6           0        3.414260    2.024400   -0.602720
     14          6           0        2.212900    2.659460   -0.426840
     15          6           0        2.501950   -1.489710    0.393610
     16          6           0        3.778840   -2.089460    0.336920
     17          6           0        4.902750   -1.373190   -0.097390
     18          6           0        4.801730   -0.040260   -0.435410
     19          6           0       -4.817770   -0.565040   -0.263240
     20          6           0       -4.509130   -1.845230   -0.698350
     21          6           0       -3.172570   -2.320050   -0.801580
     22          6           0       -2.147880   -1.497660   -0.389310
     23          6           0       -0.649500   -1.617630   -0.407790
     24          1           0       -2.985170   -3.304200   -1.216910
     25          1           0       -5.314570   -2.501970   -1.008160
     26          1           0       -5.850100   -0.231250   -0.258200
     27          1           0       -4.838080    2.204790    0.437440
     28          1           0       -2.828380    3.577000    0.592060
     29          1           0       -0.197630    3.724000    0.125580
     30          1           0        2.149460    3.737510   -0.531910
     31          1           0        4.298740    2.593860   -0.868040
     32          1           0        5.680880    0.524340   -0.725470
     33          1           0        3.887920   -3.117510    0.664970
     34          1           0        5.866530   -1.868770   -0.135350
     35          6           0        0.036840   -1.598520    0.945630
     36          6           0        1.403910   -2.144590    0.969440
     37          1           0       -0.594700   -1.780870    1.811060
     38          1           0        1.544370   -3.131720    1.397970
     39          1           0       -0.134450   -2.108510   -1.225100
 ---------------------------------------------------------------------
                    Distance matrix (angstroms):
                    1          2          3          4          5
     1  C    0.000000
     2  C    1.404397   0.000000
     3  C    2.463039   1.396880   0.000000
     4  C    2.888702   2.426810   1.394526   0.000000
     5  C    1.437832   2.403091   2.788201   2.468735   0.000000
     6  C    2.448435   2.756075   2.404785   1.446239   1.373049
     7  C    3.712755   2.371697   1.471643   2.549985   4.246277
     8  C    4.899602   3.673957   2.483855   2.915494   5.135995
     9  C    5.076690   4.123536   2.785827   2.480403   4.918002
    10  C    4.265969   3.657265   2.393878   1.411548   3.779389
    11  C    6.174812   4.863491   3.795664   4.321045   6.519960
    12  C    7.344513   6.101798   4.936374   5.171357   7.523694
    13  C    7.430262   6.349597   5.072067   4.920380   7.350539
    14  C    6.458085   5.533583   4.209678   3.778063   6.200556
    15  C    6.544780   5.154033   4.347408   5.194959   7.133456
    16  C    7.938159   6.540999   5.756835   6.562272   8.543827
    17  C    8.850641   7.479593   6.546815   7.138595   9.311922
    18  C    8.608917   7.308089   6.220881   6.564801   8.882341
    19  C    1.415606   2.387997   3.702455   4.283538   2.569818
    20  C    2.426473   2.719749   4.106766   5.014099   3.792367
    21  C    2.861988   2.391368   3.592324   4.762128   4.277623
    22  C    2.496615   1.413338   2.319296   3.600141   3.737268
    23  C    3.720760   2.364475   2.395185   3.720503   4.708618
    24  H    3.944324   3.395484   4.471595   5.706330   5.356640
    25  H    3.403954   3.804137   5.190270   6.079855   4.686993
    26  H    2.173822   3.385524   4.617177   4.989922   2.865787
    27  H    2.183743   3.393647   3.872819   3.445635   1.085184
    28  H    3.426211   3.840677   3.386648   2.182225   2.126638
    29  H    4.942878   4.556449   3.387562   2.172930   4.180929
    30  H    6.876219   6.125020   4.814038   4.089504   6.405262
    31  H    8.452205   7.406559   6.124605   5.876950   8.303100
    32  H    9.502466   8.240644   7.104700   7.309726   9.684293
    33  H    8.422391   7.023465   6.390115   7.321876   9.146663
    34  H    9.896684   8.515879   7.616131   8.222415  10.387395
    35  C    4.352418   2.994977   2.613345   3.856457   5.157973
    36  C    5.803986   4.424820   3.889790   4.986370   6.564921
    37  H    4.174923   2.987463   2.840253   4.059241   5.003937
    38  H    6.474147   5.137603   4.786372   5.948083   7.341977
    39  H    4.583681   3.296755   3.316426   4.537992   5.589558
                    6          7          8          9         10
     6  C    0.000000
     7  C    3.811619   0.000000
     8  C    4.352466   1.474180   0.000000
     9  C    3.845112   2.492344   1.416657   0.000000
    10  C    2.553852   2.897830   2.497240   1.440071   0.000000
    11  C    5.761637   2.507687   1.416108   2.455225   3.776400
    12  C    6.601847   3.804766   2.454279   2.848050   4.282857
    13  C    6.259539   4.278561   2.805034   2.440737   3.747128
    14  C    5.030349   3.783747   2.432565   1.425195   2.485677
    15  C    6.582085   2.899229   2.486787   3.766415   4.941760
    16  C    7.967407   4.305803   3.754708   4.899535   6.184429
    17  C    8.580880   5.149301   4.240989   5.099136   6.498669
    18  C    8.003507   4.962699   3.754738   4.275740   5.707771
    19  C    3.783821   4.736162   6.032366   6.357783   5.635526
    20  C    4.843146   4.759149   6.135129   6.728835   6.277719
    21  C    5.009843   3.823749   5.198689   6.018330   5.861390
    22  C    4.135047   2.454972   3.851709   4.684416   4.605608
    23  C    4.700941   1.585603   2.797830   3.940878   4.318957
    24  H    6.055488   4.421441   5.729806   6.691481   6.706867
    25  H    5.825718   5.792296   7.168757   7.790971   7.344960
    26  H    4.212797   5.753895   7.005508   7.210344   6.349982
    27  H    2.128061   5.330947   6.199936   5.894657   4.664622
    28  H    1.085261   4.712323   5.022891   4.246275   2.821465
    29  H    2.836353   3.981685   3.459758   2.177594   1.084452
    30  H    5.136858   4.649448   3.411306   2.163290   2.686027
    31  H    7.159952   5.362025   3.889119   3.423416   4.617287
    32  H    8.725947   5.921460   4.621012   4.904325   6.314446
    33  H    8.684308   4.941924   4.634684   5.861576   7.080362
    34  H    9.664735   6.204282   5.325135   6.158947   7.566101
    35  C    4.968104   1.541142   2.576238   3.821174   4.317168
    36  C    6.238405   2.541458   2.869581   4.240330   5.111281
    37  H    4.965568   2.266644   3.414009   4.489107   4.734973
    38  H    7.130453   3.528154   3.953644   5.315247   6.155705
    39  H    5.560836   2.339781   3.145454   4.353462   4.947500
                   11         12         13         14         15
    11  C    0.000000
    12  C    1.417638   0.000000
    13  C    2.438348   1.419726   0.000000
    14  C    2.801117   2.426898   1.370219   0.000000
    15  C    1.453543   2.481933   3.764831   4.239375   0.000000
    16  C    2.455899   2.820665   4.235527   5.058432   1.411865
    17  C    2.824925   2.437845   3.743605   4.858611   2.453263
    18  C    2.457418   1.429262   2.493168   3.740401   2.842036
    19  C    7.210846   8.442467   8.636363   7.736568   7.407075
    20  C    7.129206   8.425574   8.818350   8.096397   7.104507
    21  C    6.018666   7.342494   7.893043   7.344334   5.858167
    22  C    4.743257   6.071192   6.586946   6.024903   4.715289
    23  C    3.398163   4.752538   5.460451   5.146571   3.254265
    24  H    6.347585   7.663104   8.350085   7.950433   5.999553
    25  H    8.109913   9.411441   9.840980   9.145551   8.005474
    26  H    8.229248   9.429303   9.541227   8.567182   8.471441
    27  H    7.592204   8.563753   8.319591   7.118288   8.217499
    28  H    6.410949   7.084774   6.542830   5.224418   7.356857
    29  H    4.622124   4.879503   4.057685   2.692409   5.877274
    30  H    3.885575   3.409671   2.130605   1.085014   5.320213
    31  H    3.418380   2.163261   1.084889   2.133000   4.636352
    32  H    3.432800   2.171518   2.720811   4.083479   3.926109
    33  H    3.440223   3.904209   5.317013   6.113193   2.155060
    34  H    3.909131   3.421807   4.624807   5.825706   3.426935
    35  C    2.945154   4.357079   5.189403   4.974867   2.528504
    36  C    2.473535   3.751027   4.888115   5.067836   1.402191
    37  H    3.882771   5.262941   6.031432   5.710284   3.418067
    38  H    3.451279   4.612939   5.838221   6.108570   2.149859
    39  H    3.415831   4.657534   5.482850   5.374087   3.154955
                   16         17         18         19         20
    16  C    0.000000
    17  C    1.401728   0.000000
    18  C    2.417027   1.378827   0.000000
    19  C    8.751329   9.755466   9.635342   0.000000
    20  C    8.355949   9.442852   9.487843   1.386891   0.000000
    21  C    7.047798   8.161080   8.301866   2.465067   1.422147
    22  C    6.000304   7.057768   7.100931   2.830899   2.406618
    23  C    4.515242   5.566290   5.674924   4.301548   3.877237
    24  H    7.045695   8.197646   8.479378   3.430876   2.172545
    25  H    9.201604  10.319752  10.427252   2.133873   1.084446
    26  H    9.824642  10.814512  10.655016   1.084964   2.144030
    27  H    9.628188  10.390946   9.936199   2.857153   4.219110
    28  H    8.707998   9.205981   8.506400   4.673939   5.821568
    29  H    7.046509   7.214218   6.283149   6.316070   7.091136
    30  H    6.112555   5.821397   4.616860   8.193071   8.690887
    31  H    4.863714   4.086100   2.716387   9.667222   9.864730
    32  H    3.402702   2.144899   1.084349  10.565134  10.461926
    33  H    1.084621   2.157249   3.393428   9.119524   8.601615
    34  H    2.151788   1.084395   2.137120  10.764308  10.390950
    35  C    3.822841   4.981540   5.199964   5.108492   4.840390
    36  C    2.458335   3.738324   4.236389   6.536343   6.151031
    37  H    4.625599   5.833553   6.099001   4.859556   4.650166
    38  H    2.684211   4.075199   4.850650   7.058632   6.534101
    39  H    4.213562   5.214001   5.409911   5.024038   4.414137
                   21         22         23         24         25
    21  C    0.000000
    22  C    1.377055   0.000000
    23  C    2.648461   1.503289   0.000000
    24  H    1.084513   2.156285   2.992415   0.000000
    25  H    2.159614   3.379281   4.785956   2.472500   0.000000
    26  H    3.439115   3.915025   5.384298   4.309289   2.450592
    27  H    4.978280   4.650680   5.733194   6.043105   4.946756
    28  H    6.069258   5.213285   5.721136   7.116732   6.759861
    29  H    6.800032   5.597707   5.387177   7.679079   8.138252
    30  H    8.067884   6.774546   6.043766   8.741815   9.740106
    31  H    8.942673   7.650400   6.514104   9.378921  10.881307
    32  H    9.299458   8.092649   6.690491   9.486815  11.407821
    33  H    7.255152   6.337689   4.897819   7.128513   9.373584
    34  H    9.074847   8.027016   6.526557   9.032321  11.232975
    35  C    3.724736   2.562272   1.517621   4.088822   5.768111
    36  C    4.910343   3.857452   2.528031   5.038734   7.012603
    37  H    3.709719   2.708174   2.225521   4.147708   5.544832
    38  H    5.267481   4.415567   3.219674   5.232980   7.295965
    39  H    3.074783   2.263975   1.083621   3.091334   5.199569
                   26         27         28         29         30
    26  H    0.000000
    27  H    2.728074   0.000000
    28  H    4.935231   2.438393   0.000000
    29  H    6.909537   4.892753   2.675828   0.000000
    30  H    8.934144   7.219043   5.105679   2.437480   0.000000
    31  H   10.552351   9.237810   7.341273   4.741502   2.457707
    32  H   11.565153  10.715633   9.135761   6.746776   4.778374
    33  H   10.198616  10.223587   9.483167   7.986797   7.172591
    34  H   11.831145  11.467809  10.285281   8.253557   6.738267
    35  C    6.162361   6.203891   5.926256   5.390425   5.926171
    36  C    7.601883   7.626439   7.126801   6.141448   6.116289
    37  H    5.856824   5.981521   5.931447   5.770797   6.593363
    38  H    8.113804   8.374761   8.048438   7.187102   7.160788
    39  H    6.093247   6.594902   6.548615   5.987195   6.314484
                   31         32         33         34         35
    31  H    0.000000
    32  H    2.492699   0.000000
    33  H    5.927785   4.290816   0.000000
    34  H    4.786425   2.471777   2.472804   0.000000
    35  C    6.247339   6.257339   4.149327   5.935220   0.000000
    36  C    5.848870   5.318682   2.685066   4.605607   1.472291
    37  H    7.089541   7.150586   4.816016   6.748610   1.086767
    38  H    6.745637   5.914938   2.455548   4.756804   2.197262
    39  H    6.472476   6.403092   4.557401   6.103834   2.236403
                   36         37         38         39
    36  C    0.000000
    37  H    2.198877   0.000000
    38  H    1.085262   2.563408   0.000000
    39  H    2.680272   3.088276   3.278093   0.000000
 Stoichiometry    C25H14(3)
 Framework group  C1[X(C25H14)]
 Deg. of freedom   111
 Full point group                 C1      NOp   1
 Largest Abelian subgroup         C1      NOp   1
 Largest concise Abelian subgroup C1      NOp   1
                         Standard orientation:                         
 ---------------------------------------------------------------------
 Center     Atomic      Atomic             Coordinates (Angstroms)
 Number     Number       Type             X           Y           Z
 ---------------------------------------------------------------------
      1          6           0       -3.781680    0.320090    0.120171
      2          6           0       -2.484180   -0.217129    0.105331
      3          6           0       -1.340490    0.543621    0.359311
      4          6           0       -1.403190    1.936291    0.394551
      5          6           0       -3.863320    1.730460    0.387661
      6          6           0       -2.731340    2.501270    0.486331
      7          6           0       -0.114860   -0.256049    0.204091
      8          6           0        1.110990    0.525561   -0.040009
      9          6           0        1.024750    1.937711   -0.112899
     10          6           0       -0.202010    2.640161    0.161741
     11          6           0        2.375660   -0.111508   -0.050689
     12          6           0        3.539200    0.627532   -0.381889
     13          6           0        3.414260    2.024402   -0.602719
     14          6           0        2.212900    2.659462   -0.426839
     15          6           0        2.501950   -1.489708    0.393611
     16          6           0        3.778841   -2.089458    0.336921
     17          6           0        4.902750   -1.373188   -0.097389
     18          6           0        4.801730   -0.040258   -0.435409
     19          6           0       -4.817770   -0.565040   -0.263239
     20          6           0       -4.509129   -1.845230   -0.698349
     21          6           0       -3.172569   -2.320050   -0.801579
     22          6           0       -2.147880   -1.497659   -0.389309
     23          6           0       -0.649500   -1.617629   -0.407789
     24          1           0       -2.985169   -3.304200   -1.216909
     25          1           0       -5.314569   -2.501970   -1.008159
     26          1           0       -5.850100   -0.231250   -0.258199
     27          1           0       -4.838080    2.204790    0.437441
     28          1           0       -2.828381    3.577000    0.592061
     29          1           0       -0.197631    3.724001    0.125581
     30          1           0        2.149459    3.737512   -0.531909
     31          1           0        4.298740    2.593862   -0.868039
     32          1           0        5.680880    0.524342   -0.725469
     33          1           0        3.887921   -3.117508    0.664971
     34          1           0        5.866531   -1.868768   -0.135349
     35          6           0        0.036840   -1.598519    0.945631
     36          6           0        1.403911   -2.144589    0.969441
     37          1           0       -0.594699   -1.780869    1.811061
     38          1           0        1.544371   -3.131719    1.397971
     39          1           0       -0.134449   -2.108509   -1.225099
 ---------------------------------------------------------------------
 Rotational constants (GHZ):      0.5238145      0.1785273      0.1386621
 Standard basis: 6-311+G(d,p) (5D, 7F)
 There are   659 symmetry adapted cartesian basis functions of A   symmetry.
 There are   634 symmetry adapted basis functions of A   symmetry.
   634 basis functions,  1012 primitive gaussians,   659 cartesian basis functions
    83 alpha electrons       81 beta electrons
       nuclear repulsion energy      1962.1577819670 Hartrees.
 NAtoms=   39 NActive=   39 NUniq=   39 SFac= 1.00D+00 NAtFMM=   60 NAOKFM=F Big=F
 Integral buffers will be    131072 words long.
 Raffenetti 2 integral format.
 Two-electron integral symmetry is turned on.
 One-electron integrals computed using PRISM.
 NBasis=   634 RedAO= T EigKep=  1.09D-06  NBF=   634
 NBsUse=   620 1.00D-06 EigRej=  7.92D-07 NBFU=   620
 ExpMin= 4.38D-02 ExpMax= 4.56D+03 ExpMxC= 6.82D+02 IAcc=2 IRadAn=         4 AccDes= 0.00D+00
 Harris functional with IExCor=  402 and IRadAn=       4 diagonalized for initial guess.
 HarFok:  IExCor=  402 AccDes= 0.00D+00 IRadAn=         4 IDoV= 1 UseB2=F ITyADJ=14
 ICtDFT=  3500011 ScaDFX=  1.000000  1.000000  1.000000  1.000000
 FoFCou: FMM=F IPFlag=           0 FMFlag=      100000 FMFlg1=           0
         NFxFlg=           0 DoJE=T BraDBF=F KetDBF=T FulRan=T
         wScrn=  0.000000 ICntrl=     500 IOpCl=  0 I1Cent=   200000004 NGrid=           0
         NMat0=    1 NMatS0=      1 NMatT0=    0 NMatD0=    1 NMtDS0=    0 NMtDT0=    0
 Petite list used in FoFCou.
 Initial guess <Sx>= 0.0000 <Sy>= 0.0000 <Sz>= 1.0000 <S**2>= 2.0000 S= 1.0000
 Requested convergence on RMS density matrix=1.00D-08 within 128 cycles.
 Requested convergence on MAX density matrix=1.00D-06.
 Requested convergence on             energy=1.00D-06.
 No special actions if energy rises.
 Restarting incremental Fock formation.
 SCF Done:  E(UB3LYP) =  -961.252112023     A.U. after   23 cycles
            NFock= 23  Conv=0.62D-08     -V/T= 2.0045
 <Sx>= 0.0000 <Sy>= 0.0000 <Sz>= 1.0000 <S**2>= 2.0461 S= 1.0153
 <L.S>= 0.000000000000E+00
 Annihilation of the first spin contaminant:
 S**2 before annihilation     2.0461,   after     2.0013

 **********************************************************************

            Population analysis using the SCF density.

 **********************************************************************

 Orbital symmetries:
 Alpha Orbitals:
       Occupied  (A) (A) (A) (A) (A) (A) (A) (A) (A) (A) (A) (A)
                 (A) (A) (A) (A) (A) (A) (A) (A) (A) (A) (A) (A)
                 (A) (A) (A) (A) (A) (A) (A) (A) (A) (A) (A) (A)
                 (A) (A) (A) (A) (A) (A) (A) (A) (A) (A) (A) (A)
                 (A) (A) (A) (A) (A) (A) (A) (A) (A) (A) (A) (A)
                 (A) (A) (A) (A) (A) (A) (A) (A) (A) (A) (A) (A)
                 (A) (A) (A) (A) (A) (A) (A) (A) (A) (A) (A)
       Virtual   (A) (A) (A) (A) (A) (A) (A) (A) (A) (A) (A) (A)
                 (A) (A) (A) (A) (A) (A) (A) (A) (A) (A) (A) (A)
                 (A) (A) (A) (A) (A) (A) (A) (A) (A) (A) (A) (A)
                 (A) (A) (A) (A) (A) (A) (A) (A) (A) (A) (A) (A)
                 (A) (A) (A) (A) (A) (A) (A) (A) (A) (A) (A) (A)
                 (A) (A) (A) (A) (A) (A) (A) (A) (A) (A) (A) (A)
                 (A) (A) (A) (A) (A) (A) (A) (A) (A) (A) (A) (A)
                 (A) (A) (A) (A) (A) (A) (A) (A) (A) (A) (A) (A)
                 (A) (A) (A) (A) (A) (A) (A) (A) (A) (A) (A) (A)
                 (A) (A) (A) (A) (A) (A) (A) (A) (A) (A) (A) (A)
                 (A) (A) (A) (A) (A) (A) (A) (A) (A) (A) (A) (A)
                 (A) (A) (A) (A) (A) (A) (A) (A) (A) (A) (A) (A)
                 (A) (A) (A) (A) (A) (A) (A) (A) (A) (A) (A) (A)
                 (A) (A) (A) (A) (A) (A) (A) (A) (A) (A) (A) (A)
                 (A) (A) (A) (A) (A) (A) (A) (A) (A) (A) (A) (A)
                 (A) (A) (A) (A) (A) (A) (A) (A) (A) (A) (A) (A)
                 (A) (A) (A) (A) (A) (A) (A) (A) (A) (A) (A) (A)
                 (A) (A) (A) (A) (A) (A) (A) (A) (A) (A) (A) (A)
                 (A) (A) (A) (A) (A) (A) (A) (A) (A) (A) (A) (A)
                 (A) (A) (A) (A) (A) (A) (A) (A) (A) (A) (A) (A)
                 (A) (A) (A) (A) (A) (A) (A) (A) (A) (A) (A) (A)
                 (A) (A) (A) (A) (A) (A) (A) (A) (A) (A) (A) (A)
                 (A) (A) (A) (A) (A) (A) (A) (A) (A) (A) (A) (A)
                 (A) (A) (A) (A) (A) (A) (A) (A) (A) (A) (A) (A)
                 (A) (A) (A) (A) (A) (A) (A) (A) (A) (A) (A) (A)
                 (A) (A) (A) (A) (A) (A) (A) (A) (A) (A) (A) (A)
                 (A) (A) (A) (A) (A) (A) (A) (A) (A) (A) (A) (A)
                 (A) (A) (A) (A) (A) (A) (A) (A) (A) (A) (A) (A)
                 (A) (A) (A) (A) (A) (A) (A) (A) (A) (A) (A) (A)
                 (A) (A) (A) (A) (A) (A) (A) (A) (A) (A) (A) (A)
                 (A) (A) (A) (A) (A) (A) (A) (A) (A) (A) (A) (A)
                 (A) (A) (A) (A) (A) (A) (A) (A) (A) (A) (A) (A)
                 (A) (A) (A) (A) (A) (A) (A) (A) (A) (A) (A) (A)
                 (A) (A) (A) (A) (A) (A) (A) (A) (A) (A) (A) (A)
                 (A) (A) (A) (A) (A) (A) (A) (A) (A) (A) (A) (A)
                 (A) (A) (A) (A) (A) (A) (A) (A) (A) (A) (A) (A)
                 (A) (A) (A) (A) (A) (A) (A) (A) (A) (A) (A) (A)
                 (A) (A) (A) (A) (A) (A) (A) (A) (A) (A) (A) (A)
                 (A) (A) (A) (A) (A) (A) (A) (A) (A) (A) (A) (A)
                 (A) (A) (A) (A) (A) (A) (A) (A) (A) (A) (A) (A)
                 (A) (A) (A) (A) (A) (A) (A) (A) (A) (A) (A) (A)
                 (A) (A) (A) (A) (A) (A) (A) (A) (A) (A) (A) (A)
                 (A) (A) (A) (A) (A) (A) (A) (A) (A) (A) (A) (A)
                 (A) (A) (A) (A) (A) (A) (A) (A) (A) (A) (A) (A)
                 (A) (A) (A) (A) (A) (A) (A) (A) (A)
 Beta  Orbitals:
       Occupied  (A) (A) (A) (A) (A) (A) (A) (A) (A) (A) (A) (A)
                 (A) (A) (A) (A) (A) (A) (A) (A) (A) (A) (A) (A)
                 (A) (A) (A) (A) (A) (A) (A) (A) (A) (A) (A) (A)
                 (A) (A) (A) (A) (A) (A) (A) (A) (A) (A) (A) (A)
                 (A) (A) (A) (A) (A) (A) (A) (A) (A) (A) (A) (A)
                 (A) (A) (A) (A) (A) (A) (A) (A) (A) (A) (A) (A)
                 (A) (A) (A) (A) (A) (A) (A) (A) (A)
       Virtual   (A) (A) (A) (A) (A) (A) (A) (A) (A) (A) (A) (A)
                 (A) (A) (A) (A) (A) (A) (A) (A) (A) (A) (A) (A)
                 (A) (A) (A) (A) (A) (A) (A) (A) (A) (A) (A) (A)
                 (A) (A) (A) (A) (A) (A) (A) (A) (A) (A) (A) (A)
                 (A) (A) (A) (A) (A) (A) (A) (A) (A) (A) (A) (A)
                 (A) (A) (A) (A) (A) (A) (A) (A) (A) (A) (A) (A)
                 (A) (A) (A) (A) (A) (A) (A) (A) (A) (A) (A) (A)
                 (A) (A) (A) (A) (A) (A) (A) (A) (A) (A) (A) (A)
                 (A) (A) (A) (A) (A) (A) (A) (A) (A) (A) (A) (A)
                 (A) (A) (A) (A) (A) (A) (A) (A) (A) (A) (A) (A)
                 (A) (A) (A) (A) (A) (A) (A) (A) (A) (A) (A) (A)
                 (A) (A) (A) (A) (A) (A) (A) (A) (A) (A) (A) (A)
                 (A) (A) (A) (A) (A) (A) (A) (A) (A) (A) (A) (A)
                 (A) (A) (A) (A) (A) (A) (A) (A) (A) (A) (A) (A)
                 (A) (A) (A) (A) (A) (A) (A) (A) (A) (A) (A) (A)
                 (A) (A) (A) (A) (A) (A) (A) (A) (A) (A) (A) (A)
                 (A) (A) (A) (A) (A) (A) (A) (A) (A) (A) (A) (A)
                 (A) (A) (A) (A) (A) (A) (A) (A) (A) (A) (A) (A)
                 (A) (A) (A) (A) (A) (A) (A) (A) (A) (A) (A) (A)
                 (A) (A) (A) (A) (A) (A) (A) (A) (A) (A) (A) (A)
                 (A) (A) (A) (A) (A) (A) (A) (A) (A) (A) (A) (A)
                 (A) (A) (A) (A) (A) (A) (A) (A) (A) (A) (A) (A)
                 (A) (A) (A) (A) (A) (A) (A) (A) (A) (A) (A) (A)
                 (A) (A) (A) (A) (A) (A) (A) (A) (A) (A) (A) (A)
                 (A) (A) (A) (A) (A) (A) (A) (A) (A) (A) (A) (A)
                 (A) (A) (A) (A) (A) (A) (A) (A) (A) (A) (A) (A)
                 (A) (A) (A) (A) (A) (A) (A) (A) (A) (A) (A) (A)
                 (A) (A) (A) (A) (A) (A) (A) (A) (A) (A) (A) (A)
                 (A) (A) (A) (A) (A) (A) (A) (A) (A) (A) (A) (A)
                 (A) (A) (A) (A) (A) (A) (A) (A) (A) (A) (A) (A)
                 (A) (A) (A) (A) (A) (A) (A) (A) (A) (A) (A) (A)
                 (A) (A) (A) (A) (A) (A) (A) (A) (A) (A) (A) (A)
                 (A) (A) (A) (A) (A) (A) (A) (A) (A) (A) (A) (A)
                 (A) (A) (A) (A) (A) (A) (A) (A) (A) (A) (A) (A)
                 (A) (A) (A) (A) (A) (A) (A) (A) (A) (A) (A) (A)
                 (A) (A) (A) (A) (A) (A) (A) (A) (A) (A) (A) (A)
                 (A) (A) (A) (A) (A) (A) (A) (A) (A) (A) (A) (A)
                 (A) (A) (A) (A) (A) (A) (A) (A) (A) (A) (A) (A)
                 (A) (A) (A) (A) (A) (A) (A) (A) (A) (A) (A) (A)
                 (A) (A) (A) (A) (A) (A) (A) (A) (A) (A) (A) (A)
                 (A) (A) (A) (A) (A) (A) (A) (A) (A) (A) (A) (A)
                 (A) (A) (A) (A) (A) (A) (A) (A) (A) (A) (A) (A)
                 (A) (A) (A) (A) (A) (A) (A) (A) (A) (A) (A) (A)
                 (A) (A) (A) (A) (A) (A) (A) (A) (A) (A) (A) (A)
                 (A) (A) (A) (A) (A) (A) (A) (A) (A) (A) (A)
 The electronic state is 3-A.
 Alpha  occ. eigenvalues --  -10.20997 -10.20873 -10.20509 -10.19656 -10.19252
 Alpha  occ. eigenvalues --  -10.19248 -10.19155 -10.19145 -10.19066 -10.19049
 Alpha  occ. eigenvalues --  -10.18967 -10.18925 -10.18744 -10.18606 -10.18516
 Alpha  occ. eigenvalues --  -10.18405 -10.18364 -10.18316 -10.18281 -10.18232
 Alpha  occ. eigenvalues --  -10.18126 -10.18066 -10.17956 -10.17885 -10.17414
 Alpha  occ. eigenvalues --   -0.93306  -0.88935  -0.87013  -0.85442  -0.83120
 Alpha  occ. eigenvalues --   -0.80575  -0.79236  -0.76720  -0.75954  -0.75216
 Alpha  occ. eigenvalues --   -0.73441  -0.70879  -0.68812  -0.64682  -0.64138
 Alpha  occ. eigenvalues --   -0.63009  -0.62015  -0.60807  -0.58851  -0.58313
 Alpha  occ. eigenvalues --   -0.54220  -0.53189  -0.52249  -0.52029  -0.51071
 Alpha  occ. eigenvalues --   -0.49096  -0.48301  -0.47652  -0.46237  -0.46022
 Alpha  occ. eigenvalues --   -0.44377  -0.43427  -0.43179  -0.42655  -0.42132
 Alpha  occ. eigenvalues --   -0.41238  -0.40857  -0.40633  -0.39897  -0.39741
 Alpha  occ. eigenvalues --   -0.39192  -0.37545  -0.37282  -0.36583  -0.35821
 Alpha  occ. eigenvalues --   -0.34605  -0.34233  -0.33607  -0.32807  -0.32642
 Alpha  occ. eigenvalues --   -0.30553  -0.29154  -0.27528  -0.25709  -0.23922
 Alpha  occ. eigenvalues --   -0.22502  -0.19514  -0.15157
 Alpha virt. eigenvalues --   -0.05600  -0.04501  -0.02545  -0.00300   0.00101
 Alpha virt. eigenvalues --    0.00643   0.00773   0.00926   0.01687   0.01863
 Alpha virt. eigenvalues --    0.02125   0.02331   0.03020   0.03309   0.03471
 Alpha virt. eigenvalues --    0.04400   0.04963   0.05143   0.05479   0.05978
 Alpha virt. eigenvalues --    0.06374   0.06575   0.06712   0.06893   0.07640
 Alpha virt. eigenvalues --    0.07735   0.07973   0.08900   0.09600   0.09651
 Alpha virt. eigenvalues --    0.10018   0.10382   0.10537   0.11242   0.11497
 Alpha virt. eigenvalues --    0.12049   0.12172   0.12455   0.12629   0.12968
 Alpha virt. eigenvalues --    0.13471   0.13728   0.14207   0.14634   0.14928
 Alpha virt. eigenvalues --    0.15149   0.15668   0.15949   0.16302   0.16472
 Alpha virt. eigenvalues --    0.16709   0.16893   0.17111   0.17250   0.17377
 Alpha virt. eigenvalues --    0.17841   0.17965   0.18270   0.18518   0.18799
 Alpha virt. eigenvalues --    0.18957   0.19074   0.19449   0.19790   0.20073
 Alpha virt. eigenvalues --    0.20227   0.20454   0.20701   0.21108   0.21215
 Alpha virt. eigenvalues --    0.21264   0.21491   0.21662   0.22252   0.22300
 Alpha virt. eigenvalues --    0.22736   0.22919   0.23033   0.23430   0.23827
 Alpha virt. eigenvalues --    0.24012   0.24345   0.24362   0.24656   0.24926
 Alpha virt. eigenvalues --    0.25242   0.25371   0.25775   0.26011   0.26169
 Alpha virt. eigenvalues --    0.26403   0.26737   0.26926   0.27258   0.27946
 Alpha virt. eigenvalues --    0.28545   0.28584   0.28892   0.28976   0.29059
 Alpha virt. eigenvalues --    0.29805   0.29988   0.30083   0.30389   0.30611
 Alpha virt. eigenvalues --    0.31056   0.31262   0.31411   0.31755   0.32192
 Alpha virt. eigenvalues --    0.32402   0.32816   0.33107   0.33163   0.34004
 Alpha virt. eigenvalues --    0.34609   0.34928   0.35554   0.36580   0.36609
 Alpha virt. eigenvalues --    0.37093   0.37490   0.38123   0.38879   0.39083
 Alpha virt. eigenvalues --    0.40321   0.40683   0.41969   0.42341   0.42615
 Alpha virt. eigenvalues --    0.43653   0.44126   0.46021   0.46312   0.47304
 Alpha virt. eigenvalues --    0.48271   0.49303   0.49653   0.50721   0.51075
 Alpha virt. eigenvalues --    0.51978   0.52282   0.52982   0.53782   0.53912
 Alpha virt. eigenvalues --    0.54445   0.54748   0.55056   0.55278   0.55465
 Alpha virt. eigenvalues --    0.56299   0.56441   0.57116   0.57480   0.57948
 Alpha virt. eigenvalues --    0.58124   0.58621   0.59002   0.59473   0.59867
 Alpha virt. eigenvalues --    0.60190   0.61227   0.61630   0.61664   0.62861
 Alpha virt. eigenvalues --    0.63010   0.63548   0.64525   0.65276   0.65519
 Alpha virt. eigenvalues --    0.66056   0.66591   0.66903   0.67643   0.68049
 Alpha virt. eigenvalues --    0.68090   0.68456   0.68925   0.69525   0.70133
 Alpha virt. eigenvalues --    0.70204   0.70560   0.70960   0.71185   0.71304
 Alpha virt. eigenvalues --    0.71864   0.72587   0.72925   0.73173   0.73572
 Alpha virt. eigenvalues --    0.73789   0.74035   0.74428   0.74454   0.75217
 Alpha virt. eigenvalues --    0.75675   0.76185   0.76534   0.77262   0.78038
 Alpha virt. eigenvalues --    0.78589   0.79994   0.81019   0.82213   0.82554
 Alpha virt. eigenvalues --    0.83091   0.83620   0.83753   0.84003   0.84816
 Alpha virt. eigenvalues --    0.85124   0.85942   0.87456   0.87622   0.88027
 Alpha virt. eigenvalues --    0.89251   0.89562   0.90207   0.90984   0.91304
 Alpha virt. eigenvalues --    0.92061   0.92082   0.92348   0.92856   0.93445
 Alpha virt. eigenvalues --    0.94528   0.94597   0.94668   0.95442   0.96390
 Alpha virt. eigenvalues --    0.96664   0.97518   0.97732   0.98708   0.99222
 Alpha virt. eigenvalues --    0.99882   1.00650   1.01550   1.02091   1.02463
 Alpha virt. eigenvalues --    1.03204   1.04550   1.05065   1.06128   1.06607
 Alpha virt. eigenvalues --    1.07557   1.07881   1.08829   1.09114   1.09523
 Alpha virt. eigenvalues --    1.11042   1.11446   1.12233   1.13132   1.13409
 Alpha virt. eigenvalues --    1.15130   1.16071   1.17530   1.18899   1.20394
 Alpha virt. eigenvalues --    1.22191   1.22883   1.23613   1.25748   1.27141
 Alpha virt. eigenvalues --    1.29041   1.30457   1.31952   1.33276   1.34459
 Alpha virt. eigenvalues --    1.34692   1.36245   1.38589   1.40696   1.43259
 Alpha virt. eigenvalues --    1.44225   1.44655   1.44973   1.46437   1.47465
 Alpha virt. eigenvalues --    1.47899   1.48116   1.48750   1.49229   1.49753
 Alpha virt. eigenvalues --    1.49942   1.51477   1.51638   1.52841   1.53143
 Alpha virt. eigenvalues --    1.54239   1.54859   1.55338   1.56395   1.56569
 Alpha virt. eigenvalues --    1.56890   1.57774   1.58424   1.59704   1.60860
 Alpha virt. eigenvalues --    1.62285   1.62497   1.63762   1.64645   1.65529
 Alpha virt. eigenvalues --    1.65878   1.66126   1.67487   1.68248   1.68970
 Alpha virt. eigenvalues --    1.70257   1.71193   1.72516   1.73018   1.73759
 Alpha virt. eigenvalues --    1.74491   1.74871   1.75179   1.76095   1.76577
 Alpha virt. eigenvalues --    1.77637   1.78735   1.79241   1.80132   1.80434
 Alpha virt. eigenvalues --    1.81746   1.83442   1.83902   1.84829   1.86381
 Alpha virt. eigenvalues --    1.86492   1.87446   1.88148   1.88448   1.88962
 Alpha virt. eigenvalues --    1.89510   1.90495   1.90805   1.92164   1.92653
 Alpha virt. eigenvalues --    1.93043   1.93294   1.93912   1.94740   1.95428
 Alpha virt. eigenvalues --    1.95889   1.96366   1.97141   1.98134   1.99093
 Alpha virt. eigenvalues --    1.99746   2.01108   2.01720   2.03040   2.03340
 Alpha virt. eigenvalues --    2.04881   2.05221   2.05868   2.07246   2.08031
 Alpha virt. eigenvalues --    2.09834   2.10091   2.11186   2.11860   2.12593
 Alpha virt. eigenvalues --    2.12672   2.14078   2.15648   2.16883   2.17301
 Alpha virt. eigenvalues --    2.18693   2.20216   2.21014   2.23023   2.23958
 Alpha virt. eigenvalues --    2.24701   2.25602   2.27234   2.28695   2.30841
 Alpha virt. eigenvalues --    2.31210   2.32186   2.33722   2.34377   2.36282
 Alpha virt. eigenvalues --    2.37651   2.39117   2.41469   2.42096   2.43377
 Alpha virt. eigenvalues --    2.44122   2.45647   2.46291   2.47991   2.48324
 Alpha virt. eigenvalues --    2.51241   2.52953   2.54731   2.55575   2.57405
 Alpha virt. eigenvalues --    2.58519   2.59083   2.61446   2.63961   2.65122
 Alpha virt. eigenvalues --    2.65758   2.67645   2.68709   2.69748   2.70679
 Alpha virt. eigenvalues --    2.71361   2.71422   2.71946   2.72142   2.73182
 Alpha virt. eigenvalues --    2.73865   2.74263   2.74713   2.74972   2.75405
 Alpha virt. eigenvalues --    2.76314   2.76984   2.77320   2.77586   2.77991
 Alpha virt. eigenvalues --    2.78696   2.79215   2.79486   2.80838   2.81464
 Alpha virt. eigenvalues --    2.82101   2.83269   2.83846   2.85418   2.86137
 Alpha virt. eigenvalues --    2.86986   2.88330   2.88971   2.89910   2.90767
 Alpha virt. eigenvalues --    2.91064   2.91984   2.92807   2.94408   2.96886
 Alpha virt. eigenvalues --    2.98008   3.00277   3.02521   3.02864   3.05031
 Alpha virt. eigenvalues --    3.07520   3.08994   3.10363   3.12572   3.13418
 Alpha virt. eigenvalues --    3.15685   3.17033   3.18869   3.19891   3.21326
 Alpha virt. eigenvalues --    3.21720   3.23704   3.24349   3.27154   3.28942
 Alpha virt. eigenvalues --    3.32278   3.33864   3.37222   3.37991   3.39009
 Alpha virt. eigenvalues --    3.39265   3.41921   3.42540   3.44086   3.44979
 Alpha virt. eigenvalues --    3.46678   3.49891   3.50421   3.51578   3.53173
 Alpha virt. eigenvalues --    3.56149   3.57653   3.59534   3.62092   3.63166
 Alpha virt. eigenvalues --    3.66473   3.69303   3.73346   3.79073   3.80454
 Alpha virt. eigenvalues --    3.89079   3.95756   4.02400   4.04752   4.06343
 Alpha virt. eigenvalues --    4.07203   4.09739   4.11069   4.12386   4.21675
 Alpha virt. eigenvalues --    4.22157   4.28229   4.32191   4.35844   4.47587
 Alpha virt. eigenvalues --    4.62676   4.74007   4.75288   4.78970   4.80246
 Alpha virt. eigenvalues --    4.83667   4.85801  23.46557  23.60369  23.76935
 Alpha virt. eigenvalues --   23.82279  23.84508  23.86773  23.87354  23.90020
 Alpha virt. eigenvalues --   23.92676  23.93272  23.96738  23.98784  24.00793
 Alpha virt. eigenvalues --   24.01972  24.03131  24.03845  24.06911  24.07529
 Alpha virt. eigenvalues --   24.10547  24.11651  24.12445  24.15879  24.17108
 Alpha virt. eigenvalues --   24.17432  24.18459
  Beta  occ. eigenvalues --  -10.21042 -10.20613 -10.20430 -10.19465 -10.19457
  Beta  occ. eigenvalues --  -10.19330 -10.19242 -10.19045 -10.18975 -10.18889
  Beta  occ. eigenvalues --  -10.18829 -10.18527 -10.18460 -10.18409 -10.18266
  Beta  occ. eigenvalues --  -10.18213 -10.18139 -10.18119 -10.18088 -10.18001
  Beta  occ. eigenvalues --  -10.17998 -10.17887 -10.17843 -10.17831 -10.17498
  Beta  occ. eigenvalues --   -0.92847  -0.88635  -0.86610  -0.85014  -0.82857
  Beta  occ. eigenvalues --   -0.79988  -0.78834  -0.76209  -0.75554  -0.74992
  Beta  occ. eigenvalues --   -0.73074  -0.70019  -0.67884  -0.64511  -0.63902
  Beta  occ. eigenvalues --   -0.62609  -0.61688  -0.60351  -0.58573  -0.57924
  Beta  occ. eigenvalues --   -0.53854  -0.52933  -0.52012  -0.51770  -0.50897
  Beta  occ. eigenvalues --   -0.48835  -0.48088  -0.47400  -0.46003  -0.45804
  Beta  occ. eigenvalues --   -0.44042  -0.43240  -0.42949  -0.42345  -0.41670
  Beta  occ. eigenvalues --   -0.40833  -0.40531  -0.40147  -0.39654  -0.39457
  Beta  occ. eigenvalues --   -0.38906  -0.37139  -0.36357  -0.35932  -0.35420
  Beta  occ. eigenvalues --   -0.34368  -0.33791  -0.33095  -0.32384  -0.31898
  Beta  occ. eigenvalues --   -0.28813  -0.28151  -0.26395  -0.24976  -0.22777
  Beta  occ. eigenvalues --   -0.21896
  Beta virt. eigenvalues --   -0.11919  -0.07726  -0.05024  -0.03298  -0.01847
  Beta virt. eigenvalues --    0.00117   0.00643   0.00748   0.00970   0.01633
  Beta virt. eigenvalues --    0.01788   0.01901   0.02362   0.02898   0.03080
  Beta virt. eigenvalues --    0.03372   0.03520   0.04477   0.05010   0.05244
  Beta virt. eigenvalues --    0.05544   0.06191   0.06553   0.06728   0.06939
  Beta virt. eigenvalues --    0.07127   0.07682   0.07896   0.08180   0.09006
  Beta virt. eigenvalues --    0.09690   0.09953   0.10075   0.10580   0.10675
  Beta virt. eigenvalues --    0.11366   0.11911   0.12317   0.12468   0.12536
  Beta virt. eigenvalues --    0.12814   0.13124   0.13596   0.13898   0.14296
  Beta virt. eigenvalues --    0.14851   0.15034   0.15262   0.15835   0.16046
  Beta virt. eigenvalues --    0.16466   0.16617   0.16908   0.16973   0.17279
  Beta virt. eigenvalues --    0.17343   0.17488   0.17973   0.18128   0.18512
  Beta virt. eigenvalues --    0.18587   0.18972   0.19067   0.19257   0.19709
  Beta virt. eigenvalues --    0.19909   0.20276   0.20375   0.20623   0.20932
  Beta virt. eigenvalues --    0.21168   0.21373   0.21537   0.21588   0.21768
  Beta virt. eigenvalues --    0.22358   0.22416   0.22837   0.23092   0.23270
  Beta virt. eigenvalues --    0.23551   0.23994   0.24100   0.24466   0.24527
  Beta virt. eigenvalues --    0.24833   0.24972   0.25353   0.25480   0.25862
  Beta virt. eigenvalues --    0.26161   0.26461   0.26547   0.26911   0.27030
  Beta virt. eigenvalues --    0.27340   0.28052   0.28635   0.28688   0.29017
  Beta virt. eigenvalues --    0.29070   0.29311   0.29963   0.30116   0.30255
  Beta virt. eigenvalues --    0.30532   0.30739   0.31143   0.31428   0.31588
  Beta virt. eigenvalues --    0.31867   0.32347   0.32484   0.32958   0.33249
  Beta virt. eigenvalues --    0.33315   0.34189   0.34756   0.35075   0.35768
  Beta virt. eigenvalues --    0.36692   0.36854   0.37232   0.37692   0.38281
  Beta virt. eigenvalues --    0.39092   0.39234   0.40465   0.40861   0.42255
  Beta virt. eigenvalues --    0.42528   0.42936   0.43955   0.44386   0.46181
  Beta virt. eigenvalues --    0.46584   0.47488   0.48505   0.49607   0.49955
  Beta virt. eigenvalues --    0.51024   0.51446   0.52166   0.52407   0.53276
  Beta virt. eigenvalues --    0.54009   0.54333   0.54773   0.55051   0.55378
  Beta virt. eigenvalues --    0.55691   0.55792   0.56477   0.56628   0.57424
  Beta virt. eigenvalues --    0.57768   0.58328   0.58519   0.58918   0.59659
  Beta virt. eigenvalues --    0.59832   0.60048   0.60720   0.61560   0.61819
  Beta virt. eigenvalues --    0.62138   0.63176   0.63398   0.63740   0.64706
  Beta virt. eigenvalues --    0.65359   0.66149   0.66347   0.66932   0.67632
  Beta virt. eigenvalues --    0.67889   0.68342   0.68376   0.68642   0.69137
  Beta virt. eigenvalues --    0.69765   0.70293   0.70456   0.70957   0.71271
  Beta virt. eigenvalues --    0.71454   0.71662   0.72075   0.72803   0.73105
  Beta virt. eigenvalues --    0.73371   0.73799   0.73955   0.74237   0.74570
  Beta virt. eigenvalues --    0.74640   0.75388   0.75925   0.76552   0.76732
  Beta virt. eigenvalues --    0.77545   0.78185   0.78932   0.80249   0.81378
  Beta virt. eigenvalues --    0.82440   0.82785   0.83327   0.83712   0.83928
  Beta virt. eigenvalues --    0.84276   0.85026   0.85221   0.86146   0.87654
  Beta virt. eigenvalues --    0.87958   0.88324   0.89537   0.89814   0.90537
  Beta virt. eigenvalues --    0.91198   0.91616   0.92291   0.92413   0.92512
  Beta virt. eigenvalues --    0.93079   0.93748   0.94757   0.94942   0.95146
  Beta virt. eigenvalues --    0.95753   0.96602   0.96904   0.97758   0.98027
  Beta virt. eigenvalues --    0.99027   0.99419   1.00143   1.00974   1.01862
  Beta virt. eigenvalues --    1.02460   1.02919   1.03383   1.04898   1.05361
  Beta virt. eigenvalues --    1.06373   1.06895   1.07910   1.08155   1.09147
  Beta virt. eigenvalues --    1.09488   1.10031   1.11303   1.11826   1.12413
  Beta virt. eigenvalues --    1.13533   1.13811   1.15463   1.16405   1.17878
  Beta virt. eigenvalues --    1.19221   1.20641   1.22591   1.23280   1.23960
  Beta virt. eigenvalues --    1.26205   1.27434   1.29412   1.30743   1.32223
  Beta virt. eigenvalues --    1.33554   1.34793   1.35010   1.36600   1.38931
  Beta virt. eigenvalues --    1.41093   1.43504   1.44589   1.44877   1.45263
  Beta virt. eigenvalues --    1.47142   1.47712   1.48143   1.48379   1.48984
  Beta virt. eigenvalues --    1.49619   1.50167   1.50280   1.51719   1.51845
  Beta virt. eigenvalues --    1.53139   1.53321   1.54548   1.55217   1.55521
  Beta virt. eigenvalues --    1.56668   1.56859   1.57313   1.58053   1.58991
  Beta virt. eigenvalues --    1.60080   1.61165   1.62623   1.62768   1.64105
  Beta virt. eigenvalues --    1.65048   1.65779   1.66029   1.66529   1.67838
  Beta virt. eigenvalues --    1.68606   1.69168   1.70424   1.71395   1.72706
  Beta virt. eigenvalues --    1.73308   1.73980   1.74775   1.75048   1.75457
  Beta virt. eigenvalues --    1.76338   1.76740   1.78021   1.79103   1.79707
  Beta virt. eigenvalues --    1.80457   1.80889   1.82344   1.83622   1.84235
  Beta virt. eigenvalues --    1.85416   1.86761   1.86941   1.87840   1.88589
  Beta virt. eigenvalues --    1.88918   1.89488   1.89955   1.90823   1.91119
  Beta virt. eigenvalues --    1.92395   1.92925   1.93362   1.93636   1.94326
  Beta virt. eigenvalues --    1.95098   1.95730   1.96227   1.96749   1.97278
  Beta virt. eigenvalues --    1.98764   1.99534   1.99992   2.01312   2.02007
  Beta virt. eigenvalues --    2.03329   2.03663   2.05179   2.05511   2.06350
  Beta virt. eigenvalues --    2.07570   2.08469   2.10144   2.10402   2.11569
  Beta virt. eigenvalues --    2.12274   2.12962   2.13049   2.14311   2.16036
  Beta virt. eigenvalues --    2.17028   2.17708   2.19009   2.20448   2.21522
  Beta virt. eigenvalues --    2.23273   2.24221   2.25045   2.26011   2.27438
  Beta virt. eigenvalues --    2.29083   2.31221   2.31606   2.32630   2.34057
  Beta virt. eigenvalues --    2.34816   2.36558   2.37882   2.39403   2.41702
  Beta virt. eigenvalues --    2.42274   2.43489   2.44254   2.45959   2.46581
  Beta virt. eigenvalues --    2.48486   2.48718   2.51777   2.53247   2.54938
  Beta virt. eigenvalues --    2.55750   2.57622   2.58792   2.59437   2.61711
  Beta virt. eigenvalues --    2.64222   2.65549   2.66266   2.67938   2.69253
  Beta virt. eigenvalues --    2.70343   2.70752   2.71493   2.71678   2.72249
  Beta virt. eigenvalues --    2.72334   2.73254   2.73971   2.74355   2.74854
  Beta virt. eigenvalues --    2.75131   2.75536   2.76622   2.77207   2.77505
  Beta virt. eigenvalues --    2.77642   2.78127   2.78895   2.79374   2.79959
  Beta virt. eigenvalues --    2.81380   2.81723   2.82493   2.83895   2.84192
  Beta virt. eigenvalues --    2.85755   2.86490   2.87655   2.88525   2.89406
  Beta virt. eigenvalues --    2.90232   2.91001   2.91565   2.92700   2.93148
  Beta virt. eigenvalues --    2.94790   2.97323   2.98589   3.01223   3.03008
  Beta virt. eigenvalues --    3.04028   3.05362   3.08023   3.09535   3.10849
  Beta virt. eigenvalues --    3.12784   3.13718   3.16043   3.17609   3.19046
  Beta virt. eigenvalues --    3.20046   3.21454   3.21844   3.23829   3.24453
  Beta virt. eigenvalues --    3.27307   3.29141   3.32439   3.34007   3.37383
  Beta virt. eigenvalues --    3.38049   3.39130   3.39390   3.42045   3.42832
  Beta virt. eigenvalues --    3.44216   3.45091   3.46848   3.50061   3.50574
  Beta virt. eigenvalues --    3.51652   3.53295   3.56401   3.57857   3.59748
  Beta virt. eigenvalues --    3.62278   3.63404   3.66893   3.69523   3.73607
  Beta virt. eigenvalues --    3.79443   3.80681   3.89325   3.96106   4.02595
  Beta virt. eigenvalues --    4.05054   4.06570   4.07436   4.09861   4.11578
  Beta virt. eigenvalues --    4.12530   4.22034   4.22549   4.28555   4.32522
  Beta virt. eigenvalues --    4.36121   4.48075   4.63046   4.74540   4.75519
  Beta virt. eigenvalues --    4.79340   4.80577   4.83905   4.85974  23.46673
  Beta virt. eigenvalues --   23.60471  23.77123  23.82343  23.84577  23.86925
  Beta virt. eigenvalues --   23.87543  23.90316  23.92754  23.93368  23.96820
  Beta virt. eigenvalues --   23.98999  24.00847  24.02348  24.03682  24.03989
  Beta virt. eigenvalues --   24.07233  24.07643  24.10592  24.11809  24.12532
  Beta virt. eigenvalues --   24.15902  24.17256  24.17467  24.18501
          Condensed to atoms (all electrons):
               1          2          3          4          5          6
     1  C   10.541590   1.943199  -1.657258   0.257028  -2.916758   0.677634
     2  C    1.943199   9.664138   1.087754   0.243437  -1.337752   1.202769
     3  C   -1.657258   1.087754  10.061431   1.482197   2.015998  -2.073322
     4  C    0.257028   0.243437   1.482197   9.476116  -1.003244  -1.287804
     5  C   -2.916758  -1.337752   2.015998  -1.003244  12.133851  -1.219603
     6  C    0.677634   1.202769  -2.073322  -1.287804  -1.219603  11.611622
     7  C   -0.552572  -1.222110   0.327478   0.520035   0.035815  -1.247647
     8  C   -0.371232  -0.317445   0.409911  -0.298861   0.155218  -0.810243
     9  C    0.037809  -0.550984   0.095747  -0.125630  -0.427044  -0.645126
    10  C   -0.472721  -0.415519  -0.075001   0.820402   0.216671  -0.806004
    11  C   -0.092244  -0.526856   0.079657  -0.553610  -0.112947  -0.101215
    12  C   -0.123777  -0.224720  -0.498112  -0.417863   0.016990  -0.041118
    13  C   -0.048008  -0.181057  -0.373669  -0.208915   0.005176  -0.244097
    14  C   -0.014325  -0.297462  -0.681319  -0.862146  -0.217788  -0.203831
    15  C   -0.037872  -0.297601  -0.532044  -0.307661   0.037138  -0.101838
    16  C    0.036932   0.040031   0.042257   0.010469  -0.002856   0.004417
    17  C    0.006191   0.032618   0.065539  -0.026556  -0.002184  -0.008069
    18  C   -0.022045  -0.069205  -0.298551  -0.119583   0.004878   0.004546
    19  C   -0.650618  -1.592340  -2.167423  -0.485558  -1.229138   1.321598
    20  C   -0.155357   0.697763   0.309528   0.012480  -0.460481  -0.274620
    21  C    0.888743  -2.457192  -2.016263  -0.306550   0.575269   0.404598
    22  C   -0.007523   1.803185  -0.899123  -0.712277  -1.364783   0.748928
    23  C   -1.679985  -1.895573   0.820544  -0.547761   1.211837  -1.149374
    24  H   -0.026574   0.027943   0.017365  -0.000731  -0.004593  -0.002468
    25  H    0.009879  -0.007566   0.009458  -0.000314   0.010478  -0.001728
    26  H   -0.073147   0.044226   0.009300   0.007782   0.025265   0.015544
    27  H   -0.063023   0.003995  -0.027580   0.000934   0.364296  -0.018972
    28  H   -0.060189  -0.019680   0.045374  -0.094128   0.076811   0.324529
    29  H    0.007681  -0.001946  -0.001723  -0.060405   0.006545   0.043688
    30  H    0.000123   0.001541   0.009857   0.034041   0.001003   0.006928
    31  H   -0.000008   0.000148   0.000596   0.001359  -0.000018   0.000204
    32  H   -0.000005   0.000013  -0.000229   0.000329   0.000003   0.000023
    33  H    0.000035   0.000352  -0.000045  -0.000146   0.000007  -0.000029
    34  H    0.000001   0.000016   0.000016   0.000052   0.000000   0.000002
    35  C   -0.048187  -0.217644  -0.587293  -0.406040  -0.111528   0.389288
    36  C    0.348015   1.067358   0.443165   0.313032  -0.054823   0.032447
    37  H   -0.006099   0.053997   0.046445   0.020119   0.000021   0.002434
    38  H    0.000482  -0.000857  -0.001842  -0.000606   0.000037  -0.000004
    39  H    0.010459   0.027055   0.016336   0.004711   0.000229   0.000893
               7          8          9         10         11         12
     1  C   -0.552572  -0.371232   0.037809  -0.472721  -0.092244  -0.123777
     2  C   -1.222110  -0.317445  -0.550984  -0.415519  -0.526856  -0.224720
     3  C    0.327478   0.409911   0.095747  -0.075001   0.079657  -0.498112
     4  C    0.520035  -0.298861  -0.125630   0.820402  -0.553610  -0.417863
     5  C    0.035815   0.155218  -0.427044   0.216671  -0.112947   0.016990
     6  C   -1.247647  -0.810243  -0.645126  -0.806004  -0.101215  -0.041118
     7  C   11.290896   0.353103   0.257345   1.212396  -1.232128  -0.258569
     8  C    0.353103   7.300865   0.973483   0.221965   0.585242  -0.378522
     9  C    0.257345   0.973483  12.372571   0.014315   0.376049  -0.011156
    10  C    1.212396   0.221965   0.014315   8.665666  -0.901352  -0.818690
    11  C   -1.232128   0.585242   0.376049  -0.901352   8.752158   2.169943
    12  C   -0.258569  -0.378522  -0.011156  -0.818690   2.169943  11.602292
    13  C   -0.640046   0.322551  -1.809822  -0.665238  -0.266932  -0.365538
    14  C   -1.492168  -0.230952  -0.474579  -1.783105   0.636279  -0.448562
    15  C    0.216189  -0.279155  -1.058982   0.100146   0.304031  -0.932795
    16  C   -0.549811  -0.471187   0.078262   0.073785  -0.750734   0.632623
    17  C   -0.117251   0.037439  -0.255561  -0.141566   0.785790  -0.175008
    18  C    0.026455  -1.069636  -1.229324   0.047374  -1.364041  -2.242820
    19  C   -0.153164  -0.118499  -0.117813   0.004670  -0.030911  -0.013362
[...]
 65,0.00099689,0.00023249,-0.00066361,-0.00095737,-0.00016111,-0.006834
 94,-0.10351547,0.01703919,-0.01296071,-0.02873569,0.01540764,0.0005968
 4,0.00534317,0.00301663,-0.00320200,-0.00080420,0.00056149,0.00277770,
 -0.00286914,-0.00241405,-0.00310101,0.00401790,-0.00008969,0.00342988,
 -0.00381984,0.00016430,-0.00458714,-0.00114339,0.00053099,-0.01277229,
 0.01451824,-0.00354028,0.00019612,-0.00345004,0.00343792,0.00064584,0.
 00212026,-0.00071548,0.00252182,-0.00314125,0.00037958,0.00190603,0.00
 103504,0.00059414,0.00053545,-0.00174933,-0.00028283,-0.00092499,-0.00
 036878,0.00019399,-0.00768068,0.00117960,0.00122672,0.02370799,-0.0032
 9241,0.02480369,-0.00014816,-0.00004957,-0.00011673,0.00010034,-0.0000
 0475,-0.00006168,-0.00006039,-0.00000405,-0.00000201,-0.00000818,-0.00
 008301,0.00009420,0.00004106,-0.00003185,-0.00001722,-0.00000649,-0.00
 010806,-0.00000101,-0.00028851,-0.00016959,-0.00012092,0.00005614,-0.0
 0004517,-0.00009218,0.00009651,-0.00008015,-0.00002735,-0.00028678,0.0
 0023101,-0.00004026,-0.00028767,-0.00016853,-0.00008533,-0.05886237,0.
 28753479,-0.00144088,-0.00157145,-0.00015212,0.00075183,-0.00202729,0.
 00041095,-0.00004966,-0.00869443,0.00534758,0.00387834,0.00021932,-0.0
 0191849,0.00020429,0.00097386,0.00016855,-0.00120261,-0.00097608,-0.00
 013813,0.03027619,0.09926719,-0.05122266,-0.00604831,0.00313242,-0.005
 05524,-0.00245677,0.00274180,0.00034575,0.00152144,-0.00157653,-0.0006
 0401,-0.00017115,0.00017042,-0.00107651,0.00119910,-0.00205164,-0.0006
 2690,-0.00090879,0.00250405,-0.00017259,0.00260722,-0.00037806,0.00002
 198,0.01368230,-0.00708765,0.00597779,0.00216200,0.00443798,0.00349434
 ,0.00100910,-0.00182558,0.00012767,-0.00292543,0.00096982,0.00036334,0
 .00161226,0.00177613,0.00066623,0.00029563,-0.00117595,0.00002260,0.00
 190992,0.00107276,-0.00048551,-0.01164958,0.00193089,0.00019530,-0.049
 59789,-0.04744356,-0.16514593,-0.00016106,-0.00001462,-0.00010494,0.00
 014774,-0.00008648,0.00002733,0.00001184,0.00005705,-0.00014598,0.0000
 1704,-0.00001511,-0.00003966,0.00019881,-0.00010288,0.00008185,-0.0000
 0284,-0.00003944,0.00004370,0.00007427,-0.00000534,0.00002896,-0.00001
 541,-0.00003000,0.00001431,0.00004587,0.00006984,0.00012090,0.00005409
 ,-0.00010319,-0.00006521,0.00011009,0.00003251,-0.00036505,-0.11920307
 ,-0.11393641,0.50988842,0.00135233,0.00236520,0.00077295,0.00009983,-0
 .00005670,0.00035928,-0.00159000,0.00058407,0.00159117,-0.00341217,-0.
 00394064,0.00050300,-0.00099824,-0.00200076,-0.00043076,0.00210330,-0.
 00024002,-0.00037491,0.00334117,0.00285406,-0.00568162,-0.00962744,0.0
 0678392,-0.00081341,-0.00739962,-0.00403238,0.00186096,0.00663384,0.00
 007733,-0.00095583,0.01249093,-0.03447963,0.01419297,0.01648248,-0.002
 95178,-0.00222722,-0.00437066,0.00723909,-0.00002868,0.00909144,0.0006
 2209,-0.00169697,-0.18545713,-0.06002354,0.05926039,-0.07721961,-0.004
 99926,0.02116165,0.00620627,0.01857986,-0.00696908,-0.00956920,-0.0036
 3921,0.00267999,-0.00087430,-0.00258079,-0.00095953,-0.00159888,0.0017
 3103,0.00068548,0.00151579,-0.00024371,0.00004633,-0.00071277,0.000083
 15,-0.00189990,-0.02974704,0.01263988,-0.02240378,0.00000822,0.0000772
 6,-0.00012683,0.00001333,0.00002834,0.00005146,0.00003348,-0.00005552,
 -0.00000858,0.00000609,-0.00005532,0.00004323,0.00010768,-0.00004664,-
 0.00014563,0.00003688,0.00000517,0.00013444,-0.00001151,-0.00003732,-0
 .00020921,-0.00011918,0.00026582,-0.00020444,0.00012127,0.00000575,0.0
 0021618,0.00100665,-0.00170315,0.00071227,-0.00062388,-0.00040372,0.00
 009578,-0.20854229,0.06016219,0.02120219,0.55405688,0.00013719,0.00030
 526,-0.00013276,-0.00014773,-0.00007076,-0.00020542,-0.00142144,-0.001
 26791,0.00434807,-0.00003613,-0.00090270,0.00025728,0.00000162,-0.0005
 0705,-0.00000954,0.00046254,-0.00013790,-0.00039422,0.03113401,-0.0163
 9331,0.00879089,-0.00601349,0.00657490,-0.00220076,-0.00586436,-0.0034
 3320,0.00099520,0.00343963,-0.00036199,-0.00052013,-0.02307874,-0.0348
 9518,0.02284138,0.01487287,-0.01080580,0.00004144,-0.00498854,0.006268
 19,-0.00015794,0.00727673,-0.00049417,-0.00122272,-0.04824573,-0.13819
 397,0.05547592,-0.01378439,0.02116004,-0.00270033,0.00755253,0.0035126
 2,-0.00182090,-0.00818052,0.00089286,0.00107188,-0.00046749,-0.0001685
 2,-0.00004324,0.00007977,0.00021842,0.00047540,-0.00017862,0.00027102,
 0.00012934,-0.00018341,0.00030099,-0.00315925,-0.00894351,-0.00076802,
 0.00323671,0.00003602,0.00010248,-0.00015911,-0.00010823,0.00000839,-0
 .00003437,0.00002685,0.00002474,-0.00003126,-0.00002251,0.00001705,0.0
 0005705,0.00009804,0.00000274,-0.00006529,-0.00003266,0.00004227,-0.00
 004268,0.00021026,0.00006470,0.00003083,-0.00006556,-0.00042871,0.0000
 9296,-0.00005992,0.00020501,0.00007125,0.00116113,0.00030895,-0.000977
 45,0.00100196,0.00064410,-0.00026776,0.05515313,-0.09635146,0.01495454
 ,-0.02955269,0.53616912,-0.00050477,-0.00075160,0.00020654,-0.00073362
 ,0.00030229,0.00067462,0.00015033,-0.00168140,-0.00118332,0.00170540,0
 .00203881,-0.00028761,0.00031295,0.00047183,0.00003689,-0.00064065,0.0
 0010828,0.00007888,-0.00750910,0.00450612,-0.00384688,0.00436683,-0.00
 311965,0.00039930,0.00499811,0.00212808,-0.00148235,-0.00375257,0.0001
 0180,0.00090298,0.00823463,0.02330609,-0.00775952,-0.01030958,0.005908
 24,0.00407323,0.00321951,-0.00467599,0.00034109,-0.00579672,0.00014044
 ,0.00067517,0.05353829,0.05797552,-0.08683282,0.02891846,-0.00610965,0
 .00183818,-0.00570578,-0.00553738,0.00743947,0.00676433,0.00127036,-0.
 00262875,0.00007188,0.00070864,0.00020148,0.00020067,-0.00051598,-0.00
 003303,-0.00032706,0.00026094,-0.00001488,-0.00042314,0.00170502,-0.00
 235702,-0.01993652,0.00962754,0.00081233,0.00002537,0.00000125,-0.0001
 0488,-0.00003131,-0.00001958,0.00003421,0.00001424,0.00003602,-0.00005
 894,-0.00001694,0.00003737,-0.00003434,-0.00000576,0.00000800,0.000017
 78,-0.00002265,-0.00001474,-0.00001704,-0.00009070,0.00002077,0.000070
 96,0.00004134,0.00011280,0.00009689,-0.00014713,-0.00021864,-0.0006262
 8,-0.00126449,-0.00057432,-0.00246100,-0.00030501,-0.00020913,0.000363
 92,0.00886845,0.01724942,-0.06632542,-0.07310239,-0.20808415,0.2251764
 1,-0.00045679,0.00016993,0.00017018,0.00084406,-0.00028270,0.00069993,
 0.00063922,0.00051065,-0.00108764,0.00007682,-0.00003925,-0.00020539,-
 0.00005661,-0.00010088,-0.00004639,0.00009879,-0.00002780,0.00002863,-
 0.00044929,0.00132113,-0.00163503,-0.00046200,-0.00068374,0.00051098,-
 0.00015294,0.00035450,0.00015036,0.00011375,-0.00003081,-0.00000032,0.
 00020390,0.00007254,0.00001592,0.00002804,0.00010381,-0.00000537,0.000
 11700,-0.00006467,-0.00001416,-0.00010617,-0.00012084,-0.00003127,-0.0
 0226038,0.00435971,0.00001438,-0.00093056,-0.00120652,0.00003149,-0.00
 016716,0.00034256,-0.00007125,-0.00008229,-0.00014257,0.00006120,0.000
 12664,0.00014482,-0.00000747,0.00003612,-0.00008384,-0.00000932,-0.000
 02340,-0.00020413,-0.00014518,0.00119613,-0.00041563,-0.00056490,0.007
 19082,0.00167742,-0.01367441,0.00000936,0.00002941,-0.00000747,0.00000
 867,-0.00001507,0.00002924,0.00001370,0.00000491,-0.00000710,0.0000052
 9,-0.00000950,-0.00001333,-0.00000329,-0.00000559,0.00002589,0.0000113
 7,-0.00001491,0.00000384,-0.00000766,-0.00002089,-0.00001859,-0.000008
 26,-0.00001887,0.00000756,-0.00000868,-0.00002612,-0.00000859,0.000001
 10,0.00004806,-0.00001099,-0.00011161,-0.00004870,0.00007194,-0.141869
 19,-0.02302530,0.13486957,-0.01619235,-0.00726090,0.01977216,0.1527910
 4,0.00054781,0.00015046,0.00008849,-0.00008150,0.00034669,-0.00013280,
 -0.00296094,0.00310229,-0.00152275,-0.00082119,-0.00124401,0.00004467,
 -0.00001773,0.00002688,-0.00000369,0.00002232,0.00011929,0.00005117,-0
 .01532498,-0.00783990,0.02072954,0.00387989,-0.00013661,0.00251627,0.0
 0069846,-0.00103222,-0.00042456,-0.00051914,0.00079632,0.00022106,-0.0
 0095635,-0.00023566,-0.00013216,-0.00035584,0.00100685,-0.00022195,0.0
 0046007,-0.00123025,0.00015255,-0.00126718,0.00003037,-0.00000192,0.00
 050770,-0.00108487,0.00066193,0.00066389,0.00033748,0.00015882,0.00006
 594,0.00038673,-0.00003462,0.00097047,-0.00046237,-0.00009435,-0.00016
 800,-0.00025244,-0.00009248,-0.00008800,0.00029593,-0.00006142,0.00011
 587,-0.00022013,0.00011258,0.00161267,0.00036158,0.00167431,0.00714043
 ,0.00117923,-0.00974099,0.00000917,-0.00001514,0.00001526,-0.00000247,
 0.00000611,-0.00000882,0.00000329,-0.00001823,0.00002218,0.00001103,0.
 00001427,-0.00000885,-0.00002155,0.00000923,-0.00001188,0.00002935,-0.
 00000512,0.00003726,-0.00006902,-0.00003575,-0.00000524,0.00000100,0.0
 0000652,0.00003435,-0.00002217,-0.00000272,0.00000485,0.00000703,-0.00
 000878,-0.00004697,0.00005342,0.00002964,-0.00005074,-0.01998882,-0.04
 821127,0.04236454,0.00356214,0.00523044,-0.00997282,0.02360381,0.04751
 602,0.00023358,0.00006027,-0.00012958,-0.00091614,0.00011229,0.0003327
 9,0.00099076,0.00073551,0.00074730,-0.00035176,-0.00007375,-0.00009670
 ,-0.00005919,0.00007861,0.00000228,0.00000160,-0.00000737,-0.00001341,
 -0.00189575,0.00087938,-0.00287936,-0.00044166,-0.00100438,0.00014710,
 -0.00026013,-0.00003247,-0.00012846,0.00018837,-0.00008823,-0.00001205
 ,0.00017366,-0.00001854,0.00009609,0.00010209,-0.00014654,0.00001123,-
 0.00010104,0.00017404,-0.00000164,0.00017694,-0.00005815,-0.00005409,-
 0.00067436,0.00013249,-0.00026764,-0.00045171,-0.00007784,0.00004751,-
 0.00006895,0.00013884,-0.00000101,-0.00005597,0.00001066,0.00000846,-0
 .00004964,-0.00004517,-0.00003963,-0.00002389,-0.00006548,-0.00025763,
 -0.00076715,-0.00011549,0.00011982,0.00236080,-0.00185192,0.00170523,0
 .00984970,0.00453782,-0.02171720,0.00002110,-0.00000918,0.00000998,-0.
 00001668,0.00001702,-0.00000781,-0.00000791,-0.00001620,0.00004194,0.0
 0000056,-0.00000179,0.00000659,-0.00002526,0.00000517,-0.00001620,0.00
 000707,0.00000181,0.00003259,-0.00000544,-0.00000702,-0.00000449,-0.00
 000034,-0.00000241,0.00000246,-0.00000285,-0.00000114,-0.00000643,0.00
 000059,0.00001358,-0.00000689,-0.00002101,-0.00000950,0.00000109,0.133
 02058,0.04037107,-0.21551171,-0.00440346,-0.00187033,0.00572002,-0.136
 34019,-0.04421635,0.23376118,0.00008171,-0.00010287,0.00004983,-0.0003
 3241,0.00002385,0.00015997,0.00098944,0.00034233,-0.00146733,-0.000372
 79,-0.00005443,-0.00005659,-0.00003245,0.00006827,-0.00000706,0.000022
 89,0.00003875,0.00009582,-0.00474379,0.00149461,0.00161032,-0.00060240
 ,-0.00032965,0.00033934,-0.00038237,0.00006118,0.00017614,0.00028065,-
 0.00011247,-0.00004716,-0.00346047,-0.00055728,0.00255106,0.00085892,-
 0.00147962,0.00017751,-0.00055900,0.00032585,-0.00011723,0.00047889,-0
 .00008910,-0.00008204,0.00623119,-0.02214527,0.00952387,0.00067802,-0.
 00155169,-0.00017962,0.00007012,0.00006860,-0.00016818,-0.00036665,0.0
 0015191,0.00010969,0.00000821,0.00002019,0.00000417,0.00000126,-0.0000
 5941,-0.00002439,-0.00011250,0.00000430,0.00004149,0.00003775,0.000038
 75,-0.00017748,0.00050819,-0.00044834,0.00096962,-0.00001215,-0.000023
 61,-0.00003655,-0.00001700,-0.00000522,-0.00000696,-0.00001246,-0.0000
 0263,-0.00000532,-0.00001314,0.00000295,-0.00001001,-0.00003847,0.0000
 2498,0.00001835,0.00001582,0.00000015,-0.00004284,0.00002475,-0.000003
 52,0.00000272,0.00000765,-0.00012692,0.00000322,-0.00001496,0.00005303
 ,0.00001765,-0.00024901,0.00065009,-0.00005376,-0.00001322,0.00000156,
 0.00001293,-0.00174426,0.02617295,-0.01211615,-0.05767972,0.03611530,-
 0.00959745,0.00048651,-0.00054388,0.00052113,0.05994551,-0.00000780,-0
 .00020823,-0.00008915,0.00002543,-0.00025509,-0.00010049,0.00046908,-0
 .00017771,0.00034659,0.00030351,0.00025657,0.00007234,0.00013446,0.000
 14885,0.00004407,-0.00014646,0.00002570,-0.00003707,0.00063909,0.00052
 208,-0.00050682,-0.00015737,0.00082718,-0.00032694,-0.00068318,-0.0001
 6040,0.00009755,0.00017785,-0.00027517,-0.00009499,-0.00121054,0.00165
 500,0.00239189,0.00079408,-0.00139420,0.00020208,-0.00078063,0.0006802
 9,-0.00028199,0.00079877,-0.00000856,-0.00010087,0.00313229,-0.0110812
 0,0.00576463,0.00157103,0.00039763,-0.00202613,-0.00076401,-0.00045423
 ,0.00019106,-0.00031741,0.00086725,-0.00003015,0.00007169,0.00016302,0
 .00005147,0.00017823,-0.00013115,-0.00004982,-0.00021282,-0.00000061,-
 0.00003871,-0.00008922,-0.00005223,0.00011723,0.00034288,-0.00054852,0
 .00040044,0.00000030,0.00000642,0.00002165,0.00001234,-0.00000026,0.00
 000732,0.00000994,0.00000402,0.00000280,0.00001110,-0.00000011,0.00000
 541,0.00000417,-0.00001409,0.00001657,0.00000584,-0.00001077,-0.000019
 01,0.00002542,-0.00000938,0.00003484,-0.00001109,-0.00006006,0.0000276
 2,-0.00004012,0.00004416,0.00001350,-0.00068886,0.00045463,-0.00001818
 ,-0.00004077,-0.00002215,0.00005434,-0.00049429,-0.00576149,0.00337372
 ,0.03478198,-0.27760101,0.11460471,0.00007172,0.00044876,-0.00007857,-
 0.03793591,0.29169849,0.00001473,-0.00038741,-0.00011555,-0.00018621,-
 0.00024906,-0.00007319,0.00106279,-0.00011759,-0.00017535,0.00024837,0
 .00020566,-0.00000534,0.00018686,0.00030045,0.00006255,-0.00021611,0.0
 0000528,-0.00000472,-0.00056591,-0.00126909,0.00286856,0.00032330,0.00
 039365,-0.00042325,-0.00151678,-0.00016087,0.00026925,0.00058686,-0.00
 042822,-0.00019411,0.00417898,0.00146352,0.00346794,0.00022385,-0.0005
 4067,0.00028681,-0.00062703,0.00140873,-0.00056880,0.00157865,-0.00009
 427,-0.00020469,-0.00274944,0.01251220,-0.00108089,-0.00157314,-0.0004
 0198,-0.00240258,-0.00030738,-0.00124870,0.00024226,-0.00125617,0.0011
 1600,0.00014009,0.00011405,0.00026616,0.00009176,0.00027248,-0.0002593
 2,-0.00010276,-0.00041362,0.00003669,-0.00000212,-0.00004408,-0.000043
 36,-0.00002127,0.00053191,-0.00155429,0.00056803,-0.00002321,-0.000026
 89,0.00000131,-0.00000382,-0.00000344,-0.00000305,-0.00000254,0.000001
 35,0.00000310,-0.00000037,0.00000150,0.00000023,-0.00001515,-0.0000027
 5,0.00003988,-0.00000757,0.00001099,-0.00004058,0.00003411,0.00001498,
 0.00005945,-0.00002406,0.00011890,-0.00004097,0.00003511,-0.00000766,0
 .00002549,0.00040317,-0.00044009,0.00018416,0.00001384,0.00001153,0.00
 006743,-0.00146436,0.00263276,0.00141431,-0.00594283,0.11052012,-0.074
 85519,-0.00094132,-0.00002801,0.00021901,0.00828818,-0.12403118,0.0707
 5465,0.00083445,0.00127374,-0.00000658,-0.00518000,-0.00051312,0.00035
 906,-0.00198925,0.00060657,-0.00076747,-0.00013281,-0.00066359,0.00038
 203,-0.00037066,-0.00014423,-0.00004307,0.00007042,0.00010460,0.000042
 63,0.00345665,-0.00516513,-0.00761857,0.00134719,0.00114643,0.00041532
 ,0.00046162,-0.00060433,-0.00018579,0.00000877,0.00047163,0.00000104,0
 .00006916,-0.00012627,0.00028106,-0.00018033,0.00006793,0.00001467,0.0
 0008544,-0.00016951,-0.00001182,-0.00021819,0.00006453,0.00001065,0.00
 011739,0.00012694,-0.00005285,-0.00016696,0.00009085,-0.00002151,0.000
 05497,0.00013677,-0.00002648,0.00018998,-0.00011168,0.00001069,-0.0003
 4705,-0.00041685,-0.00006410,-0.00041852,0.00068818,-0.00054180,0.0016
 6849,0.00078392,-0.00036985,-0.00607524,0.01311790,0.01951176,-0.11672
 657,0.06326530,0.10804717,-0.00025505,-0.00079851,0.00020673,-0.000099
 94,-0.00000588,0.00000728,-0.00003579,-0.00005979,0.00007439,-0.000012
 30,0.00016960,-0.00004564,0.00003040,0.00001839,-0.00001683,0.00000937
 ,0.00001607,-0.00002094,0.00000445,0.00000561,0.00000992,0.,0.00000875
 ,0.00000376,-0.00000079,-0.00000182,-0.00000444,0.00000250,-0.00000872
 ,-0.00000722,0.00000572,0.00000570,-0.00001076,0.00320685,-0.00431057,
 -0.00989154,0.00103813,-0.00012299,-0.00097962,-0.00064969,-0.00075705
 ,-0.00070806,0.00003174,0.00001929,-0.00021614,0.12016545,0.00050456,0
 .00014314,-0.00057768,0.00013146,-0.00007160,0.00000881,-0.00239207,-0
 .00157301,-0.00209823,0.00044561,-0.00037076,0.00015940,0.00007499,-0.
 00014379,-0.00004743,0.00009525,0.00008648,0.00015251,0.01226190,-0.00
 869376,-0.01647167,0.00128426,0.00284249,0.00160149,0.00109520,-0.0010
 1375,-0.00010030,-0.00039714,0.00022807,-0.00006955,-0.00038042,0.0000
 8727,0.00020563,-0.00061693,0.00003990,0.00000503,0.00009663,-0.000140
 48,-0.00000287,-0.00034440,0.00023361,0.00003511,-0.00055686,-0.000022
 66,-0.00004986,0.00020106,0.00008168,0.00004987,-0.00003365,0.00004672
 ,-0.00003589,0.00031599,-0.00008264,-0.00003372,-0.00050358,0.00022082
 ,0.00009675,0.00046698,-0.00006644,0.00000842,-0.00056145,0.00018354,0
 .00010940,0.00248177,0.00083380,0.00310329,0.06141845,-0.09352075,-0.1
 0703109,0.00008637,-0.00002916,-0.00022156,-0.00001846,0.00000701,-0.0
 0001366,0.00002424,0.00000753,-0.00004331,0.00001318,0.00002716,0.0000
 7655,0.00005514,-0.00002799,-0.00000720,-0.00003371,0.00002133,-0.0000
 0778,0.00004240,0.00002905,-0.00000275,-0.00001407,0.00000999,0.000008
 73,-0.00000300,-0.00001015,-0.00000332,0.00002068,-0.00000080,0.000017
 72,0.00000616,0.00001067,-0.00000901,-0.00659879,0.00358717,0.00909284
 ,-0.00140553,0.00045738,-0.00114532,0.00103424,0.00063437,0.00252927,-
 0.00008781,0.00002658,0.00027440,-0.06820867,0.09592194,-0.00036186,-0
 .00012280,-0.00007499,-0.00117677,0.00002759,-0.00016106,0.00051430,0.
 00114959,0.00075464,0.00023351,0.00025172,-0.00034469,0.00008641,0.000
 43605,-0.00000966,-0.00033146,-0.00002348,-0.00000105,-0.00353909,0.00
 289529,0.00053113,-0.00010663,-0.00057545,0.00024246,-0.00103418,0.000
 21000,0.00010432,0.00023987,-0.00027886,-0.00008411,-0.00001792,-0.000
 45768,-0.00000138,0.00066382,-0.00060178,-0.00008923,-0.00046917,0.000
 54097,0.00001736,0.00068468,-0.00005089,-0.00015556,0.00085863,0.00008
 511,0.00041409,-0.00065455,0.00019421,0.00003533,-0.00012103,-0.000066
 16,0.00002273,-0.00048339,0.00038599,-0.00002362,0.00030204,0.00049308
 ,0.00024313,0.00046984,-0.00033948,-0.00016850,0.00000997,0.00009831,0
 .00027111,-0.00348411,0.00327452,0.00435992,0.10638351,-0.10599392,-0.
 20315740,0.00025027,-0.00003029,-0.00007381,0.00001155,-0.00001254,-0.
 00001157,-0.00001023,0.00000881,0.00000105,-0.00000490,0.00002951,-0.0
 0000968,-0.00001505,0.00000640,-0.00000169,0.00001713,0.00000087,0.000
 02831,-0.00001368,-0.00000948,0.00002270,-0.00000015,0.00000623,0.0000
 1009,-0.00000040,0.00001736,0.00001313,-0.00000619,0.00000024,-0.00001
 631,0.00000757,-0.00000824,-0.00000122,0.00794385,-0.01059893,-0.01960
 579,0.00301533,0.00070932,0.00174892,-0.00161759,-0.00207645,-0.001860
 76,-0.00047689,-0.00001176,-0.00045185,-0.10776707,0.11043701,0.217483
 53\\0.00001168,-0.00000785,-0.00000161,-0.00000811,0.00000166,-0.00000
 232,-0.00000269,-0.00000451,-0.00000744,-0.00000613,-0.00001474,0.0000
 0396,-0.00001830,-0.00001010,0.00000346,0.00001841,0.00001341,0.000001
 50,0.00000953,0.00001082,-0.00001288,-0.00000551,-0.00000321,-0.000002
 44,0.00000124,-0.00002196,0.00000071,0.00000291,0.00001879,-0.00000202
 ,0.00001192,0.00000444,-0.00000650,-0.00001777,-0.00001951,0.00000242,
 0.00002407,-0.00000694,-0.00000693,-0.00001557,0.00000989,-0.00000153,
 -0.00001198,0.00001000,-0.00000393,0.00000048,-0.00000564,0.00000153,0
 .00000462,-0.00001771,0.00000146,-0.00000285,0.00002153,-0.00000824,-0
 .00000434,0.00002585,0.00001597,-0.00000102,-0.00001093,0.00000211,0.0
 0000831,-0.00000796,0.00000384,-0.00000055,0.00001840,0.00000242,0.000
 01172,0.00000174,0.00001437,-0.00000685,0.00000241,0.00000553,-0.00000
 115,0.00000349,0.00000767,0.00000179,-0.00000278,0.00000245,0.00000626
 ,0.00000591,0.00000114,-0.00000245,-0.00000053,-0.00000086,0.00000276,
 -0.00000223,-0.00000444,0.00000642,-0.00000290,-0.00000545,-0.00000580
 ,0.00000035,-0.00000685,0.00000031,-0.00000729,-0.00000326,0.00000201,
 0.00000065,-0.00000193,-0.00000327,-0.00000050,-0.00000416,-0.00002809
 ,0.00000405,0.00000233,0.00001919,-0.00000071,0.00000720,0.00000530,0.
 00000114,0.00000361,-0.00000169,-0.00000259,-0.00000282,-0.00000480,-0
 .00000394,0.00000191\\\@


 IN THE LONG RUN, DIGGING FOR TRUTH HAS ALWAYS PROVED NOT ONLY 
 MORE INTERESTING BUT MORE PROFITABLE THAN DIGGING FOR GOLD.

                             -- GEORGE R. HARRISON
 Job cpu time:       4 days  5 hours 43 minutes 45.0 seconds.
 File lengths (MBytes):  RWF=  12779 Int=      0 D2E=      0 Chk=     41 Scr=      1
 Normal termination of Gaussian 09 at Sun Feb  2 07:22:33 2020.
