 Entering Gaussian System, Link 0=g09
 Initial command:
 /usr/local/Cluster-Apps/gaussian/g09/l1.exe "/rds/user/am2145/hpc-work/scratch/19186650/Gau-171838.inp" -scrdir="/rds/user/am2145/hpc-work/scratch/19186650/"
 Entering Link 1 = /usr/local/Cluster-Apps/gaussian/g09/l1.exe PID=    171839.
  
 Copyright (c) 1988,1990,1992,1993,1995,1998,2003,2009,2013,
            Gaussian, Inc.  All Rights Reserved.
  
 This is part of the Gaussian(R) 09 program.  It is based on
 the Gaussian(R) 03 system (copyright 2003, Gaussian, Inc.),
 the Gaussian(R) 98 system (copyright 1998, Gaussian, Inc.),
 the Gaussian(R) 94 system (copyright 1995, Gaussian, Inc.),
 the Gaussian 92(TM) system (copyright 1992, Gaussian, Inc.),
 the Gaussian 90(TM) system (copyright 1990, Gaussian, Inc.),
 the Gaussian 88(TM) system (copyright 1988, Gaussian, Inc.),
 the Gaussian 86(TM) system (copyright 1986, Carnegie Mellon
 University), and the Gaussian 82(TM) system (copyright 1983,
 Carnegie Mellon University). Gaussian is a federally registered
 trademark of Gaussian, Inc.
  
 This software contains proprietary and confidential information,
 including trade secrets, belonging to Gaussian, Inc.
  
 This software is provided under written license and may be
 used, copied, transmitted, or stored only in accord with that
 written license.
  
 The following legend is applicable only to US Government
 contracts under FAR:
  
                    RESTRICTED RIGHTS LEGEND
  
 Use, reproduction and disclosure by the US Government is
 subject to restrictions as set forth in subparagraphs (a)
 and (c) of the Commercial Computer Software - Restricted
 Rights clause in FAR 52.227-19.
  
 Gaussian, Inc.
 340 Quinnipiac St., Bldg. 40, Wallingford CT 06492
  
  
 ---------------------------------------------------------------
 Warning -- This program may not be used in any manner that
 competes with the business of Gaussian, Inc. or will provide
 assistance to any competitor of Gaussian, Inc.  The licensee
 of this program is prohibited from giving any competitor of
 Gaussian, Inc. access to this program.  By using this program,
 the user acknowledges that Gaussian, Inc. is engaged in the
 business of creating and licensing software in the field of
 computational chemistry and represents and warrants to the
 licensee that it is not a competitor of Gaussian, Inc. and that
 it will not use this program in any manner prohibited above.
 ---------------------------------------------------------------
  

 Cite this work as:
 Gaussian 09, Revision D.01,
 M. J. Frisch, G. W. Trucks, H. B. Schlegel, G. E. Scuseria, 
 M. A. Robb, J. R. Cheeseman, G. Scalmani, V. Barone, B. Mennucci, 
 G. A. Petersson, H. Nakatsuji, M. Caricato, X. Li, H. P. Hratchian, 
 A. F. Izmaylov, J. Bloino, G. Zheng, J. L. Sonnenberg, M. Hada, 
 M. Ehara, K. Toyota, R. Fukuda, J. Hasegawa, M. Ishida, T. Nakajima, 
 Y. Honda, O. Kitao, H. Nakai, T. Vreven, J. A. Montgomery, Jr., 
 J. E. Peralta, F. Ogliaro, M. Bearpark, J. J. Heyd, E. Brothers, 
 K. N. Kudin, V. N. Staroverov, T. Keith, R. Kobayashi, J. Normand, 
 K. Raghavachari, A. Rendell, J. C. Burant, S. S. Iyengar, J. Tomasi, 
 M. Cossi, N. Rega, J. M. Millam, M. Klene, J. E. Knox, J. B. Cross, 
 V. Bakken, C. Adamo, J. Jaramillo, R. Gomperts, R. E. Stratmann, 
 O. Yazyev, A. J. Austin, R. Cammi, C. Pomelli, J. W. Ochterski, 
 R. L. Martin, K. Morokuma, V. G. Zakrzewski, G. A. Voth, 
 P. Salvador, J. J. Dannenberg, S. Dapprich, A. D. Daniels, 
 O. Farkas, J. B. Foresman, J. V. Ortiz, J. Cioslowski, 
 and D. J. Fox, Gaussian, Inc., Wallingford CT, 2013.
 
 ******************************************
 Gaussian 09:  ES64L-G09RevD.01 24-Apr-2013
                 2-Feb-2020 
 ******************************************
 %NProcShared=20
 Will use up to   20 processors via shared memory.
 %mem=64GB
 %Chk=BPhex.chk
 ------------------------------
 #n opt freq b3lyp/6-311+g(d,p)
 ------------------------------
 1/14=-1,18=20,19=15,26=3,38=1/1,3;
 2/9=110,12=2,17=6,18=5,40=1/2;
 3/5=4,6=6,7=111,11=2,16=1,25=1,30=1,71=1,74=-5/1,2,3;
 4//1;
 5/5=2,38=5/2;
 6/7=2,8=2,9=2,10=2,28=1/1;
 7//1,2,3,16;
 1/14=-1,18=20,19=15,26=3/3(2);
 2/9=110/2;
 99//99;
 2/9=110/2;
 3/5=4,6=6,7=111,11=2,16=1,25=1,30=1,71=1,74=-5/1,2,3;
 4/5=5,16=3,69=1/1;
 5/5=2,38=5/2;
 7//1,2,3,16;
 1/14=-1,18=20,19=15,26=3/3(-5);
 2/9=110/2;
 6/7=2,8=2,9=2,10=2,19=2,28=1/1;
 99/9=1/99;
 -----
 BPhex
 -----
 Symbolic Z-matrix:
 Charge =  0 Multiplicity = 3
 C                    -3.68352   0.5516   -0.05081 
 C                    -2.46619  -0.15968   0.05977 
 C                    -1.21953   0.55557   0.1293 
 C                    -1.21903   1.98667   0.04937 
 C                    -3.65162   1.98918  -0.05404 
 C                    -2.47829   2.67175  -0.0155 
 C                     0.00001  -0.13119   0.22875 
 C                     1.21949   0.5556    0.12905 
 C                     1.21889   1.98671   0.04895 
 C                    -0.00007   2.66874   0.03818 
 C                     2.46618  -0.15957   0.05958 
 C                     3.68348   0.55173  -0.05144 
 C                     3.65145   1.98935  -0.05521 
 C                     2.4781    2.67184  -0.01648 
 C                     2.46766  -1.60132   0.00706 
 C                     3.70897  -2.26402  -0.17882 
 C                     4.89549  -1.55058  -0.26513 
 C                     4.89473  -0.15988  -0.19514 
 C                    -4.89473  -0.16003  -0.19478 
 C                    -4.89535  -1.55065  -0.26579 
 C                    -3.70874  -2.26405  -0.18013 
 C                    -2.46751  -1.60139   0.00625 
 C                    -1.26573  -2.30053   0.13583 
 H                    -3.71781  -3.34718  -0.23663 
 H                    -5.83256  -2.08156  -0.39114 
 H                    -5.82512   0.39186  -0.27068 
 H                    -4.59396   2.52345  -0.11493 
 H                    -2.47298   3.75635  -0.04502 
 H                    -0.0001    3.75361  -0.00196 
 H                     2.47274   3.75643  -0.04627 
 H                     4.59374   2.52365  -0.11655 
 H                     5.82511   0.39199  -0.27137 
 H                     3.71815  -3.34718  -0.2345 
 H                     5.83274  -2.08149  -0.39016 
 C                    -0.00008  -1.6122    0.54272 
 C                     1.26601  -2.30053   0.13731 
 H                    -0.00086  -1.65031   1.66499 
 H                     1.26459  -3.3842    0.08207 
 H                    -1.26399  -3.38411   0.07905 
 

 GradGradGradGradGradGradGradGradGradGradGradGradGradGradGradGradGradGrad
 Berny optimization.
 Initialization pass.
                           ----------------------------
                           !    Initial Parameters    !
                           ! (Angstroms and Degrees)  !
 --------------------------                            --------------------------
 ! Name  Definition              Value          Derivative Info.                !
 --------------------------------------------------------------------------------
 ! R1    R(1,2)                  1.4142         estimate D2E/DX2                !
 ! R2    R(1,5)                  1.4379         estimate D2E/DX2                !
 ! R3    R(1,19)                 1.4122         estimate D2E/DX2                !
 ! R4    R(2,3)                  1.439          estimate D2E/DX2                !
 ! R5    R(2,22)                 1.4427         estimate D2E/DX2                !
 ! R6    R(3,4)                  1.4333         estimate D2E/DX2                !
 ! R7    R(3,7)                  1.4031         estimate D2E/DX2                !
 ! R8    R(4,6)                  1.435          estimate D2E/DX2                !
 ! R9    R(4,10)                 1.3969         estimate D2E/DX2                !
 ! R10   R(5,6)                  1.358          estimate D2E/DX2                !
 ! R11   R(5,27)                 1.085          estimate D2E/DX2                !
 ! R12   R(6,28)                 1.085          estimate D2E/DX2                !
 ! R13   R(7,8)                  1.4031         estimate D2E/DX2                !
 ! R14   R(7,35)                 1.5139         estimate D2E/DX2                !
 ! R15   R(8,9)                  1.4333         estimate D2E/DX2                !
 ! R16   R(8,11)                 1.4389         estimate D2E/DX2                !
 ! R17   R(9,10)                 1.3968         estimate D2E/DX2                !
 ! R18   R(9,14)                 1.435          estimate D2E/DX2                !
 ! R19   R(10,29)                1.0856         estimate D2E/DX2                !
 ! R20   R(11,12)                1.4142         estimate D2E/DX2                !
 ! R21   R(11,15)                1.4427         estimate D2E/DX2                !
 ! R22   R(12,13)                1.438          estimate D2E/DX2                !
 ! R23   R(12,18)                1.4121         estimate D2E/DX2                !
 ! R24   R(13,14)                1.358          estimate D2E/DX2                !
 ! R25   R(13,31)                1.085          estimate D2E/DX2                !
 ! R26   R(14,30)                1.085          estimate D2E/DX2                !
 ! R27   R(15,16)                1.4194         estimate D2E/DX2                !
 ! R28   R(15,36)                1.3964         estimate D2E/DX2                !
 ! R29   R(16,17)                1.3872         estimate D2E/DX2                !
 ! R30   R(16,33)                1.0846         estimate D2E/DX2                !
 ! R31   R(17,18)                1.3925         estimate D2E/DX2                !
 ! R32   R(17,34)                1.0844         estimate D2E/DX2                !
 ! R33   R(18,32)                1.0844         estimate D2E/DX2                !
 ! R34   R(19,20)                1.3924         estimate D2E/DX2                !
 ! R35   R(19,26)                1.0844         estimate D2E/DX2                !
 ! R36   R(20,21)                1.3872         estimate D2E/DX2                !
 ! R37   R(20,25)                1.0844         estimate D2E/DX2                !
 ! R38   R(21,22)                1.4193         estimate D2E/DX2                !
 ! R39   R(21,24)                1.0846         estimate D2E/DX2                !
 ! R40   R(22,23)                1.3964         estimate D2E/DX2                !
 ! R41   R(23,35)                1.4971         estimate D2E/DX2                !
 ! R42   R(23,39)                1.0851         estimate D2E/DX2                !
 ! R43   R(35,36)                1.497          estimate D2E/DX2                !
 ! R44   R(35,37)                1.1229         estimate D2E/DX2                !
 ! R45   R(36,38)                1.0851         estimate D2E/DX2                !
 ! A1    A(2,1,5)              118.9405         estimate D2E/DX2                !
 ! A2    A(2,1,19)             119.5255         estimate D2E/DX2                !
 ! A3    A(5,1,19)             121.5072         estimate D2E/DX2                !
 ! A4    A(1,2,3)              119.9688         estimate D2E/DX2                !
 ! A5    A(1,2,22)             119.928          estimate D2E/DX2                !
 ! A6    A(3,2,22)             119.9541         estimate D2E/DX2                !
 ! A7    A(2,3,4)              119.5971         estimate D2E/DX2                !
 ! A8    A(2,3,7)              120.8734         estimate D2E/DX2                !
 ! A9    A(4,3,7)              119.494          estimate D2E/DX2                !
 ! A10   A(3,4,6)              118.6118         estimate D2E/DX2                !
 ! A11   A(3,4,10)             119.2276         estimate D2E/DX2                !
 ! A12   A(6,4,10)             122.1605         estimate D2E/DX2                !
 ! A13   A(1,5,6)              121.4409         estimate D2E/DX2                !
 ! A14   A(1,5,27)             118.2399         estimate D2E/DX2                !
 ! A15   A(6,5,27)             120.2998         estimate D2E/DX2                !
 ! A16   A(4,6,5)              121.3006         estimate D2E/DX2                !
 ! A17   A(4,6,28)             118.3043         estimate D2E/DX2                !
 ! A18   A(5,6,28)             120.3913         estimate D2E/DX2                !
 ! A19   A(3,7,8)              120.7163         estimate D2E/DX2                !
 ! A20   A(3,7,35)             119.5676         estimate D2E/DX2                !
 ! A21   A(8,7,35)             119.5787         estimate D2E/DX2                !
 ! A22   A(7,8,9)              119.4928         estimate D2E/DX2                !
 ! A23   A(7,8,11)             120.8745         estimate D2E/DX2                !
 ! A24   A(9,8,11)             119.5974         estimate D2E/DX2                !
 ! A25   A(8,9,10)             119.229          estimate D2E/DX2                !
 ! A26   A(8,9,14)             118.6116         estimate D2E/DX2                !
 ! A27   A(10,9,14)            122.1594         estimate D2E/DX2                !
 ! A28   A(4,10,9)             121.5366         estimate D2E/DX2                !
 ! A29   A(4,10,29)            119.2241         estimate D2E/DX2                !
 ! A30   A(9,10,29)            119.2252         estimate D2E/DX2                !
 ! A31   A(8,11,12)            119.9709         estimate D2E/DX2                !
 ! A32   A(8,11,15)            119.9557         estimate D2E/DX2                !
 ! A33   A(12,11,15)           119.9259         estimate D2E/DX2                !
 ! A34   A(11,12,13)           118.9378         estimate D2E/DX2                !
 ! A35   A(11,12,18)           119.5266         estimate D2E/DX2                !
 ! A36   A(13,12,18)           121.509          estimate D2E/DX2                !
 ! A37   A(12,13,14)           121.4418         estimate D2E/DX2                !
 ! A38   A(12,13,31)           118.2381         estimate D2E/DX2                !
 ! A39   A(14,13,31)           120.3009         estimate D2E/DX2                !
 ! A40   A(9,14,13)            121.3016         estimate D2E/DX2                !
 ! A41   A(9,14,30)            118.305          estimate D2E/DX2                !
 ! A42   A(13,14,30)           120.3895         estimate D2E/DX2                !
 ! A43   A(11,15,16)           118.1809         estimate D2E/DX2                !
 ! A44   A(11,15,36)           119.7441         estimate D2E/DX2                !
 ! A45   A(16,15,36)           122.075          estimate D2E/DX2                !
 ! A46   A(15,16,17)           121.0687         estimate D2E/DX2                !
 ! A47   A(15,16,33)           118.7112         estimate D2E/DX2                !
 ! A48   A(17,16,33)           120.2105         estimate D2E/DX2                !
 ! A49   A(16,17,18)           120.6681         estimate D2E/DX2                !
 ! A50   A(16,17,34)           119.6466         estimate D2E/DX2                !
 ! A51   A(18,17,34)           119.6852         estimate D2E/DX2                !
 ! A52   A(12,18,17)           120.5883         estimate D2E/DX2                !
 ! A53   A(12,18,32)           119.1172         estimate D2E/DX2                !
 ! A54   A(17,18,32)           120.2823         estimate D2E/DX2                !
 ! A55   A(1,19,20)            120.5878         estimate D2E/DX2                !
 ! A56   A(1,19,26)            119.1139         estimate D2E/DX2                !
 ! A57   A(20,19,26)           120.2857         estimate D2E/DX2                !
 ! A58   A(19,20,21)           120.6688         estimate D2E/DX2                !
 ! A59   A(19,20,25)           119.6848         estimate D2E/DX2                !
 ! A60   A(21,20,25)           119.6463         estimate D2E/DX2                !
 ! A61   A(20,21,22)           121.0687         estimate D2E/DX2                !
 ! A62   A(20,21,24)           120.2111         estimate D2E/DX2                !
 ! A63   A(22,21,24)           118.7105         estimate D2E/DX2                !
 ! A64   A(2,22,21)            118.1792         estimate D2E/DX2                !
 ! A65   A(2,22,23)            119.7428         estimate D2E/DX2                !
 ! A66   A(21,22,23)           122.078          estimate D2E/DX2                !
 ! A67   A(22,23,35)           121.508          estimate D2E/DX2                !
 ! A68   A(22,23,39)           119.77           estimate D2E/DX2                !
 ! A69   A(35,23,39)           118.1655         estimate D2E/DX2                !
 ! A70   A(7,35,23)            113.1707         estimate D2E/DX2                !
 ! A71   A(7,35,36)            113.1777         estimate D2E/DX2                !
 ! A72   A(7,35,37)            103.9142         estimate D2E/DX2                !
 ! A73   A(23,35,36)           115.4665         estimate D2E/DX2                !
 ! A74   A(23,35,37)           104.7998         estimate D2E/DX2                !
 ! A75   A(36,35,37)           104.8111         estimate D2E/DX2                !
 ! A76   A(15,36,35)           121.5218         estimate D2E/DX2                !
 ! A77   A(15,36,38)           119.7664         estimate D2E/DX2                !
 ! A78   A(35,36,38)           118.1561         estimate D2E/DX2                !
 ! D1    D(5,1,2,3)             -1.7236         estimate D2E/DX2                !
 ! D2    D(5,1,2,22)          -177.2844         estimate D2E/DX2                !
 ! D3    D(19,1,2,3)           176.422          estimate D2E/DX2                !
 ! D4    D(19,1,2,22)            0.8612         estimate D2E/DX2                !
 ! D5    D(2,1,5,6)              3.0697         estimate D2E/DX2                !
 ! D6    D(2,1,5,27)          -178.5285         estimate D2E/DX2                !
 ! D7    D(19,1,5,6)          -175.0377         estimate D2E/DX2                !
 ! D8    D(19,1,5,27)            3.3642         estimate D2E/DX2                !
 ! D9    D(2,1,19,20)           -1.7913         estimate D2E/DX2                !
 ! D10   D(2,1,19,26)          179.4939         estimate D2E/DX2                !
 ! D11   D(5,1,19,20)          176.3052         estimate D2E/DX2                !
 ! D12   D(5,1,19,26)           -2.4096         estimate D2E/DX2                !
 ! D13   D(1,2,3,4)             -1.6791         estimate D2E/DX2                !
 ! D14   D(1,2,3,7)           -179.4997         estimate D2E/DX2                !
 ! D15   D(22,2,3,4)           173.8806         estimate D2E/DX2                !
 ! D16   D(22,2,3,7)            -3.94           estimate D2E/DX2                !
 ! D17   D(1,2,22,21)            1.0119         estimate D2E/DX2                !
 ! D18   D(1,2,22,23)         -179.0473         estimate D2E/DX2                !
 ! D19   D(3,2,22,21)         -174.5496         estimate D2E/DX2                !
 ! D20   D(3,2,22,23)            5.3912         estimate D2E/DX2                !
 ! D21   D(2,3,4,6)              3.8036         estimate D2E/DX2                !
 ! D22   D(2,3,4,10)          -176.2508         estimate D2E/DX2                !
 ! D23   D(7,3,4,6)           -178.3455         estimate D2E/DX2                !
 ! D24   D(7,3,4,10)             1.6001         estimate D2E/DX2                !
 ! D25   D(2,3,7,8)            172.0151         estimate D2E/DX2                !
 ! D26   D(2,3,7,35)           -12.2624         estimate D2E/DX2                !
 ! D27   D(4,3,7,8)             -5.8078         estimate D2E/DX2                !
 ! D28   D(4,3,7,35)           169.9148         estimate D2E/DX2                !
 ! D29   D(3,4,6,5)             -2.5582         estimate D2E/DX2                !
 ! D30   D(3,4,6,28)           178.1465         estimate D2E/DX2                !
 ! D31   D(10,4,6,5)           177.4979         estimate D2E/DX2                !
 ! D32   D(10,4,6,28)           -1.7974         estimate D2E/DX2                !
 ! D33   D(3,4,10,9)             2.6065         estimate D2E/DX2                !
 ! D34   D(3,4,10,29)         -178.7647         estimate D2E/DX2                !
 ! D35   D(6,4,10,9)          -177.4499         estimate D2E/DX2                !
 ! D36   D(6,4,10,29)            1.1788         estimate D2E/DX2                !
 ! D37   D(1,5,6,4)             -0.8983         estimate D2E/DX2                !
 ! D38   D(1,5,6,28)           178.3825         estimate D2E/DX2                !
 ! D39   D(27,5,6,4)          -179.2675         estimate D2E/DX2                !
 ! D40   D(27,5,6,28)            0.0132         estimate D2E/DX2                !
 ! D41   D(3,7,8,9)              5.7999         estimate D2E/DX2                !
 ! D42   D(3,7,8,11)          -172.0298         estimate D2E/DX2                !
 ! D43   D(35,7,8,9)          -169.9222         estimate D2E/DX2                !
 ! D44   D(35,7,8,11)           12.2481         estimate D2E/DX2                !
 ! D45   D(3,7,35,23)           25.2566         estimate D2E/DX2                !
 ! D46   D(3,7,35,36)          159.0464         estimate D2E/DX2                !
 ! D47   D(3,7,35,37)          -87.8402         estimate D2E/DX2                !
 ! D48   D(8,7,35,23)         -158.9717         estimate D2E/DX2                !
 ! D49   D(8,7,35,36)          -25.1818         estimate D2E/DX2                !
 ! D50   D(8,7,35,37)           87.9315         estimate D2E/DX2                !
 ! D51   D(7,8,9,10)            -1.5845         estimate D2E/DX2                !
 ! D52   D(7,8,9,14)           178.3593         estimate D2E/DX2                !
 ! D53   D(11,8,9,10)          176.2733         estimate D2E/DX2                !
 ! D54   D(11,8,9,14)           -3.783          estimate D2E/DX2                !
 ! D55   D(7,8,11,12)          179.4912         estimate D2E/DX2                !
 ! D56   D(7,8,11,15)            3.9088         estimate D2E/DX2                !
 ! D57   D(9,8,11,12)            1.6637         estimate D2E/DX2                !
 ! D58   D(9,8,11,15)         -173.9187         estimate D2E/DX2                !
 ! D59   D(8,9,10,4)            -2.6143         estimate D2E/DX2                !
 ! D60   D(8,9,10,29)          178.757          estimate D2E/DX2                !
 ! D61   D(14,9,10,4)          177.444          estimate D2E/DX2                !
 ! D62   D(14,9,10,29)          -1.1847         estimate D2E/DX2                !
 ! D63   D(8,9,14,13)            2.5495         estimate D2E/DX2                !
 ! D64   D(8,9,14,30)         -178.1551         estimate D2E/DX2                !
 ! D65   D(10,9,14,13)        -177.5085         estimate D2E/DX2                !
 ! D66   D(10,9,14,30)           1.7869         estimate D2E/DX2                !
 ! D67   D(8,11,12,13)           1.7217         estimate D2E/DX2                !
 ! D68   D(8,11,12,18)        -176.4316         estimate D2E/DX2                !
 ! D69   D(15,11,12,13)        177.3054         estimate D2E/DX2                !
 ! D70   D(15,11,12,18)         -0.8479         estimate D2E/DX2                !
 ! D71   D(8,11,15,16)         174.5716         estimate D2E/DX2                !
 ! D72   D(8,11,15,36)          -5.3801         estimate D2E/DX2                !
 ! D73   D(12,11,15,16)         -1.0128         estimate D2E/DX2                !
 ! D74   D(12,11,15,36)        179.0355         estimate D2E/DX2                !
 ! D75   D(11,12,13,14)         -3.0554         estimate D2E/DX2                !
 ! D76   D(11,12,13,31)        178.5356         estimate D2E/DX2                !
 ! D77   D(18,12,13,14)        175.0598         estimate D2E/DX2                !
 ! D78   D(18,12,13,31)         -3.3492         estimate D2E/DX2                !
 ! D79   D(11,12,18,17)          1.7753         estimate D2E/DX2                !
 ! D80   D(11,12,18,32)       -179.4931         estimate D2E/DX2                !
 ! D81   D(13,12,18,17)       -176.329          estimate D2E/DX2                !
 ! D82   D(13,12,18,32)          2.4026         estimate D2E/DX2                !
 ! D83   D(12,13,14,9)           0.8894         estimate D2E/DX2                !
 ! D84   D(12,13,14,30)       -178.3915         estimate D2E/DX2                !
 ! D85   D(31,13,14,9)         179.2659         estimate D2E/DX2                !
 ! D86   D(31,13,14,30)         -0.0149         estimate D2E/DX2                !
 ! D87   D(11,15,16,17)          2.0304         estimate D2E/DX2                !
 ! D88   D(11,15,16,33)       -179.0945         estimate D2E/DX2                !
 ! D89   D(36,15,16,17)       -178.019          estimate D2E/DX2                !
 ! D90   D(36,15,16,33)          0.8561         estimate D2E/DX2                !
 ! D91   D(11,15,36,35)         -9.6775         estimate D2E/DX2                !
 ! D92   D(11,15,36,38)        179.0298         estimate D2E/DX2                !
 ! D93   D(16,15,36,35)        170.3727         estimate D2E/DX2                !
 ! D94   D(16,15,36,38)         -0.92           estimate D2E/DX2                !
 ! D95   D(15,16,17,18)         -1.1588         estimate D2E/DX2                !
 ! D96   D(15,16,17,34)        178.9518         estimate D2E/DX2                !
 ! D97   D(33,16,17,18)        179.9828         estimate D2E/DX2                !
 ! D98   D(33,16,17,34)          0.0935         estimate D2E/DX2                !
 ! D99   D(16,17,18,12)         -0.7865         estimate D2E/DX2                !
 ! D100  D(16,17,18,32)       -179.5032         estimate D2E/DX2                !
 ! D101  D(34,17,18,12)        179.1028         estimate D2E/DX2                !
 ! D102  D(34,17,18,32)          0.386          estimate D2E/DX2                !
 ! D103  D(1,19,20,21)           0.7924         estimate D2E/DX2                !
 ! D104  D(1,19,20,25)        -179.0951         estimate D2E/DX2                !
 ! D105  D(26,19,20,21)        179.4921         estimate D2E/DX2                !
 ! D106  D(26,19,20,25)         -0.3954         estimate D2E/DX2                !
 ! D107  D(19,20,21,22)          1.1658         estimate D2E/DX2                !
 ! D108  D(19,20,21,24)       -179.9813         estimate D2E/DX2                !
 ! D109  D(25,20,21,22)       -178.9466         estimate D2E/DX2                !
 ! D110  D(25,20,21,24)         -0.0937         estimate D2E/DX2                !
 ! D111  D(20,21,22,2)          -2.0398         estimate D2E/DX2                !
 ! D112  D(20,21,22,23)        178.0209         estimate D2E/DX2                !
 ! D113  D(24,21,22,2)         179.0905         estimate D2E/DX2                !
 ! D114  D(24,21,22,23)         -0.8488         estimate D2E/DX2                !
 ! D115  D(2,22,23,35)           9.7323         estimate D2E/DX2                !
 ! D116  D(2,22,23,39)        -178.9806         estimate D2E/DX2                !
 ! D117  D(21,22,23,35)       -170.3293         estimate D2E/DX2                !
 ! D118  D(21,22,23,39)          0.9578         estimate D2E/DX2                !
 ! D119  D(22,23,35,7)         -24.2518         estimate D2E/DX2                !
 ! D120  D(22,23,35,36)       -156.9415         estimate D2E/DX2                !
 ! D121  D(22,23,35,37)         88.3065         estimate D2E/DX2                !
 ! D122  D(39,23,35,7)         164.3261         estimate D2E/DX2                !
 ! D123  D(39,23,35,36)         31.6364         estimate D2E/DX2                !
 ! D124  D(39,23,35,37)        -83.1157         estimate D2E/DX2                !
 ! D125  D(7,35,36,15)          24.1558         estimate D2E/DX2                !
 ! D126  D(7,35,36,38)        -164.4161         estimate D2E/DX2                !
 ! D127  D(23,35,36,15)        156.8422         estimate D2E/DX2                !
 ! D128  D(23,35,36,38)        -31.7296         estimate D2E/DX2                !
 ! D129  D(37,35,36,15)        -88.4122         estimate D2E/DX2                !
 ! D130  D(37,35,36,38)         83.0159         estimate D2E/DX2                !
 --------------------------------------------------------------------------------
 Trust Radius=3.00D-01 FncErr=1.00D-07 GrdErr=1.00D-06
 Number of steps in this run=    234 maximum allowed number of steps=    234.
 GradGradGradGradGradGradGradGradGradGradGradGradGradGradGradGradGradGrad

                          Input orientation:                          
 ---------------------------------------------------------------------
 Center     Atomic      Atomic             Coordinates (Angstroms)
 Number     Number       Type             X           Y           Z
 ---------------------------------------------------------------------
      1          6           0       -3.683520    0.551600   -0.050810
      2          6           0       -2.466190   -0.159680    0.059770
      3          6           0       -1.219530    0.555570    0.129300
      4          6           0       -1.219030    1.986670    0.049370
      5          6           0       -3.651620    1.989180   -0.054040
      6          6           0       -2.478290    2.671750   -0.015500
      7          6           0        0.000010   -0.131190    0.228750
      8          6           0        1.219490    0.555600    0.129050
      9          6           0        1.218890    1.986710    0.048950
     10          6           0       -0.000070    2.668740    0.038180
     11          6           0        2.466180   -0.159570    0.059580
     12          6           0        3.683480    0.551730   -0.051440
     13          6           0        3.651450    1.989350   -0.055210
     14          6           0        2.478100    2.671840   -0.016480
     15          6           0        2.467660   -1.601320    0.007060
     16          6           0        3.708970   -2.264020   -0.178820
     17          6           0        4.895490   -1.550580   -0.265130
     18          6           0        4.894730   -0.159880   -0.195140
     19          6           0       -4.894730   -0.160030   -0.194780
     20          6           0       -4.895350   -1.550650   -0.265790
     21          6           0       -3.708740   -2.264050   -0.180130
     22          6           0       -2.467510   -1.601390    0.006250
     23          6           0       -1.265730   -2.300530    0.135830
     24          1           0       -3.717810   -3.347180   -0.236630
     25          1           0       -5.832560   -2.081560   -0.391140
     26          1           0       -5.825120    0.391860   -0.270680
     27          1           0       -4.593960    2.523450   -0.114930
     28          1           0       -2.472980    3.756350   -0.045020
     29          1           0       -0.000100    3.753610   -0.001960
     30          1           0        2.472740    3.756430   -0.046270
     31          1           0        4.593740    2.523650   -0.116550
     32          1           0        5.825110    0.391990   -0.271370
     33          1           0        3.718150   -3.347180   -0.234500
     34          1           0        5.832740   -2.081490   -0.390160
     35          6           0       -0.000080   -1.612200    0.542720
     36          6           0        1.266010   -2.300530    0.137310
     37          1           0       -0.000860   -1.650310    1.664990
     38          1           0        1.264590   -3.384200    0.082070
     39          1           0       -1.263990   -3.384110    0.079050
 ---------------------------------------------------------------------
                    Distance matrix (angstroms):
                    1          2          3          4          5
     1  C    0.000000
     2  C    1.414228   0.000000
     3  C    2.470567   1.438950   0.000000
     4  C    2.853625   2.482405   1.433330   0.000000
     5  C    1.437938   2.456786   2.829119   2.434788   0.000000
     6  C    2.439029   2.832456   2.466508   1.435019   1.357973
     7  C    3.756694   2.472147   1.403142   2.450218   4.232061
     8  C    4.906309   3.755085   2.439020   2.828549   5.080983
     9  C    5.109121   4.264613   2.828517   2.437920   4.871599
    10  C    4.249471   3.752622   2.441490   1.396857   3.715390
    11  C    6.191668   4.932370   3.755096   4.264648   6.485176
    12  C    7.367000   6.191681   4.906342   5.109190   7.474621
    13  C    7.474552   6.485142   5.080966   4.871603   7.303070
    14  C    6.516299   5.698186   4.262900   3.760660   6.167731
    15  C    6.517318   5.140426   4.273463   5.144623   7.095140
    16  C    7.911574   6.528229   5.686399   6.511960   8.501974
    17  C    8.835412   7.498966   6.479577   7.070955   9.253516
    18  C    8.608914   7.365332   6.164520   6.484252   8.813539
    19  C    1.412152   2.441844   3.758218   4.263649   2.486812
    20  C    2.436022   2.818085   4.254869   5.111486   3.757938
    21  C    2.818731   2.455576   3.773880   4.931526   4.255482
    22  C    2.473318   1.442704   2.495009   3.799307   3.781262
    23  C    3.743686   2.455632   2.856481   4.288326   4.912243
    24  H    3.903356   3.437232   4.648308   5.897089   5.339893
    25  H    3.415806   3.902485   5.339041   6.166782   4.630449
    26  H    2.158775   3.419913   4.625824   4.884866   2.706006
    27  H    2.172833   3.428865   3.913947   3.421298   1.084969
    28  H    3.425765   3.917438   3.441877   2.170960   2.124185
    29  H    4.880864   4.625932   3.425157   2.147208   4.055801
    30  H    6.940497   6.303982   4.889702   4.095163   6.374246
    31  H    8.509191   7.554731   6.142303   5.839878   8.262901
    32  H    9.512527   8.316228   7.057921   7.229508   9.612838
    33  H    8.367732   6.963678   6.304323   7.273671   9.100704
    34  H    9.879652   8.530418   7.547081   8.152949  10.326491
    35  C    4.313008   2.902543   2.521349   3.831592   5.163313
    36  C    5.715582   4.303321   3.786196   4.956132   6.528500
    37  H    4.621078   3.297963   2.951170   4.161945   5.434059
    38  H    6.323921   4.931201   4.657775   5.917405   7.284289
    39  H    4.621775   3.441309   3.940251   5.371050   5.881389
                    6          7          8          9         10
     6  C    0.000000
     7  C    3.749414   0.000000
     8  C    4.262929   1.403122   0.000000
     9  C    3.760661   2.450203   1.433350   0.000000
    10  C    2.478803   2.806408   2.441505   1.396834   0.000000
    11  C    5.698227   2.472128   1.438934   2.482411   3.752624
    12  C    6.516378   3.756706   2.470595   2.853673   4.249506
    13  C    6.167735   4.232061   2.829138   2.434790   3.715359
    14  C    4.956390   3.749406   2.466526   1.435024   2.478775
    15  C    6.536211   2.880924   2.495018   3.799361   4.931944
    16  C    7.916482   4.297844   3.773931   4.931641   6.175450
    17  C    8.500766   5.120968   4.254920   5.111600   6.470021
    18  C    7.900115   4.913124   3.758244   4.263711   5.658144
    19  C    3.726969   4.913114   6.164469   6.484153   5.658083
    20  C    4.871703   5.120936   6.479464   7.070778   6.469885
    21  C    5.089522   4.297802   5.686253   6.511757   6.175298
    22  C    4.273209   2.880911   4.273366   5.144495   4.931865
    23  C    5.120232   2.513318   3.786006   4.955937   5.128847
    24  H    6.149213   4.937748   6.304153   7.273441   7.077316
    25  H    5.829767   6.181188   7.546961   8.152757   7.534428
    26  H    4.057621   5.869851   7.057841   7.229370   6.261852
    27  H    2.123191   5.316934   6.142325   5.839878   4.598736
    28  H    1.085015   4.615582   4.889728   4.095163   2.702795
    29  H    2.704077   3.891645   3.425176   2.147199   1.085612
    30  H    5.068548   4.615584   3.441901   2.170971   2.702775
    31  H    7.074302   5.316932   3.913963   3.421302   4.598704
    32  H    8.614478   5.869892   4.625888   4.884977   6.261959
    33  H    8.641258   4.937789   4.648350   5.897205   7.077486
    34  H    9.581591   6.181218   5.339092   6.166902   7.534576
    35  C    4.980498   1.513925   2.521474   3.831690   4.310569
    36  C    6.226291   2.513395   2.856521   4.288409   5.128979
    37  H    5.257557   2.090577   2.952017   4.162606   4.615269
    38  H    7.119916   3.493244   3.940338   5.371207   6.183799
    39  H    6.177128   3.493078   4.657412   5.917035   6.183539
                   11         12         13         14         15
    11  C    0.000000
    12  C    1.414246   0.000000
    13  C    2.456807   1.437982   0.000000
    14  C    2.832456   2.439063   1.357955   0.000000
    15  C    1.442707   2.473310   3.781289   4.273238   0.000000
    16  C    2.455620   2.818745   4.255555   5.089608   1.419357
    17  C    2.818136   2.436050   3.758032   4.871800   2.443567
    18  C    2.441872   1.412149   2.486869   3.727017   2.830071
    19  C    7.365303   8.608881   8.813428   7.899994   7.504855
    20  C    7.498873   8.835286   9.253309   8.500550   7.368238
    21  C    6.528088   7.911390   8.501730   7.916235   6.214674
    22  C    5.140329   6.517203   7.094989   6.536059   4.935170
    23  C    4.303101   5.715342   6.528264   6.226068   3.800484
    24  H    6.963500   8.367490   9.100410   8.640970   6.431753
    25  H    8.530315   9.879506  10.326258   9.581349   8.323632
    26  H    8.316177   9.512471   9.612689   8.614313   8.533470
    27  H    7.554775   8.509273   8.262906   7.074302   8.178942
    28  H    6.304020   6.940579   6.374248   5.068547   7.288159
    29  H    4.625938   4.880906   4.055770   2.704055   5.896202
    30  H    3.917436   3.425788   2.124149   1.085012   5.358018
    31  H    3.428878   2.172851   1.084965   2.123183   4.642292
    32  H    3.419964   2.158811   2.706119   4.057729   3.914496
    33  H    3.437262   3.903359   5.339958   6.149297   2.161042
    34  H    3.902534   3.415830   4.630546   5.829871   3.422296
    35  C    2.902757   4.313263   5.163560   4.980671   2.525231
    36  C    2.455638   3.743685   4.912276   5.120281   1.396360
    37  H    3.299384   4.622713   5.435585   5.258666   2.974008
    38  H    3.441303   4.621731   5.881410   6.177211   2.152130
    39  H    4.930741   6.323395   7.283794   7.119473   4.136271
                   16         17         18         19         20
    16  C    0.000000
    17  C    1.387183   0.000000
    18  C    2.415305   1.392460   0.000000
    19  C    8.857239   9.888730   9.789460   0.000000
    20  C    8.634280   9.790840   9.888625   1.392432   0.000000
    21  C    7.417710   8.634178   8.857057   2.415303   1.387199
    22  C    6.214679   7.368175   7.504738   2.830076   2.443560
    23  C    4.984775   6.219632   6.530175   4.226190   3.727970
    24  H    7.505574   8.798723   9.183488   3.397767   2.148248
    25  H    9.545636  10.741921  10.899817   2.147175   1.084408
    26  H    9.897525  10.895163  10.734305   1.084421   2.153565
    27  H    9.584498  10.328114   9.861132   2.701463   4.088017
    28  H    8.630137   9.083298   8.345211   4.607096   5.837882
    29  H    7.071093   7.222914   6.269935   6.269861   7.222759
    30  H    6.147492   5.837977   4.607134   8.345078   9.083063
    31  H    4.869135   4.088090   2.701500   9.861000  10.327876
    32  H    3.397205   2.153558   1.084425  10.734317  10.895051
    33  H    1.084629   2.148218   3.397760   9.183747   8.798914
    34  H    2.142051   1.084406   2.147203  10.899945  10.741935
    35  C    3.834389   4.962159   5.158763   5.158517   4.961970
    36  C    2.463600   3.727936   4.226170   6.530447   6.219901
    37  H    4.187973   5.263986   5.445022   5.443312   5.262497
    38  H    2.701455   4.082419   4.863230   6.957668   6.436441
    39  H    5.104060   6.435797   6.957059   4.863327   4.082556
                   21         22         23         24         25
    21  C    0.000000
    22  C    1.419334   0.000000
    23  C    2.463627   1.396375   0.000000
    24  H    1.084641   2.161024   2.692007   0.000000
    25  H    2.142064   3.422286   4.602345   2.469379   0.000000
    26  H    3.397223   3.914496   5.310579   4.292125   2.476363
    27  H    4.869088   4.642282   5.866070   5.936897   4.776666
    28  H    6.147404   5.357988   6.178669   7.214323   6.744462
    29  H    7.070925   5.896118   6.186551   8.018582   8.259435
    30  H    8.629878   7.288008   7.120118   9.424459  10.157710
    31  H    9.584221   8.178770   7.594063  10.176587  11.401364
    32  H    9.897331   8.533357   7.595755  10.249386  11.917805
    33  H    7.505653   6.431806   5.106044   7.435960   9.635476
    34  H    9.545537   8.323568   7.121300   9.635276  11.665300
    35  C    3.834264   2.525100   1.497073   4.176010   5.925387
    36  C    4.985001   3.800677   2.531740   5.106248   7.121580
    37  H    4.186827   2.972907   2.088304   4.506800   6.198578
    38  H    5.104654   4.136754   2.753135   4.992720   7.231206
    39  H    2.701576   2.152174   1.085068   2.474318   4.773840
                   26         27         28         29         30
    26  H    0.000000
    27  H    2.466514   0.000000
    28  H    4.754741   2.454279   0.000000
    29  H    6.730857   4.757058   2.473256   0.000000
    30  H    8.956851   7.173786   4.945720   2.473239   0.000000
    31  H   10.635832   9.187700   7.173785   4.757026   2.454247
    32  H   11.650230  10.636006   8.957034   6.730984   4.754841
    33  H   10.249670  10.176923   9.424762   8.018770   7.214413
    34  H   11.917946  11.401636  10.157976   8.259607   6.744566
    35  C    6.213611   6.216095   5.939865   5.393384   5.940028
    36  C    7.596022   7.594317   7.120329   6.186683   6.178727
    37  H    6.468329   6.456389   6.186072   5.655181   6.187079
    38  H    8.040339   8.322364   8.060585   7.249471   7.243252
    39  H    5.931624   6.784217   7.243150   7.249209   8.060159
                   31         32         33         34         35
    31  H    0.000000
    32  H    2.466620   0.000000
    33  H    5.936936   4.292089   0.000000
    34  H    4.776746   2.476343   2.469351   0.000000
    35  C    6.216355   6.213884   4.176058   5.925562   0.000000
    36  C    5.866084   5.310563   2.691971   4.602307   1.497044
    37  H    6.458032   6.470116   4.507601   6.200036   1.122917
    38  H    6.784201   5.931515   2.474175   4.773683   2.225213
    39  H    8.321832   8.039718   4.992133   7.230529   2.225337
                   36         37         38         39
    36  C    0.000000
    37  H    2.088433   0.000000
    38  H    1.085078   2.667091   0.000000
    39  H    2.752897   2.667727   2.528582   0.000000
 Stoichiometry    C25H14(3)
 Framework group  C1[X(C25H14)]
 Deg. of freedom   111
 Full point group                 C1      NOp   1
 Largest Abelian subgroup         C1      NOp   1
 Largest concise Abelian subgroup C1      NOp   1
                         Standard orientation:                         
 ---------------------------------------------------------------------
 Center     Atomic      Atomic             Coordinates (Angstroms)
 Number     Number       Type             X           Y           Z
 ---------------------------------------------------------------------
      1          6           0       -3.683521    0.551598   -0.050810
      2          6           0       -2.466191   -0.159682    0.059770
      3          6           0       -1.219531    0.555569    0.129300
      4          6           0       -1.219032    1.986669    0.049370
      5          6           0       -3.651622    1.989178   -0.054040
      6          6           0       -2.478292    2.671748   -0.015500
      7          6           0        0.000009   -0.131190    0.228750
      8          6           0        1.219489    0.555601    0.129050
      9          6           0        1.218888    1.986711    0.048950
     10          6           0       -0.000072    2.668740    0.038180
     11          6           0        2.466179   -0.159569    0.059580
     12          6           0        3.683479    0.551732   -0.051440
     13          6           0        3.651448    1.989352   -0.055210
     14          6           0        2.478098    2.671841   -0.016480
     15          6           0        2.467660   -1.601319    0.007060
     16          6           0        3.708971   -2.264018   -0.178820
     17          6           0        4.895490   -1.550577   -0.265130
     18          6           0        4.894729   -0.159877   -0.195140
     19          6           0       -4.894731   -0.160033   -0.194780
     20          6           0       -4.895350   -1.550653   -0.265790
     21          6           0       -3.708739   -2.264053   -0.180130
     22          6           0       -2.467510   -1.601392    0.006250
     23          6           0       -1.265729   -2.300531    0.135830
     24          1           0       -3.717809   -3.347183   -0.236630
     25          1           0       -5.832559   -2.081564   -0.391140
     26          1           0       -5.825121    0.391856   -0.270680
     27          1           0       -4.593962    2.523447   -0.114930
     28          1           0       -2.472983    3.756348   -0.045020
     29          1           0       -0.000103    3.753610   -0.001960
     30          1           0        2.472737    3.756431   -0.046270
     31          1           0        4.593738    2.523653   -0.116550
     32          1           0        5.825109    0.391993   -0.271370
     33          1           0        3.718151   -3.347178   -0.234500
     34          1           0        5.832741   -2.081487   -0.390160
     35          6           0       -0.000080   -1.612200    0.542720
     36          6           0        1.266011   -2.300529    0.137310
     37          1           0       -0.000860   -1.650310    1.664990
     38          1           0        1.264591   -3.384199    0.082070
     39          1           0       -1.263989   -3.384111    0.079050
 ---------------------------------------------------------------------
 Rotational constants (GHZ):      0.5114527      0.1736540      0.1304473
 Standard basis: 6-311+G(d,p) (5D, 7F)
 There are   659 symmetry adapted cartesian basis functions of A   symmetry.
 There are   634 symmetry adapted basis functions of A   symmetry.
   634 basis functions,  1012 primitive gaussians,   659 cartesian basis functions
    83 alpha electrons       81 beta electrons
       nuclear repulsion energy      1937.8257906265 Hartrees.
 NAtoms=   39 NActive=   39 NUniq=   39 SFac= 1.00D+00 NAtFMM=   60 NAOKFM=F Big=F
 Integral buffers will be    131072 words long.
 Raffenetti 2 integral format.
 Two-electron integral symmetry is turned on.
 One-electron integrals computed using PRISM.
 NBasis=   634 RedAO= T EigKep=  1.12D-06  NBF=   634
 NBsUse=   618 1.00D-06 EigRej=  7.31D-07 NBFU=   618
 ExpMin= 4.38D-02 ExpMax= 4.56D+03 ExpMxC= 6.82D+02 IAcc=2 IRadAn=         4 AccDes= 0.00D+00
 Harris functional with IExCor=  402 and IRadAn=       4 diagonalized for initial guess.
 HarFok:  IExCor=  402 AccDes= 0.00D+00 IRadAn=         4 IDoV= 1 UseB2=F ITyADJ=14
 ICtDFT=  3500011 ScaDFX=  1.000000  1.000000  1.000000  1.000000
 FoFCou: FMM=F IPFlag=           0 FMFlag=      100000 FMFlg1=           0
         NFxFlg=           0 DoJE=T BraDBF=F KetDBF=T FulRan=T
         wScrn=  0.000000 ICntrl=     500 IOpCl=  0 I1Cent=   200000004 NGrid=           0
         NMat0=    1 NMatS0=      1 NMatT0=    0 NMatD0=    1 NMtDS0=    0 NMtDT0=    0
 Petite list used in FoFCou.
 Initial guess <Sx>= 0.0000 <Sy>= 0.0000 <Sz>= 1.0000 <S**2>= 2.0000 S= 1.0000
 Requested convergence on RMS density matrix=1.00D-08 within 128 cycles.
 Requested convergence on MAX density matrix=1.00D-06.
 Requested convergence on             energy=1.00D-06.
 No special actions if energy rises.
 Restarting incremental Fock formation.
 SCF Done:  E(UB3LYP) =  -961.308108050     A.U. after   23 cycles
            NFock= 23  Conv=0.31D-08     -V/T= 2.0045
 <Sx>= 0.0000 <Sy>= 0.0000 <Sz>= 1.0000 <S**2>= 2.0852 S= 1.0281
 <L.S>= 0.000000000000E+00
 Annihilation of the first spin contaminant:
 S**2 before annihilation     2.0852,   after     2.0047

 **********************************************************************

            Population analysis using the SCF density.

 **********************************************************************

 Orbital symmetries:
 Alpha Orbitals:
       Occupied  (A) (A) (A) (A) (A) (A) (A) (A) (A) (A) (A) (A)
                 (A) (A) (A) (A) (A) (A) (A) (A) (A) (A) (A) (A)
                 (A) (A) (A) (A) (A) (A) (A) (A) (A) (A) (A) (A)
                 (A) (A) (A) (A) (A) (A) (A) (A) (A) (A) (A) (A)
                 (A) (A) (A) (A) (A) (A) (A) (A) (A) (A) (A) (A)
                 (A) (A) (A) (A) (A) (A) (A) (A) (A) (A) (A) (A)
                 (A) (A) (A) (A) (A) (A) (A) (A) (A) (A) (A)
       Virtual   (A) (A) (A) (A) (A) (A) (A) (A) (A) (A) (A) (A)
                 (A) (A) (A) (A) (A) (A) (A) (A) (A) (A) (A) (A)
                 (A) (A) (A) (A) (A) (A) (A) (A) (A) (A) (A) (A)
                 (A) (A) (A) (A) (A) (A) (A) (A) (A) (A) (A) (A)
                 (A) (A) (A) (A) (A) (A) (A) (A) (A) (A) (A) (A)
                 (A) (A) (A) (A) (A) (A) (A) (A) (A) (A) (A) (A)
                 (A) (A) (A) (A) (A) (A) (A) (A) (A) (A) (A) (A)
                 (A) (A) (A) (A) (A) (A) (A) (A) (A) (A) (A) (A)
                 (A) (A) (A) (A) (A) (A) (A) (A) (A) (A) (A) (A)
                 (A) (A) (A) (A) (A) (A) (A) (A) (A) (A) (A) (A)
                 (A) (A) (A) (A) (A) (A) (A) (A) (A) (A) (A) (A)
                 (A) (A) (A) (A) (A) (A) (A) (A) (A) (A) (A) (A)
                 (A) (A) (A) (A) (A) (A) (A) (A) (A) (A) (A) (A)
                 (A) (A) (A) (A) (A) (A) (A) (A) (A) (A) (A) (A)
                 (A) (A) (A) (A) (A) (A) (A) (A) (A) (A) (A) (A)
                 (A) (A) (A) (A) (A) (A) (A) (A) (A) (A) (A) (A)
                 (A) (A) (A) (A) (A) (A) (A) (A) (A) (A) (A) (A)
                 (A) (A) (A) (A) (A) (A) (A) (A) (A) (A) (A) (A)
                 (A) (A) (A) (A) (A) (A) (A) (A) (A) (A) (A) (A)
                 (A) (A) (A) (A) (A) (A) (A) (A) (A) (A) (A) (A)
                 (A) (A) (A) (A) (A) (A) (A) (A) (A) (A) (A) (A)
                 (A) (A) (A) (A) (A) (A) (A) (A) (A) (A) (A) (A)
                 (A) (A) (A) (A) (A) (A) (A) (A) (A) (A) (A) (A)
                 (A) (A) (A) (A) (A) (A) (A) (A) (A) (A) (A) (A)
                 (A) (A) (A) (A) (A) (A) (A) (A) (A) (A) (A) (A)
                 (A) (A) (A) (A) (A) (A) (A) (A) (A) (A) (A) (A)
                 (A) (A) (A) (A) (A) (A) (A) (A) (A) (A) (A) (A)
                 (A) (A) (A) (A) (A) (A) (A) (A) (A) (A) (A) (A)
                 (A) (A) (A) (A) (A) (A) (A) (A) (A) (A) (A) (A)
                 (A) (A) (A) (A) (A) (A) (A) (A) (A) (A) (A) (A)
                 (A) (A) (A) (A) (A) (A) (A) (A) (A) (A) (A) (A)
                 (A) (A) (A) (A) (A) (A) (A) (A) (A) (A) (A) (A)
                 (A) (A) (A) (A) (A) (A) (A) (A) (A) (A) (A) (A)
                 (A) (A) (A) (A) (A) (A) (A) (A) (A) (A) (A) (A)
                 (A) (A) (A) (A) (A) (A) (A) (A) (A) (A) (A) (A)
                 (A) (A) (A) (A) (A) (A) (A) (A) (A) (A) (A) (A)
                 (A) (A) (A) (A) (A) (A) (A) (A) (A) (A) (A) (A)
                 (A) (A) (A) (A) (A) (A) (A) (A) (A) (A) (A) (A)
                 (A) (A) (A) (A) (A) (A) (A) (A) (A) (A) (A) (A)
                 (A) (A) (A) (A) (A) (A) (A) (A) (A) (A) (A) (A)
                 (A) (A) (A) (A) (A) (A) (A) (A) (A) (A) (A) (A)
                 (A) (A) (A) (A) (A) (A) (A) (A) (A) (A) (A) (A)
                 (A) (A) (A) (A) (A) (A) (A) (A) (A) (A) (A) (A)
                 (A) (A) (A) (A) (A) (A) (A) (A) (A) (A) (A) (A)
                 (A) (A) (A) (A) (A) (A) (A)
 Beta  Orbitals:
       Occupied  (A) (A) (A) (A) (A) (A) (A) (A) (A) (A) (A) (A)
                 (A) (A) (A) (A) (A) (A) (A) (A) (A) (A) (A) (A)
                 (A) (A) (A) (A) (A) (A) (A) (A) (A) (A) (A) (A)
                 (A) (A) (A) (A) (A) (A) (A) (A) (A) (A) (A) (A)
                 (A) (A) (A) (A) (A) (A) (A) (A) (A) (A) (A) (A)
                 (A) (A) (A) (A) (A) (A) (A) (A) (A) (A) (A) (A)
                 (A) (A) (A) (A) (A) (A) (A) (A) (A)
       Virtual   (A) (A) (A) (A) (A) (A) (A) (A) (A) (A) (A) (A)
                 (A) (A) (A) (A) (A) (A) (A) (A) (A) (A) (A) (A)
                 (A) (A) (A) (A) (A) (A) (A) (A) (A) (A) (A) (A)
                 (A) (A) (A) (A) (A) (A) (A) (A) (A) (A) (A) (A)
                 (A) (A) (A) (A) (A) (A) (A) (A) (A) (A) (A) (A)
                 (A) (A) (A) (A) (A) (A) (A) (A) (A) (A) (A) (A)
                 (A) (A) (A) (A) (A) (A) (A) (A) (A) (A) (A) (A)
                 (A) (A) (A) (A) (A) (A) (A) (A) (A) (A) (A) (A)
                 (A) (A) (A) (A) (A) (A) (A) (A) (A) (A) (A) (A)
                 (A) (A) (A) (A) (A) (A) (A) (A) (A) (A) (A) (A)
                 (A) (A) (A) (A) (A) (A) (A) (A) (A) (A) (A) (A)
                 (A) (A) (A) (A) (A) (A) (A) (A) (A) (A) (A) (A)
                 (A) (A) (A) (A) (A) (A) (A) (A) (A) (A) (A) (A)
                 (A) (A) (A) (A) (A) (A) (A) (A) (A) (A) (A) (A)
                 (A) (A) (A) (A) (A) (A) (A) (A) (A) (A) (A) (A)
                 (A) (A) (A) (A) (A) (A) (A) (A) (A) (A) (A) (A)
                 (A) (A) (A) (A) (A) (A) (A) (A) (A) (A) (A) (A)
                 (A) (A) (A) (A) (A) (A) (A) (A) (A) (A) (A) (A)
                 (A) (A) (A) (A) (A) (A) (A) (A) (A) (A) (A) (A)
                 (A) (A) (A) (A) (A) (A) (A) (A) (A) (A) (A) (A)
                 (A) (A) (A) (A) (A) (A) (A) (A) (A) (A) (A) (A)
                 (A) (A) (A) (A) (A) (A) (A) (A) (A) (A) (A) (A)
                 (A) (A) (A) (A) (A) (A) (A) (A) (A) (A) (A) (A)
                 (A) (A) (A) (A) (A) (A) (A) (A) (A) (A) (A) (A)
                 (A) (A) (A) (A) (A) (A) (A) (A) (A) (A) (A) (A)
                 (A) (A) (A) (A) (A) (A) (A) (A) (A) (A) (A) (A)
                 (A) (A) (A) (A) (A) (A) (A) (A) (A) (A) (A) (A)
                 (A) (A) (A) (A) (A) (A) (A) (A) (A) (A) (A) (A)
                 (A) (A) (A) (A) (A) (A) (A) (A) (A) (A) (A) (A)
                 (A) (A) (A) (A) (A) (A) (A) (A) (A) (A) (A) (A)
                 (A) (A) (A) (A) (A) (A) (A) (A) (A) (A) (A) (A)
                 (A) (A) (A) (A) (A) (A) (A) (A) (A) (A) (A) (A)
                 (A) (A) (A) (A) (A) (A) (A) (A) (A) (A) (A) (A)
                 (A) (A) (A) (A) (A) (A) (A) (A) (A) (A) (A) (A)
                 (A) (A) (A) (A) (A) (A) (A) (A) (A) (A) (A) (A)
                 (A) (A) (A) (A) (A) (A) (A) (A) (A) (A) (A) (A)
                 (A) (A) (A) (A) (A) (A) (A) (A) (A) (A) (A) (A)
                 (A) (A) (A) (A) (A) (A) (A) (A) (A) (A) (A) (A)
                 (A) (A) (A) (A) (A) (A) (A) (A) (A) (A) (A) (A)
                 (A) (A) (A) (A) (A) (A) (A) (A) (A) (A) (A) (A)
                 (A) (A) (A) (A) (A) (A) (A) (A) (A) (A) (A) (A)
                 (A) (A) (A) (A) (A) (A) (A) (A) (A) (A) (A) (A)
                 (A) (A) (A) (A) (A) (A) (A) (A) (A) (A) (A) (A)
                 (A) (A) (A) (A) (A) (A) (A) (A) (A) (A) (A) (A)
                 (A) (A) (A) (A) (A) (A) (A) (A) (A)
 The electronic state is 3-A.
 Alpha  occ. eigenvalues --  -10.20377 -10.19420 -10.19237 -10.19237 -10.19191
 Alpha  occ. eigenvalues --  -10.19191 -10.19081 -10.19080 -10.19042 -10.19038
 Alpha  occ. eigenvalues --  -10.18997 -10.18997 -10.18953 -10.18953 -10.18298
 Alpha  occ. eigenvalues --  -10.18298 -10.18272 -10.18272 -10.18236 -10.18236
 Alpha  occ. eigenvalues --  -10.18158 -10.18157 -10.18000 -10.17981 -10.17981
 Alpha  occ. eigenvalues --   -0.90969  -0.88662  -0.85928  -0.84947  -0.83194
 Alpha  occ. eigenvalues --   -0.80186  -0.79209  -0.77701  -0.75498  -0.75369
 Alpha  occ. eigenvalues --   -0.73801  -0.71698  -0.68393  -0.65094  -0.64068
 Alpha  occ. eigenvalues --   -0.63229  -0.62608  -0.61735  -0.57764  -0.57530
 Alpha  occ. eigenvalues --   -0.53598  -0.53254  -0.52344  -0.51931  -0.50255
 Alpha  occ. eigenvalues --   -0.50160  -0.48125  -0.46905  -0.46735  -0.45680
 Alpha  occ. eigenvalues --   -0.44369  -0.43928  -0.43088  -0.42381  -0.42304
 Alpha  occ. eigenvalues --   -0.41401  -0.41101  -0.40696  -0.40100  -0.39994
 Alpha  occ. eigenvalues --   -0.39482  -0.37975  -0.37640  -0.37173  -0.36449
 Alpha  occ. eigenvalues --   -0.34522  -0.34386  -0.33100  -0.32411  -0.31749
 Alpha  occ. eigenvalues --   -0.31136  -0.29492  -0.27917  -0.26269  -0.24430
 Alpha  occ. eigenvalues --   -0.21467  -0.17989  -0.17820
 Alpha virt. eigenvalues --   -0.06868  -0.04540  -0.02264  -0.01746  -0.00123
 Alpha virt. eigenvalues --    0.00571   0.00607   0.00948   0.01727   0.01864
 Alpha virt. eigenvalues --    0.02195   0.02312   0.03249   0.03273   0.03801
 Alpha virt. eigenvalues --    0.04142   0.04750   0.05105   0.05333   0.05730
 Alpha virt. eigenvalues --    0.06007   0.06691   0.07006   0.07439   0.07490
 Alpha virt. eigenvalues --    0.07505   0.08190   0.08566   0.09035   0.09666
 Alpha virt. eigenvalues --    0.10083   0.10268   0.10762   0.11133   0.12096
 Alpha virt. eigenvalues --    0.12343   0.12402   0.12941   0.12974   0.13264
 Alpha virt. eigenvalues --    0.13266   0.13420   0.13946   0.14562   0.15217
 Alpha virt. eigenvalues --    0.15602   0.15746   0.16445   0.16480   0.16671
 Alpha virt. eigenvalues --    0.16811   0.17031   0.17192   0.17372   0.17734
 Alpha virt. eigenvalues --    0.17911   0.17933   0.18146   0.18712   0.18816
 Alpha virt. eigenvalues --    0.18838   0.19444   0.19534   0.19852   0.20241
 Alpha virt. eigenvalues --    0.20346   0.20515   0.20711   0.21238   0.21428
 Alpha virt. eigenvalues --    0.21865   0.22062   0.22179   0.22443   0.22672
 Alpha virt. eigenvalues --    0.22757   0.23084   0.23384   0.23704   0.24123
 Alpha virt. eigenvalues --    0.24399   0.24516   0.24954   0.25328   0.26147
 Alpha virt. eigenvalues --    0.26232   0.26324   0.26471   0.26722   0.26941
 Alpha virt. eigenvalues --    0.27548   0.27582   0.27799   0.27994   0.28332
 Alpha virt. eigenvalues --    0.28489   0.28759   0.29414   0.29500   0.29752
 Alpha virt. eigenvalues --    0.30105   0.30247   0.30749   0.31181   0.31188
 Alpha virt. eigenvalues --    0.31733   0.31785   0.31903   0.32550   0.32705
 Alpha virt. eigenvalues --    0.33241   0.33597   0.34018   0.34343   0.34617
 Alpha virt. eigenvalues --    0.36185   0.37105   0.37253   0.38329   0.39177
 Alpha virt. eigenvalues --    0.39334   0.40677   0.41043   0.41504   0.41557
 Alpha virt. eigenvalues --    0.42296   0.43421   0.44101   0.44374   0.45296
 Alpha virt. eigenvalues --    0.45559   0.46919   0.47372   0.48109   0.49061
 Alpha virt. eigenvalues --    0.49107   0.51001   0.52396   0.52613   0.52685
 Alpha virt. eigenvalues --    0.52829   0.52949   0.53399   0.54201   0.54243
 Alpha virt. eigenvalues --    0.54536   0.55176   0.55258   0.55582   0.56096
 Alpha virt. eigenvalues --    0.56557   0.57338   0.57346   0.58247   0.58416
 Alpha virt. eigenvalues --    0.58803   0.58942   0.58985   0.60202   0.60374
 Alpha virt. eigenvalues --    0.60842   0.60949   0.61743   0.62406   0.63304
 Alpha virt. eigenvalues --    0.63571   0.63809   0.64316   0.64801   0.65036
 Alpha virt. eigenvalues --    0.65604   0.66072   0.66204   0.67712   0.67883
 Alpha virt. eigenvalues --    0.68056   0.68503   0.68646   0.70171   0.70463
 Alpha virt. eigenvalues --    0.70496   0.71026   0.71251   0.71608   0.72046
 Alpha virt. eigenvalues --    0.72366   0.72882   0.72980   0.73554   0.73814
 Alpha virt. eigenvalues --    0.74083   0.74103   0.74319   0.75120   0.75774
 Alpha virt. eigenvalues --    0.76277   0.76838   0.77339   0.79956   0.80953
 Alpha virt. eigenvalues --    0.81105   0.81892   0.82569   0.83308   0.84436
 Alpha virt. eigenvalues --    0.84649   0.86117   0.86764   0.88073   0.88226
 Alpha virt. eigenvalues --    0.89568   0.89903   0.90230   0.91002   0.91076
 Alpha virt. eigenvalues --    0.91971   0.92316   0.92996   0.93138   0.93394
 Alpha virt. eigenvalues --    0.93706   0.94273   0.94804   0.95504   0.95646
 Alpha virt. eigenvalues --    0.96708   0.96948   0.98121   0.98167   0.99178
 Alpha virt. eigenvalues --    0.99609   1.00024   1.00479   1.00587   1.01195
 Alpha virt. eigenvalues --    1.02174   1.02400   1.02760   1.04175   1.04210
 Alpha virt. eigenvalues --    1.04973   1.05246   1.06987   1.07071   1.07773
 Alpha virt. eigenvalues --    1.07993   1.09631   1.10039   1.11175   1.11873
 Alpha virt. eigenvalues --    1.13169   1.14318   1.14341   1.15569   1.16460
 Alpha virt. eigenvalues --    1.17161   1.17535   1.18482   1.20159   1.21376
 Alpha virt. eigenvalues --    1.22762   1.23463   1.26818   1.29204   1.31103
 Alpha virt. eigenvalues --    1.33395   1.35108   1.36923   1.38982   1.39158
 Alpha virt. eigenvalues --    1.41412   1.42335   1.43277   1.43739   1.44693
 Alpha virt. eigenvalues --    1.45130   1.46669   1.47068   1.47708   1.47964
 Alpha virt. eigenvalues --    1.48096   1.49029   1.49584   1.50265   1.50713
 Alpha virt. eigenvalues --    1.50722   1.51443   1.51886   1.52955   1.55053
 Alpha virt. eigenvalues --    1.55137   1.55612   1.55796   1.56506   1.57144
 Alpha virt. eigenvalues --    1.57323   1.57983   1.58715   1.59385   1.59947
 Alpha virt. eigenvalues --    1.60813   1.61989   1.62517   1.63050   1.64537
 Alpha virt. eigenvalues --    1.65036   1.66863   1.68637   1.69969   1.70731
 Alpha virt. eigenvalues --    1.71775   1.72166   1.72783   1.73280   1.73714
 Alpha virt. eigenvalues --    1.74015   1.74866   1.74959   1.75667   1.76382
 Alpha virt. eigenvalues --    1.79284   1.79750   1.79815   1.81320   1.82034
 Alpha virt. eigenvalues --    1.83893   1.85339   1.85737   1.87156   1.87638
 Alpha virt. eigenvalues --    1.88081   1.88255   1.89218   1.89676   1.89729
 Alpha virt. eigenvalues --    1.91483   1.91544   1.92640   1.93090   1.93697
 Alpha virt. eigenvalues --    1.93915   1.94799   1.95022   1.95375   1.96912
 Alpha virt. eigenvalues --    1.97250   1.98154   1.98721   1.99445   2.00149
 Alpha virt. eigenvalues --    2.01736   2.03717   2.04408   2.04713   2.05960
 Alpha virt. eigenvalues --    2.06504   2.06799   2.07969   2.08108   2.08946
 Alpha virt. eigenvalues --    2.10695   2.10973   2.11724   2.13452   2.16054
 Alpha virt. eigenvalues --    2.16733   2.17122   2.17700   2.18229   2.21345
 Alpha virt. eigenvalues --    2.21639   2.23039   2.23278   2.24469   2.24599
 Alpha virt. eigenvalues --    2.27456   2.27784   2.29416   2.29891   2.33040
 Alpha virt. eigenvalues --    2.34931   2.36170   2.36928   2.37268   2.38990
 Alpha virt. eigenvalues --    2.39037   2.42680   2.43805   2.44431   2.46377
 Alpha virt. eigenvalues --    2.47852   2.49365   2.49619   2.52896   2.53969
 Alpha virt. eigenvalues --    2.54551   2.55106   2.57679   2.58782   2.58867
 Alpha virt. eigenvalues --    2.60621   2.63488   2.64450   2.66162   2.67203
 Alpha virt. eigenvalues --    2.68647   2.69171   2.69985   2.71244   2.71302
 Alpha virt. eigenvalues --    2.72281   2.73286   2.73671   2.74024   2.74386
 Alpha virt. eigenvalues --    2.74664   2.75494   2.75602   2.76552   2.76572
 Alpha virt. eigenvalues --    2.76682   2.77344   2.78009   2.78785   2.79073
 Alpha virt. eigenvalues --    2.79315   2.80267   2.80691   2.82255   2.82994
 Alpha virt. eigenvalues --    2.83425   2.83869   2.84602   2.85937   2.86702
 Alpha virt. eigenvalues --    2.88124   2.88615   2.88788   2.89159   2.91699
 Alpha virt. eigenvalues --    2.91997   2.92693   2.94490   2.96649   2.96724
 Alpha virt. eigenvalues --    3.01746   3.04531   3.04651   3.06801   3.07487
 Alpha virt. eigenvalues --    3.10175   3.13121   3.15050   3.15366   3.16413
 Alpha virt. eigenvalues --    3.19275   3.20794   3.22406   3.23300   3.23422
 Alpha virt. eigenvalues --    3.25288   3.25451   3.34095   3.34173   3.36631
 Alpha virt. eigenvalues --    3.37443   3.39279   3.39570   3.40942   3.42719
 Alpha virt. eigenvalues --    3.43546   3.44933   3.45936   3.48575   3.49634
 Alpha virt. eigenvalues --    3.52625   3.53766   3.53905   3.55285   3.57345
 Alpha virt. eigenvalues --    3.60335   3.62082   3.63641   3.65359   3.68972
 Alpha virt. eigenvalues --    3.71590   3.78607   3.79426   3.87398   3.88854
 Alpha virt. eigenvalues --    3.99443   4.05104   4.05280   4.08813   4.10434
 Alpha virt. eigenvalues --    4.11675   4.11741   4.20628   4.24018   4.30824
 Alpha virt. eigenvalues --    4.30877   4.38642   4.56540   4.65631   4.77404
 Alpha virt. eigenvalues --    4.81642   4.82170   4.83743   4.84614   4.88574
 Alpha virt. eigenvalues --   23.44276  23.63156  23.73039  23.81486  23.84160
 Alpha virt. eigenvalues --   23.89082  23.90178  23.90993  23.91862  23.93535
 Alpha virt. eigenvalues --   23.95922  23.99626  24.00267  24.01623  24.01934
 Alpha virt. eigenvalues --   24.05115  24.05470  24.05517  24.06081  24.08554
 Alpha virt. eigenvalues --   24.13811  24.17247  24.17330  24.21086  24.21183
  Beta  occ. eigenvalues --  -10.20491 -10.19317 -10.19317 -10.19232 -10.19155
  Beta  occ. eigenvalues --  -10.19139 -10.19100 -10.19100 -10.19080 -10.19080
  Beta  occ. eigenvalues --  -10.18951 -10.18950 -10.18272 -10.18272 -10.18166
  Beta  occ. eigenvalues --  -10.18166 -10.18155 -10.18154 -10.18096 -10.18049
  Beta  occ. eigenvalues --  -10.18048 -10.17907 -10.17907 -10.17835 -10.17835
  Beta  occ. eigenvalues --   -0.90682  -0.88389  -0.85626  -0.84381  -0.82981
  Beta  occ. eigenvalues --   -0.79666  -0.79010  -0.77131  -0.75243  -0.74970
  Beta  occ. eigenvalues --   -0.73454  -0.71416  -0.66959  -0.64906  -0.64006
  Beta  occ. eigenvalues --   -0.62483  -0.62300  -0.61528  -0.57627  -0.56988
  Beta  occ. eigenvalues --   -0.53417  -0.52635  -0.52182  -0.51822  -0.49997
  Beta  occ. eigenvalues --   -0.49911  -0.47726  -0.46518  -0.46486  -0.44862
  Beta  occ. eigenvalues --   -0.44146  -0.43784  -0.42891  -0.42224  -0.42044
  Beta  occ. eigenvalues --   -0.40920  -0.40844  -0.40072  -0.39979  -0.39642
  Beta  occ. eigenvalues --   -0.39099  -0.37666  -0.37454  -0.36590  -0.36224
  Beta  occ. eigenvalues --   -0.34432  -0.33750  -0.32842  -0.32247  -0.31149
  Beta  occ. eigenvalues --   -0.29745  -0.28824  -0.26425  -0.25484  -0.23261
  Beta  occ. eigenvalues --   -0.20727
  Beta virt. eigenvalues --   -0.09687  -0.09248  -0.06190  -0.03733  -0.01605
  Beta virt. eigenvalues --   -0.00673  -0.00008   0.00628   0.00745   0.01299
  Beta virt. eigenvalues --    0.01839   0.01878   0.02437   0.03235   0.03272
  Beta virt. eigenvalues --    0.03426   0.03867   0.04431   0.04795   0.05144
  Beta virt. eigenvalues --    0.05371   0.05777   0.06164   0.06857   0.07321
  Beta virt. eigenvalues --    0.07465   0.07586   0.07591   0.08459   0.08783
  Beta virt. eigenvalues --    0.09391   0.09714   0.10147   0.10325   0.11094
  Beta virt. eigenvalues --    0.11445   0.12414   0.12484   0.12529   0.12935
  Beta virt. eigenvalues --    0.13008   0.13330   0.13351   0.13706   0.14175
  Beta virt. eigenvalues --    0.14636   0.15359   0.15659   0.15825   0.16489
  Beta virt. eigenvalues --    0.16577   0.16733   0.16961   0.17262   0.17394
  Beta virt. eigenvalues --    0.17450   0.17781   0.18113   0.18116   0.18506
  Beta virt. eigenvalues --    0.18820   0.18861   0.19000   0.19606   0.19672
  Beta virt. eigenvalues --    0.20164   0.20407   0.20428   0.20752   0.20953
  Beta virt. eigenvalues --    0.21380   0.21637   0.21989   0.22086   0.22298
  Beta virt. eigenvalues --    0.22574   0.22872   0.22892   0.23159   0.23653
  Beta virt. eigenvalues --    0.23911   0.24394   0.24537   0.24642   0.25053
  Beta virt. eigenvalues --    0.25400   0.26240   0.26340   0.26446   0.26557
  Beta virt. eigenvalues --    0.26790   0.27051   0.27661   0.27690   0.27868
  Beta virt. eigenvalues --    0.28156   0.28548   0.28555   0.28815   0.29613
  Beta virt. eigenvalues --    0.29648   0.29916   0.30213   0.30371   0.30871
  Beta virt. eigenvalues --    0.31205   0.31236   0.31775   0.31875   0.32143
  Beta virt. eigenvalues --    0.32612   0.32812   0.33279   0.33919   0.34361
  Beta virt. eigenvalues --    0.34629   0.34663   0.36397   0.37432   0.37456
  Beta virt. eigenvalues --    0.38559   0.39308   0.39428   0.40784   0.41215
  Beta virt. eigenvalues --    0.41670   0.41922   0.42583   0.43548   0.44314
  Beta virt. eigenvalues --    0.44457   0.45741   0.45913   0.47034   0.47676
  Beta virt. eigenvalues --    0.48421   0.49146   0.49398   0.51372   0.52508
  Beta virt. eigenvalues --    0.52786   0.52876   0.52929   0.53364   0.53851
  Beta virt. eigenvalues --    0.54477   0.54722   0.54979   0.55563   0.55606
  Beta virt. eigenvalues --    0.55882   0.56721   0.57365   0.57820   0.58259
  Beta virt. eigenvalues --    0.58480   0.58576   0.59042   0.59154   0.59388
  Beta virt. eigenvalues --    0.60327   0.60406   0.60905   0.61280   0.62357
  Beta virt. eigenvalues --    0.62722   0.63653   0.63724   0.63945   0.64470
  Beta virt. eigenvalues --    0.65026   0.65159   0.65843   0.66257   0.66857
  Beta virt. eigenvalues --    0.67972   0.68042   0.68729   0.68874   0.69334
  Beta virt. eigenvalues --    0.70480   0.70597   0.70638   0.71217   0.71450
  Beta virt. eigenvalues --    0.71771   0.72188   0.72653   0.73109   0.73227
  Beta virt. eigenvalues --    0.73793   0.74049   0.74297   0.74332   0.74426
  Beta virt. eigenvalues --    0.75264   0.75978   0.76426   0.77204   0.77559
  Beta virt. eigenvalues --    0.80208   0.81314   0.81323   0.81898   0.82636
  Beta virt. eigenvalues --    0.83619   0.84676   0.84936   0.86255   0.87059
  Beta virt. eigenvalues --    0.88552   0.88567   0.89731   0.90279   0.90350
  Beta virt. eigenvalues --    0.91152   0.91771   0.92194   0.92641   0.93188
  Beta virt. eigenvalues --    0.93212   0.93502   0.93788   0.94378   0.95035
  Beta virt. eigenvalues --    0.95721   0.95838   0.97053   0.97153   0.98513
  Beta virt. eigenvalues --    0.98527   0.99357   0.99978   1.00393   1.00806
  Beta virt. eigenvalues --    1.00925   1.01578   1.02414   1.02863   1.03085
  Beta virt. eigenvalues --    1.04396   1.04649   1.05099   1.05486   1.07251
  Beta virt. eigenvalues --    1.07318   1.07932   1.08481   1.09991   1.10533
  Beta virt. eigenvalues --    1.11447   1.12089   1.13528   1.14698   1.14739
  Beta virt. eigenvalues --    1.15775   1.17097   1.17616   1.17853   1.18701
  Beta virt. eigenvalues --    1.20478   1.21536   1.23422   1.23690   1.27227
  Beta virt. eigenvalues --    1.29332   1.31367   1.33780   1.35329   1.37130
  Beta virt. eigenvalues --    1.39243   1.39424   1.41610   1.42614   1.43438
  Beta virt. eigenvalues --    1.43927   1.44898   1.45842   1.46916   1.47295
  Beta virt. eigenvalues --    1.47920   1.48074   1.48323   1.49271   1.49762
  Beta virt. eigenvalues --    1.50434   1.50917   1.50926   1.51890   1.52115
  Beta virt. eigenvalues --    1.53050   1.55379   1.55594   1.55758   1.56222
  Beta virt. eigenvalues --    1.56873   1.57744   1.57772   1.58224   1.59198
  Beta virt. eigenvalues --    1.60077   1.60434   1.61128   1.62547   1.62762
  Beta virt. eigenvalues --    1.63637   1.64938   1.65235   1.67026   1.68892
  Beta virt. eigenvalues --    1.70214   1.70854   1.72010   1.72408   1.73302
  Beta virt. eigenvalues --    1.73491   1.73923   1.74384   1.75286   1.75443
  Beta virt. eigenvalues --    1.75918   1.76823   1.79484   1.80169   1.80248
  Beta virt. eigenvalues --    1.81789   1.82627   1.84417   1.85732   1.85893
  Beta virt. eigenvalues --    1.87737   1.87958   1.88702   1.88996   1.89554
  Beta virt. eigenvalues --    1.89984   1.90219   1.91786   1.92169   1.92709
  Beta virt. eigenvalues --    1.93086   1.93854   1.94146   1.94934   1.95300
  Beta virt. eigenvalues --    1.95774   1.96993   1.98018   1.98587   1.99057
  Beta virt. eigenvalues --    1.99914   2.00435   2.02249   2.04029   2.04828
  Beta virt. eigenvalues --    2.05040   2.06127   2.06628   2.07230   2.08500
  Beta virt. eigenvalues --    2.08594   2.09178   2.11067   2.11737   2.11952
  Beta virt. eigenvalues --    2.13775   2.16394   2.17002   2.17232   2.18200
  Beta virt. eigenvalues --    2.18648   2.21855   2.22210   2.23424   2.23442
  Beta virt. eigenvalues --    2.24699   2.24754   2.28216   2.28243   2.29948
  Beta virt. eigenvalues --    2.30168   2.33330   2.35119   2.36391   2.37330
  Beta virt. eigenvalues --    2.37705   2.39229   2.39420   2.42974   2.43920
  Beta virt. eigenvalues --    2.44702   2.46458   2.48053   2.49947   2.49998
  Beta virt. eigenvalues --    2.53243   2.54105   2.55037   2.55232   2.57896
  Beta virt. eigenvalues --    2.58984   2.59354   2.60755   2.63728   2.64948
  Beta virt. eigenvalues --    2.66470   2.67621   2.69143   2.69480   2.70162
  Beta virt. eigenvalues --    2.71329   2.71355   2.72361   2.73450   2.74072
  Beta virt. eigenvalues --    2.74175   2.74765   2.75058   2.75912   2.75942
  Beta virt. eigenvalues --    2.76654   2.76785   2.77042   2.77433   2.78212
  Beta virt. eigenvalues --    2.78841   2.79194   2.79692   2.80574   2.81566
  Beta virt. eigenvalues --    2.82465   2.83255   2.83627   2.84394   2.84938
  Beta virt. eigenvalues --    2.86311   2.87212   2.88954   2.88956   2.89577
  Beta virt. eigenvalues --    2.90143   2.92009   2.92155   2.92828   2.95276
  Beta virt. eigenvalues --    2.97585   2.98104   3.02160   3.04987   3.05386
  Beta virt. eigenvalues --    3.07092   3.07731   3.10596   3.13472   3.15509
  Beta virt. eigenvalues --    3.15780   3.16617   3.19434   3.20851   3.22502
  Beta virt. eigenvalues --    3.23422   3.23568   3.25389   3.25508   3.34217
  Beta virt. eigenvalues --    3.34289   3.36726   3.37554   3.39317   3.39671
  Beta virt. eigenvalues --    3.41104   3.42931   3.43700   3.45070   3.46125
  Beta virt. eigenvalues --    3.48677   3.49764   3.52751   3.53798   3.54156
  Beta virt. eigenvalues --    3.55413   3.57506   3.60449   3.62143   3.63773
  Beta virt. eigenvalues --    3.65990   3.69409   3.71651   3.78860   3.79973
  Beta virt. eigenvalues --    3.88065   3.89022   3.99655   4.05286   4.05456
  Beta virt. eigenvalues --    4.08853   4.10466   4.12073   4.12195   4.21555
  Beta virt. eigenvalues --    4.24093   4.31004   4.31314   4.38810   4.57142
  Beta virt. eigenvalues --    4.66144   4.77763   4.81834   4.82401   4.83987
  Beta virt. eigenvalues --    4.84748   4.88640  23.44355  23.63290  23.73185
  Beta virt. eigenvalues --   23.81607  23.84265  23.89294  23.90553  23.91068
  Beta virt. eigenvalues --   23.91952  23.93685  23.96003  23.99541  24.00393
  Beta virt. eigenvalues --   24.01844  24.02163  24.05358  24.05689  24.05765
  Beta virt. eigenvalues --   24.06394  24.08732  24.13787  24.17356  24.17432
  Beta virt. eigenvalues --   24.21090  24.21186
          Condensed to atoms (all electrons):
               1          2          3          4          5          6
     1  C    9.596565   1.105434  -0.414820  -0.754662  -0.721516  -0.343158
     2  C    1.105434   6.872145   0.987234  -0.773630  -0.170482   0.566554
     3  C   -0.414820   0.987234   7.412719   0.913198   0.706786   0.802790
     4  C   -0.754662  -0.773630   0.913198  12.461927  -1.160133  -1.709456
     5  C   -0.721516  -0.170482   0.706786  -1.160133   9.966402   1.229675
     6  C   -0.343158   0.566554   0.802790  -1.709456   1.229675  11.422708
     7  C   -0.079857  -0.384687   0.566022   1.365034  -0.455743  -0.911208
     8  C   -0.429197  -0.450692  -0.334468  -0.732443  -0.062108  -1.118754
     9  C   -0.413269  -0.854469  -0.734437   0.463593   0.017826  -1.347610
    10  C   -0.840238  -0.748611   0.065166   2.483419  -0.342583  -1.766666
    11  C    0.177677  -0.212480  -0.451431  -0.854107  -0.089115  -0.170537
    12  C    0.026787   0.177402  -0.429009  -0.415025  -0.009470  -0.027300
    13  C   -0.009304  -0.089197  -0.062252   0.017792  -0.036493  -0.278575
    14  C   -0.026559  -0.170585  -1.118761  -1.348756  -0.279136  -0.943480
    15  C    0.120213   0.205253  -0.369335  -0.467324  -0.032164  -0.048101
    16  C   -0.001040   0.023541   0.143684   0.060654  -0.004193   0.031781
    17  C   -0.008475  -0.029969  -0.039659  -0.051595   0.001086  -0.016594
    18  C    0.014123   0.043326  -0.064174  -0.002317  -0.002042   0.011687
    19  C   -0.891959  -0.981413  -0.498997  -0.832759  -0.766481   0.538457
    20  C   -0.214879   0.770458   0.088664  -0.251364  -0.569962  -0.341848
    21  C    1.226943  -0.582666  -0.377542   0.287258   0.061241  -0.069361
    22  C   -0.292786   0.527372  -0.493066  -1.229190  -1.120259   0.175587
    23  C   -1.255624  -0.037369   1.137851   0.162489   0.066066  -0.553796
    24  H   -0.025178   0.031131   0.002998   0.001322  -0.003933  -0.001773
    25  H    0.025012  -0.001542   0.004229   0.002465   0.013288   0.001105
    26  H   -0.131332   0.005157  -0.009033   0.012837   0.071104   0.037275
    27  H   -0.084854  -0.014504  -0.016313   0.023395   0.355285  -0.036428
    28  H   -0.038256  -0.029928  -0.015999  -0.068407  -0.023740   0.340216
    29  H    0.005204  -0.000753   0.006030  -0.074539   0.022829   0.040102
    30  H    0.000549   0.000916   0.013625   0.053561   0.000535   0.011416
    31  H    0.000022   0.000214   0.001114   0.003661  -0.000016   0.000286
    32  H   -0.000003   0.000042  -0.000169   0.000216   0.000000   0.000024
    33  H   -0.000074  -0.000479  -0.000036  -0.000208   0.000000  -0.000031
    34  H    0.000000  -0.000001   0.000133   0.000131   0.000000   0.000007
    35  C    0.489475   0.571012  -1.810058  -2.126560  -0.322907   0.771835
    36  C   -0.363199  -0.331889   0.748984   0.260637   0.061591  -0.115014
    37  H   -0.001366   0.008272  -0.006709  -0.006396  -0.001068  -0.001902
    38  H    0.000301   0.005855  -0.004004   0.002717   0.000027   0.000437
    39  H    0.007961   0.006965  -0.006698   0.004552   0.000415  -0.001020
               7          8          9         10         11         12
     1  C   -0.079857  -0.429197  -0.413269  -0.840238   0.177677   0.026787
     2  C   -0.384687  -0.450692  -0.854469  -0.748611  -0.212480   0.177402
     3  C    0.566022  -0.334468  -0.734437   0.065166  -0.451431  -0.429009
     4  C    1.365034  -0.732443   0.463593   2.483419  -0.854107  -0.415025
     5  C   -0.455743  -0.062108   0.017826  -0.342583  -0.089115  -0.009470
     6  C   -0.911208  -1.118754  -1.347610  -1.766666  -0.170537  -0.027300
     7  C    9.131023   0.565438   1.364607   0.581721  -0.386599  -0.081355
     8  C    0.565438   7.410275   0.911908   0.066115   0.982348  -0.414389
     9  C    1.364607   0.911908  12.462318   2.484442  -0.774699  -0.758783
    10  C    0.581721   0.066115   2.484442   8.610773  -0.748662  -0.839756
    11  C   -0.386599   0.982348  -0.774699  -0.748662   6.866944   1.105917
    12  C   -0.081355  -0.414389  -0.758783  -0.839756   1.105917   9.596803
    13  C   -0.456256   0.707851  -1.161449  -0.344325  -0.168715  -0.721147
    14  C   -0.915583   0.802334  -1.709610  -1.766174   0.569714  -0.338518
    15  C   -0.511092  -0.488568  -1.225015  -0.311073   0.532363  -0.293009
    16  C   -0.315175  -0.374660   0.288795   0.060899  -0.578928   1.227979
    17  C    0.061465   0.086551  -0.252514  -0.081886   0.764465  -0.215896
    18  C   -0.008014  -0.495707  -0.830740  -0.112398  -0.973778  -0.889960
    19  C   -0.007889  -0.064022  -0.002041  -0.112733   0.043540   0.014157
    20  C    0.061107  -0.039768  -0.051710  -0.081882  -0.030114  -0.008488
    21  C   -0.314649   0.143525   0.060770   0.060790   0.023953  -0.000816
    22  C   -0.515145  -0.369626  -0.467155  -0.311789   0.206715   0.120895
    23  C    1.213396   0.745035   0.257146   0.091009  -0.336067  -0.361761
    24  H    0.003943  -0.000036  -0.000208  -0.000054  -0.000482  -0.000075
    25  H    0.000599   0.000133   0.000131   0.000270  -0.000001   0.000000
    26  H    0.003975  -0.000169   0.000217   0.001373   0.000042  -0.000003
    27  H    0.001320   0.001110   0.003658   0.007203   0.000214   0.000022
    28  H   -0.013958   0.013635   0.053572   0.111883   0.000917   0.000549
    29  H   -0.006478   0.006018  -0.074635   0.328289  -0.000745   0.005185
    30  H   -0.013953  -0.015982  -0.068371   0.111837  -0.029910  -0.038244
[...]
 3,0.00042022,-0.00018715,-0.00039044,-0.00042060,0.00004471,-0.0000136
 8,-0.17730144,0.02694388,-0.01075216,-0.01937123,0.00533946,-0.0018306
 4,0.00232851,0.00077659,-0.00000104,-0.00000876,-0.00040564,0.00394891
 ,-0.00301514,-0.00075451,-0.00066911,-0.00062490,-0.00013939,0.0000726
 2,0.00042899,-0.00020151,0.00038454,-0.00043171,0.00006408,-0.00736389
 ,0.01671575,0.00424562,-0.00429168,-0.00226436,0.00121009,0.00001493,0
 .00158089,-0.00006665,-0.00007462,-0.00076029,0.00011441,0.00006620,-0
 .00075692,0.00011613,-0.00001328,0.00160137,-0.00006829,0.00431590,-0.
 00227367,0.00120634,0.00732228,0.01672499,0.00425825,-0.04353564,-0.12
 248718,-0.02211167,0.00032838,0.00020737,0.00005479,0.00034776,-0.0001
 2138,-0.00015753,-0.00005193,-0.00003384,0.00002869,0.00000325,0.00002
 273,0.00000769,0.00004345,0.00000595,0.00009971,-0.00000042,-0.0000540
 5,-0.00019108,-0.00004339,0.00000697,0.00009759,-0.00000722,0.00001938
 ,0.00000840,0.00005987,-0.00002908,0.00002818,-0.00032836,0.00020013,0
 .00005235,-0.00035536,-0.00011708,-0.00015666,-0.00005633,0.48765193,-
 0.00229725,0.00010597,-0.00069133,0.00383576,-0.00014357,-0.00475715,-
 0.00523242,0.00141407,0.00319043,-0.00005819,-0.00017923,0.00581428,0.
 00012149,-0.00069386,-0.00003106,0.00020325,0.00002035,-0.00008620,-0.
 00001515,0.02044265,-0.06544258,0.00523644,0.00140583,0.00323577,0.000
 08506,-0.00015475,0.00575094,-0.00000862,-0.00023869,-0.00053023,-0.00
 382503,-0.00011297,-0.00481829,0.00229518,0.00009752,-0.00060949,-0.00
 009212,-0.00065491,-0.00011981,-0.00022998,-0.00002017,0.00002684,0.00
 029292,-0.00066073,0.00290842,0.00199766,-0.00014841,0.00537225,-0.001
 75935,-0.00120470,0.00020339,-0.00033634,0.00196689,0.00032362,0.00030
 628,0.00199629,0.00033630,0.00178459,-0.00118327,0.00019662,-0.0019949
 4,-0.00020012,0.00535960,-0.00029366,-0.00065023,0.00294877,-0.0338045
 6,-0.01674513,-0.06154880,-0.00005211,-0.00002426,-0.00016573,0.000102
 19,-0.00002075,-0.00047041,0.00007536,-0.00000128,0.00007051,0.0000165
 4,-0.00003335,0.00003992,0.00007141,-0.00007223,0.00005538,-0.00000318
 ,-0.00008999,-0.00080140,-0.00007026,-0.00007309,0.00004805,-0.0000243
 2,-0.00004249,0.00004479,-0.00006885,0.00000012,0.00007373,0.00005382,
 -0.00002677,-0.00017003,-0.00010833,-0.00001473,-0.00046691,-0.0000078
 2,0.00394996,0.37902075,0.00092596,0.00021289,0.00001234,-0.00072826,-
 0.00004251,-0.00003699,-0.00065091,-0.00124290,0.00164588,0.00078485,-
 0.00110899,0.00031104,0.00031910,0.00023067,0.00007824,-0.00084660,-0.
 00016342,-0.00021792,0.00719768,0.01474210,-0.00138335,-0.01375767,0.0
 0414648,0.00058528,-0.00194294,-0.00359031,0.00015319,-0.00009446,-0.0
 0060723,0.00011943,0.00597455,-0.04571423,-0.00282593,0.01232216,0.000
 85867,-0.00080300,-0.00088818,0.00247330,-0.00003132,0.00333122,0.0001
 8099,-0.00014231,-0.22579857,-0.07909171,0.02308240,-0.07760310,-0.005
 58620,0.01301579,0.01102982,0.02343314,0.00031499,-0.00641994,-0.00942
 356,-0.00007015,-0.00031951,-0.00089431,-0.00007336,-0.00066181,0.0007
 2077,-0.00005278,0.00078491,0.00045670,-0.00048162,-0.00229039,-0.0017
 6720,0.00078782,-0.03177882,0.00834607,0.00710124,-0.00000135,0.000000
 67,0.00000670,-0.00003700,0.00004757,0.00003377,0.00001201,-0.00000925
 ,-0.00001402,0.00001950,0.00001378,0.00001057,0.00003336,-0.00006550,-
 0.00001233,-0.00003158,0.00000112,-0.00006307,0.00000082,-0.00002706,0
 .00002992,-0.00002628,0.00021427,-0.00000605,0.00014091,-0.00013458,-0
 .00006288,0.00112723,-0.00176795,-0.00049587,-0.00053512,-0.00015864,-
 0.00024455,-0.16656800,0.04360878,0.03374701,0.54890637,0.00011017,-0.
 00020800,0.00003978,-0.00051787,-0.00095782,-0.00028363,-0.00179609,-0
 .00418811,0.00049872,0.00173316,-0.00013991,0.00067789,0.00037202,0.00
 007550,0.00003903,-0.00051184,-0.00021460,-0.00006229,0.03009109,-0.01
 837087,-0.00997728,-0.00737840,0.00449825,0.00057848,-0.00065412,-0.00
 221874,0.00041910,-0.00057983,0.00000113,-0.00005790,-0.03274729,-0.04
 232743,0.00128613,0.00991712,-0.00592809,-0.00137884,-0.00182849,0.000
 91400,0.00008463,0.00144187,-0.00024074,-0.00005838,-0.07635763,-0.157
 04639,0.00497045,-0.01011656,0.02048887,0.00273696,0.01095883,0.007207
 23,-0.00097438,-0.00406681,-0.00509306,0.00011096,-0.00038065,-0.00010
 391,-0.00003443,-0.00023436,0.00012284,0.00004422,-0.00014942,0.001140
 76,-0.00049105,-0.00406429,-0.00260911,-0.00194709,-0.00833528,0.01255
 307,0.00731434,0.00001387,-0.00006304,-0.00000849,-0.00015659,0.000047
 93,0.00004211,0.00000290,0.00002743,-0.00001952,-0.00000199,0.00003537
 ,0.00000105,0.00011715,-0.00004944,0.00002682,-0.00006267,0.00002459,-
 0.00002568,0.00012549,0.00002145,-0.00001335,-0.00002592,-0.00052335,0
 .00002773,-0.00001781,0.00010292,0.00002930,0.00138999,0.00066224,-0.0
 0008725,0.00119798,0.00077216,-0.00006975,0.04481833,-0.12251005,-0.01
 670789,0.04553963,0.64448752,0.00015458,-0.00012559,-0.00014022,-0.000
 24880,-0.00012715,0.00005461,0.00107223,0.00223251,0.00040225,-0.00030
 813,0.00017180,0.00004775,0.00029046,-0.00000277,-0.00002524,-0.000015
 10,0.00029543,-0.00003085,-0.00705369,0.00077870,0.00257345,0.00071428
 ,0.00030497,-0.00119258,0.00002016,-0.00026625,-0.00008115,0.00004974,
 0.00024758,-0.00004935,-0.00259504,0.00091018,0.00621327,0.00002686,-0
 .00009577,0.00344471,0.00023944,0.00016649,0.00020617,-0.00021394,-0.0
 0020624,-0.00011737,0.03426764,0.00923841,-0.05320595,0.00631491,0.003
 06989,0.00508503,0.00178469,-0.00112450,0.00373819,-0.00084525,-0.0007
 4086,-0.00086941,-0.00029701,-0.00006397,0.00001748,-0.00005748,-0.000
 10234,-0.00002559,-0.00056586,0.00050245,-0.00010899,-0.00128346,-0.00
 249031,0.00019872,-0.00717573,0.00733158,0.00397316,0.00003887,-0.0000
 1715,-0.00001238,-0.00008284,0.00003198,-0.00001412,-0.00000873,0.0000
 1758,0.00000166,-0.00001533,0.00001401,0.00001438,-0.00003840,0.000044
 91,0.00000181,0.00000184,0.00002650,0.00001647,0.00005546,0.00000177,-
 0.00000918,-0.00000291,-0.00005829,-0.00003552,-0.00001730,0.00004501,
 -0.00044764,-0.00045116,0.00048944,-0.00221710,0.00024142,0.00017523,0
 .00020544,0.03779086,-0.02204795,-0.06147768,-0.09612117,0.03316537,0.
 13249088,-0.00047271,0.00006314,-0.00008944,0.00042789,0.00029173,0.00
 034165,-0.00085911,0.00072226,-0.00000950,-0.00018729,-0.00029097,-0.0
 0003532,0.00018923,-0.00033812,0.00003997,0.00009155,0.00009712,-0.000
 02959,0.00315228,-0.00000590,0.00000782,-0.00085330,-0.00071792,0.0000
 0436,-0.00018483,0.00028868,0.00004140,0.00064889,0.00000109,-0.000008
 80,0.00042176,-0.00029349,-0.00034040,-0.00046652,-0.00006326,0.000090
 30,0.00018644,0.00033766,-0.00004242,0.00009252,-0.00009882,0.00003547
 ,0.00135808,0.00192182,-0.00015793,-0.00115937,0.00005826,-0.00077863,
 0.00056193,0.00022667,0.00001906,-0.00049833,-0.00051861,0.00005027,-0
 .00049662,0.00052306,-0.00004805,0.00056638,-0.00022701,-0.00002013,-0
 .00116027,-0.00006100,0.00078013,0.00135532,-0.00191490,0.00015142,-0.
 00984887,-0.00326548,-0.02742859,-0.00000384,-0.00000843,-0.00004794,-
 0.00003696,-0.00001462,-0.00006010,0.00002137,0.00001187,0.00002510,-0
 .00000588,-0.00000150,-0.00000227,0.00002153,0.00000858,0.00000559,0.0
 0001075,-0.00000064,0.00000037,0.00002089,-0.00000780,-0.00000559,-0.0
 0000599,0.00000140,0.00000206,0.00002118,-0.00001193,-0.00002512,-0.00
 000405,0.00000951,0.00004817,-0.00003551,0.00001392,0.00005967,-0.0318
 5020,0.00000221,0.00007884,-0.00988576,0.00326173,0.02744050,0.0485098
 7,0.00045419,-0.00008971,0.00002957,-0.00012692,0.00106128,0.00020487,
 -0.00120851,-0.00097976,0.00003328,-0.00044734,-0.00019068,-0.00109186
 ,-0.00007514,0.00001572,0.00006021,-0.00006040,0.00007011,0.00000497,-
 0.00001673,-0.01125481,0.03101312,0.00121090,-0.00098485,0.00004121,0.
 00045239,-0.00018418,-0.00110716,-0.00000165,-0.00074091,0.00014527,0.
 00012797,0.00106926,0.00019166,-0.00045373,-0.00009092,0.00004851,0.00
 008184,0.00002475,0.00004013,0.00005412,0.00006015,0.00003064,-0.00192
 036,-0.00120181,-0.00033731,0.00088700,-0.00007547,0.00034100,-0.00025
 677,-0.00039360,0.00006573,0.00026154,0.00033234,-0.00004259,-0.000269
 32,0.00033796,-0.00003980,0.00026148,-0.00038539,0.00006389,-0.0008823
 1,-0.00008741,0.00033885,0.00191560,-0.00119640,-0.00032595,-0.0068970
 7,0.00169773,-0.01486037,-0.00003537,-0.00002706,-0.00006010,-0.000005
 60,-0.00000542,-0.00003181,0.00000669,0.00000332,-0.00000056,0.0000116
 8,0.00000823,-0.00001125,0.00000313,-0.00000418,-0.00002279,-0.0000006
 5,0.00003828,0.00014002,-0.00000295,-0.00000425,-0.00002457,-0.0000138
 6,0.00000586,-0.00001020,-0.00000421,0.00000433,-0.00000004,0.00003578
 ,-0.00002871,-0.00006126,0.00000324,-0.00000350,-0.00003098,0.00000875
 ,-0.03527814,0.00592120,0.00690343,0.00170057,-0.01484151,0.00000089,0
 .04748531,0.00173550,-0.00045224,0.00012371,-0.00264298,0.00106383,-0.
 00059466,0.00334876,0.00013582,0.00063633,0.00015999,0.00042484,0.0000
 9399,0.00007021,0.00015642,-0.00002910,-0.00010324,0.00007244,0.000083
 80,0.00001305,0.01243605,-0.01083494,-0.00335079,0.00014212,0.00061368
 ,-0.00017101,0.00041395,0.00012543,0.00000378,-0.00003366,-0.00018637,
 0.00263956,0.00105052,-0.00056880,-0.00173649,-0.00044791,0.00008468,-
 0.00008363,0.00013869,0.00001302,0.00011557,0.00009081,0.00003048,-0.0
 0282349,-0.00287859,0.00001074,0.00126680,-0.00017655,-0.00006429,-0.0
 0009697,-0.00006168,0.00010065,0.00100983,-0.00024568,-0.00006847,-0.0
 0099649,-0.00025809,-0.00007393,0.00008716,-0.00007012,0.00010309,-0.0
 0126575,-0.00015519,-0.00005942,0.00282530,-0.00288197,-0.00001021,-0.
 01557499,-0.00577271,-0.01311112,0.00002871,0.00001596,-0.00005980,-0.
 00003073,-0.00000111,-0.00001399,-0.00000894,-0.00000468,0.00000453,-0
 .00000964,0.00000977,-0.00000125,-0.00000401,0.00002102,0.00000550,0.0
 0000146,0.00000602,-0.00000706,0.00000345,0.00002173,0.00000882,0.0000
 1271,0.00001370,-0.00000356,0.00000756,-0.00000428,0.00000278,-0.00002
 941,0.00001536,-0.00005819,0.00003218,-0.00000319,-0.00001565,0.000085
 92,0.01116904,-0.21922404,0.01557204,-0.00575459,-0.01309220,-0.000090
 68,-0.00756193,0.25644469,-0.00009915,-0.00004696,0.00000121,0.0003831
 5,0.00005622,0.00005405,0.00029665,0.00151931,-0.00030413,-0.00035900,
 -0.00003703,-0.00018380,0.00002060,-0.00001250,-0.00000974,0.00005592,
 0.00011588,0.00002406,-0.00434196,0.00016879,0.00243246,-0.00037645,0.
 00025116,-0.00012548,0.00001677,-0.00011801,-0.00015099,0.00001932,0.0
 0012753,0.00001086,-0.00468354,-0.00114366,0.00151702,0.00068183,-0.00
 140260,-0.00004610,-0.00044285,0.00001980,-0.00000746,0.00004163,-0.00
 000623,0.00000253,0.00395392,-0.02685098,-0.00097119,0.00107067,-0.001
 55733,-0.00095275,0.00013202,0.00044382,0.00000161,-0.00001573,-0.0001
 3144,-0.00002206,0.00003988,-0.00001478,0.00000338,-0.00004272,-0.0000
 0385,-0.00000265,-0.00000042,0.00005854,0.00002785,-0.00021951,-0.0003
 6114,-0.00005400,0.00230414,0.00176675,-0.00003920,-0.00003034,-0.0000
 1811,-0.00000021,0.00000028,-0.00000062,-0.00000314,-0.00000702,-0.000
 00619,0.00000061,-0.00000772,-0.00000514,-0.00000281,-0.00004093,0.000
 02881,-0.00000477,0.00001600,0.00000307,0.00002161,0.00002448,-0.00000
 151,0.00001201,0.00000391,-0.00015407,-0.00000046,-0.00002693,0.000054
 90,0.00000781,-0.00027595,0.00076754,0.00009018,-0.00001359,-0.0000029
 9,0.00006276,0.00144069,0.02457978,-0.00074054,-0.05434677,0.00066213,
 0.00684890,0.00017944,0.00008433,0.00056720,0.05501147,0.00007077,0.00
 003490,-0.00001459,-0.00020527,0.00013428,-0.00005380,-0.00045593,-0.0
 0073601,-0.00002594,0.00018500,0.00000302,0.00011796,0.00001296,-0.000
 00096,-0.00000472,-0.00006128,-0.00003433,-0.00000045,0.00204579,0.001
 15350,-0.00164386,-0.00005171,0.00024095,0.00016407,0.00003771,-0.0000
 0273,0.00008479,-0.00000319,-0.00010875,0.00000402,-0.00264826,0.00115
 672,-0.00023991,0.00054136,-0.00086315,-0.00005331,-0.00032257,0.00000
 837,0.00000888,0.00003513,0.00000010,0.00000069,0.00235929,-0.01296545
 ,-0.00089429,0.00198744,0.00071466,0.00006073,-0.00049929,0.00011270,0
 .00004341,0.00021115,0.00029911,0.00003514,-0.00003015,0.00002454,0.00
 000458,0.00005275,0.00000815,-0.00000144,-0.00000729,-0.00007340,0.000
 01424,0.00040044,0.00022450,0.00015277,-0.00156607,0.00056468,-0.00005
 601,0.00001333,0.00002254,-0.00000041,0.00000990,0.00000113,-0.0000010
 0,0.00000927,0.00000134,0.00000135,0.00001153,0.00000319,0.00000249,0.
 00002232,-0.00002190,0.00000411,0.00000622,-0.00002402,-0.00001874,-0.
 00000060,-0.00002417,-0.00000429,-0.00001456,-0.00009907,-0.00000082,-
 0.00004757,0.00003139,0.00000821,-0.00078571,0.00055569,0.00011686,-0.
 00005839,-0.00002822,-0.00002435,-0.00202123,-0.00967262,0.00138904,-0
 .00230971,-0.33265543,-0.01690208,0.00026695,-0.00035375,-0.00031545,0
 .00198796,0.35184908,-0.00004343,0.00000597,0.00000868,-0.00006989,0.0
 0001174,-0.00000699,-0.00007431,-0.00071379,0.00023727,0.00021669,0.00
 019784,0.00003697,-0.00002947,0.00004894,-0.00001480,-0.00003772,-0.00
 009515,0.00000642,0.00146724,0.00176053,0.00008969,0.00009977,0.000011
 29,-0.00038431,-0.00001828,-0.00017821,-0.00035387,-0.00010799,0.00004
 603,0.00000744,0.00126810,0.00020094,0.00524857,-0.00012772,0.00011688
 ,0.00028825,0.00004025,-0.00003854,-0.00033652,-0.00005578,0.00002395,
 0.00005228,-0.00023829,0.00284409,0.00385577,-0.00050019,0.00043292,-0
 .00327830,0.00002877,-0.00001928,-0.00012226,0.00009618,0.00001012,0.0
 0010681,0.00005323,0.00002493,0.00000260,0.00002491,-0.00004079,-0.000
 01595,-0.00002606,-0.00000124,-0.00000946,0.00005360,-0.00000918,-0.00
 001000,0.00035407,0.00043849,-0.00026492,-0.00000409,-0.00000570,0.000
 02377,0.00000269,0.00000024,0.00000500,0.00000325,-0.00000074,0.000005
 16,0.00000310,-0.00000335,0.00000435,0.00001590,-0.00000928,-0.0000111
 6,-0.00000933,-0.00000412,0.00002340,-0.00000649,0.00000399,0.00006139
 ,-0.00000007,0.00001636,-0.00002657,0.00000724,-0.00000610,0.00001817,
 0.00007534,-0.00012174,0.00018508,0.00000818,-0.00001035,0.00012161,-0
 .00074387,-0.00927049,0.00319497,0.00687996,-0.01458090,-0.02526351,-0
 .00059928,0.00087416,-0.00020268,-0.00803470,0.01794298,0.01650319,0.0
 0068211,0.00140322,0.00004468,-0.00468435,0.00114513,-0.00151565,-0.00
 037605,-0.00025151,0.00012357,0.00001618,0.00011874,0.00015384,-0.0004
 4166,-0.00002022,0.00000858,0.00004102,0.00000613,-0.00000313,-0.00433
 741,-0.00016866,-0.00243395,0.00029685,-0.00151747,0.00030469,-0.00035
 714,0.00003544,0.00018402,0.00001837,-0.00012687,-0.00001511,0.0003820
 8,-0.00005705,-0.00005541,-0.00009834,0.00004637,0.00000090,0.00002037
 ,0.00001274,0.00000731,0.00005579,-0.00011612,-0.00002048,-0.00021518,
 0.00036273,0.00005078,-0.00000293,-0.00005836,-0.00002698,-0.00004277,
 0.00000629,0.00000252,0.00003997,0.00001418,-0.00000335,-0.00001599,0.
 00013249,0.00002282,0.00013374,-0.00044604,-0.00000190,0.00106600,0.00
 155506,0.00095340,0.00395808,0.02684843,0.00099322,-0.05434423,-0.0005
 9533,-0.00685311,-0.00027580,-0.00076881,-0.00009053,-0.00001276,0.000
 00345,-0.00006294,-0.00002796,-0.00005415,-0.00000810,0.00000428,0.000
 15393,0.00000034,0.00002468,0.00000194,-0.00001195,0.00001583,-0.00000
 332,-0.00002149,-0.00004099,-0.00002879,0.00000476,-0.00000751,0.00000
 522,0.00000289,-0.00000804,0.00000547,-0.00000038,-0.00003038,0.000019
 12,0.00000040,0.00000136,0.00000015,0.00000308,0.00144141,-0.02456891,
 0.00071919,0.00230257,-0.00176956,0.00004451,0.00017810,-0.00008606,-0
 .00056749,-0.00036218,0.00082148,0.00002849,0.05500287,-0.00054214,-0.
 00086076,-0.00005901,0.00265133,0.00115347,-0.00023918,0.00005385,0.00
 023858,0.00015960,-0.00003927,-0.00000695,0.00009104,0.00032642,0.0000
 0476,0.00001540,-0.00003798,0.00000440,-0.00000715,-0.00204582,0.00115
 398,-0.00164380,0.00045385,-0.00073933,-0.00002463,-0.00017846,0.00000
 294,0.00011199,0.00000163,-0.00010368,-0.00000028,0.00020382,0.0001364
 1,-0.00005825,-0.00007002,0.00003555,-0.00000510,-0.00001162,0.0000024
 5,-0.00001443,0.00005923,-0.00003729,0.00001219,-0.00040498,0.00022394
 ,0.00014722,0.00001172,-0.00006677,0.00001499,-0.00004998,0.00000865,-
 0.00000095,0.00002707,0.00001649,0.00000269,-0.00021366,0.00029612,0.0
 0003545,0.00050075,0.00011736,0.00004321,-0.00199109,0.00071191,0.0000
 6421,-0.00235470,-0.01295802,-0.00090441,0.00236973,-0.33264020,-0.017
 18379,0.00078614,0.00055222,0.00011706,0.00006020,-0.00002740,-0.00002
 472,0.00004785,0.00003159,0.00000783,0.00001457,-0.00009852,-0.0000012
 4,0.00000086,-0.00002375,-0.00000353,-0.00000678,-0.00002411,-0.000018
 69,-0.00002234,-0.00002161,0.00000366,-0.00001299,0.00000203,0.0000029
 2,-0.00000830,0.00000186,0.00000157,-0.00001340,0.00001865,-0.00000068
 ,-0.00001292,0.00000306,-0.00000048,0.00202303,-0.00966508,0.00138767,
 0.00157424,0.00056427,-0.00004908,-0.00026814,-0.00035429,-0.00031847,
 -0.00082121,0.00051943,0.00009658,-0.00206050,0.35182763,0.00012429,0.
 00011447,0.00029746,-0.00126606,0.00019686,0.00524101,-0.00009937,0.00
 001288,-0.00037948,0.00001542,-0.00017891,-0.00035932,-0.00004244,-0.0
 0003446,-0.00034670,0.00005774,0.00002025,0.00006554,-0.00146672,0.001
 76414,0.00008518,0.00007427,-0.00071278,0.00023091,-0.00021913,0.00019
 687,0.00004591,0.00011054,0.00004630,0.00000377,0.00007090,0.00001093,
 -0.00000153,0.00004290,0.00000716,-0.00000044,0.00002574,0.00004548,-0
 .00000549,0.00004097,-0.00009206,-0.00000453,-0.00005894,-0.00000890,-
 0.00000401,0.00003116,-0.00000638,-0.00001045,-0.00002848,-0.00004192,
 -0.00001650,-0.00005054,0.00002890,0.00000422,-0.00009284,0.00000668,0
 .00010598,-0.00003215,-0.00001533,-0.00012193,0.00050799,0.00044048,-0
 .00327450,0.00021598,0.00284411,0.00384787,-0.00687105,-0.01487475,-0.
 02527495,-0.00007459,-0.00011956,0.00018498,-0.00000942,-0.00001071,0.
 00012175,-0.00000620,-0.00000705,0.00001877,0.00000028,0.00001573,-0.0
 0002607,0.00000644,0.00000375,0.00006071,0.00001007,-0.00000439,0.0000
 2346,-0.00001622,-0.00000875,-0.00001047,-0.00000291,-0.00000278,0.000
 00376,-0.00000230,0.00000021,0.00000457,0.00000383,-0.00000687,0.00002
 386,-0.00000322,0.00000024,0.00000455,0.00074736,-0.00928493,0.0031957
 9,-0.00034895,0.00043961,-0.00026941,0.00059763,0.00087377,-0.00020618
 ,-0.00002993,0.00009912,0.00021447,0.00803797,0.01824259,0.01652740\\-
 0.00007253,0.00004627,0.00000588,0.00001170,0.00003755,0.00003135,-0.0
 0000026,-0.00004876,0.00001248,0.00002112,0.00009936,-0.00002679,0.000
 06391,0.00004843,-0.00000927,-0.00007403,-0.00003313,0.00001507,0.0000
 0804,0.00008479,-0.00004054,-0.00000117,-0.00005412,0.00000991,-0.0000
 2848,0.00010368,-0.00002624,0.00000477,-0.00005684,0.00000331,-0.00001
 673,0.00004031,0.00003181,0.00008148,0.00003613,0.00000184,-0.00006769
 ,0.00005600,-0.00000832,0.00007744,-0.00003602,0.00001517,-0.00003518,
 -0.00009435,-0.00003014,0.00003720,0.00001168,-0.00001176,0.00000722,0
 .00000599,0.00001981,0.00000851,-0.00005346,-0.00002172,-0.00001445,-0
 .00006388,-0.00002459,-0.00000991,0.00001174,0.00001909,-0.00003404,0.
 00001285,-0.00001001,0.00003035,-0.00009224,-0.00002780,-0.00002089,0.
 00004609,-0.00000938,0.00000800,-0.00001669,-0.00000050,-0.00001196,-0
 .00001062,-0.00000576,-0.00000587,0.00001990,0.00000325,-0.00002579,-0
 .00001123,0.00000043,0.00002480,0.00001570,0.00000169,-0.00000024,0.00
 001804,0.00001086,-0.00002416,0.00001578,0.00000154,0.00002649,-0.0000
 1229,-0.00000040,0.00000650,0.00001879,0.00000296,-0.00000829,-0.00001
 656,-0.00000051,0.00001168,-0.00000995,-0.00000671,0.00000453,-0.00013
 488,0.00022283,0.00002337,0.00005917,-0.00000805,-0.00000542,0.0000049
 1,-0.00013300,-0.00000108,-0.00002461,0.00000109,0.00000106,-0.0000235
 5,-0.00000886\\\@


 I FIND THAT THE THREE TRULY GREAT TIMES FOR THINKING THOUGHTS
 ARE WHEN I AM STANDING IN THE SHOWER, SITTING ON THE JOHN, OR WALKING.

                                    -- COLIN FLETCHER
 Job cpu time:       2 days 16 hours 27 minutes 13.7 seconds.
 File lengths (MBytes):  RWF=   9023 Int=      0 D2E=      0 Chk=     41 Scr=      1
 Normal termination of Gaussian 09 at Sun Feb  2 04:40:37 2020.
