 Entering Gaussian System, Link 0=g09
 Initial command:
 /usr/local/Cluster-Apps/gaussian/g09/l1.exe "/rds/user/am2145/hpc-work/scratch/19187523/Gau-4382.inp" -scrdir="/rds/user/am2145/hpc-work/scratch/19187523/"
 Entering Link 1 = /usr/local/Cluster-Apps/gaussian/g09/l1.exe PID=      4383.
  
 Copyright (c) 1988,1990,1992,1993,1995,1998,2003,2009,2013,
            Gaussian, Inc.  All Rights Reserved.
  
 This is part of the Gaussian(R) 09 program.  It is based on
 the Gaussian(R) 03 system (copyright 2003, Gaussian, Inc.),
 the Gaussian(R) 98 system (copyright 1998, Gaussian, Inc.),
 the Gaussian(R) 94 system (copyright 1995, Gaussian, Inc.),
 the Gaussian 92(TM) system (copyright 1992, Gaussian, Inc.),
 the Gaussian 90(TM) system (copyright 1990, Gaussian, Inc.),
 the Gaussian 88(TM) system (copyright 1988, Gaussian, Inc.),
 the Gaussian 86(TM) system (copyright 1986, Carnegie Mellon
 University), and the Gaussian 82(TM) system (copyright 1983,
 Carnegie Mellon University). Gaussian is a federally registered
 trademark of Gaussian, Inc.
  
 This software contains proprietary and confidential information,
 including trade secrets, belonging to Gaussian, Inc.
  
 This software is provided under written license and may be
 used, copied, transmitted, or stored only in accord with that
 written license.
  
 The following legend is applicable only to US Government
 contracts under FAR:
  
                    RESTRICTED RIGHTS LEGEND
  
 Use, reproduction and disclosure by the US Government is
 subject to restrictions as set forth in subparagraphs (a)
 and (c) of the Commercial Computer Software - Restricted
 Rights clause in FAR 52.227-19.
  
 Gaussian, Inc.
 340 Quinnipiac St., Bldg. 40, Wallingford CT 06492
  
  
 ---------------------------------------------------------------
 Warning -- This program may not be used in any manner that
 competes with the business of Gaussian, Inc. or will provide
 assistance to any competitor of Gaussian, Inc.  The licensee
 of this program is prohibited from giving any competitor of
 Gaussian, Inc. access to this program.  By using this program,
 the user acknowledges that Gaussian, Inc. is engaged in the
 business of creating and licensing software in the field of
 computational chemistry and represents and warrants to the
 licensee that it is not a competitor of Gaussian, Inc. and that
 it will not use this program in any manner prohibited above.
 ---------------------------------------------------------------
  

 Cite this work as:
 Gaussian 09, Revision D.01,
 M. J. Frisch, G. W. Trucks, H. B. Schlegel, G. E. Scuseria, 
 M. A. Robb, J. R. Cheeseman, G. Scalmani, V. Barone, B. Mennucci, 
 G. A. Petersson, H. Nakatsuji, M. Caricato, X. Li, H. P. Hratchian, 
 A. F. Izmaylov, J. Bloino, G. Zheng, J. L. Sonnenberg, M. Hada, 
 M. Ehara, K. Toyota, R. Fukuda, J. Hasegawa, M. Ishida, T. Nakajima, 
 Y. Honda, O. Kitao, H. Nakai, T. Vreven, J. A. Montgomery, Jr., 
 J. E. Peralta, F. Ogliaro, M. Bearpark, J. J. Heyd, E. Brothers, 
 K. N. Kudin, V. N. Staroverov, T. Keith, R. Kobayashi, J. Normand, 
 K. Raghavachari, A. Rendell, J. C. Burant, S. S. Iyengar, J. Tomasi, 
 M. Cossi, N. Rega, J. M. Millam, M. Klene, J. E. Knox, J. B. Cross, 
 V. Bakken, C. Adamo, J. Jaramillo, R. Gomperts, R. E. Stratmann, 
 O. Yazyev, A. J. Austin, R. Cammi, C. Pomelli, J. W. Ochterski, 
 R. L. Martin, K. Morokuma, V. G. Zakrzewski, G. A. Voth, 
 P. Salvador, J. J. Dannenberg, S. Dapprich, A. D. Daniels, 
 O. Farkas, J. B. Foresman, J. V. Ortiz, J. Cioslowski, 
 and D. J. Fox, Gaussian, Inc., Wallingford CT, 2013.
 
 ******************************************
 Gaussian 09:  ES64L-G09RevD.01 24-Apr-2013
                 2-Feb-2020 
 ******************************************
 %NProcShared=20
 Will use up to   20 processors via shared memory.
 %mem=64GB
 %Chk=BPtriguess.chk
 --------------------------------------------------
 #n opt=(ts,calcfc,noeigen) freq b3lyp/6-311+g(d,p)
 --------------------------------------------------
 1/5=1,10=4,11=1,14=-1,18=20,26=3,38=1/1,3;
 2/9=110,12=2,17=6,18=5,40=1/2;
 3/5=4,6=6,7=111,11=2,16=1,25=1,30=1,71=2,74=-5,140=1/1,2,3;
 4//1;
 5/5=2,38=5/2;
 8/6=4,10=90,11=11/1;
 11/6=1,8=1,9=11,15=111,16=1/1,2,10;
 10/6=1,13=1/2;
 6/7=2,8=2,9=2,10=2,28=1/1;
 7/10=1,18=20,25=1/1,2,3,16;
 1/5=1,10=4,11=1,14=-1,18=20,26=3/3(2);
 2/9=110/2;
 99//99;
 2/9=110/2;
 3/5=4,6=6,7=111,11=2,16=1,25=1,30=1,71=1,74=-5/1,2,3;
 4/5=5,16=3,69=1/1;
 5/5=2,38=5/2;
 7//1,2,3,16;
 1/5=1,11=1,14=-1,18=20,26=3/3(-5);
 2/9=110/2;
 6/7=2,8=2,9=2,10=2,19=2,28=1/1;
 99/9=1/99;
 ----------
 BPtriguess
 ----------
 Symbolic Z-matrix:
 Charge =  0 Multiplicity = 3
 C                    -3.79184   0.31296   0.05316 
 C                    -2.4799   -0.18502   0.00402 
 C                    -1.36294   0.61277   0.22433 
 C                    -1.44227   1.99992   0.35718 
 C                    -3.89921   1.72196   0.32659 
 C                    -2.78674   2.52418   0.45424 
 C                    -0.15886  -0.14787   0.02471 
 C                     1.07904   0.54319  -0.04681 
 C                     1.01837   1.98491  -0.02147 
 C                    -0.22373   2.69247   0.23726 
 C                     2.33475  -0.12337  -0.0974 
 C                     3.50925   0.64085  -0.3936 
 C                     3.40679   2.03057  -0.51537 
 C                     2.19987   2.69143  -0.28217 
 C                     2.48291  -1.4885    0.34998 
 C                     3.79329  -2.07219   0.32044 
 C                     4.90255  -1.35729  -0.13541 
 C                     4.7846   -0.02926  -0.48426 
 C                    -4.80187  -0.63157  -0.24693 
 C                    -4.45453  -1.9294   -0.59892 
 C                    -3.10503  -2.37684  -0.6913 
 C                    -2.10058  -1.48841  -0.38289 
 C                    -0.5713   -1.5411   -0.38834 
 H                    -2.90092  -3.3924   -1.01252 
 H                    -5.2445   -2.63355  -0.83593 
 H                    -5.84757  -0.34292  -0.22559 
 H                    -4.88437   2.17248   0.39134 
 H                    -2.92047   3.59136   0.59899 
 H                    -0.19162   3.77565   0.28031 
 H                     2.16711   3.77512  -0.3162 
 H                     4.29826   2.60518  -0.74264 
 H                     5.652     0.54534  -0.78859 
 H                     3.90847  -3.09446   0.66164 
 H                     5.86997  -1.84545  -0.18167 
 C                     0.06258  -1.90314   0.91426 
 C                     1.44508  -2.16611   1.01403 
 H                    -0.597    -2.14127   1.74209 
 H                     1.74439  -2.93216   1.72602 
 H                    -0.0953   -1.97384  -1.26932 
 

 GradGradGradGradGradGradGradGradGradGradGradGradGradGradGradGradGradGrad
 Berny optimization.
 Initialization pass.
                           ----------------------------
                           !    Initial Parameters    !
                           ! (Angstroms and Degrees)  !
 --------------------------                            --------------------------
 ! Name  Definition              Value          Derivative Info.                !
 --------------------------------------------------------------------------------
 ! R1    R(1,2)                  1.4041         calculate D2E/DX2 analytically  !
 ! R2    R(1,5)                  1.4393         calculate D2E/DX2 analytically  !
 ! R3    R(1,19)                 1.415          calculate D2E/DX2 analytically  !
 ! R4    R(2,3)                  1.3902         calculate D2E/DX2 analytically  !
 ! R5    R(2,22)                 1.4115         calculate D2E/DX2 analytically  !
 ! R6    R(3,4)                  1.3958         calculate D2E/DX2 analytically  !
 ! R7    R(3,7)                  1.4381         calculate D2E/DX2 analytically  !
 ! R8    R(4,6)                  1.4463         calculate D2E/DX2 analytically  !
 ! R9    R(4,10)                 1.4067         calculate D2E/DX2 analytically  !
 ! R10   R(5,6)                  1.3775         calculate D2E/DX2 analytically  !
 ! R11   R(5,27)                 1.0852         calculate D2E/DX2 analytically  !
 ! R12   R(6,28)                 1.0852         calculate D2E/DX2 analytically  !
 ! R13   R(7,8)                  1.4195         calculate D2E/DX2 analytically  !
 ! R14   R(7,23)                 1.5106         calculate D2E/DX2 analytically  !
 ! R15   R(8,9)                  1.4432         calculate D2E/DX2 analytically  !
 ! R16   R(8,11)                 1.4226         calculate D2E/DX2 analytically  !
 ! R17   R(9,10)                 1.4527         calculate D2E/DX2 analytically  !
 ! R18   R(9,14)                 1.4011         calculate D2E/DX2 analytically  !
 ! R19   R(10,29)                1.0845         calculate D2E/DX2 analytically  !
 ! R20   R(11,12)                1.4322         calculate D2E/DX2 analytically  !
 ! R21   R(11,15)                1.4442         calculate D2E/DX2 analytically  !
 ! R22   R(12,13)                1.3988         calculate D2E/DX2 analytically  !
 ! R23   R(12,18)                1.4435         calculate D2E/DX2 analytically  !
 ! R24   R(13,14)                1.3956         calculate D2E/DX2 analytically  !
 ! R25   R(13,31)                1.0847         calculate D2E/DX2 analytically  !
 ! R26   R(14,30)                1.0847         calculate D2E/DX2 analytically  !
 ! R27   R(15,16)                1.4348         calculate D2E/DX2 analytically  !
 ! R28   R(15,36)                1.4061         calculate D2E/DX2 analytically  !
 ! R29   R(16,17)                1.3962         calculate D2E/DX2 analytically  !
 ! R30   R(16,33)                1.0838         calculate D2E/DX2 analytically  !
 ! R31   R(17,18)                1.3781         calculate D2E/DX2 analytically  !
 ! R32   R(17,34)                1.0846         calculate D2E/DX2 analytically  !
 ! R33   R(18,32)                1.0841         calculate D2E/DX2 analytically  !
 ! R34   R(19,20)                1.3889         calculate D2E/DX2 analytically  !
 ! R35   R(19,26)                1.085          calculate D2E/DX2 analytically  !
 ! R36   R(20,21)                1.4247         calculate D2E/DX2 analytically  !
 ! R37   R(20,25)                1.0845         calculate D2E/DX2 analytically  !
 ! R38   R(21,22)                1.376          calculate D2E/DX2 analytically  !
 ! R39   R(21,24)                1.0845         calculate D2E/DX2 analytically  !
 ! R40   R(22,23)                1.5302         calculate D2E/DX2 analytically  !
 ! R41   R(23,35)                1.4932         calculate D2E/DX2 analytically  !
 ! R42   R(23,39)                1.0909         calculate D2E/DX2 analytically  !
 ! R43   R(35,36)                1.4108         calculate D2E/DX2 analytically  !
 ! R44   R(35,37)                1.0849         calculate D2E/DX2 analytically  !
 ! R45   R(36,38)                1.0878         calculate D2E/DX2 analytically  !
 ! A1    A(2,1,5)              115.0581         calculate D2E/DX2 analytically  !
 ! A2    A(2,1,19)             115.0093         calculate D2E/DX2 analytically  !
 ! A3    A(5,1,19)             129.8278         calculate D2E/DX2 analytically  !
 ! A4    A(1,2,3)              122.7952         calculate D2E/DX2 analytically  !
 ! A5    A(1,2,22)             126.0267         calculate D2E/DX2 analytically  !
 ! A6    A(3,2,22)             110.9427         calculate D2E/DX2 analytically  !
 ! A7    A(2,3,4)              122.667          calculate D2E/DX2 analytically  !
 ! A8    A(2,3,7)              110.3147         calculate D2E/DX2 analytically  !
 ! A9    A(4,3,7)              125.9052         calculate D2E/DX2 analytically  !
 ! A10   A(3,4,6)              114.8007         calculate D2E/DX2 analytically  !
 ! A11   A(3,4,10)             115.5904         calculate D2E/DX2 analytically  !
 ! A12   A(6,4,10)             129.2343         calculate D2E/DX2 analytically  !
 ! A13   A(1,5,6)              121.8355         calculate D2E/DX2 analytically  !
 ! A14   A(1,5,27)             119.0426         calculate D2E/DX2 analytically  !
 ! A15   A(6,5,27)             119.0682         calculate D2E/DX2 analytically  !
 ! A16   A(4,6,5)              122.2367         calculate D2E/DX2 analytically  !
 ! A17   A(4,6,28)             118.6822         calculate D2E/DX2 analytically  !
 ! A18   A(5,6,28)             119.0479         calculate D2E/DX2 analytically  !
 ! A19   A(3,7,8)              118.6614         calculate D2E/DX2 analytically  !
 ! A20   A(3,7,23)             107.2882         calculate D2E/DX2 analytically  !
 ! A21   A(8,7,23)             132.3247         calculate D2E/DX2 analytically  !
 ! A22   A(7,8,9)              116.665          calculate D2E/DX2 analytically  !
 ! A23   A(7,8,11)             122.9189         calculate D2E/DX2 analytically  !
 ! A24   A(9,8,11)             120.3851         calculate D2E/DX2 analytically  !
 ! A25   A(8,9,10)             121.7102         calculate D2E/DX2 analytically  !
 ! A26   A(8,9,14)             117.7116         calculate D2E/DX2 analytically  !
 ! A27   A(10,9,14)            120.5667         calculate D2E/DX2 analytically  !
 ! A28   A(4,10,9)             121.0668         calculate D2E/DX2 analytically  !
 ! A29   A(4,10,29)            120.9291         calculate D2E/DX2 analytically  !
 ! A30   A(9,10,29)            117.9185         calculate D2E/DX2 analytically  !
 ! A31   A(8,11,12)            118.7645         calculate D2E/DX2 analytically  !
 ! A32   A(8,11,15)            121.4971         calculate D2E/DX2 analytically  !
 ! A33   A(12,11,15)           118.968          calculate D2E/DX2 analytically  !
 ! A34   A(11,12,13)           119.2136         calculate D2E/DX2 analytically  !
 ! A35   A(11,12,18)           119.3278         calculate D2E/DX2 analytically  !
 ! A36   A(13,12,18)           121.3623         calculate D2E/DX2 analytically  !
 ! A37   A(12,13,14)           121.2817         calculate D2E/DX2 analytically  !
 ! A38   A(12,13,31)           118.9697         calculate D2E/DX2 analytically  !
 ! A39   A(14,13,31)           119.6634         calculate D2E/DX2 analytically  !
 ! A40   A(9,14,13)            121.4368         calculate D2E/DX2 analytically  !
 ! A41   A(9,14,30)            118.957          calculate D2E/DX2 analytically  !
 ! A42   A(13,14,30)           119.6004         calculate D2E/DX2 analytically  !
 ! A43   A(11,15,16)           118.1548         calculate D2E/DX2 analytically  !
 ! A44   A(11,15,36)           121.7417         calculate D2E/DX2 analytically  !
 ! A45   A(16,15,36)           119.193          calculate D2E/DX2 analytically  !
 ! A46   A(15,16,17)           121.602          calculate D2E/DX2 analytically  !
 ! A47   A(15,16,33)           118.3118         calculate D2E/DX2 analytically  !
 ! A48   A(17,16,33)           120.086          calculate D2E/DX2 analytically  !
 ! A49   A(16,17,18)           120.5352         calculate D2E/DX2 analytically  !
 ! A50   A(16,17,34)           119.4803         calculate D2E/DX2 analytically  !
 ! A51   A(18,17,34)           119.9513         calculate D2E/DX2 analytically  !
 ! A52   A(12,18,17)           120.4678         calculate D2E/DX2 analytically  !
 ! A53   A(12,18,32)           118.5874         calculate D2E/DX2 analytically  !
 ! A54   A(17,18,32)           120.8877         calculate D2E/DX2 analytically  !
 ! A55   A(1,19,20)            119.9328         calculate D2E/DX2 analytically  !
 ! A56   A(1,19,26)            120.409          calculate D2E/DX2 analytically  !
 ! A57   A(20,19,26)           119.6442         calculate D2E/DX2 analytically  !
 ! A58   A(19,20,21)           123.1468         calculate D2E/DX2 analytically  !
 ! A59   A(19,20,25)           118.6833         calculate D2E/DX2 analytically  !
 ! A60   A(21,20,25)           118.157          calculate D2E/DX2 analytically  !
 ! A61   A(20,21,22)           118.3026         calculate D2E/DX2 analytically  !
 ! A62   A(20,21,24)           119.4422         calculate D2E/DX2 analytically  !
 ! A63   A(22,21,24)           122.2495         calculate D2E/DX2 analytically  !
 ! A64   A(2,22,21)            117.4821         calculate D2E/DX2 analytically  !
 ! A65   A(2,22,23)            107.5382         calculate D2E/DX2 analytically  !
 ! A66   A(21,22,23)           134.9521         calculate D2E/DX2 analytically  !
 ! A67   A(7,23,22)            103.8948         calculate D2E/DX2 analytically  !
 ! A68   A(7,23,35)             82.4831         calculate D2E/DX2 analytically  !
 ! A69   A(7,23,39)            117.877          calculate D2E/DX2 analytically  !
 ! A70   A(22,23,35)           115.4357         calculate D2E/DX2 analytically  !
 ! A71   A(22,23,39)           116.9125         calculate D2E/DX2 analytically  !
 ! A72   A(35,23,39)           115.0303         calculate D2E/DX2 analytically  !
 ! A73   A(23,35,36)           121.5252         calculate D2E/DX2 analytically  !
 ! A74   A(23,35,37)           117.4368         calculate D2E/DX2 analytically  !
 ! A75   A(36,35,37)           120.058          calculate D2E/DX2 analytically  !
 ! A76   A(15,36,35)           126.8727         calculate D2E/DX2 analytically  !
 ! A77   A(15,36,38)           116.4471         calculate D2E/DX2 analytically  !
 ! A78   A(35,36,38)           116.5623         calculate D2E/DX2 analytically  !
 ! D1    D(5,1,2,3)              1.0375         calculate D2E/DX2 analytically  !
 ! D2    D(5,1,2,22)          -172.8747         calculate D2E/DX2 analytically  !
 ! D3    D(19,1,2,3)           177.6863         calculate D2E/DX2 analytically  !
 ! D4    D(19,1,2,22)            3.774          calculate D2E/DX2 analytically  !
 ! D5    D(2,1,5,6)              3.4481         calculate D2E/DX2 analytically  !
 ! D6    D(2,1,5,27)          -179.2437         calculate D2E/DX2 analytically  !
 ! D7    D(19,1,5,6)          -172.5964         calculate D2E/DX2 analytically  !
 ! D8    D(19,1,5,27)            4.7118         calculate D2E/DX2 analytically  !
 ! D9    D(2,1,19,20)           -1.947          calculate D2E/DX2 analytically  !
 ! D10   D(2,1,19,26)          179.4239         calculate D2E/DX2 analytically  !
 ! D11   D(5,1,19,20)          174.0991         calculate D2E/DX2 analytically  !
 ! D12   D(5,1,19,26)           -4.5301         calculate D2E/DX2 analytically  !
 ! D13   D(1,2,3,4)             -7.7063         calculate D2E/DX2 analytically  !
 ! D14   D(1,2,3,7)           -176.2883         calculate D2E/DX2 analytically  !
 ! D15   D(22,2,3,4)           167.0245         calculate D2E/DX2 analytically  !
 ! D16   D(22,2,3,7)            -1.5575         calculate D2E/DX2 analytically  !
 ! D17   D(1,2,22,21)           -2.768          calculate D2E/DX2 analytically  !
 ! D18   D(1,2,22,23)          175.6048         calculate D2E/DX2 analytically  !
 ! D19   D(3,2,22,21)         -177.2906         calculate D2E/DX2 analytically  !
 ! D20   D(3,2,22,23)            1.0823         calculate D2E/DX2 analytically  !
 ! D21   D(2,3,4,6)              9.0666         calculate D2E/DX2 analytically  !
 ! D22   D(2,3,4,10)          -164.5664         calculate D2E/DX2 analytically  !
 ! D23   D(7,3,4,6)            175.8164         calculate D2E/DX2 analytically  !
 ! D24   D(7,3,4,10)             2.1835         calculate D2E/DX2 analytically  !
 ! D25   D(2,3,7,8)            168.2102         calculate D2E/DX2 analytically  !
 ! D26   D(2,3,7,23)             1.3571         calculate D2E/DX2 analytically  !
 ! D27   D(4,3,7,8)              0.0834         calculate D2E/DX2 analytically  !
 ! D28   D(4,3,7,23)          -166.7697         calculate D2E/DX2 analytically  !
 ! D29   D(3,4,6,5)             -4.5113         calculate D2E/DX2 analytically  !
 ! D30   D(3,4,6,28)           177.6069         calculate D2E/DX2 analytically  !
 ! D31   D(10,4,6,5)           168.0694         calculate D2E/DX2 analytically  !
 ! D32   D(10,4,6,28)           -9.8124         calculate D2E/DX2 analytically  !
 ! D33   D(3,4,10,9)             0.5938         calculate D2E/DX2 analytically  !
 ! D34   D(3,4,10,29)          177.1603         calculate D2E/DX2 analytically  !
 ! D35   D(6,4,10,9)          -171.9384         calculate D2E/DX2 analytically  !
 ! D36   D(6,4,10,29)            4.6281         calculate D2E/DX2 analytically  !
 ! D37   D(1,5,6,4)             -1.6478         calculate D2E/DX2 analytically  !
 ! D38   D(1,5,6,28)           176.2265         calculate D2E/DX2 analytically  !
 ! D39   D(27,5,6,4)          -178.9553         calculate D2E/DX2 analytically  !
 ! D40   D(27,5,6,28)           -1.081          calculate D2E/DX2 analytically  !
 ! D41   D(3,7,8,9)             -4.9371         calculate D2E/DX2 analytically  !
 ! D42   D(3,7,8,11)           173.0425         calculate D2E/DX2 analytically  !
 ! D43   D(23,7,8,9)           157.981          calculate D2E/DX2 analytically  !
 ! D44   D(23,7,8,11)          -24.0393         calculate D2E/DX2 analytically  !
 ! D45   D(3,7,23,22)           -0.6595         calculate D2E/DX2 analytically  !
 ! D46   D(3,7,23,35)         -115.0931         calculate D2E/DX2 analytically  !
 ! D47   D(3,7,23,39)          130.5139         calculate D2E/DX2 analytically  !
 ! D48   D(8,7,23,22)         -164.9987         calculate D2E/DX2 analytically  !
 ! D49   D(8,7,23,35)           80.5677         calculate D2E/DX2 analytically  !
 ! D50   D(8,7,23,39)          -33.8253         calculate D2E/DX2 analytically  !
 ! D51   D(7,8,9,10)             7.7126         calculate D2E/DX2 analytically  !
 ! D52   D(7,8,9,14)          -171.063          calculate D2E/DX2 analytically  !
 ! D53   D(11,8,9,10)         -170.3214         calculate D2E/DX2 analytically  !
 ! D54   D(11,8,9,14)           10.903          calculate D2E/DX2 analytically  !
 ! D55   D(7,8,11,12)          169.6156         calculate D2E/DX2 analytically  !
 ! D56   D(7,8,11,15)          -20.5434         calculate D2E/DX2 analytically  !
 ! D57   D(9,8,11,12)          -12.4774         calculate D2E/DX2 analytically  !
 ! D58   D(9,8,11,15)          157.3637         calculate D2E/DX2 analytically  !
 ! D59   D(8,9,10,4)            -5.6654         calculate D2E/DX2 analytically  !
 ! D60   D(8,9,10,29)          177.6677         calculate D2E/DX2 analytically  !
 ! D61   D(14,9,10,4)          173.0758         calculate D2E/DX2 analytically  !
 ! D62   D(14,9,10,29)          -3.5911         calculate D2E/DX2 analytically  !
 ! D63   D(8,9,14,13)           -2.0793         calculate D2E/DX2 analytically  !
 ! D64   D(8,9,14,30)          177.0436         calculate D2E/DX2 analytically  !
 ! D65   D(10,9,14,13)         179.1304         calculate D2E/DX2 analytically  !
 ! D66   D(10,9,14,30)          -1.7467         calculate D2E/DX2 analytically  !
 ! D67   D(8,11,12,13)           5.2085         calculate D2E/DX2 analytically  !
 ! D68   D(8,11,12,18)        -178.3098         calculate D2E/DX2 analytically  !
 ! D69   D(15,11,12,13)       -164.8933         calculate D2E/DX2 analytically  !
 ! D70   D(15,11,12,18)         11.5885         calculate D2E/DX2 analytically  !
 ! D71   D(8,11,15,16)        -177.381          calculate D2E/DX2 analytically  !
 ! D72   D(8,11,15,36)          -8.3951         calculate D2E/DX2 analytically  !
 ! D73   D(12,11,15,16)         -7.5601         calculate D2E/DX2 analytically  !
 ! D74   D(12,11,15,36)        161.4258         calculate D2E/DX2 analytically  !
 ! D75   D(11,12,13,14)          3.5454         calculate D2E/DX2 analytically  !
 ! D76   D(11,12,13,31)       -179.8228         calculate D2E/DX2 analytically  !
 ! D77   D(18,12,13,14)       -172.8623         calculate D2E/DX2 analytically  !
 ! D78   D(18,12,13,31)          3.7695         calculate D2E/DX2 analytically  !
 ! D79   D(11,12,18,17)         -7.6734         calculate D2E/DX2 analytically  !
 ! D80   D(11,12,18,32)        175.0517         calculate D2E/DX2 analytically  !
 ! D81   D(13,12,18,17)        168.7303         calculate D2E/DX2 analytically  !
 ! D82   D(13,12,18,32)         -8.5446         calculate D2E/DX2 analytically  !
 ! D83   D(12,13,14,9)          -5.1515         calculate D2E/DX2 analytically  !
 ! D84   D(12,13,14,30)        175.7311         calculate D2E/DX2 analytically  !
 ! D85   D(31,13,14,9)         178.2397         calculate D2E/DX2 analytically  !
 ! D86   D(31,13,14,30)         -0.8777         calculate D2E/DX2 analytically  !
 ! D87   D(11,15,16,17)         -0.5115         calculate D2E/DX2 analytically  !
 ! D88   D(11,15,16,33)        179.6122         calculate D2E/DX2 analytically  !
 ! D89   D(36,15,16,17)       -169.7855         calculate D2E/DX2 analytically  !
 ! D90   D(36,15,16,33)         10.3383         calculate D2E/DX2 analytically  !
 ! D91   D(11,15,36,35)         25.4492         calculate D2E/DX2 analytically  !
 ! D92   D(11,15,36,38)       -150.4421         calculate D2E/DX2 analytically  !
 ! D93   D(16,15,36,35)       -165.6759         calculate D2E/DX2 analytically  !
 ! D94   D(16,15,36,38)         18.4328         calculate D2E/DX2 analytically  !
 ! D95   D(15,16,17,18)          4.6227         calculate D2E/DX2 analytically  !
 ! D96   D(15,16,17,34)       -177.4721         calculate D2E/DX2 analytically  !
 ! D97   D(33,16,17,18)       -175.5032         calculate D2E/DX2 analytically  !
 ! D98   D(33,16,17,34)          2.402          calculate D2E/DX2 analytically  !
 ! D99   D(16,17,18,12)         -0.4855         calculate D2E/DX2 analytically  !
 ! D100  D(16,17,18,32)        176.7261         calculate D2E/DX2 analytically  !
 ! D101  D(34,17,18,12)       -178.3809         calculate D2E/DX2 analytically  !
 ! D102  D(34,17,18,32)         -1.1693         calculate D2E/DX2 analytically  !
 ! D103  D(1,19,20,21)          -0.6377         calculate D2E/DX2 analytically  !
 ! D104  D(1,19,20,25)        -179.3042         calculate D2E/DX2 analytically  !
 ! D105  D(26,19,20,21)        178.0019         calculate D2E/DX2 analytically  !
 ! D106  D(26,19,20,25)         -0.6645         calculate D2E/DX2 analytically  !
 ! D107  D(19,20,21,22)          1.7401         calculate D2E/DX2 analytically  !
 ! D108  D(19,20,21,24)       -177.4166         calculate D2E/DX2 analytically  !
 ! D109  D(25,20,21,22)       -179.5868         calculate D2E/DX2 analytically  !
 ! D110  D(25,20,21,24)          1.2565         calculate D2E/DX2 analytically  !
 ! D111  D(20,21,22,2)          -0.1175         calculate D2E/DX2 analytically  !
 ! D112  D(20,21,22,23)       -177.9248         calculate D2E/DX2 analytically  !
 ! D113  D(24,21,22,2)         179.0142         calculate D2E/DX2 analytically  !
 ! D114  D(24,21,22,23)          1.2069         calculate D2E/DX2 analytically  !
 ! D115  D(2,22,23,7)           -0.2259         calculate D2E/DX2 analytically  !
 ! D116  D(2,22,23,35)          87.9648         calculate D2E/DX2 analytically  !
 ! D117  D(2,22,23,39)        -131.9651         calculate D2E/DX2 analytically  !
 ! D118  D(21,22,23,7)         177.7341         calculate D2E/DX2 analytically  !
 ! D119  D(21,22,23,35)        -94.0752         calculate D2E/DX2 analytically  !
 ! D120  D(21,22,23,39)         45.9949         calculate D2E/DX2 analytically  !
 ! D121  D(7,23,35,36)         -86.8407         calculate D2E/DX2 analytically  !
 ! D122  D(7,23,35,37)         104.4839         calculate D2E/DX2 analytically  !
 ! D123  D(22,23,35,36)        171.3026         calculate D2E/DX2 analytically  !
 ! D124  D(22,23,35,37)          2.6272         calculate D2E/DX2 analytically  !
 ! D125  D(39,23,35,36)         30.4753         calculate D2E/DX2 analytically  !
 ! D126  D(39,23,35,37)       -138.2002         calculate D2E/DX2 analytically  !
 ! D127  D(23,35,36,15)         39.0937         calculate D2E/DX2 analytically  !
 ! D128  D(23,35,36,38)       -145.0191         calculate D2E/DX2 analytically  !
 ! D129  D(37,35,36,15)       -152.5227         calculate D2E/DX2 analytically  !
 ! D130  D(37,35,36,38)         23.3645         calculate D2E/DX2 analytically  !
 --------------------------------------------------------------------------------
 Trust Radius=3.00D-01 FncErr=1.00D-07 GrdErr=1.00D-06
 Number of steps in this run=    234 maximum allowed number of steps=    234.
 Search for a saddle point of order  1.
 GradGradGradGradGradGradGradGradGradGradGradGradGradGradGradGradGradGrad

                          Input orientation:                          
 ---------------------------------------------------------------------
 Center     Atomic      Atomic             Coordinates (Angstroms)
 Number     Number       Type             X           Y           Z
 ---------------------------------------------------------------------
      1          6           0       -3.791840    0.312960    0.053160
      2          6           0       -2.479900   -0.185020    0.004020
      3          6           0       -1.362940    0.612770    0.224330
      4          6           0       -1.442270    1.999920    0.357180
      5          6           0       -3.899210    1.721960    0.326590
      6          6           0       -2.786740    2.524180    0.454240
      7          6           0       -0.158860   -0.147870    0.024710
      8          6           0        1.079040    0.543190   -0.046810
      9          6           0        1.018370    1.984910   -0.021470
     10          6           0       -0.223730    2.692470    0.237260
     11          6           0        2.334750   -0.123370   -0.097400
     12          6           0        3.509250    0.640850   -0.393600
     13          6           0        3.406790    2.030570   -0.515370
     14          6           0        2.199870    2.691430   -0.282170
     15          6           0        2.482910   -1.488500    0.349980
     16          6           0        3.793290   -2.072190    0.320440
     17          6           0        4.902550   -1.357290   -0.135410
     18          6           0        4.784600   -0.029260   -0.484260
     19          6           0       -4.801870   -0.631570   -0.246930
     20          6           0       -4.454530   -1.929400   -0.598920
     21          6           0       -3.105030   -2.376840   -0.691300
     22          6           0       -2.100580   -1.488410   -0.382890
     23          6           0       -0.571300   -1.541100   -0.388340
     24          1           0       -2.900920   -3.392400   -1.012520
     25          1           0       -5.244500   -2.633550   -0.835930
     26          1           0       -5.847570   -0.342920   -0.225590
     27          1           0       -4.884370    2.172480    0.391340
     28          1           0       -2.920470    3.591360    0.598990
     29          1           0       -0.191620    3.775650    0.280310
     30          1           0        2.167110    3.775120   -0.316200
     31          1           0        4.298260    2.605180   -0.742640
     32          1           0        5.652000    0.545340   -0.788590
     33          1           0        3.908470   -3.094460    0.661640
     34          1           0        5.869970   -1.845450   -0.181670
     35          6           0        0.062580   -1.903140    0.914260
     36          6           0        1.445080   -2.166110    1.014030
     37          1           0       -0.597000   -2.141270    1.742090
     38          1           0        1.744390   -2.932160    1.726020
     39          1           0       -0.095300   -1.973840   -1.269320
 ---------------------------------------------------------------------
                    Distance matrix (angstroms):
                    1          2          3          4          5
     1  C    0.000000
     2  C    1.404132   0.000000
     3  C    2.453312   1.390182   0.000000
     4  C    2.908392   2.444455   1.395753   0.000000
     5  C    1.439296   2.398972   2.770095   2.472802   0.000000
     6  C    2.461826   2.763442   2.394484   1.446329   1.377476
     7  C    3.662201   2.321429   1.438134   2.524020   4.192567
     8  C    4.877343   3.633033   2.457972   2.939775   5.129513
     9  C    5.093045   4.116690   2.759316   2.489649   4.936890
    10  C    4.292711   3.663967   2.371312   1.406715   3.802502
    11  C    6.143953   4.816113   3.783956   4.356706   6.515157
    12  C    7.322091   6.058884   4.911299   5.189248   7.521486
    13  C    7.422512   6.311238   5.030670   4.927034   7.360827
    14  C    6.455242   5.500556   4.155837   3.761933   6.205581
    15  C    6.534971   5.142784   4.384254   5.251301   7.144162
    16  C    7.955789   6.558540   5.814203   6.632836   8.577305
    17  C    8.855378   7.476244   6.577759   7.195154   9.336284
    18  C    8.600073   7.282557   6.221459   6.602992   8.895662
    19  C    1.415045   2.377799   3.687371   4.310058   2.585116
    20  C    2.427456   2.702880   4.086355   5.042558   3.807542
    21  C    2.874187   2.382925   3.579249   4.797928   4.297323
    22  C    2.509070   1.411527   2.308200   3.626227   3.747654
    23  C    3.742237   2.373953   2.375124   3.721990   4.715259
    24  H    3.957159   3.390855   4.465038   5.751596   5.380193
    25  H    3.403325   3.787325   5.170034   6.111424   4.704437
    26  H    2.175754   3.379180   4.607350   5.023464   2.892186
    27  H    2.183072   3.389587   3.855004   3.446592   1.085219
    28  H    3.435858   3.848264   3.382051   2.185458   2.127625
    29  H    5.000340   4.582518   3.373268   2.173304   4.238633
    30  H    6.901599   6.113915   4.770103   4.078284   6.436527
    31  H    8.446140   7.367915   6.078973   5.876192   8.313955
    32  H    9.484127   8.203015   7.088014   7.331934   9.687811
    33  H    8.442484   7.050431   6.459300   7.394310   9.179871
    34  H    9.902750   8.515388   7.650011   8.279256  10.412570
    35  C    4.528702   3.200731   2.972863   4.220046   5.402082
    36  C    5.873193   4.511131   4.028744   5.111169   6.644629
    37  H    4.368379   3.223835   3.236510   4.447686   5.275678
    38  H    6.631675   5.325100   4.947434   6.029423   7.447782
    39  H    4.543437   3.241541   3.244758   4.500067   5.538556
                    6          7          8          9         10
     6  C    0.000000
     7  C    3.772281   0.000000
     8  C    4.372600   1.419534   0.000000
     9  C    3.872464   2.436545   1.443218   0.000000
    10  C    2.577678   2.849020   2.529290   1.452720   0.000000
    11  C    5.791674   2.496718   1.422557   2.486658   3.819263
    12  C    6.626104   3.775194   2.456771   2.854726   4.306073
    13  C    6.288371   4.213211   2.801833   2.439379   3.766330
    14  C    5.043466   3.703972   2.434459   1.401099   2.478638
    15  C    6.624325   2.980275   2.501211   3.787800   4.981879
    16  C    8.027535   4.405673   3.787115   4.927184   6.232604
    17  C    8.633578   5.206362   4.270703   5.125440   6.543561
    18  C    8.045249   4.971007   3.774949   4.295992   5.745587
    19  C    3.809350   4.676034   6.000434   6.385295   5.678296
    20  C    4.870836   4.692072   6.085961   6.753363   6.321436
    21  C    5.043170   3.763096   5.142799   6.039533   5.904407
    22  C    4.156017   2.394465   3.788183   4.682139   4.624598
    23  C    4.705807   1.510565   2.680397   3.885150   4.293634
    24  H    6.096748   4.372838   5.679925   6.727442   6.764240
    25  H    5.857244   5.725648   7.120502   7.824133   7.397726
    26  H    4.248660   5.697554   6.985347   7.252695   6.407449
    27  H    2.127839   5.277204   6.197485   5.920130   4.692089
    28  H    1.085223   4.683816   5.069958   4.298850   2.865529
    29  H    2.886360   3.931973   3.488607   2.182177   1.084511
    30  H    5.167113   4.573424   3.420795   2.147399   2.682269
    31  H    7.185841   5.294717   3.885789   3.415040   4.627766
    32  H    8.756299   5.908307   4.632732   4.912368   6.339301
    33  H    8.742881   5.062731   4.662625   5.883818   7.123464
    34  H    9.717853   6.266671   5.355072   6.183473   7.609297
    35  C    5.285017   1.980229   2.818045   4.111698   4.654023
    36  C    6.341962   2.761281   2.932520   4.299454   5.195584
    37  H    5.312245   2.667397   3.635327   4.769164   5.076306
    38  H    7.205568   3.777445   3.957736   5.268624   6.142179
    39  H    5.517852   2.238910   3.034641   4.297568   4.905173
                   11         12         13         14         15
    11  C    0.000000
    12  C    1.432207   0.000000
    13  C    2.442013   1.398802   0.000000
    14  C    2.824081   2.435523   1.395627   0.000000
    15  C    1.444188   2.477986   3.739818   4.236926   0.000000
    16  C    2.469783   2.819773   4.204831   5.059071   1.434804
    17  C    2.849140   2.449594   3.722803   4.870128   2.471331
    18  C    2.481992   1.443532   2.478352   3.758168   2.850108
    19  C    7.156254   8.409238   8.633722   7.750351   7.359256
    20  C    7.043266   8.370790   8.802766   8.107616   7.015902
    21  C    5.917943   7.276248   7.865114   7.348246   5.753128
    22  C    4.649408   6.000338   6.536964   5.997923   4.641711
    23  C    3.246495   4.627291   5.347725   5.060135   3.142623
    24  H    6.239891   7.598714   8.333245   7.972732   5.870849
    25  H    8.018196   9.356575   9.833697   9.169553   7.901290
    26  H    8.186269   9.409894   9.558274   8.600684   8.428555
    27  H    7.591145   8.568248   8.341798   7.135081   8.226865
    28  H    6.473138   7.143672   6.611511   5.272969   7.420478
    29  H    4.661284   4.896689   4.077618   2.685357   5.905018
    30  H    3.908222   3.410422   2.149402   1.084719   5.315000
    31  H    3.422965   2.145451   1.084688   2.150049   4.609504
    32  H    3.453848   2.180944   2.705832   4.096262   3.933952
    33  H    3.446754   3.901980   5.282326   6.106277   2.169899
    34  H    3.933248   3.435055   4.604578   5.836353   3.447063
    35  C    3.058397   4.479053   5.357393   5.206681   2.519590
    36  C    2.489895   3.757824   4.878472   5.083851   1.406133
    37  H    4.006345   5.400246   6.207311   5.939284   3.442372
    38  H    3.400395   4.513748   5.693513   5.988744   2.126747
    39  H    3.271510   4.538311   5.372930   5.292165   3.082994
                   16         17         18         19         20
    16  C    0.000000
    17  C    1.396187   0.000000
    18  C    2.409108   1.378141   0.000000
    19  C    8.733503   9.732157   9.608304   0.000000
    20  C    8.300129   9.386005   9.433197   1.388850   0.000000
    21  C    6.978771   8.091343   8.234091   2.474409   1.424741
    22  C    5.964325   7.008728   7.038828   2.837187   2.404625
    23  C    4.453546   5.482772   5.566015   4.329545   3.908273
    24  H    6.952135   8.112037   8.405771   3.438302   2.173738
    25  H    9.128744  10.250961  10.367683   2.133253   1.084460
    26  H    9.809929  10.798248  10.639940   1.085017   2.144028
    27  H    9.660436  10.417319   9.955065   2.876959   4.241556
    28  H    8.787944   9.285910   8.581982   4.699828   5.853812
    29  H    7.076606   7.243650   6.310679   6.399686   7.175865
    30  H    6.102525   5.818672   4.620910   8.245629   8.744575
    31  H    4.823165   4.054018   2.691386   9.671331   9.858722
    32  H    3.396500   2.146700   1.084050  10.533846  10.406837
    33  H    1.083845   2.154355   3.387645   9.097327   8.537338
    34  H    2.148517   1.084593   2.137320  10.740853  10.333269
    35  C    3.781454   4.982476   5.269227   5.160245   4.763894
    36  C    2.450302   3.732225   4.238325   6.555091   6.120706
    37  H    4.615247   5.863845   6.195066   4.890432   4.517273
    38  H    2.629295   3.989876   4.749215   7.213790   6.696080
    39  H    4.202159   5.161820   5.311415   4.999877   4.410703
                   21         22         23         24         25
    21  C    0.000000
    22  C    1.375989   0.000000
    23  C    2.685151   1.530197   0.000000
    24  H    1.084530   2.159203   3.040402   0.000000
    25  H    2.159664   3.376511   4.820019   2.469697   0.000000
    26  H    3.446047   3.921329   5.413053   4.312926   2.446057
    27  H    5.003446   4.663800   5.744663   6.072297   4.973310
    28  H    6.108872   5.238356   5.730233   7.167304   6.797765
    29  H    6.876417   5.638643   5.372065   7.771271   8.237441
    30  H    8.110658   6.776605   5.980492   8.805858   9.811887
    31  H    8.923669   7.604739   6.405449   9.374006  10.886563
    32  H    9.232236   8.025162   6.575933   9.418513  11.350828
    33  H    7.178761   6.307069   4.856308   7.018502   9.286119
    34  H    9.005150   7.981080   6.451767   8.944936  11.161568
    35  C    3.582732   2.556142   1.493199   3.835715   5.635757
    36  C    4.863749   3.870706   2.534377   4.949587   6.956388
    37  H    3.502441   2.683751   2.213503   3.802795   5.337395
    38  H    5.446897   4.616894   3.430450   5.412054   7.449654
    39  H    3.091115   2.245562   1.090855   3.154324   5.209348
                   26         27         28         29         30
    26  H    0.000000
    27  H    2.763258   0.000000
    28  H    4.972565   2.431716   0.000000
    29  H    7.014865   4.960281   2.753569   0.000000
    30  H    9.011191   7.265840   5.172505   2.432988   0.000000
    31  H   10.578114   9.262496   7.408278   4.751363   2.468281
    32  H   11.547558  10.726365   9.202764   6.762052   4.774839
    33  H   10.175385  10.253183   9.557120   8.009654   7.153994
    34  H   11.813563  11.494691  10.365335   8.279678   6.732019
    35  C    6.217991   6.430897   6.259993   5.719717   6.179459
    36  C    7.618623   7.698899   7.237316   6.206581   6.130991
    37  H    5.888490   6.230129   6.290329   6.108279   6.846936
    38  H    8.255350   8.472259   8.098607   7.129721   7.024027
    39  H    6.069422   6.548660   6.514877   5.955440   6.251198
                   31         32         33         34         35
    31  H    0.000000
    32  H    2.465292   0.000000
    33  H    5.883012   4.288497   0.000000
    34  H    4.753216   2.476235   2.473597   0.000000
    35  C    6.404003   6.335327   4.034096   5.910175   0.000000
    36  C    5.830243   5.319735   2.655994   4.594798   1.410820
    37  H    7.257151   7.257563   4.730243   6.753522   1.084921
    38  H    6.578652   5.803937   2.417124   4.673396   2.132210
    39  H    6.367746   6.293554   4.584165   6.064974   2.190421
                   36         37         38         39
    36  C    0.000000
    37  H    2.168128   0.000000
    38  H    1.087818   2.471411   0.000000
    39  H    2.761055   3.057503   3.643473   0.000000
 Stoichiometry    C25H14(3)
 Framework group  C1[X(C25H14)]
 Deg. of freedom   111
 Full point group                 C1      NOp   1
 Largest Abelian subgroup         C1      NOp   1
 Largest concise Abelian subgroup C1      NOp   1
                         Standard orientation:                         
 ---------------------------------------------------------------------
 Center     Atomic      Atomic             Coordinates (Angstroms)
 Number     Number       Type             X           Y           Z
 ---------------------------------------------------------------------
      1          6           0       -3.791841    0.312962    0.053161
      2          6           0       -2.479901   -0.185018    0.004021
      3          6           0       -1.362941    0.612771    0.224331
      4          6           0       -1.442270    1.999921    0.357181
      5          6           0       -3.899210    1.721962    0.326591
      6          6           0       -2.786740    2.524182    0.454241
      7          6           0       -0.158861   -0.147869    0.024711
      8          6           0        1.079039    0.543190   -0.046809
      9          6           0        1.018370    1.984910   -0.021469
     10          6           0       -0.223730    2.692471    0.237261
     11          6           0        2.334749   -0.123371   -0.097399
     12          6           0        3.509250    0.640849   -0.393599
     13          6           0        3.406790    2.030569   -0.515369
     14          6           0        2.199870    2.691429   -0.282169
     15          6           0        2.482909   -1.488501    0.349981
     16          6           0        3.793288   -2.072191    0.320441
     17          6           0        4.902549   -1.357292   -0.135409
     18          6           0        4.784599   -0.029262   -0.484259
     19          6           0       -4.801871   -0.631567   -0.246929
     20          6           0       -4.454532   -1.929397   -0.598919
     21          6           0       -3.105032   -2.376838   -0.691299
     22          6           0       -2.100581   -1.488409   -0.382889
     23          6           0       -0.571302   -1.541099   -0.388339
     24          1           0       -2.900922   -3.392398   -1.012519
     25          1           0       -5.244502   -2.633547   -0.835929
     26          1           0       -5.847571   -0.342917   -0.225589
     27          1           0       -4.884370    2.172483    0.391341
     28          1           0       -2.920469    3.591362    0.598991
     29          1           0       -0.191619    3.775651    0.280311
     30          1           0        2.167111    3.775119   -0.316199
     31          1           0        4.298260    2.605178   -0.742639
     32          1           0        5.651999    0.545338   -0.788589
     33          1           0        3.908468   -3.094461    0.661641
     34          1           0        5.869968   -1.845452   -0.181669
     35          6           0        0.062578   -1.903140    0.914261
     36          6           0        1.445078   -2.166110    1.014031
     37          1           0       -0.597002   -2.141269    1.742091
     38          1           0        1.744388   -2.932160    1.726021
     39          1           0       -0.095302   -1.973839   -1.269319
 ---------------------------------------------------------------------
 Rotational constants (GHZ):      0.5116754      0.1799270      0.1379894
 Standard basis: 6-311+G(d,p) (5D, 7F)
 There are   659 symmetry adapted cartesian basis functions of A   symmetry.
 There are   634 symmetry adapted basis functions of A   symmetry.
   634 basis functions,  1012 primitive gaussians,   659 cartesian basis functions
    83 alpha electrons       81 beta electrons
       nuclear repulsion energy      1956.3548070660 Hartrees.
 NAtoms=   39 NActive=   39 NUniq=   39 SFac= 1.00D+00 NAtFMM=   60 NAOKFM=F Big=F
 Integral buffers will be    131072 words long.
 Raffenetti 2 integral format.
 Two-electron integral symmetry is turned on.
 One-electron integrals computed using PRISM.
 NBasis=   634 RedAO= T EigKep=  1.22D-06  NBF=   634
 NBsUse=   620 1.00D-06 EigRej=  8.45D-07 NBFU=   620
 ExpMin= 4.38D-02 ExpMax= 4.56D+03 ExpMxC= 6.82D+02 IAcc=2 IRadAn=         4 AccDes= 0.00D+00
 Harris functional with IExCor=  402 and IRadAn=       4 diagonalized for initial guess.
 HarFok:  IExCor=  402 AccDes= 0.00D+00 IRadAn=         4 IDoV= 1 UseB2=F ITyADJ=14
 ICtDFT=  3500011 ScaDFX=  1.000000  1.000000  1.000000  1.000000
 FoFCou: FMM=F IPFlag=           0 FMFlag=      100000 FMFlg1=           0
         NFxFlg=           0 DoJE=T BraDBF=F KetDBF=T FulRan=T
         wScrn=  0.000000 ICntrl=     500 IOpCl=  0 I1Cent=   200000004 NGrid=           0
         NMat0=    1 NMatS0=      1 NMatT0=    0 NMatD0=    1 NMtDS0=    0 NMtDT0=    0
 Petite list used in FoFCou.
 Initial guess <Sx>= 0.0000 <Sy>= 0.0000 <Sz>= 1.0000 <S**2>= 2.0000 S= 1.0000
 Requested convergence on RMS density matrix=1.00D-08 within 128 cycles.
 Requested convergence on MAX density matrix=1.00D-06.
 Requested convergence on             energy=1.00D-06.
 No special actions if energy rises.
 Restarting incremental Fock formation.
 SCF Done:  E(UB3LYP) =  -961.235615988     A.U. after   25 cycles
            NFock= 25  Conv=0.81D-08     -V/T= 2.0045
 <Sx>= 0.0000 <Sy>= 0.0000 <Sz>= 1.0000 <S**2>= 2.0398 S= 1.0132
 <L.S>= 0.000000000000E+00
 Annihilation of the first spin contaminant:
 S**2 before annihilation     2.0398,   after     2.0010
 DoSCS=F DFT=T ScalE2(SS,OS)=  1.000000  1.000000
 Range of M.O.s used for correlation:     1   620
 NBasis=   634 NAE=    83 NBE=    81 NFC=     0 NFV=     0
 NROrb=    620 NOA=    83 NOB=    81 NVA=   537 NVB=   539

 **** Warning!!: The largest alpha MO coefficient is  0.12722727D+03


 **** Warning!!: The smallest alpha delta epsilon is  0.67163376D-01


 **** Warning!!: The largest beta MO coefficient is  0.12997659D+03


 **** Warning!!: The smallest beta delta epsilon is  0.81532761D-01

 Symmetrizing basis deriv contribution to polar:
 IMax=3 JMax=2 DiffMx= 0.00D+00
 G2DrvN: will do    40 centers at a time, making    1 passes.
 Calling FoFCou, ICntrl=  3107 FMM=F I1Cent=   0 AccDes= 0.00D+00.
 End of G2Drv F.D. properties file   721 does not exist.
 End of G2Drv F.D. properties file   722 does not exist.
 End of G2Drv F.D. properties file   788 does not exist.
          IDoAtm=111111111111111111111111111111111111111
          Differentiating once with respect to nuclear coordinates.
          There are   120 degrees of freedom in the 1st order CPHF.  IDoFFX=6 NUNeed=     0.
    117 vectors produced by pass  0 Test12= 8.82D-14 1.00D-09 XBig12= 6.57D-01 1.96D-01.
 AX will form   117 AO Fock derivatives at one time.
    114 vectors produced by pass  1 Test12= 8.82D-14 1.00D-09 XBig12= 1.31D-01 6.53D-02.
    114 vectors produced by pass  2 Test12= 8.82D-14 1.00D-09 XBig12= 2.91D-03 1.10D-02.
    114 vectors produced by pass  3 Test12= 8.82D-14 1.00D-09 XBig12= 4.22D-05 9.21D-04.
    114 vectors produced by pass  4 Test12= 8.82D-14 1.00D-09 XBig12= 3.69D-07 4.28D-05.
    114 vectors produced by pass  5 Test12= 8.82D-14 1.00D-09 XBig12= 2.49D-09 3.48D-06.
    114 vectors produced by pass  6 Test12= 8.82D-14 1.00D-09 XBig12= 7.18D-11 8.56D-07.
    114 vectors produced by pass  7 Test12= 8.82D-14 1.00D-09 XBig12= 1.54D-11 3.17D-07.
    114 vectors produced by pass  8 Test12= 8.82D-14 1.00D-09 XBig12= 2.19D-12 7.24D-08.
    111 vectors produced by pass  9 Test12= 8.82D-14 1.00D-09 XBig12= 3.53D-14 1.18D-08.
     74 vectors produced by pass 10 Test12= 8.82D-14 1.00D-09 XBig12= 1.14D-15 2.04D-09.
     48 vectors produced by pass 11 Test12= 8.82D-14 1.00D-09 XBig12= 1.09D-15 1.70D-09.
     31 vectors produced by pass 12 Test12= 8.82D-14 1.00D-09 XBig12= 1.03D-15 1.97D-09.
     31 vectors produced by pass 13 Test12= 8.82D-14 1.00D-09 XBig12= 2.41D-13 2.63D-08.
     31 vectors produced by pass 14 Test12= 8.82D-14 1.00D-09 XBig12= 6.29D-13 4.56D-08.
     31 vectors produced by pass 15 Test12= 8.82D-14 1.00D-09 XBig12= 4.73D-13 3.15D-08.
     31 vectors produced by pass 16 Test12= 8.82D-14 1.00D-09 XBig12= 3.74D-13 2.76D-08.
     31 vectors produced by pass 17 Test12= 8.82D-14 1.00D-09 XBig12= 2.63D-13 2.62D-08.
     31 vectors produced by pass 18 Test12= 8.82D-14 1.00D-09 XBig12= 1.46D-13 1.84D-08.
     31 vectors produced by pass 19 Test12= 8.82D-14 1.00D-09 XBig12= 2.26D-13 2.07D-08.
     31 vectors produced by pass 20 Test12= 8.82D-14 1.00D-09 XBig12= 1.75D-13 2.01D-08.
     31 vectors produced by pass 21 Test12= 8.82D-14 1.00D-09 XBig12= 1.99D-13 1.74D-08.
     31 vectors produced by pass 22 Test12= 8.82D-14 1.00D-09 XBig12= 2.60D-13 1.97D-08.
     31 vectors produced by pass 23 Test12= 8.82D-14 1.00D-09 XBig12= 1.10D-13 1.51D-08.
     31 vectors produced by pass 24 Test12= 8.82D-14 1.00D-09 XBig12= 1.10D-13 1.42D-08.
     31 vectors produced by pass 25 Test12= 8.82D-14 1.00D-09 XBig12= 1.55D-13 1.80D-08.
     31 vectors produced by pass 26 Test12= 8.82D-14 1.00D-09 XBig12= 1.54D-13 1.93D-08.
     31 vectors produced by pass 27 Test12= 8.82D-14 1.00D-09 XBig12= 9.63D-14 1.22D-08.
     29 vectors produced by pass 28 Test12= 8.82D-14 1.00D-09 XBig12= 6.71D-14 9.93D-09.
     28 vectors produced by pass 29 Test12= 8.82D-14 1.00D-09 XBig12= 5.59D-14 9.97D-09.
     28 vectors produced by pass 30 Test12= 8.82D-14 1.00D-09 XBig12= 1.25D-13 1.37D-08.
     28 vectors produced by pass 31 Test12= 8.82D-14 1.00D-09 XBig12= 1.49D-13 1.47D-08.
     28 vectors produced by pass 32 Test12= 8.82D-14 1.00D-09 XBig12= 7.23D-14 1.13D-08.
     28 vectors produced by pass 33 Test12= 8.82D-14 1.00D-09 XBig12= 1.01D-13 1.37D-08.
     28 vectors produced by pass 34 Test12= 8.82D-14 1.00D-09 XBig12= 9.71D-14 1.08D-08.
     23 vectors produced by pass 35 Test12= 8.82D-14 1.00D-09 XBig12= 5.10D-14 1.03D-08.
     18 vectors produced by pass 36 Test12= 8.82D-14 1.00D-09 XBig12= 2.53D-14 6.30D-09.
     18 vectors produced by pass 37 Test12= 8.82D-14 1.00D-09 XBig12= 9.19D-14 1.16D-08.
     18 vectors produced by pass 38 Test12= 8.82D-14 1.00D-09 XBig12= 6.47D-14 9.04D-09.
     18 vectors produced by pass 39 Test12= 8.82D-14 1.00D-09 XBig12= 7.45D-14 1.11D-08.
     18 vectors produced by pass 40 Test12= 8.82D-14 1.00D-09 XBig12= 5.49D-14 1.05D-08.
     18 vectors produced by pass 41 Test12= 8.82D-14 1.00D-09 XBig12= 1.22D-13 1.35D-08.
     18 vectors produced by pass 42 Test12= 8.82D-14 1.00D-09 XBig12= 6.01D-14 8.72D-09.
     18 vectors produced by pass 43 Test12= 8.82D-14 1.00D-09 XBig12= 5.31D-14 9.57D-09.
     18 vectors produced by pass 44 Test12= 8.82D-14 1.00D-09 XBig12= 6.73D-14 9.72D-09.
     18 vectors produced by pass 45 Test12= 8.82D-14 1.00D-09 XBig12= 6.46D-14 8.79D-09.
     18 vectors produced by pass 46 Test12= 8.82D-14 1.00D-09 XBig12= 5.22D-14 9.26D-09.
     18 vectors produced by pass 47 Test12= 8.82D-14 1.00D-09 XBig12= 8.29D-14 9.87D-09.
     10 vectors produced by pass 48 Test12= 8.82D-14 1.00D-09 XBig12= 1.27D-14 4.47D-09.
     10 vectors produced by pass 49 Test12= 8.82D-14 1.00D-09 XBig12= 1.24D-13 1.33D-08.
     10 vectors produced by pass 50 Test12= 8.82D-14 1.00D-09 XBig12= 3.26D-14 5.95D-09.
     10 vectors produced by pass 51 Test12= 8.82D-14 1.00D-09 XBig12= 2.48D-14 5.76D-09.
     10 vectors produced by pass 52 Test12= 8.82D-14 1.00D-09 XBig12= 5.58D-14 8.78D-09.
     10 vectors produced by pass 53 Test12= 8.82D-14 1.00D-09 XBig12= 2.82D-14 6.80D-09.
     10 vectors produced by pass 54 Test12= 8.82D-14 1.00D-09 XBig12= 3.22D-14 8.18D-09.
     10 vectors produced by pass 55 Test12= 8.82D-14 1.00D-09 XBig12= 5.56D-14 7.57D-09.
     10 vectors produced by pass 56 Test12= 8.82D-14 1.00D-09 XBig12= 2.24D-14 5.45D-09.
     10 vectors produced by pass 57 Test12= 8.82D-14 1.00D-09 XBig12= 2.56D-14 6.20D-09.
     10 vectors produced by pass 58 Test12= 8.82D-14 1.00D-09 XBig12= 1.89D-14 4.91D-09.
     10 vectors produced by pass 59 Test12= 8.82D-14 1.00D-09 XBig12= 5.12D-14 9.95D-09.
     10 vectors produced by pass 60 Test12= 8.82D-14 1.00D-09 XBig12= 2.69D-14 5.85D-09.
     10 vectors produced by pass 61 Test12= 8.82D-14 1.00D-09 XBig12= 3.74D-14 7.43D-09.
     10 vectors produced by pass 62 Test12= 8.82D-14 1.00D-09 XBig12= 1.07D-14 4.60D-09.
     10 vectors produced by pass 63 Test12= 8.82D-14 1.00D-09 XBig12= 3.11D-14 6.15D-09.
     10 vectors produced by pass 64 Test12= 8.82D-14 1.00D-09 XBig12= 1.68D-14 4.31D-09.
     10 vectors produced by pass 65 Test12= 8.82D-14 1.00D-09 XBig12= 4.79D-14 7.43D-09.
     10 vectors produced by pass 66 Test12= 8.82D-14 1.00D-09 XBig12= 4.31D-14 6.98D-09.
     10 vectors produced by pass 67 Test12= 8.82D-14 1.00D-09 XBig12= 5.60D-14 7.62D-09.
     10 vectors produced by pass 68 Test12= 8.82D-14 1.00D-09 XBig12= 3.44D-14 6.25D-09.
     10 vectors produced by pass 69 Test12= 8.82D-14 1.00D-09 XBig12= 3.62D-14 6.75D-09.
     10 vectors produced by pass 70 Test12= 8.82D-14 1.00D-09 XBig12= 7.12D-14 9.26D-09.
     10 vectors produced by pass 71 Test12= 8.82D-14 1.00D-09 XBig12= 1.64D-14 4.67D-09.
     10 vectors produced by pass 72 Test12= 8.82D-14 1.00D-09 XBig12= 2.40D-14 5.31D-09.
     10 vectors produced by pass 73 Test12= 8.82D-14 1.00D-09 XBig12= 3.76D-14 6.92D-09.
     10 vectors produced by pass 74 Test12= 8.82D-14 1.00D-09 XBig12= 3.69D-14 7.33D-09.
     10 vectors produced by pass 75 Test12= 8.82D-14 1.00D-09 XBig12= 1.68D-14 5.04D-09.
     10 vectors produced by pass 76 Test12= 8.82D-14 1.00D-09 XBig12= 1.73D-14 5.12D-09.
     10 vectors produced by pass 77 Test12= 8.82D-14 1.00D-09 XBig12= 2.35D-14 5.65D-09.
     10 vectors produced by pass 78 Test12= 8.82D-14 1.00D-09 XBig12= 3.93D-14 6.89D-09.
     10 vectors produced by pass 79 Test12= 8.82D-14 1.00D-09 XBig12= 1.43D-14 3.88D-09.
     10 vectors produced by pass 80 Test12= 8.82D-14 1.00D-09 XBig12= 2.22D-14 4.95D-09.
     10 vectors produced by pass 81 Test12= 8.82D-14 1.00D-09 XBig12= 1.98D-14 4.24D-09.
     10 vectors produced by pass 82 Test12= 8.82D-14 1.00D-09 XBig12= 2.63D-14 5.71D-09.
     10 vectors produced by pass 83 Test12= 8.82D-14 1.00D-09 XBig12= 3.29D-14 7.38D-09.
     10 vectors produced by pass 84 Test12= 8.82D-14 1.00D-09 XBig12= 1.18D-14 3.78D-09.
     10 vectors produced by pass 85 Test12= 8.82D-14 1.00D-09 XBig12= 2.38D-14 5.52D-09.
     10 vectors produced by pass 86 Test12= 8.82D-14 1.00D-09 XBig12= 4.78D-14 6.91D-09.
     10 vectors produced by pass 87 Test12= 8.82D-14 1.00D-09 XBig12= 2.90D-14 5.45D-09.
     10 vectors produced by pass 88 Test12= 8.82D-14 1.00D-09 XBig12= 2.95D-14 5.89D-09.
     10 vectors produced by pass 89 Test12= 8.82D-14 1.00D-09 XBig12= 1.16D-14 3.61D-09.
     10 vectors produced by pass 90 Test12= 8.82D-14 1.00D-09 XBig12= 3.68D-14 6.84D-09.
     10 vectors produced by pass 91 Test12= 8.82D-14 1.00D-09 XBig12= 2.51D-14 5.50D-09.
     10 vectors produced by pass 92 Test12= 8.82D-14 1.00D-09 XBig12= 3.66D-14 6.82D-09.
     10 vectors produced by pass 93 Test12= 8.82D-14 1.00D-09 XBig12= 2.28D-14 6.74D-09.
     10 vectors produced by pass 94 Test12= 8.82D-14 1.00D-09 XBig12= 2.90D-14 6.08D-09.
     10 vectors produced by pass 95 Test12= 8.82D-14 1.00D-09 XBig12= 2.06D-14 5.44D-09.
     10 vectors produced by pass 96 Test12= 8.82D-14 1.00D-09 XBig12= 2.47D-14 5.96D-09.
     10 vectors produced by pass 97 Test12= 8.82D-14 1.00D-09 XBig12= 3.41D-14 6.40D-09.
     10 vectors produced by pass 98 Test12= 8.82D-14 1.00D-09 XBig12= 1.63D-14 4.69D-09.
     10 vectors produced by pass 99 Test12= 8.82D-14 1.00D-09 XBig12= 1.88D-14 4.38D-09.
     10 vectors produced by pass100 Test12= 8.82D-14 1.00D-09 XBig12= 2.61D-14 4.90D-09.
     10 vectors produced by pass101 Test12= 8.82D-14 1.00D-09 XBig12= 1.92D-14 5.23D-09.
     10 vectors produced by pass102 Test12= 8.82D-14 1.00D-09 XBig12= 2.30D-14 4.88D-09.
     10 vectors produced by pass103 Test12= 8.82D-14 1.00D-09 XBig12= 2.88D-14 5.56D-09.
     10 vectors produced by pass104 Test12= 8.82D-14 1.00D-09 XBig12= 2.04D-14 5.00D-09.
     10 vectors produced by pass105 Test12= 8.82D-14 1.00D-09 XBig12= 1.60D-14 3.94D-09.
     10 vectors produced by pass106 Test12= 8.82D-14 1.00D-09 XBig12= 1.67D-14 3.72D-09.
     10 vectors produced by pass107 Test12= 8.82D-14 1.00D-09 XBig12= 1.17D-14 3.67D-09.
     10 vectors produced by pass108 Test12= 8.82D-14 1.00D-09 XBig12= 2.56D-14 4.94D-09.
     10 vectors produced by pass109 Test12= 8.82D-14 1.00D-09 XBig12= 2.54D-14 5.16D-09.
     10 vectors produced by pass110 Test12= 8.82D-14 1.00D-09 XBig12= 1.56D-14 4.51D-09.
     10 vectors produced by pass111 Test12= 8.82D-14 1.00D-09 XBig12= 2.80D-14 6.05D-09.
     10 vectors produced by pass112 Test12= 8.82D-14 1.00D-09 XBig12= 1.69D-14 4.14D-09.
     10 vectors produced by pass113 Test12= 8.82D-14 1.00D-09 XBig12= 1.14D-14 3.18D-09.
     10 vectors produced by pass114 Test12= 8.82D-14 1.00D-09 XBig12= 2.15D-14 4.96D-09.
     10 vectors produced by pass115 Test12= 8.82D-14 1.00D-09 XBig12= 3.10D-14 5.99D-09.
     10 vectors produced by pass116 Test12= 8.82D-14 1.00D-09 XBig12= 1.59D-14 4.17D-09.
     10 vectors produced by pass117 Test12= 8.82D-14 1.00D-09 XBig12= 3.89D-14 6.37D-09.
      9 vectors produced by pass118 Test12= 8.82D-14 1.00D-09 XBig12= 1.60D-14 4.23D-09.
      9 vectors produced by pass119 Test12= 8.82D-14 1.00D-09 XBig12= 1.41D-14 4.60D-09.
      9 vectors produced by pass120 Test12= 8.82D-14 1.00D-09 XBig12= 1.43D-14 3.72D-09.
      7 vectors produced by pass121 Test12= 8.82D-14 1.00D-09 XBig12= 1.02D-14 3.60D-09.
      7 vectors produced by pass122 Test12= 8.82D-14 1.00D-09 XBig12= 1.89D-14 4.93D-09.
      7 vectors produced by pass123 Test12= 8.82D-14 1.00D-09 XBig12= 1.52D-14 4.14D-09.
      7 vectors produced by pass124 Test12= 8.82D-14 1.00D-09 XBig12= 1.85D-14 4.73D-09.
      7 vectors produced by pass125 Test12= 8.82D-14 1.00D-09 XBig12= 1.70D-14 4.73D-09.
      7 vectors produced by pass126 Test12= 8.82D-14 1.00D-09 XBig12= 2.26D-14 5.14D-09.
      7 vectors produced by pass127 Test12= 8.82D-14 1.00D-09 XBig12= 8.22D-15 3.43D-09.
      7 vectors produced by pass128 Test12= 8.82D-14 1.00D-09 XBig12= 1.88D-14 3.95D-09.
      5 vectors produced by pass129 Test12= 8.82D-14 1.00D-09 XBig12= 5.76D-15 2.64D-09.
      5 vectors produced by pass130 Test12= 8.82D-14 1.00D-09 XBig12= 1.61D-14 4.45D-09.
      5 vectors produced by pass131 Test12= 8.82D-14 1.00D-09 XBig12= 1.67D-14 4.52D-09.
      5 vectors produced by pass132 Test12= 8.82D-14 1.00D-09 XBig12= 2.35D-14 4.97D-09.
      5 vectors produced by pass133 Test12= 8.82D-14 1.00D-09 XBig12= 8.52D-15 2.88D-09.
      5 vectors produced by pass134 Test12= 8.82D-14 1.00D-09 XBig12= 1.36D-14 3.47D-09.
      5 vectors produced by pass135 Test12= 8.82D-14 1.00D-09 XBig12= 9.60D-15 3.03D-09.
      5 vectors produced by pass136 Test12= 8.82D-14 1.00D-09 XBig12= 1.78D-14 4.14D-09.
      5 vectors produced by pass137 Test12= 8.82D-14 1.00D-09 XBig12= 1.49D-14 4.52D-09.
      5 vectors produced by pass138 Test12= 8.82D-14 1.00D-09 XBig12= 1.34D-14 3.86D-09.
      5 vectors produced by pass139 Test12= 8.82D-14 1.00D-09 XBig12= 1.62D-14 4.17D-09.
      2 vectors produced by pass140 Test12= 8.82D-14 1.00D-09 XBig12= 4.72D-15 2.14D-09.
 InvSVY:  IOpt=1 It=  1 EMax= 1.78D-15
 Solved reduced A of dimension  3034 with   120 vectors.
 End of Minotr F.D. properties file   721 does not exist.
 End of Minotr F.D. properties file   722 does not exist.
 End of Minotr F.D. properties file   788 does not exist.

 **********************************************************************

            Population analysis using the SCF density.

 **********************************************************************

 Orbital symmetries:
 Alpha Orbitals:
       Occupied  (A) (A) (A) (A) (A) (A) (A) (A) (A) (A) (A) (A)
                 (A) (A) (A) (A) (A) (A) (A) (A) (A) (A) (A) (A)
                 (A) (A) (A) (A) (A) (A) (A) (A) (A) (A) (A) (A)
                 (A) (A) (A) (A) (A) (A) (A) (A) (A) (A) (A) (A)
                 (A) (A) (A) (A) (A) (A) (A) (A) (A) (A) (A) (A)
                 (A) (A) (A) (A) (A) (A) (A) (A) (A) (A) (A) (A)
                 (A) (A) (A) (A) (A) (A) (A) (A) (A) (A) (A)
       Virtual   (A) (A) (A) (A) (A) (A) (A) (A) (A) (A) (A) (A)
                 (A) (A) (A) (A) (A) (A) (A) (A) (A) (A) (A) (A)
                 (A) (A) (A) (A) (A) (A) (A) (A) (A) (A) (A) (A)
                 (A) (A) (A) (A) (A) (A) (A) (A) (A) (A) (A) (A)
                 (A) (A) (A) (A) (A) (A) (A) (A) (A) (A) (A) (A)
                 (A) (A) (A) (A) (A) (A) (A) (A) (A) (A) (A) (A)
                 (A) (A) (A) (A) (A) (A) (A) (A) (A) (A) (A) (A)
                 (A) (A) (A) (A) (A) (A) (A) (A) (A) (A) (A) (A)
                 (A) (A) (A) (A) (A) (A) (A) (A) (A) (A) (A) (A)
                 (A) (A) (A) (A) (A) (A) (A) (A) (A) (A) (A) (A)
                 (A) (A) (A) (A) (A) (A) (A) (A) (A) (A) (A) (A)
                 (A) (A) (A) (A) (A) (A) (A) (A) (A) (A) (A) (A)
                 (A) (A) (A) (A) (A) (A) (A) (A) (A) (A) (A) (A)
                 (A) (A) (A) (A) (A) (A) (A) (A) (A) (A) (A) (A)
                 (A) (A) (A) (A) (A) (A) (A) (A) (A) (A) (A) (A)
                 (A) (A) (A) (A) (A) (A) (A) (A) (A) (A) (A) (A)
                 (A) (A) (A) (A) (A) (A) (A) (A) (A) (A) (A) (A)
                 (A) (A) (A) (A) (A) (A) (A) (A) (A) (A) (A) (A)
                 (A) (A) (A) (A) (A) (A) (A) (A) (A) (A) (A) (A)
                 (A) (A) (A) (A) (A) (A) (A) (A) (A) (A) (A) (A)
                 (A) (A) (A) (A) (A) (A) (A) (A) (A) (A) (A) (A)
                 (A) (A) (A) (A) (A) (A) (A) (A) (A) (A) (A) (A)
                 (A) (A) (A) (A) (A) (A) (A) (A) (A) (A) (A) (A)
                 (A) (A) (A) (A) (A) (A) (A) (A) (A) (A) (A) (A)
                 (A) (A) (A) (A) (A) (A) (A) (A) (A) (A) (A) (A)
                 (A) (A) (A) (A) (A) (A) (A) (A) (A) (A) (A) (A)
                 (A) (A) (A) (A) (A) (A) (A) (A) (A) (A) (A) (A)
                 (A) (A) (A) (A) (A) (A) (A) (A) (A) (A) (A) (A)
                 (A) (A) (A) (A) (A) (A) (A) (A) (A) (A) (A) (A)
                 (A) (A) (A) (A) (A) (A) (A) (A) (A) (A) (A) (A)
                 (A) (A) (A) (A) (A) (A) (A) (A) (A) (A) (A) (A)
                 (A) (A) (A) (A) (A) (A) (A) (A) (A) (A) (A) (A)
                 (A) (A) (A) (A) (A) (A) (A) (A) (A) (A) (A) (A)
                 (A) (A) (A) (A) (A) (A) (A) (A) (A) (A) (A) (A)
                 (A) (A) (A) (A) (A) (A) (A) (A) (A) (A) (A) (A)
                 (A) (A) (A) (A) (A) (A) (A) (A) (A) (A) (A) (A)
                 (A) (A) (A) (A) (A) (A) (A) (A) (A) (A) (A) (A)
                 (A) (A) (A) (A) (A) (A) (A) (A) (A) (A) (A) (A)
                 (A) (A) (A) (A) (A) (A) (A) (A) (A) (A) (A) (A)
                 (A) (A) (A) (A) (A) (A) (A) (A) (A) (A) (A) (A)
                 (A) (A) (A) (A) (A) (A) (A) (A) (A) (A) (A) (A)
                 (A) (A) (A) (A) (A) (A) (A) (A) (A) (A) (A) (A)
                 (A) (A) (A) (A) (A) (A) (A) (A) (A) (A) (A) (A)
                 (A) (A) (A) (A) (A) (A) (A) (A) (A) (A) (A) (A)
                 (A) (A) (A) (A) (A) (A) (A) (A) (A)
 Beta  Orbitals:
       Occupied  (A) (A) (A) (A) (A) (A) (A) (A) (A) (A) (A) (A)
                 (A) (A) (A) (A) (A) (A) (A) (A) (A) (A) (A) (A)
                 (A) (A) (A) (A) (A) (A) (A) (A) (A) (A) (A) (A)
                 (A) (A) (A) (A) (A) (A) (A) (A) (A) (A) (A) (A)
                 (A) (A) (A) (A) (A) (A) (A) (A) (A) (A) (A) (A)
                 (A) (A) (A) (A) (A) (A) (A) (A) (A) (A) (A) (A)
                 (A) (A) (A) (A) (A) (A) (A) (A) (A)
       Virtual   (A) (A) (A) (A) (A) (A) (A) (A) (A) (A) (A) (A)
                 (A) (A) (A) (A) (A) (A) (A) (A) (A) (A) (A) (A)
                 (A) (A) (A) (A) (A) (A) (A) (A) (A) (A) (A) (A)
                 (A) (A) (A) (A) (A) (A) (A) (A) (A) (A) (A) (A)
                 (A) (A) (A) (A) (A) (A) (A) (A) (A) (A) (A) (A)
                 (A) (A) (A) (A) (A) (A) (A) (A) (A) (A) (A) (A)
                 (A) (A) (A) (A) (A) (A) (A) (A) (A) (A) (A) (A)
                 (A) (A) (A) (A) (A) (A) (A) (A) (A) (A) (A) (A)
                 (A) (A) (A) (A) (A) (A) (A) (A) (A) (A) (A) (A)
                 (A) (A) (A) (A) (A) (A) (A) (A) (A) (A) (A) (A)
                 (A) (A) (A) (A) (A) (A) (A) (A) (A) (A) (A) (A)
                 (A) (A) (A) (A) (A) (A) (A) (A) (A) (A) (A) (A)
                 (A) (A) (A) (A) (A) (A) (A) (A) (A) (A) (A) (A)
                 (A) (A) (A) (A) (A) (A) (A) (A) (A) (A) (A) (A)
                 (A) (A) (A) (A) (A) (A) (A) (A) (A) (A) (A) (A)
                 (A) (A) (A) (A) (A) (A) (A) (A) (A) (A) (A) (A)
                 (A) (A) (A) (A) (A) (A) (A) (A) (A) (A) (A) (A)
                 (A) (A) (A) (A) (A) (A) (A) (A) (A) (A) (A) (A)
                 (A) (A) (A) (A) (A) (A) (A) (A) (A) (A) (A) (A)
                 (A) (A) (A) (A) (A) (A) (A) (A) (A) (A) (A) (A)
                 (A) (A) (A) (A) (A) (A) (A) (A) (A) (A) (A) (A)
                 (A) (A) (A) (A) (A) (A) (A) (A) (A) (A) (A) (A)
                 (A) (A) (A) (A) (A) (A) (A) (A) (A) (A) (A) (A)
                 (A) (A) (A) (A) (A) (A) (A) (A) (A) (A) (A) (A)
                 (A) (A) (A) (A) (A) (A) (A) (A) (A) (A) (A) (A)
                 (A) (A) (A) (A) (A) (A) (A) (A) (A) (A) (A) (A)
                 (A) (A) (A) (A) (A) (A) (A) (A) (A) (A) (A) (A)
                 (A) (A) (A) (A) (A) (A) (A) (A) (A) (A) (A) (A)
                 (A) (A) (A) (A) (A) (A) (A) (A) (A) (A) (A) (A)
                 (A) (A) (A) (A) (A) (A) (A) (A) (A) (A) (A) (A)
                 (A) (A) (A) (A) (A) (A) (A) (A) (A) (A) (A) (A)
                 (A) (A) (A) (A) (A) (A) (A) (A) (A) (A) (A) (A)
                 (A) (A) (A) (A) (A) (A) (A) (A) (A) (A) (A) (A)
                 (A) (A) (A) (A) (A) (A) (A) (A) (A) (A) (A) (A)
                 (A) (A) (A) (A) (A) (A) (A) (A) (A) (A) (A) (A)
                 (A) (A) (A) (A) (A) (A) (A) (A) (A) (A) (A) (A)
                 (A) (A) (A) (A) (A) (A) (A) (A) (A) (A) (A) (A)
                 (A) (A) (A) (A) (A) (A) (A) (A) (A) (A) (A) (A)
                 (A) (A) (A) (A) (A) (A) (A) (A) (A) (A) (A) (A)
                 (A) (A) (A) (A) (A) (A) (A) (A) (A) (A) (A) (A)
                 (A) (A) (A) (A) (A) (A) (A) (A) (A) (A) (A) (A)
                 (A) (A) (A) (A) (A) (A) (A) (A) (A) (A) (A) (A)
                 (A) (A) (A) (A) (A) (A) (A) (A) (A) (A) (A) (A)
                 (A) (A) (A) (A) (A) (A) (A) (A) (A) (A) (A) (A)
                 (A) (A) (A) (A) (A) (A) (A) (A) (A) (A) (A)
 The electronic state is 3-A.
 Alpha  occ. eigenvalues --  -10.21082 -10.21055 -10.20941 -10.19589 -10.19435
 Alpha  occ. eigenvalues --  -10.19378 -10.19338 -10.19205 -10.19163 -10.19141
 Alpha  occ. eigenvalues --  -10.18906 -10.18861 -10.18818 -10.18809 -10.18695
 Alpha  occ. eigenvalues --  -10.18669 -10.18598 -10.18476 -10.18240 -10.18171
 Alpha  occ. eigenvalues --  -10.18112 -10.17819 -10.17697 -10.17653 -10.17644
 Alpha  occ. eigenvalues --   -0.92562  -0.88726  -0.86118  -0.85484  -0.83124
 Alpha  occ. eigenvalues --   -0.80602  -0.79174  -0.77272  -0.75587  -0.75351
 Alpha  occ. eigenvalues --   -0.73637  -0.70977  -0.69099  -0.65275  -0.64624
 Alpha  occ. eigenvalues --   -0.62884  -0.62094  -0.59985  -0.59113  -0.57780
 Alpha  occ. eigenvalues --   -0.54885  -0.52874  -0.52197  -0.52002  -0.50921
 Alpha  occ. eigenvalues --   -0.48984  -0.48420  -0.47479  -0.46226  -0.45727
 Alpha  occ. eigenvalues --   -0.44666  -0.44061  -0.43586  -0.42382  -0.42236
 Alpha  occ. eigenvalues --   -0.41599  -0.40827  -0.40572  -0.40193  -0.39780
 Alpha  occ. eigenvalues --   -0.39193  -0.37470  -0.37140  -0.36637  -0.35785
 Alpha  occ. eigenvalues --   -0.34704  -0.34441  -0.33856  -0.33074  -0.32872
 Alpha  occ. eigenvalues --   -0.29959  -0.29621  -0.26525  -0.25974  -0.24127
 Alpha  occ. eigenvalues --   -0.22657  -0.20575  -0.12801
 Alpha virt. eigenvalues --   -0.06084  -0.04011  -0.02570  -0.02130   0.00047
 Alpha virt. eigenvalues --    0.00138   0.00741   0.00911   0.00978   0.01670
 Alpha virt. eigenvalues --    0.01913   0.02281   0.02945   0.03320   0.03456
 Alpha virt. eigenvalues --    0.04416   0.04591   0.05101   0.05364   0.05465
 Alpha virt. eigenvalues --    0.06146   0.06367   0.06885   0.06983   0.07335
 Alpha virt. eigenvalues --    0.07680   0.08031   0.08369   0.08960   0.09452
 Alpha virt. eigenvalues --    0.09991   0.10299   0.10606   0.10983   0.11238
 Alpha virt. eigenvalues --    0.11851   0.12057   0.12346   0.12684   0.13085
 Alpha virt. eigenvalues --    0.13339   0.13756   0.13974   0.14179   0.14877
 Alpha virt. eigenvalues --    0.14937   0.15264   0.15594   0.15970   0.16332
 Alpha virt. eigenvalues --    0.16667   0.16906   0.17002   0.17259   0.17389
 Alpha virt. eigenvalues --    0.17758   0.18036   0.18364   0.18572   0.18710
 Alpha virt. eigenvalues --    0.19023   0.19186   0.19512   0.19768   0.19873
 Alpha virt. eigenvalues --    0.20196   0.20480   0.20792   0.21000   0.21164
 Alpha virt. eigenvalues --    0.21183   0.21304   0.21931   0.21986   0.22234
 Alpha virt. eigenvalues --    0.22479   0.22728   0.23013   0.23354   0.23660
 Alpha virt. eigenvalues --    0.23939   0.24271   0.24364   0.24800   0.25064
 Alpha virt. eigenvalues --    0.25132   0.25411   0.25578   0.25844   0.26018
 Alpha virt. eigenvalues --    0.26355   0.26558   0.26964   0.27381   0.27967
 Alpha virt. eigenvalues --    0.28113   0.28441   0.28703   0.29009   0.29241
 Alpha virt. eigenvalues --    0.29459   0.29664   0.30017   0.30172   0.30710
 Alpha virt. eigenvalues --    0.30970   0.31112   0.31504   0.31937   0.32315
 Alpha virt. eigenvalues --    0.32368   0.33018   0.33240   0.33820   0.34038
 Alpha virt. eigenvalues --    0.34570   0.34920   0.35357   0.35854   0.36698
 Alpha virt. eigenvalues --    0.37340   0.37589   0.38447   0.38867   0.39180
 Alpha virt. eigenvalues --    0.40404   0.41176   0.41986   0.42385   0.43513
 Alpha virt. eigenvalues --    0.44371   0.44435   0.45369   0.45698   0.47063
 Alpha virt. eigenvalues --    0.48090   0.48560   0.50075   0.50551   0.51198
 Alpha virt. eigenvalues --    0.51843   0.52897   0.53326   0.53783   0.54143
 Alpha virt. eigenvalues --    0.54300   0.54686   0.55099   0.55425   0.55772
 Alpha virt. eigenvalues --    0.56130   0.56576   0.57296   0.57634   0.58096
 Alpha virt. eigenvalues --    0.58304   0.58967   0.59193   0.59862   0.60231
 Alpha virt. eigenvalues --    0.60459   0.61160   0.61514   0.61810   0.62462
 Alpha virt. eigenvalues --    0.62951   0.63541   0.64097   0.65097   0.65436
 Alpha virt. eigenvalues --    0.65826   0.66421   0.66688   0.67224   0.67525
 Alpha virt. eigenvalues --    0.67957   0.68434   0.68916   0.69367   0.69788
 Alpha virt. eigenvalues --    0.70248   0.70747   0.70969   0.71307   0.71415
 Alpha virt. eigenvalues --    0.71643   0.72176   0.72269   0.73003   0.73376
 Alpha virt. eigenvalues --    0.73752   0.74213   0.74755   0.74902   0.75174
 Alpha virt. eigenvalues --    0.75579   0.76232   0.76705   0.77433   0.77835
 Alpha virt. eigenvalues --    0.78725   0.80189   0.80606   0.81879   0.82438
 Alpha virt. eigenvalues --    0.83269   0.83640   0.84308   0.84957   0.85015
 Alpha virt. eigenvalues --    0.85638   0.86822   0.87500   0.88313   0.88898
 Alpha virt. eigenvalues --    0.89147   0.89954   0.90250   0.90597   0.91637
 Alpha virt. eigenvalues --    0.91852   0.92428   0.92734   0.93706   0.93822
 Alpha virt. eigenvalues --    0.94304   0.94995   0.95648   0.95901   0.96665
 Alpha virt. eigenvalues --    0.97352   0.97937   0.98291   0.99109   0.99467
 Alpha virt. eigenvalues --    0.99695   1.00707   1.01357   1.02090   1.02819
 Alpha virt. eigenvalues --    1.03584   1.03954   1.04689   1.05953   1.06123
 Alpha virt. eigenvalues --    1.06970   1.07861   1.08043   1.09455   1.09847
 Alpha virt. eigenvalues --    1.10727   1.11813   1.12466   1.13089   1.13658
 Alpha virt. eigenvalues --    1.14942   1.15603   1.16302   1.17908   1.18132
 Alpha virt. eigenvalues --    1.18947   1.21993   1.24430   1.25551   1.26386
 Alpha virt. eigenvalues --    1.28192   1.29679   1.30715   1.31968   1.35006
 Alpha virt. eigenvalues --    1.35874   1.36424   1.38088   1.40208   1.41272
 Alpha virt. eigenvalues --    1.42265   1.43604   1.44460   1.45689   1.46769
 Alpha virt. eigenvalues --    1.47318   1.47747   1.48653   1.49317   1.50051
 Alpha virt. eigenvalues --    1.50535   1.50765   1.51306   1.52009   1.52231
 Alpha virt. eigenvalues --    1.54984   1.55267   1.55699   1.55785   1.56772
 Alpha virt. eigenvalues --    1.56864   1.57326   1.58887   1.59550   1.59743
 Alpha virt. eigenvalues --    1.61192   1.62118   1.63395   1.63821   1.65177
 Alpha virt. eigenvalues --    1.65865   1.66411   1.67371   1.68622   1.69782
 Alpha virt. eigenvalues --    1.69962   1.71092   1.72080   1.73033   1.73841
 Alpha virt. eigenvalues --    1.74203   1.74828   1.75498   1.75968   1.76382
 Alpha virt. eigenvalues --    1.76931   1.77360   1.79699   1.80908   1.81094
 Alpha virt. eigenvalues --    1.82105   1.82636   1.83499   1.84951   1.86252
 Alpha virt. eigenvalues --    1.86743   1.86853   1.87782   1.88215   1.88307
 Alpha virt. eigenvalues --    1.89182   1.90026   1.90551   1.90646   1.91956
 Alpha virt. eigenvalues --    1.92875   1.93272   1.94044   1.94418   1.94715
 Alpha virt. eigenvalues --    1.95544   1.95808   1.96656   1.97417   1.99120
 Alpha virt. eigenvalues --    1.99883   2.00421   2.01711   2.01836   2.03121
 Alpha virt. eigenvalues --    2.04163   2.04856   2.05626   2.06754   2.08112
 Alpha virt. eigenvalues --    2.08279   2.09462   2.11368   2.12006   2.12934
 Alpha virt. eigenvalues --    2.13652   2.15155   2.16063   2.16593   2.18221
 Alpha virt. eigenvalues --    2.19022   2.20206   2.20498   2.22177   2.23041
 Alpha virt. eigenvalues --    2.23990   2.25892   2.27108   2.27955   2.29118
 Alpha virt. eigenvalues --    2.31383   2.32634   2.33769   2.35620   2.37488
 Alpha virt. eigenvalues --    2.38218   2.38832   2.40448   2.42415   2.43484
 Alpha virt. eigenvalues --    2.44472   2.45249   2.46054   2.47523   2.48600
 Alpha virt. eigenvalues --    2.49831   2.53807   2.54234   2.56141   2.57347
 Alpha virt. eigenvalues --    2.57984   2.59387   2.60637   2.63236   2.64147
 Alpha virt. eigenvalues --    2.66023   2.66737   2.68608   2.69402   2.70588
 Alpha virt. eigenvalues --    2.71833   2.72094   2.72170   2.72720   2.73027
 Alpha virt. eigenvalues --    2.73984   2.74287   2.74691   2.75191   2.75312
 Alpha virt. eigenvalues --    2.76056   2.76457   2.77427   2.77922   2.78139
 Alpha virt. eigenvalues --    2.78485   2.78962   2.79262   2.80520   2.82231
 Alpha virt. eigenvalues --    2.82325   2.83413   2.83499   2.84463   2.84762
 Alpha virt. eigenvalues --    2.86354   2.87618   2.88213   2.88779   2.89710
 Alpha virt. eigenvalues --    2.90189   2.92146   2.92726   2.93577   2.95427
 Alpha virt. eigenvalues --    2.97294   2.98891   3.01552   3.03279   3.05570
 Alpha virt. eigenvalues --    3.07815   3.09141   3.11140   3.11413   3.13169
 Alpha virt. eigenvalues --    3.14839   3.16606   3.19603   3.19823   3.21157
 Alpha virt. eigenvalues --    3.22038   3.22425   3.25154   3.28986   3.30307
 Alpha virt. eigenvalues --    3.31800   3.34043   3.35411   3.36379   3.39152
 Alpha virt. eigenvalues --    3.39507   3.41051   3.42886   3.43912   3.44370
 Alpha virt. eigenvalues --    3.46009   3.48449   3.49130   3.50294   3.52831
 Alpha virt. eigenvalues --    3.53396   3.56630   3.58567   3.62256   3.62903
 Alpha virt. eigenvalues --    3.66633   3.69115   3.72141   3.79305   3.80812
 Alpha virt. eigenvalues --    3.88237   3.96408   4.01138   4.04127   4.05245
 Alpha virt. eigenvalues --    4.06662   4.09733   4.10413   4.11998   4.16500
 Alpha virt. eigenvalues --    4.21017   4.23211   4.30173   4.34802   4.48374
 Alpha virt. eigenvalues --    4.55689   4.66031   4.76522   4.78329   4.80582
 Alpha virt. eigenvalues --    4.82474   4.86252  23.45767  23.62669  23.75920
 Alpha virt. eigenvalues --   23.82093  23.84946  23.88088  23.89472  23.91111
 Alpha virt. eigenvalues --   23.94328  23.96315  23.97769  23.99409  24.01290
 Alpha virt. eigenvalues --   24.01892  24.02631  24.04154  24.06077  24.08162
 Alpha virt. eigenvalues --   24.10826  24.11724  24.13062  24.15183  24.15449
 Alpha virt. eigenvalues --   24.17213  24.17863
  Beta  occ. eigenvalues --  -10.20980 -10.20895 -10.20865 -10.19597 -10.19447
  Beta  occ. eigenvalues --  -10.19383 -10.19332 -10.19326 -10.19150 -10.19060
  Beta  occ. eigenvalues --  -10.18780 -10.18765 -10.18742 -10.18705 -10.18568
  Beta  occ. eigenvalues --  -10.18450 -10.18400 -10.18195 -10.17909 -10.17904
  Beta  occ. eigenvalues --  -10.17708 -10.17617 -10.17570 -10.17544 -10.17482
  Beta  occ. eigenvalues --   -0.92218  -0.88437  -0.85672  -0.85082  -0.82759
  Beta  occ. eigenvalues --   -0.80064  -0.78668  -0.76787  -0.75312  -0.74986
  Beta  occ. eigenvalues --   -0.73327  -0.70104  -0.68486  -0.65006  -0.64173
  Beta  occ. eigenvalues --   -0.62575  -0.61681  -0.59570  -0.58852  -0.57466
  Beta  occ. eigenvalues --   -0.54574  -0.52627  -0.51935  -0.51751  -0.50703
  Beta  occ. eigenvalues --   -0.48734  -0.48223  -0.47225  -0.46037  -0.45430
  Beta  occ. eigenvalues --   -0.44391  -0.43852  -0.43364  -0.42166  -0.41876
  Beta  occ. eigenvalues --   -0.41154  -0.40547  -0.40219  -0.39739  -0.39497
  Beta  occ. eigenvalues --   -0.38864  -0.37082  -0.36353  -0.35914  -0.35597
[...]
 264334,0.00072596,0.00628671,0.00170034,-0.00100548,-0.00065309,-0.000
 16261,0.00111924,0.00095331,0.00031600,-0.00356778,0.04133355,-0.05497
 879,-0.03597821,-0.02992015,0.01236569,0.00856339,0.01960598,0.0030472
 0,-0.00245652,-0.00355612,-0.00028368,0.00288546,-0.02407219,0.0058273
 8,0.00157836,0.01715646,-0.00317395,0.01862492,-0.02216746,-0.00212548
 ,-0.02903452,0.00604117,0.00465164,-0.01230359,0.02865339,-0.01985549,
 0.01123478,-0.00472642,0.00224633,-0.00243895,-0.00266141,0.00225143,0
 .00458861,-0.00118593,-0.00168457,0.00001476,0.00065102,0.00021071,-0.
 00000094,-0.00026625,-0.00026429,-0.00026626,0.00064276,0.00015706,0.0
 0006700,-0.00148367,-0.00002256,0.03181652,-0.00484857,0.07871773,0.00
 002505,-0.00003071,0.00016886,-0.00005577,0.00004040,0.00003831,0.0000
 0657,-0.00000389,0.00002597,0.00002557,-0.00004169,0.00010670,-0.00010
 925,0.00002827,-0.00004392,0.00000795,0.00006102,0.00004180,-0.0004609
 0,-0.00011184,-0.00013345,0.00022628,-0.00032749,0.00038458,-0.0000868
 7,-0.00012978,-0.00027022,0.00007675,0.00008347,-0.00064459,-0.0002182
 9,-0.00020986,-0.00006987,0.01280170,0.09220090,-0.00227420,-0.0001255
 8,-0.00069733,0.00343281,0.00081607,-0.00054066,-0.00577325,-0.0047753
 6,0.00667871,0.00123055,-0.00104431,-0.00112868,-0.00043090,-0.0000403
 5,0.00007505,-0.00026319,-0.00140613,-0.00045305,0.01228270,0.02343364
 ,-0.00382411,0.00160269,-0.00109354,-0.00331562,-0.00116452,-0.0014348
 6,-0.00018460,0.00008999,0.00078287,0.00034675,0.00021073,0.00211146,-
 0.00232096,0.00124449,-0.00215004,-0.00112364,-0.00124915,0.00370597,0
 .00013949,0.00466407,-0.00251891,-0.00077822,0.02239061,-0.00499126,0.
 00637726,-0.00428232,0.00556670,0.00421951,0.00325075,0.00194761,-0.00
 199347,-0.00345285,-0.00100561,0.00143987,0.00157173,0.00143173,0.0006
 0621,0.00044790,-0.00102340,-0.00002158,0.00177598,-0.00010826,0.00035
 275,-0.01177993,-0.00074253,0.00070171,-0.04788077,0.00901780,-0.19602
 656,-0.00021203,-0.00002594,-0.00012010,0.00020944,-0.00007440,-0.0000
 8130,0.00000098,0.00002424,-0.00004187,-0.00000655,-0.00012325,0.00006
 613,0.00018316,-0.00005174,0.00000323,0.00004653,-0.00017285,0.0001531
 1,-0.00007283,-0.00010735,-0.00006764,0.00003333,0.00002346,0.00010577
 ,0.00013411,0.00004620,0.00015952,0.00001257,-0.00010292,0.00022527,0.
 00017324,0.00007786,-0.00047140,-0.08074923,-0.11842887,0.50940150,-0.
 00500567,0.01503841,0.00249986,0.01198436,0.00749788,0.00396540,-0.020
 94470,0.01004111,0.00170351,-0.01861538,-0.01103387,0.00103257,-0.0080
 4723,-0.01349275,-0.00267305,0.01276038,0.00165280,0.00011630,0.018296
 33,0.02501887,-0.03349232,-0.02100476,-0.00736526,-0.00102977,0.024939
 88,0.00682730,-0.00364549,0.00092212,0.00833590,0.00207068,0.00272794,
 -0.04594001,0.02596962,0.02148420,0.02748338,-0.00494364,0.02717622,-0
 .02725876,-0.00343398,-0.03772806,0.00543360,0.00746086,-0.18201774,-0
 .04988708,0.04033676,-0.06426437,-0.01364174,0.01883164,0.00370054,0.0
 1599873,-0.00575434,-0.00439443,-0.00612755,0.00150140,-0.00274300,-0.
 00697027,-0.00183336,-0.00700262,0.00708761,0.00191268,0.01066708,0.00
 056017,0.00046991,-0.00168072,-0.00540823,-0.00268993,-0.01287272,0.03
 527162,0.00016571,0.00014355,0.00018861,-0.00023978,-0.00009836,0.0001
 1862,0.00006914,0.00010324,-0.00009880,0.00003378,-0.00002229,-0.00030
 606,0.00014542,0.00013747,0.00014460,-0.00060626,0.00010684,-0.0000786
 7,0.00088200,-0.00064339,-0.00005072,-0.00068491,0.00011098,-0.0003005
 3,-0.00025661,0.00006786,-0.00009158,0.00021378,0.00113401,-0.00171374
 ,0.00083809,-0.00079812,-0.00047581,0.00023536,-0.26460990,-0.00791660
 ,0.00067033,0.60156468,-0.00151893,0.00301440,-0.00006179,0.00301700,0
 .00122992,0.00024447,-0.00502919,0.00217536,0.00274596,-0.00276321,-0.
 00180153,-0.00007741,-0.00120682,-0.00261094,-0.00043754,0.00227245,0.
 00011237,-0.00014556,0.01291787,-0.00935426,0.00974007,-0.00245483,0.0
 0404548,0.00062497,0.00136498,-0.00483470,-0.00099670,-0.00055954,0.00
 267538,0.00077954,-0.01910762,-0.02558611,0.02159280,0.01127739,-0.008
 30889,0.00082795,-0.00217224,0.00448737,-0.00018168,0.00305010,-0.0026
 5558,-0.00029078,-0.05624180,-0.13909589,0.06728727,-0.01419328,0.0169
 2035,-0.00381841,0.00700734,0.00508295,-0.00290409,-0.00546694,-0.0010
 7641,0.00158210,-0.00046810,-0.00122981,-0.00028160,-0.00080624,0.0012
 4708,0.00063520,0.00158603,-0.00033291,0.00016456,-0.00102615,-0.00116
 004,-0.00050036,0.00536175,-0.00601653,0.00353991,0.00006100,0.0001478
 9,-0.00011121,-0.00003166,0.00001930,-0.00006457,0.00002591,0.00000688
 ,0.00002139,-0.00002169,-0.00008150,0.00012881,0.00006399,0.00002947,-
 0.00013049,0.00000864,-0.00005956,0.00013513,0.00008228,0.00003613,-0.
 00011968,-0.00013927,-0.00042858,-0.00027923,-0.00006148,0.00023389,0.
 00025895,0.00081933,0.00051772,-0.00050111,0.00082627,0.00060531,-0.00
 018908,0.04461791,-0.06495398,0.01575623,-0.02876863,0.38989035,0.0010
 6936,-0.00412226,-0.00020698,-0.00403137,-0.00168376,-0.00028210,0.005
 68393,-0.00321031,-0.00081536,0.00543344,0.00374895,0.00001744,0.00220
 739,0.00369522,0.00064314,-0.00359621,-0.00023224,0.00000808,-0.007063
 78,-0.00140031,-0.00122494,0.00329058,-0.00307425,0.00018750,-0.003491
 25,0.00309523,0.00079494,-0.00090127,-0.00289384,-0.00042881,0.0100120
 8,0.01836595,-0.01029798,-0.00836347,0.00182757,0.00575365,-0.00154465
 ,0.00067842,0.00086838,0.00204038,0.00012373,-0.00072699,0.06820215,0.
 07684883,-0.11706441,0.02683837,-0.00433989,0.00271599,-0.00636539,-0.
 00673437,0.00707836,0.00397039,0.00332570,-0.00281307,0.00054781,0.002
 11269,0.00045513,0.00174877,-0.00204129,-0.00024808,-0.00302815,0.0001
 9285,-0.00009219,0.00097152,0.00348958,-0.00290227,-0.02817938,0.00703
 152,-0.00425033,-0.00002043,-0.00004911,-0.00013711,-0.00004033,-0.000
 01960,0.00000702,-0.00001826,0.00005178,-0.00006426,0.00000718,0.00011
 769,-0.00005710,-0.00004971,-0.00002642,0.00013309,-0.00001340,0.00003
 826,-0.00026422,0.00003503,0.00000873,0.00018496,-0.00007962,0.0002151
 6,-0.00020235,-0.00014170,-0.00017073,-0.00057414,-0.00161607,-0.00030
 298,-0.00174770,-0.00049340,-0.00031423,0.00041958,-0.01630715,0.03072
 601,-0.08158967,-0.02078219,-0.25196894,0.36241033,-0.00017356,-0.0000
 0941,0.00007119,0.00035893,0.00016298,0.00030070,0.00009002,0.00000347
 ,0.00019757,0.00004118,-0.00004734,-0.00011286,-0.00002165,0.00007981,
 0.00001489,-0.00004117,-0.00005456,-0.00004249,-0.00013479,-0.00108987
 ,-0.00123882,-0.00010004,-0.00017761,0.00035245,0.00012169,0.00003957,
 0.00000904,-0.00006832,0.00001152,0.00004321,0.00015342,0.00026607,0.0
 0000140,0.00010667,-0.00007738,-0.00009919,0.00005510,-0.00004038,0.00
 000156,-0.00006980,-0.00005603,-0.00003972,-0.00296116,0.00448900,-0.0
 0021806,-0.00096924,-0.00133286,0.00016949,-0.00029649,0.00034840,-0.0
 0006639,-0.00010715,0.00003113,0.00003601,0.00013529,0.00015069,-0.000
 00503,0.00001014,-0.00016186,0.00004734,-0.00009699,-0.00021482,-0.000
 09551,0.00131341,-0.00019713,-0.00073866,0.00699555,0.00337494,-0.0138
 6511,-0.00000158,0.00001312,-0.00005327,0.00000919,-0.00000733,0.00001
 283,0.00000319,0.00000274,-0.00001283,0.00000441,-0.00000554,-0.000000
 96,-0.00000649,-0.00000509,0.00001400,0.00000915,-0.00001148,0.0000092
 8,0.00000337,-0.00001073,-0.00001286,0.00000020,-0.00001538,0.00001922
 ,-0.00000308,-0.00002320,-0.00000607,-0.00000359,0.00004390,-0.0000134
 6,-0.00011931,-0.00006340,0.00007823,-0.15586044,-0.03227188,0.1346896
 5,-0.01506520,-0.01030135,0.02151837,0.16678227,-0.00032144,0.00119733
 ,0.00044937,0.00129798,0.00090212,-0.00013580,-0.00274017,0.00246709,-
 0.00186529,-0.00199318,-0.00137788,0.00011299,-0.00067493,-0.00114461,
 -0.00020079,0.00114590,0.00030997,0.00012509,-0.00136910,0.00405893,0.
 00320415,-0.00139777,-0.00196825,0.00126187,0.00367779,0.00181285,-0.0
 0045338,-0.00046556,0.00111525,0.00033157,-0.00138729,-0.00377335,0.00
 115768,0.00162276,0.00379805,-0.00106857,0.00410914,-0.00495413,-0.000
 43487,-0.00674025,0.00096217,0.00111441,0.00166952,0.00541712,-0.00047
 997,0.00110800,0.00014748,-0.00012665,-0.00018195,-0.00042893,0.000349
 47,0.00042413,-0.00000278,-0.00029590,-0.00030640,-0.00049537,-0.00014
 227,-0.00057419,0.00068111,0.00010939,0.00106625,0.00007873,0.00014643
 ,0.00080344,-0.00004419,0.00017268,0.00118081,0.00157523,0.00547997,0.
 00000369,-0.00002305,-0.00001149,-0.00001998,0.00001596,0.00000275,0.0
 0001127,-0.00001278,0.00000496,0.00000848,-0.00000652,-0.00003286,-0.0
 0001503,0.00001865,-0.00005230,0.00002580,-0.00000206,0.00007981,-0.00
 009482,-0.00001418,-0.00006284,0.00005519,-0.00006161,0.00013170,-0.00
 003211,-0.00001034,-0.00002828,0.00006527,-0.00006359,-0.00009724,0.00
 001261,0.00001519,-0.00002104,-0.02657391,-0.05442274,0.05721686,-0.00
 899287,0.00650617,-0.00437040,0.03661627,0.03778178,0.00022802,0.00028
 686,0.00003497,-0.00047021,0.00036283,0.00017735,-0.00036001,0.0011716
 7,0.00009519,-0.00065937,-0.00045388,0.00002943,-0.00015174,-0.0001352
 4,-0.00002131,0.00020044,0.00009513,0.00000014,-0.00266768,-0.00250933
 ,0.00015119,0.00075331,0.00025964,0.00074763,0.00047414,-0.00035968,-0
 .00018120,0.00003709,0.00026841,0.00002340,-0.00044136,-0.00016022,0.0
 0007447,0.00017535,0.00031171,-0.00011727,0.00026902,-0.00046552,-0.00
 000755,-0.00064424,0.00018373,0.00003911,-0.00093117,0.00028894,0.0004
 8850,-0.00018571,0.00009374,0.00012071,-0.00009160,0.00008289,0.000072
 86,0.00018910,-0.00001394,-0.00007816,-0.00010467,-0.00020836,-0.00009
 905,-0.00027618,0.00007357,-0.00010379,-0.00049480,-0.00001216,0.00022
 030,0.00240660,-0.00123135,0.00119078,0.01336421,0.00550157,-0.0194167
 1,-0.00000306,-0.00002701,-0.00006635,-0.00003613,0.00002324,0.0000030
 3,0.00000141,-0.00001447,0.00001953,0.00000533,0.00000816,-0.00000649,
 -0.00002195,0.00000732,-0.00001965,0.00000199,0.00000754,0.00003535,-0
 .00000021,0.00000694,-0.00000749,0.00000061,-0.00000366,0.00002502,-0.
 00001295,0.00000172,0.00000076,0.00000106,0.00000314,-0.00003200,-0.00
 001587,-0.00000161,-0.00001224,0.13542513,0.05542522,-0.21194932,-0.00
 685608,-0.00190127,0.00564927,-0.13828887,-0.05901260,0.22539781,0.000
 04540,0.00020172,0.00022020,-0.00022360,0.00032884,0.00026993,-0.00067
 639,0.00017676,-0.00030795,-0.00041571,-0.00039211,-0.00014734,-0.0002
 1898,-0.00022009,-0.00005386,0.00021537,-0.00001535,0.00002487,-0.0006
 7777,-0.00131920,0.00035327,0.00003106,-0.00011778,0.00042623,0.000642
 28,0.00003346,-0.00022086,-0.00006070,0.00028276,0.00013182,-0.0031815
 4,-0.00035547,0.00183131,0.00050873,-0.00084014,-0.00020999,0.00004388
 ,-0.00020212,-0.00011860,-0.00042331,-0.00011155,0.00006919,0.00716332
 ,-0.01784483,0.01443424,-0.00034176,-0.00167661,0.00064979,0.00024072,
 0.00029391,-0.00008341,-0.00010383,-0.00019770,0.00012717,-0.00008246,
 -0.00012175,-0.00004092,-0.00020546,0.00006515,0.00004834,0.00012630,0
 .00014989,0.00006237,0.00020455,0.00036857,-0.00079515,-0.00359950,0.0
 0179415,0.00021555,-0.00000555,-0.00003363,-0.00005665,-0.00002754,-0.
 00000146,-0.00000028,-0.00001438,0.00000153,-0.00001622,-0.00001304,0.
 00000994,-0.00001812,0.00000037,0.00001452,-0.00000695,0.00001976,-0.0
 0000773,0.00001370,-0.00000142,-0.00000471,-0.00000930,0.00002039,-0.0
 0012253,0.00002215,-0.00002440,0.00003313,-0.00001458,-0.00016815,0.00
 048141,0.00002381,-0.00000613,0.00000476,-0.00000020,-0.00784516,0.020
 00248,-0.02147666,-0.07193257,0.05848914,-0.04563807,0.00042622,-0.000
 86258,0.00024873,0.08034932,0.00109364,-0.00210392,-0.00034285,-0.0020
 6594,-0.00151479,-0.00065541,0.00379736,-0.00180476,-0.00007009,0.0028
 2151,0.00177068,-0.00005492,0.00125177,0.00193251,0.00035594,-0.001857
 44,-0.00019586,-0.00004146,-0.00322104,-0.00302410,0.00371481,0.002917
 14,0.00196263,-0.00020888,-0.00427322,-0.00149947,0.00051718,0.0000636
 6,-0.00140965,-0.00036802,0.00077346,0.00714591,0.00185692,-0.00264598
 ,-0.00441590,0.00121575,-0.00487214,0.00480105,0.00006047,0.00660821,-
 0.00087489,-0.00115187,-0.00473578,-0.01484951,0.01708865,0.00363376,-
 0.00108104,-0.00338756,-0.00133146,-0.00148998,0.00051633,0.00062062,0
 .00099860,-0.00010115,0.00028989,0.00057900,0.00013173,0.00075566,-0.0
 0072255,-0.00023242,-0.00124712,-0.00013695,-0.00009211,-0.00016944,0.
 00108474,0.00066355,-0.00042144,-0.00128977,-0.00265860,-0.00002856,-0
 .00002766,0.00001391,0.00002591,-0.00001907,0.00002086,-0.00000693,0.0
 0000136,0.00000262,0.00001014,0.00004297,-0.00001331,-0.00000818,-0.00
 003798,0.00008907,-0.00002532,0.00000594,-0.00015065,0.00010831,0.0000
 0733,0.00014298,-0.00005949,0.00004613,-0.00003664,-0.00002780,0.00002
 950,0.00003106,-0.00034091,0.00048360,0.00009199,-0.00002393,-0.000017
 50,0.00013647,-0.01037968,0.00618324,0.00487410,0.07154623,-0.17009653
 ,0.13230610,-0.00048982,0.00028486,-0.00033925,-0.05790599,0.17926066,
 0.00091909,-0.00171333,-0.00023086,-0.00183296,-0.00109217,-0.00053879
 ,0.00265006,-0.00129187,-0.00003965,0.00221699,0.00120964,-0.00013213,
 0.00097445,0.00161469,0.00030773,-0.00152792,-0.00022858,-0.00004248,-
 0.00232103,-0.00478077,0.00518230,0.00332886,0.00168728,-0.00022021,-0
 .00380005,-0.00174579,0.00040307,0.00013185,-0.00090833,-0.00026639,0.
 00500997,0.00569127,-0.00016733,-0.00299386,-0.00284480,0.00170685,-0.
 00382509,0.00460795,0.00008425,0.00613527,-0.00092594,-0.00104432,-0.0
 1123075,0.00795543,-0.00145813,-0.00047073,-0.00057771,-0.00141027,-0.
 00029504,-0.00125304,0.00046164,-0.00000707,0.00061842,0.00007967,0.00
 023947,0.00048425,0.00011521,0.00064961,-0.00063338,-0.00020037,-0.001
 09649,-0.00006977,-0.00007343,0.00012242,0.00109877,0.00046714,-0.0007
 2017,-0.00125789,-0.00124228,-0.00003080,-0.00003974,0.00000570,0.0000
 0571,-0.00001909,0.00001085,-0.00001595,0.00000308,-0.00000108,-0.0000
 0181,0.00004041,-0.00002002,-0.00000842,-0.00001981,0.00007731,-0.0000
 3229,0.00002197,-0.00012626,0.00009565,0.00002800,0.00011627,-0.000076
 11,0.00020879,-0.00018342,0.00004839,-0.00004682,0.00000639,0.00064397
 ,-0.00064059,0.00010101,0.00001565,0.00001036,0.00004434,-0.01325397,0
 .01112193,0.00096991,-0.02834320,0.13852661,-0.16292195,-0.00096494,-0
 .00108689,0.00005729,0.04984199,-0.15364892,0.16038362,0.00050399,0.00
 152291,-0.00005118,-0.00439661,-0.00036713,0.00015354,-0.00186739,0.00
 012755,-0.00047394,-0.00055511,-0.00075687,0.00043240,-0.00049751,-0.0
 0047294,-0.00007169,0.00039713,-0.00000223,0.00005750,0.00441857,-0.00
 560273,-0.00615301,0.00159500,0.00094908,-0.00063094,0.00077029,-0.000
 63107,-0.00006600,0.00006569,0.00064945,0.00008289,0.00003878,0.000046
 15,0.00050600,0.00031144,-0.00017329,0.00003169,0.00008766,0.00003309,
 -0.00005389,-0.00008177,-0.00016261,0.00008085,0.00106165,0.00044893,0
 .00070344,-0.00074515,0.00025474,-0.00015375,0.00014120,0.00017134,-0.
 00009464,-0.00018582,0.00004528,0.00013091,-0.00042719,-0.00076468,-0.
 00010389,-0.00060755,0.00105744,-0.00070408,0.00168396,0.00065035,-0.0
 0058830,-0.00889627,0.01167028,0.02090639,-0.10169398,0.04580756,0.097
 30788,-0.00021576,-0.00075697,0.00046364,-0.00009224,-0.00001415,0.000
 01453,-0.00002757,-0.00006622,0.00011244,-0.00001707,0.00013194,-0.000
 06553,0.00004416,0.00001647,-0.00003241,0.00001110,-0.00000216,-0.0000
 1335,-0.00000068,0.00000509,-0.00002109,-0.00000179,-0.00000115,-0.000
 03269,0.00000579,0.00000674,0.00000913,-0.00000038,-0.00000278,0.00004
 135,0.00000159,-0.00000047,-0.00001463,0.00345584,-0.00131974,-0.00927
 994,0.00146356,-0.00051040,-0.00181150,-0.00051935,-0.00016079,-0.0010
 6767,0.00021166,-0.00017963,-0.00018072,0.10456014,0.00025846,0.000048
 23,-0.00031684,-0.00006018,0.00008858,0.00001598,-0.00324868,-0.001977
 79,-0.00206152,0.00044820,-0.00098716,0.00038974,0.00001937,-0.0000793
 2,-0.00001708,0.00004060,-0.00020323,0.00013111,0.01418775,-0.01533499
 ,-0.02130111,0.00282750,0.00334622,0.00058395,0.00074686,-0.00155494,0
 .00033144,-0.00009953,0.00072892,-0.00004533,-0.00073247,0.00091569,0.
 00007885,-0.00001255,-0.00054440,0.00011419,-0.00036332,0.00039717,0.0
 0005277,0.00035572,-0.00007182,0.00002297,0.00046762,-0.00056153,-0.00
 074478,-0.00034924,0.00052614,-0.00000777,0.00002690,0.00002361,-0.000
 03846,-0.00006498,0.00018162,0.00000081,-0.00031505,0.00025700,0.00012
 921,0.00040008,-0.00010478,-0.00006634,-0.00039107,0.00040086,0.000068
 44,0.00147441,0.00106949,0.00319467,0.04462634,-0.08320514,-0.08938757
 ,0.00003058,-0.00007579,-0.00016711,-0.00001294,0.00000263,-0.00000746
 ,0.00002389,0.00000844,-0.00003572,0.00001226,0.00002323,0.00002489,0.
 00008609,-0.00002734,-0.00004193,-0.00003911,0.00000148,-0.00004163,0.
 00002490,0.00002050,-0.00007296,-0.00002089,0.00001847,-0.00001699,-0.
 00000722,-0.00000078,0.00000352,0.00000727,0.00000527,0.00005157,0.000
 00206,0.00001362,-0.00000918,-0.00702942,0.00682236,0.01471468,-0.0023
 2592,0.00069997,-0.00104505,0.00103085,-0.00033969,0.00238557,-0.00037
 878,-0.00000886,-0.00010364,-0.05164637,0.08947806,-0.00005339,-0.0006
 1286,-0.00037665,-0.00134270,0.00018513,-0.00031552,-0.00001657,0.0013
 5746,-0.00038208,0.00046216,0.00014088,-0.00024205,0.00034542,0.000784
 35,0.00012600,-0.00064984,-0.00003455,-0.00000309,-0.00339505,-0.00346
 729,0.00199967,0.00131442,0.00090262,0.00047372,-0.00156051,-0.0013611
 7,0.00006075,0.00006090,-0.00008947,-0.00007037,0.00011394,0.00142691,
 -0.00094256,-0.00013629,-0.00189903,0.00032888,-0.00190180,0.00204017,
 0.00029673,0.00276349,-0.00039801,-0.00056349,0.00024143,-0.00216816,0
 .00120536,-0.00135100,0.00050173,0.00023136,0.00021166,0.00037870,-0.0
 0027009,-0.00037841,0.00008932,0.00013860,0.00014152,0.00086514,0.0002
 7182,0.00093830,-0.00055777,-0.00020937,-0.00065452,-0.00001500,0.0003
 8393,-0.00101828,0.00255249,0.00461080,0.09652715,-0.08892187,-0.21293
 811,0.00021806,0.00001498,-0.00008811,0.00000382,-0.00001900,-0.000011
 44,-0.00000744,0.00002038,0.00000382,-0.00000387,0.00004848,0.00000298
 ,-0.00002896,0.00001769,0.00000141,0.00000922,0.00001128,-0.00002251,0
 .00005164,0.00000259,0.00002094,-0.00002581,0.00004198,-0.00004661,0.0
 0001549,0.00000851,0.00003259,-0.00004813,0.00003240,0.00002940,-0.000
 00576,0.00001231,-0.00001766,0.00390019,-0.00374691,-0.02529199,0.0061
 4012,0.00036957,0.00158513,-0.00171131,-0.00147170,-0.00253550,0.00020
 046,-0.00027637,-0.00026117,-0.09936975,0.09323410,0.23278445\\-0.0000
 0019,0.00000071,0.00000088,-0.00000007,0.00000044,0.00000110,0.0000009
 0,0.,-0.00000078,0.00000045,0.00000260,-0.00000301,0.00000169,0.000001
 27,-0.00000263,-0.00000041,-0.00000016,-0.00000433,-0.00000029,0.00000
 093,-0.00000162,0.00000022,-0.00000187,-0.00000092,0.00000157,0.000001
 15,-0.00000481,0.00000031,-0.00000005,-0.00000497,-0.00000129,0.000000
 45,0.00000109,0.,0.00000071,-0.00000262,-0.00000021,-0.00000276,-0.000
 00509,-0.00000096,-0.00000180,-0.00000531,-0.00000160,-0.00000074,0.00
 000136,0.00000098,0.00000050,0.00000271,-0.00000114,-0.00000001,0.0000
 0103,0.00000029,-0.00000363,-0.00000129,0.00000070,-0.00000156,0.00000
 196,-0.00000031,0.00000089,0.00000524,-0.00000089,-0.00000017,0.000006
 19,-0.00000041,-0.00000136,0.00000232,0.00000057,0.00000052,0.00000427
 ,-0.00000069,-0.00000141,0.00000738,-0.00000056,-0.00000089,0.00000649
 ,-0.00000007,0.00000041,0.00000228,0.00000044,0.00000141,-0.00000279,0
 .00000070,0.00000152,-0.00000604,0.00000061,0.00000049,-0.00000728,0.0
 0000027,-0.00000096,-0.00000797,0.00000018,-0.00000210,-0.00000614,-0.
 00000025,-0.00000225,-0.00000283,-0.00000031,0.00000078,0.00000478,-0.
 00000035,-0.00000111,0.00000174,0.00000212,0.00000046,0.00000355,-0.00
 000145,0.00000307,0.00000352,0.00000015,0.00000394,0.00000406,0.000000
 07,0.00000306,0.00000488,-0.00000077,-0.00000247,0.00000358\\\@


 ...THE PHYSICISTS HAVE MADE THEIR UNIVERSE, AND IF YOU DO NOT LIKE
 IT, YOU MUST MAKE YOUR OWN.
                               -- E. R. HARRISON IN "COSMOLOGY" (1980)
 Job cpu time:       3 days 23 hours 42 minutes  8.0 seconds.
 File lengths (MBytes):  RWF=   9043 Int=      0 D2E=      0 Chk=     42 Scr=      1
 Normal termination of Gaussian 09 at Sun Feb  2 13:04:07 2020.
