 Entering Gaussian System, Link 0=g09
 Initial command:
 /usr/local/Cluster-Apps/gaussian/g09/l1.exe "/rds/user/am2145/hpc-work/scratch/19187504/Gau-151167.inp" -scrdir="/rds/user/am2145/hpc-work/scratch/19187504/"
 Entering Link 1 = /usr/local/Cluster-Apps/gaussian/g09/l1.exe PID=    151168.
  
 Copyright (c) 1988,1990,1992,1993,1995,1998,2003,2009,2013,
            Gaussian, Inc.  All Rights Reserved.
  
 This is part of the Gaussian(R) 09 program.  It is based on
 the Gaussian(R) 03 system (copyright 2003, Gaussian, Inc.),
 the Gaussian(R) 98 system (copyright 1998, Gaussian, Inc.),
 the Gaussian(R) 94 system (copyright 1995, Gaussian, Inc.),
 the Gaussian 92(TM) system (copyright 1992, Gaussian, Inc.),
 the Gaussian 90(TM) system (copyright 1990, Gaussian, Inc.),
 the Gaussian 88(TM) system (copyright 1988, Gaussian, Inc.),
 the Gaussian 86(TM) system (copyright 1986, Carnegie Mellon
 University), and the Gaussian 82(TM) system (copyright 1983,
 Carnegie Mellon University). Gaussian is a federally registered
 trademark of Gaussian, Inc.
  
 This software contains proprietary and confidential information,
 including trade secrets, belonging to Gaussian, Inc.
  
 This software is provided under written license and may be
 used, copied, transmitted, or stored only in accord with that
 written license.
  
 The following legend is applicable only to US Government
 contracts under FAR:
  
                    RESTRICTED RIGHTS LEGEND
  
 Use, reproduction and disclosure by the US Government is
 subject to restrictions as set forth in subparagraphs (a)
 and (c) of the Commercial Computer Software - Restricted
 Rights clause in FAR 52.227-19.
  
 Gaussian, Inc.
 340 Quinnipiac St., Bldg. 40, Wallingford CT 06492
  
  
 ---------------------------------------------------------------
 Warning -- This program may not be used in any manner that
 competes with the business of Gaussian, Inc. or will provide
 assistance to any competitor of Gaussian, Inc.  The licensee
 of this program is prohibited from giving any competitor of
 Gaussian, Inc. access to this program.  By using this program,
 the user acknowledges that Gaussian, Inc. is engaged in the
 business of creating and licensing software in the field of
 computational chemistry and represents and warrants to the
 licensee that it is not a competitor of Gaussian, Inc. and that
 it will not use this program in any manner prohibited above.
 ---------------------------------------------------------------
  

 Cite this work as:
 Gaussian 09, Revision D.01,
 M. J. Frisch, G. W. Trucks, H. B. Schlegel, G. E. Scuseria, 
 M. A. Robb, J. R. Cheeseman, G. Scalmani, V. Barone, B. Mennucci, 
 G. A. Petersson, H. Nakatsuji, M. Caricato, X. Li, H. P. Hratchian, 
 A. F. Izmaylov, J. Bloino, G. Zheng, J. L. Sonnenberg, M. Hada, 
 M. Ehara, K. Toyota, R. Fukuda, J. Hasegawa, M. Ishida, T. Nakajima, 
 Y. Honda, O. Kitao, H. Nakai, T. Vreven, J. A. Montgomery, Jr., 
 J. E. Peralta, F. Ogliaro, M. Bearpark, J. J. Heyd, E. Brothers, 
 K. N. Kudin, V. N. Staroverov, T. Keith, R. Kobayashi, J. Normand, 
 K. Raghavachari, A. Rendell, J. C. Burant, S. S. Iyengar, J. Tomasi, 
 M. Cossi, N. Rega, J. M. Millam, M. Klene, J. E. Knox, J. B. Cross, 
 V. Bakken, C. Adamo, J. Jaramillo, R. Gomperts, R. E. Stratmann, 
 O. Yazyev, A. J. Austin, R. Cammi, C. Pomelli, J. W. Ochterski, 
 R. L. Martin, K. Morokuma, V. G. Zakrzewski, G. A. Voth, 
 P. Salvador, J. J. Dannenberg, S. Dapprich, A. D. Daniels, 
 O. Farkas, J. B. Foresman, J. V. Ortiz, J. Cioslowski, 
 and D. J. Fox, Gaussian, Inc., Wallingford CT, 2013.
 
 ******************************************
 Gaussian 09:  ES64L-G09RevD.01 24-Apr-2013
                 2-Feb-2020 
 ******************************************
 %NProcShared=20
 Will use up to   20 processors via shared memory.
 %mem=64GB
 %Chk=BPfinalguess.chk
 --------------------------------------------------
 #n opt=(ts,calcfc,noeigen) freq b3lyp/6-311+g(d,p)
 --------------------------------------------------
 1/5=1,10=4,11=1,14=-1,18=20,26=3,38=1/1,3;
 2/9=110,12=2,17=6,18=5,40=1/2;
 3/5=4,6=6,7=111,11=2,16=1,25=1,30=1,71=2,74=-5,140=1/1,2,3;
 4//1;
 5/5=2,38=5/2;
 8/6=4,10=90,11=11/1;
 11/6=1,8=1,9=11,15=111,16=1/1,2,10;
 10/6=1,13=1/2;
 6/7=2,8=2,9=2,10=2,28=1/1;
 7/10=1,18=20,25=1/1,2,3,16;
 1/5=1,10=4,11=1,14=-1,18=20,26=3/3(2);
 2/9=110/2;
 99//99;
 2/9=110/2;
 3/5=4,6=6,7=111,11=2,16=1,25=1,30=1,71=1,74=-5/1,2,3;
 4/5=5,16=3,69=1/1;
 5/5=2,38=5/2;
 7//1,2,3,16;
 1/5=1,11=1,14=-1,18=20,26=3/3(-5);
 2/9=110/2;
 6/7=2,8=2,9=2,10=2,19=2,28=1/1;
 99/9=1/99;
 ------------
 BPfinalguess
 ------------
 Symbolic Z-matrix:
 Charge =  0 Multiplicity = 3
 C                    -3.69213   0.55402  -0.02128 
 C                    -2.46434  -0.15905   0.01231 
 C                    -1.22468   0.55112   0.03666 
 C                    -1.22101   1.98273   0.01424 
 C                    -3.65655   1.99029  -0.01729 
 C                    -2.48013   2.67021  -0.00436 
 C                     0.       -0.14824   0.06836 
 C                     1.22468   0.55112   0.03665 
 C                     1.22101   1.98273   0.01424 
 C                     0.        2.66271   0.01303 
 C                     2.46434  -0.15905   0.01231 
 C                     3.69213   0.55402  -0.0213 
 C                     3.65655   1.99029  -0.01731 
 C                     2.48013   2.67021  -0.00437 
 C                     2.46823  -1.5939   -0.01363 
 C                     3.71173  -2.2655   -0.0788 
 C                     4.9032   -1.55595  -0.10365 
 C                     4.90182  -0.16245  -0.07286 
 C                    -4.90182  -0.16245  -0.07284 
 C                    -4.9032   -1.55595  -0.10364 
 C                    -3.71173  -2.2655   -0.07879 
 C                    -2.46823  -1.5939   -0.01363 
 C                    -1.24354  -2.28643   0.02241 
 H                    -3.72118  -3.34978  -0.10166 
 H                    -5.84561  -2.09035  -0.14725 
 H                    -5.83861   0.38361  -0.09589 
 H                    -4.59884   2.52776  -0.03469 
 H                    -2.47403   3.75511  -0.01065 
 H                     0.        3.7483    0.00449 
 H                     2.47403   3.75511  -0.01066 
 H                     4.59884   2.52776  -0.03471 
 H                     5.83861   0.38361  -0.09591 
 H                     3.72118  -3.34978  -0.10168 
 H                     5.84561  -2.09035  -0.14727 
 C                     0.       -1.6059    0.18169 
 C                     1.24354  -2.28643   0.02241 
 H                     0.       -1.61169   1.91001 
 H                     1.24438  -3.37089   0.00121 
 H                    -1.24438  -3.37089   0.00122 
 
 Add virtual bond connecting atoms H37        and C35        Dist= 3.27D+00.

 GradGradGradGradGradGradGradGradGradGradGradGradGradGradGradGradGradGrad
 Berny optimization.
 Initialization pass.
                           ----------------------------
                           !    Initial Parameters    !
                           ! (Angstroms and Degrees)  !
 --------------------------                            --------------------------
 ! Name  Definition              Value          Derivative Info.                !
 --------------------------------------------------------------------------------
 ! R1    R(1,2)                  1.4202         calculate D2E/DX2 analytically  !
 ! R2    R(1,5)                  1.4367         calculate D2E/DX2 analytically  !
 ! R3    R(1,19)                 1.4069         calculate D2E/DX2 analytically  !
 ! R4    R(2,3)                  1.4289         calculate D2E/DX2 analytically  !
 ! R5    R(2,22)                 1.4351         calculate D2E/DX2 analytically  !
 ! R6    R(3,4)                  1.4318         calculate D2E/DX2 analytically  !
 ! R7    R(3,7)                  1.4107         calculate D2E/DX2 analytically  !
 ! R8    R(4,6)                  1.4347         calculate D2E/DX2 analytically  !
 ! R9    R(4,10)                 1.3976         calculate D2E/DX2 analytically  !
 ! R10   R(5,6)                  1.3588         calculate D2E/DX2 analytically  !
 ! R11   R(5,27)                 1.0849         calculate D2E/DX2 analytically  !
 ! R12   R(6,28)                 1.0849         calculate D2E/DX2 analytically  !
 ! R13   R(7,8)                  1.4107         calculate D2E/DX2 analytically  !
 ! R14   R(7,35)                 1.4621         calculate D2E/DX2 analytically  !
 ! R15   R(8,9)                  1.4318         calculate D2E/DX2 analytically  !
 ! R16   R(8,11)                 1.4289         calculate D2E/DX2 analytically  !
 ! R17   R(9,10)                 1.3976         calculate D2E/DX2 analytically  !
 ! R18   R(9,14)                 1.4347         calculate D2E/DX2 analytically  !
 ! R19   R(10,29)                1.0856         calculate D2E/DX2 analytically  !
 ! R20   R(11,12)                1.4202         calculate D2E/DX2 analytically  !
 ! R21   R(11,15)                1.4351         calculate D2E/DX2 analytically  !
 ! R22   R(12,13)                1.4367         calculate D2E/DX2 analytically  !
 ! R23   R(12,18)                1.4069         calculate D2E/DX2 analytically  !
 ! R24   R(13,14)                1.3588         calculate D2E/DX2 analytically  !
 ! R25   R(13,31)                1.0849         calculate D2E/DX2 analytically  !
 ! R26   R(14,30)                1.0849         calculate D2E/DX2 analytically  !
 ! R27   R(15,16)                1.4148         calculate D2E/DX2 analytically  !
 ! R28   R(15,36)                1.4074         calculate D2E/DX2 analytically  !
 ! R29   R(16,17)                1.387          calculate D2E/DX2 analytically  !
 ! R30   R(16,33)                1.0846         calculate D2E/DX2 analytically  !
 ! R31   R(17,18)                1.3938         calculate D2E/DX2 analytically  !
 ! R32   R(17,34)                1.0843         calculate D2E/DX2 analytically  !
 ! R33   R(18,32)                1.0846         calculate D2E/DX2 analytically  !
 ! R34   R(19,20)                1.3938         calculate D2E/DX2 analytically  !
 ! R35   R(19,26)                1.0846         calculate D2E/DX2 analytically  !
 ! R36   R(20,21)                1.387          calculate D2E/DX2 analytically  !
 ! R37   R(20,25)                1.0843         calculate D2E/DX2 analytically  !
 ! R38   R(21,22)                1.4148         calculate D2E/DX2 analytically  !
 ! R39   R(21,24)                1.0846         calculate D2E/DX2 analytically  !
 ! R40   R(22,23)                1.4074         calculate D2E/DX2 analytically  !
 ! R41   R(23,35)                1.4265         calculate D2E/DX2 analytically  !
 ! R42   R(23,39)                1.0847         calculate D2E/DX2 analytically  !
 ! R43   R(35,36)                1.4265         calculate D2E/DX2 analytically  !
 ! R44   R(35,37)                1.7283         calculate D2E/DX2 analytically  !
 ! R45   R(36,38)                1.0847         calculate D2E/DX2 analytically  !
 ! A1    A(2,1,5)              118.7147         calculate D2E/DX2 analytically  !
 ! A2    A(2,1,19)             119.2422         calculate D2E/DX2 analytically  !
 ! A3    A(5,1,19)             122.0389         calculate D2E/DX2 analytically  !
 ! A4    A(1,2,3)              120.0583         calculate D2E/DX2 analytically  !
 ! A5    A(1,2,22)             119.9487         calculate D2E/DX2 analytically  !
 ! A6    A(3,2,22)             119.9728         calculate D2E/DX2 analytically  !
 ! A7    A(2,3,4)              119.9277         calculate D2E/DX2 analytically  !
 ! A8    A(2,3,7)              120.476          calculate D2E/DX2 analytically  !
 ! A9    A(4,3,7)              119.5929         calculate D2E/DX2 analytically  !
 ! A10   A(3,4,6)              118.4945         calculate D2E/DX2 analytically  !
 ! A11   A(3,4,10)             119.2572         calculate D2E/DX2 analytically  !
 ! A12   A(6,4,10)             122.2482         calculate D2E/DX2 analytically  !
 ! A13   A(1,5,6)              121.4452         calculate D2E/DX2 analytically  !
 ! A14   A(1,5,27)             118.2738         calculate D2E/DX2 analytically  !
 ! A15   A(6,5,27)             120.2784         calculate D2E/DX2 analytically  !
 ! A16   A(4,6,5)              121.3431         calculate D2E/DX2 analytically  !
 ! A17   A(4,6,28)             118.3142         calculate D2E/DX2 analytically  !
 ! A18   A(5,6,28)             120.3425         calculate D2E/DX2 analytically  !
 ! A19   A(3,7,8)              120.4918         calculate D2E/DX2 analytically  !
 ! A20   A(3,7,35)             119.737          calculate D2E/DX2 analytically  !
 ! A21   A(8,7,35)             119.737          calculate D2E/DX2 analytically  !
 ! A22   A(7,8,9)              119.5929         calculate D2E/DX2 analytically  !
 ! A23   A(7,8,11)             120.476          calculate D2E/DX2 analytically  !
 ! A24   A(9,8,11)             119.9277         calculate D2E/DX2 analytically  !
 ! A25   A(8,9,10)             119.2572         calculate D2E/DX2 analytically  !
 ! A26   A(8,9,14)             118.4945         calculate D2E/DX2 analytically  !
 ! A27   A(10,9,14)            122.2482         calculate D2E/DX2 analytically  !
 ! A28   A(4,10,9)             121.7731         calculate D2E/DX2 analytically  !
 ! A29   A(4,10,29)            119.1129         calculate D2E/DX2 analytically  !
 ! A30   A(9,10,29)            119.1129         calculate D2E/DX2 analytically  !
 ! A31   A(8,11,12)            120.0583         calculate D2E/DX2 analytically  !
 ! A32   A(8,11,15)            119.9728         calculate D2E/DX2 analytically  !
 ! A33   A(12,11,15)           119.9487         calculate D2E/DX2 analytically  !
 ! A34   A(11,12,13)           118.7147         calculate D2E/DX2 analytically  !
 ! A35   A(11,12,18)           119.2423         calculate D2E/DX2 analytically  !
 ! A36   A(13,12,18)           122.0389         calculate D2E/DX2 analytically  !
 ! A37   A(12,13,14)           121.4452         calculate D2E/DX2 analytically  !
 ! A38   A(12,13,31)           118.2738         calculate D2E/DX2 analytically  !
 ! A39   A(14,13,31)           120.2784         calculate D2E/DX2 analytically  !
 ! A40   A(9,14,13)            121.3432         calculate D2E/DX2 analytically  !
 ! A41   A(9,14,30)            118.3142         calculate D2E/DX2 analytically  !
 ! A42   A(13,14,30)           120.3425         calculate D2E/DX2 analytically  !
 ! A43   A(11,15,16)           118.5445         calculate D2E/DX2 analytically  !
 ! A44   A(11,15,36)           119.2855         calculate D2E/DX2 analytically  !
 ! A45   A(16,15,36)           122.1698         calculate D2E/DX2 analytically  !
 ! A46   A(15,16,17)           120.8654         calculate D2E/DX2 analytically  !
 ! A47   A(15,16,33)           118.8953         calculate D2E/DX2 analytically  !
 ! A48   A(17,16,33)           120.2376         calculate D2E/DX2 analytically  !
 ! A49   A(16,17,18)           120.678          calculate D2E/DX2 analytically  !
 ! A50   A(16,17,34)           119.6853         calculate D2E/DX2 analytically  !
 ! A51   A(18,17,34)           119.6367         calculate D2E/DX2 analytically  !
 ! A52   A(12,18,17)           120.7168         calculate D2E/DX2 analytically  !
 ! A53   A(12,18,32)           119.1471         calculate D2E/DX2 analytically  !
 ! A54   A(17,18,32)           120.1346         calculate D2E/DX2 analytically  !
 ! A55   A(1,19,20)            120.7168         calculate D2E/DX2 analytically  !
 ! A56   A(1,19,26)            119.1471         calculate D2E/DX2 analytically  !
 ! A57   A(20,19,26)           120.1346         calculate D2E/DX2 analytically  !
 ! A58   A(19,20,21)           120.678          calculate D2E/DX2 analytically  !
 ! A59   A(19,20,25)           119.6367         calculate D2E/DX2 analytically  !
 ! A60   A(21,20,25)           119.6853         calculate D2E/DX2 analytically  !
 ! A61   A(20,21,22)           120.8654         calculate D2E/DX2 analytically  !
 ! A62   A(20,21,24)           120.2376         calculate D2E/DX2 analytically  !
 ! A63   A(22,21,24)           118.8953         calculate D2E/DX2 analytically  !
 ! A64   A(2,22,21)            118.5445         calculate D2E/DX2 analytically  !
 ! A65   A(2,22,23)            119.2855         calculate D2E/DX2 analytically  !
 ! A66   A(21,22,23)           122.1698         calculate D2E/DX2 analytically  !
 ! A67   A(22,23,35)           121.7821         calculate D2E/DX2 analytically  !
 ! A68   A(22,23,39)           119.393          calculate D2E/DX2 analytically  !
 ! A69   A(35,23,39)           118.6743         calculate D2E/DX2 analytically  !
 ! A70   A(7,35,23)            117.8381         calculate D2E/DX2 analytically  !
 ! A71   A(7,35,36)            117.8381         calculate D2E/DX2 analytically  !
 ! A72   A(7,35,37)             94.6376         calculate D2E/DX2 analytically  !
 ! A73   A(23,35,36)           121.3244         calculate D2E/DX2 analytically  !
 ! A74   A(23,35,37)            96.3188         calculate D2E/DX2 analytically  !
 ! A75   A(36,35,37)            96.3188         calculate D2E/DX2 analytically  !
 ! A76   A(15,36,35)           121.7821         calculate D2E/DX2 analytically  !
 ! A77   A(15,36,38)           119.3929         calculate D2E/DX2 analytically  !
 ! A78   A(35,36,38)           118.6744         calculate D2E/DX2 analytically  !
 ! D1    D(5,1,2,3)             -0.5801         calculate D2E/DX2 analytically  !
 ! D2    D(5,1,2,22)          -178.9471         calculate D2E/DX2 analytically  !
 ! D3    D(19,1,2,3)           178.6955         calculate D2E/DX2 analytically  !
 ! D4    D(19,1,2,22)            0.3284         calculate D2E/DX2 analytically  !
 ! D5    D(2,1,5,6)              1.0908         calculate D2E/DX2 analytically  !
 ! D6    D(2,1,5,27)          -179.4965         calculate D2E/DX2 analytically  !
 ! D7    D(19,1,5,6)          -178.1636         calculate D2E/DX2 analytically  !
 ! D8    D(19,1,5,27)            1.2491         calculate D2E/DX2 analytically  !
 ! D9    D(2,1,19,20)           -0.603          calculate D2E/DX2 analytically  !
 ! D10   D(2,1,19,26)          179.8457         calculate D2E/DX2 analytically  !
 ! D11   D(5,1,19,20)          178.6476         calculate D2E/DX2 analytically  !
 ! D12   D(5,1,19,26)           -0.9038         calculate D2E/DX2 analytically  !
 ! D13   D(1,2,3,4)             -0.5969         calculate D2E/DX2 analytically  !
 ! D14   D(1,2,3,7)           -179.9187         calculate D2E/DX2 analytically  !
 ! D15   D(22,2,3,4)           177.7697         calculate D2E/DX2 analytically  !
 ! D16   D(22,2,3,7)            -1.5521         calculate D2E/DX2 analytically  !
 ! D17   D(1,2,22,21)            0.2803         calculate D2E/DX2 analytically  !
 ! D18   D(1,2,22,23)         -179.8975         calculate D2E/DX2 analytically  !
 ! D19   D(3,2,22,21)         -178.0882         calculate D2E/DX2 analytically  !
 ! D20   D(3,2,22,23)            1.734          calculate D2E/DX2 analytically  !
 ! D21   D(2,3,4,6)              1.2853         calculate D2E/DX2 analytically  !
 ! D22   D(2,3,4,10)          -178.8023         calculate D2E/DX2 analytically  !
 ! D23   D(7,3,4,6)           -179.3869         calculate D2E/DX2 analytically  !
 ! D24   D(7,3,4,10)             0.5255         calculate D2E/DX2 analytically  !
 ! D25   D(2,3,7,8)            177.3707         calculate D2E/DX2 analytically  !
 ! D26   D(2,3,7,35)            -4.76           calculate D2E/DX2 analytically  !
 ! D27   D(4,3,7,8)             -1.9533         calculate D2E/DX2 analytically  !
 ! D28   D(4,3,7,35)           175.916          calculate D2E/DX2 analytically  !
 ! D29   D(3,4,6,5)             -0.8037         calculate D2E/DX2 analytically  !
 ! D30   D(3,4,6,28)           179.3594         calculate D2E/DX2 analytically  !
 ! D31   D(10,4,6,5)           179.2867         calculate D2E/DX2 analytically  !
 ! D32   D(10,4,6,28)           -0.5502         calculate D2E/DX2 analytically  !
 ! D33   D(3,4,10,9)             0.9116         calculate D2E/DX2 analytically  !
 ! D34   D(3,4,10,29)         -179.4876         calculate D2E/DX2 analytically  !
 ! D35   D(6,4,10,9)          -179.1795         calculate D2E/DX2 analytically  !
 ! D36   D(6,4,10,29)            0.4213         calculate D2E/DX2 analytically  !
 ! D37   D(1,5,6,4)             -0.3908         calculate D2E/DX2 analytically  !
 ! D38   D(1,5,6,28)           179.4428         calculate D2E/DX2 analytically  !
 ! D39   D(27,5,6,4)          -179.7919         calculate D2E/DX2 analytically  !
 ! D40   D(27,5,6,28)            0.0417         calculate D2E/DX2 analytically  !
 ! D41   D(3,7,8,9)              1.9538         calculate D2E/DX2 analytically  !
 ! D42   D(3,7,8,11)          -177.3716         calculate D2E/DX2 analytically  !
 ! D43   D(35,7,8,9)          -175.9155         calculate D2E/DX2 analytically  !
 ! D44   D(35,7,8,11)            4.7591         calculate D2E/DX2 analytically  !
 ! D45   D(3,7,35,23)           10.7122         calculate D2E/DX2 analytically  !
 ! D46   D(3,7,35,36)          171.4027         calculate D2E/DX2 analytically  !
 ! D47   D(3,7,35,37)          -88.9425         calculate D2E/DX2 analytically  !
 ! D48   D(8,7,35,23)         -171.4023         calculate D2E/DX2 analytically  !
 ! D49   D(8,7,35,36)          -10.7117         calculate D2E/DX2 analytically  !
 ! D50   D(8,7,35,37)           88.943          calculate D2E/DX2 analytically  !
 ! D51   D(7,8,9,10)            -0.5265         calculate D2E/DX2 analytically  !
 ! D52   D(7,8,9,14)           179.3869         calculate D2E/DX2 analytically  !
 ! D53   D(11,8,9,10)          178.8027         calculate D2E/DX2 analytically  !
 ! D54   D(11,8,9,14)           -1.2839         calculate D2E/DX2 analytically  !
 ! D55   D(7,8,11,12)          179.9183         calculate D2E/DX2 analytically  !
 ! D56   D(7,8,11,15)            1.553          calculate D2E/DX2 analytically  !
 ! D57   D(9,8,11,12)            0.5951         calculate D2E/DX2 analytically  !
 ! D58   D(9,8,11,15)         -177.7702         calculate D2E/DX2 analytically  !
 ! D59   D(8,9,10,4)            -0.9111         calculate D2E/DX2 analytically  !
 ! D60   D(8,9,10,29)          179.4881         calculate D2E/DX2 analytically  !
 ! D61   D(14,9,10,4)          179.179          calculate D2E/DX2 analytically  !
 ! D62   D(14,9,10,29)          -0.4218         calculate D2E/DX2 analytically  !
 ! D63   D(8,9,14,13)            0.8032         calculate D2E/DX2 analytically  !
 ! D64   D(8,9,14,30)         -179.3599         calculate D2E/DX2 analytically  !
 ! D65   D(10,9,14,13)        -179.2862         calculate D2E/DX2 analytically  !
 ! D66   D(10,9,14,30)           0.5507         calculate D2E/DX2 analytically  !
 ! D67   D(8,11,12,13)           0.5815         calculate D2E/DX2 analytically  !
 ! D68   D(8,11,12,18)        -178.695          calculate D2E/DX2 analytically  !
 ! D69   D(15,11,12,13)        178.9471         calculate D2E/DX2 analytically  !
 ! D70   D(15,11,12,18)         -0.3294         calculate D2E/DX2 analytically  !
 ! D71   D(8,11,15,16)         178.0872         calculate D2E/DX2 analytically  !
 ! D72   D(8,11,15,36)          -1.7345         calculate D2E/DX2 analytically  !
 ! D73   D(12,11,15,16)         -0.2798         calculate D2E/DX2 analytically  !
 ! D74   D(12,11,15,36)        179.8984         calculate D2E/DX2 analytically  !
 ! D75   D(11,12,13,14)         -1.0912         calculate D2E/DX2 analytically  !
 ! D76   D(11,12,13,31)        179.4956         calculate D2E/DX2 analytically  !
 ! D77   D(18,12,13,14)        178.1641         calculate D2E/DX2 analytically  !
 ! D78   D(18,12,13,31)         -1.2491         calculate D2E/DX2 analytically  !
 ! D79   D(11,12,18,17)          0.6034         calculate D2E/DX2 analytically  !
 ! D80   D(11,12,18,32)       -179.8448         calculate D2E/DX2 analytically  !
 ! D81   D(13,12,18,17)       -178.648          calculate D2E/DX2 analytically  !
 ! D82   D(13,12,18,32)          0.9038         calculate D2E/DX2 analytically  !
 ! D83   D(12,13,14,9)           0.3908         calculate D2E/DX2 analytically  !
 ! D84   D(12,13,14,30)       -179.4428         calculate D2E/DX2 analytically  !
 ! D85   D(31,13,14,9)         179.7924         calculate D2E/DX2 analytically  !
 ! D86   D(31,13,14,30)         -0.0412         calculate D2E/DX2 analytically  !
 ! D87   D(11,15,16,17)          0.6389         calculate D2E/DX2 analytically  !
 ! D88   D(11,15,16,33)       -179.8192         calculate D2E/DX2 analytically  !
 ! D89   D(36,15,16,17)       -179.5448         calculate D2E/DX2 analytically  !
 ! D90   D(36,15,16,33)         -0.0029         calculate D2E/DX2 analytically  !
 ! D91   D(11,15,36,35)         -4.6226         calculate D2E/DX2 analytically  !
 ! D92   D(11,15,36,38)        179.8984         calculate D2E/DX2 analytically  !
 ! D93   D(16,15,36,35)        175.5624         calculate D2E/DX2 analytically  !
 ! D94   D(16,15,36,38)          0.0834         calculate D2E/DX2 analytically  !
 ! D95   D(15,16,17,18)         -0.3809         calculate D2E/DX2 analytically  !
 ! D96   D(15,16,17,34)        179.6065         calculate D2E/DX2 analytically  !
 ! D97   D(33,16,17,18)       -179.9168         calculate D2E/DX2 analytically  !
 ! D98   D(33,16,17,34)          0.0707         calculate D2E/DX2 analytically  !
 ! D99   D(16,17,18,12)         -0.2542         calculate D2E/DX2 analytically  !
 ! D100  D(16,17,18,32)       -179.8016         calculate D2E/DX2 analytically  !
 ! D101  D(34,17,18,12)        179.7584         calculate D2E/DX2 analytically  !
 ! D102  D(34,17,18,32)          0.211          calculate D2E/DX2 analytically  !
 ! D103  D(1,19,20,21)           0.2547         calculate D2E/DX2 analytically  !
 ! D104  D(1,19,20,25)        -179.759          calculate D2E/DX2 analytically  !
 ! D105  D(26,19,20,21)        179.8016         calculate D2E/DX2 analytically  !
 ! D106  D(26,19,20,25)         -0.2121         calculate D2E/DX2 analytically  !
 ! D107  D(19,20,21,22)          0.38           calculate D2E/DX2 analytically  !
 ! D108  D(19,20,21,24)        179.9157         calculate D2E/DX2 analytically  !
 ! D109  D(25,20,21,22)       -179.6064         calculate D2E/DX2 analytically  !
 ! D110  D(25,20,21,24)         -0.0707         calculate D2E/DX2 analytically  !
 ! D111  D(20,21,22,2)          -0.6384         calculate D2E/DX2 analytically  !
 ! D112  D(20,21,22,23)        179.5448         calculate D2E/DX2 analytically  !
 ! D113  D(24,21,22,2)         179.8198         calculate D2E/DX2 analytically  !
 ! D114  D(24,21,22,23)          0.003          calculate D2E/DX2 analytically  !
 ! D115  D(2,22,23,35)           4.6226         calculate D2E/DX2 analytically  !
 ! D116  D(2,22,23,39)        -179.899          calculate D2E/DX2 analytically  !
 ! D117  D(21,22,23,35)       -175.5619         calculate D2E/DX2 analytically  !
 ! D118  D(21,22,23,39)         -0.0835         calculate D2E/DX2 analytically  !
 ! D119  D(22,23,35,7)         -10.7373         calculate D2E/DX2 analytically  !
 ! D120  D(22,23,35,36)       -170.7205         calculate D2E/DX2 analytically  !
 ! D121  D(22,23,35,37)         87.9169         calculate D2E/DX2 analytically  !
 ! D122  D(39,23,35,7)         173.7528         calculate D2E/DX2 analytically  !
 ! D123  D(39,23,35,36)         13.7696         calculate D2E/DX2 analytically  !
 ! D124  D(39,23,35,37)        -87.593          calculate D2E/DX2 analytically  !
 ! D125  D(7,35,36,15)          10.7373         calculate D2E/DX2 analytically  !
 ! D126  D(7,35,36,38)        -173.7522         calculate D2E/DX2 analytically  !
 ! D127  D(23,35,36,15)        170.7205         calculate D2E/DX2 analytically  !
 ! D128  D(23,35,36,38)        -13.769          calculate D2E/DX2 analytically  !
 ! D129  D(37,35,36,15)        -87.9169         calculate D2E/DX2 analytically  !
 ! D130  D(37,35,36,38)         87.5936         calculate D2E/DX2 analytically  !
 --------------------------------------------------------------------------------
 Trust Radius=3.00D-01 FncErr=1.00D-07 GrdErr=1.00D-06
 Number of steps in this run=    234 maximum allowed number of steps=    234.
 Search for a saddle point of order  1.
 GradGradGradGradGradGradGradGradGradGradGradGradGradGradGradGradGradGrad

                          Input orientation:                          
 ---------------------------------------------------------------------
 Center     Atomic      Atomic             Coordinates (Angstroms)
 Number     Number       Type             X           Y           Z
 ---------------------------------------------------------------------
      1          6           0       -3.692130    0.554020   -0.021280
      2          6           0       -2.464340   -0.159050    0.012310
      3          6           0       -1.224680    0.551120    0.036660
      4          6           0       -1.221010    1.982730    0.014240
      5          6           0       -3.656550    1.990290   -0.017290
      6          6           0       -2.480130    2.670210   -0.004360
      7          6           0        0.000000   -0.148240    0.068360
      8          6           0        1.224680    0.551120    0.036650
      9          6           0        1.221010    1.982730    0.014240
     10          6           0        0.000000    2.662710    0.013030
     11          6           0        2.464340   -0.159050    0.012310
     12          6           0        3.692130    0.554020   -0.021300
     13          6           0        3.656550    1.990290   -0.017310
     14          6           0        2.480130    2.670210   -0.004370
     15          6           0        2.468230   -1.593900   -0.013630
     16          6           0        3.711730   -2.265500   -0.078800
     17          6           0        4.903200   -1.555950   -0.103650
     18          6           0        4.901820   -0.162450   -0.072860
     19          6           0       -4.901820   -0.162450   -0.072840
     20          6           0       -4.903200   -1.555950   -0.103640
     21          6           0       -3.711730   -2.265500   -0.078790
     22          6           0       -2.468230   -1.593900   -0.013630
     23          6           0       -1.243540   -2.286430    0.022410
     24          1           0       -3.721180   -3.349780   -0.101660
     25          1           0       -5.845610   -2.090350   -0.147250
     26          1           0       -5.838610    0.383610   -0.095890
     27          1           0       -4.598840    2.527760   -0.034690
     28          1           0       -2.474030    3.755110   -0.010650
     29          1           0        0.000000    3.748300    0.004490
     30          1           0        2.474030    3.755110   -0.010660
     31          1           0        4.598840    2.527760   -0.034710
     32          1           0        5.838610    0.383610   -0.095910
     33          1           0        3.721180   -3.349780   -0.101680
     34          1           0        5.845610   -2.090350   -0.147270
     35          6           0        0.000000   -1.605900    0.181690
     36          6           0        1.243540   -2.286430    0.022410
     37          1           0        0.000000   -1.611690    1.910010
     38          1           0        1.244380   -3.370890    0.001210
     39          1           0       -1.244380   -3.370890    0.001220
 ---------------------------------------------------------------------
                    Distance matrix (angstroms):
                    1          2          3          4          5
     1  C    0.000000
     2  C    1.420234   0.000000
     3  C    2.468132   1.428878   0.000000
     4  C    2.854629   2.476509   1.431790   0.000000
     5  C    1.436716   2.458028   2.826325   2.435756   0.000000
     6  C    2.438748   2.829353   2.463408   1.434698   1.358831
     7  C    3.759392   2.465001   1.410656   2.456589   4.236863
     8  C    4.917152   3.756834   2.449360   2.833974   5.089256
     9  C    5.116778   4.262515   2.833974   2.442020   4.877668
    10  C    4.252008   3.746372   2.441150   1.397584   3.717987
    11  C    6.197719   4.928680   3.756834   4.262515   6.487359
    12  C    7.384260   6.197719   4.917152   5.116778   7.487722
    13  C    7.487722   6.487360   5.089256   4.877668   7.313100
    14  C    6.524978   5.696734   4.268237   3.764494   6.174245
    15  C    6.524083   5.137092   4.270975   5.138439   7.096433
    16  C    7.922761   6.526046   5.684613   6.510610   8.509235
    17  C    8.850901   7.499695   6.481539   7.074044   9.265668
    18  C    8.623918   7.366653   6.168888   6.488330   8.825139
    19  C    1.406889   2.438969   3.747337   4.261190   2.487584
    20  C    2.434224   2.812972   4.241573   5.108295   3.759975
    21  C    2.820175   2.449778   3.759268   4.925424   4.256592
    22  C    2.472155   1.435090   2.479931   3.787957   3.776048
    23  C    3.750421   2.452794   2.837648   4.269227   4.910654
    24  H    3.904735   3.431238   4.633429   5.890666   5.341127
    25  H    3.412629   3.897225   5.325803   6.164656   4.632547
    26  H    2.154526   3.419340   4.618872   4.887898   2.710901
    27  H    2.172085   3.431799   3.911157   3.421869   1.084936
    28  H    3.425034   3.914239   3.439283   2.170716   2.124379
    29  H    4.882204   4.619569   3.423863   2.146671   4.057269
    30  H    6.947562   6.301482   4.893695   4.098203   6.379549
    31  H    8.522676   7.557094   6.150251   5.845520   8.272886
    32  H    9.532555   8.321368   7.066520   7.239306   9.630455
    33  H    8.378740   6.960920   6.300610   7.271475   9.107929
    34  H    9.898336   8.532916   7.549847   8.158014  10.342126
    35  C    4.282321   2.862697   2.484675   3.794360   5.132498
    36  C    5.694814   4.274836   3.760851   4.929483   6.504060
    37  H    4.695956   3.432841   3.112399   4.243190   5.482618
    38  H    6.306707   4.906184   4.634617   5.894028   7.263725
    39  H    4.625679   3.435745   3.922220   5.353687   5.878874
                    6          7          8          9         10
     6  C    0.000000
     7  C    3.754996   0.000000
     8  C    4.268236   1.410656   0.000000
     9  C    3.764494   2.456589   1.431790   0.000000
    10  C    2.480202   2.811494   2.441150   1.397584   0.000000
    11  C    5.696734   2.465001   1.428877   2.476509   3.746372
    12  C    6.524978   3.759392   2.468132   2.854629   4.252008
    13  C    6.174245   4.236863   2.826325   2.435756   3.717987
    14  C    4.960260   3.754996   2.463408   1.434698   2.480202
    15  C    6.532150   2.861610   2.479931   3.787957   4.920528
    16  C    7.918706   4.275674   3.759268   4.925424   6.170302
    17  C    8.507870   5.104175   4.241573   5.108295   6.469318
    18  C    7.907075   4.903874   3.747337   4.261191   5.658334
    19  C    3.727363   4.903874   6.168887   6.488330   5.658334
    20  C    4.872530   5.104175   6.481538   7.074044   6.469318
    21  C    5.087594   4.275673   5.684612   6.510610   6.170302
    22  C    4.264137   2.861610   4.270974   5.138439   4.920528
    23  C    5.108635   2.473936   3.760851   4.929483   5.102986
    24  H    6.147353   4.911817   6.300610   7.271474   7.071801
    25  H    5.831793   6.163557   7.549847   8.158013   7.535810
    26  H    4.064026   5.865084   7.066519   7.239306   6.268614
    27  H    2.123710   5.321741   6.150250   5.845520   4.601067
    28  H    1.084935   4.622035   4.893694   4.098203   2.704574
    29  H    2.704330   3.897063   3.423863   2.146671   1.085624
    30  H    5.071563   4.622035   3.439283   2.170716   2.704575
    31  H    7.080468   5.321741   3.911158   3.421869   4.601067
    32  H    8.627767   5.865084   4.618872   4.887898   6.268615
    33  H    8.643263   4.911818   4.633429   5.890666   7.071801
    34  H    9.591731   6.163558   5.325804   6.164657   7.535810
    35  C    4.946795   1.462059   2.484676   3.794360   4.271941
    36  C    6.199574   2.473936   2.837648   4.269227   5.102986
    37  H    5.305707   2.352310   3.112405   4.243190   4.676433
    38  H    7.096964   3.455208   3.922220   5.353687   6.160597
    39  H    6.166198   3.455208   4.634617   5.894028   6.160597
                   11         12         13         14         15
    11  C    0.000000
    12  C    1.420235   0.000000
    13  C    2.458029   1.436716   0.000000
    14  C    2.829353   2.438748   1.358831   0.000000
    15  C    1.435090   2.472155   3.776048   4.264137   0.000000
    16  C    2.449778   2.820174   4.256592   5.087594   1.414774
    17  C    2.812973   2.434224   3.759975   4.872530   2.436929
    18  C    2.438970   1.406889   2.487584   3.727363   2.823990
    19  C    7.366653   8.623918   8.825139   7.907075   7.508009
    20  C    7.499695   8.850901   9.265667   8.507870   7.372077
    21  C    6.526046   7.922761   8.509235   7.918706   6.216687
    22  C    5.137092   6.524083   7.096433   6.532150   4.936460
    23  C    4.274836   5.694814   6.504060   6.199574   3.775994
    24  H    6.960920   8.378740   9.107929   8.643263   6.434257
    25  H    8.532916   9.898335  10.342125   9.591730   8.329721
    26  H    8.321368   9.532555   9.630455   8.627766   8.539374
    27  H    7.557094   8.522676   8.272886   7.080468   8.181198
    28  H    6.301482   6.947562   6.379549   5.071563   7.282709
    29  H    4.619569   4.882204   4.057269   2.704330   5.884861
    30  H    3.914239   3.425034   2.124379   1.084935   5.349014
    31  H    3.431800   2.172085   1.084936   2.123710   4.639830
    32  H    3.419341   2.154526   2.710901   4.064026   3.908552
    33  H    3.431239   3.904735   5.341127   6.147353   2.158877
    34  H    3.897226   3.412629   4.632547   5.831793   3.416287
    35  C    2.862697   4.282322   5.132499   4.946795   2.475975
    36  C    2.452794   3.750421   4.910655   5.108635   1.407396
    37  H    3.432841   4.695964   5.482625   5.305710   3.129356
    38  H    3.435745   4.625679   5.878874   6.166198   2.157712
    39  H    4.906184   6.306707   7.263726   7.096964   4.115992
                   16         17         18         19         20
    16  C    0.000000
    17  C    1.386968   0.000000
    18  C    2.416437   1.393841   0.000000
    19  C    8.866572   9.903596   9.803640   0.000000
    20  C    8.644137   9.806400   9.903596   1.393841   0.000000
    21  C    7.423460   8.644137   8.866572   2.416437   1.386968
    22  C    6.216687   7.372077   7.508009   2.823989   2.436929
    23  C    4.956348   6.191277   6.502755   4.231238   3.733979
    24  H    7.511613   8.808959   9.193260   3.399090   2.148255
    25  H    9.559190  10.762175  10.919230   2.147807   1.084261
    26  H    9.910957  10.915514  10.754327   1.084568   2.153357
    27  H    9.593897  10.342640   9.874271   2.707486   4.095617
    28  H    8.632266   9.090629   8.351905   4.609263   5.840965
    29  H    7.067508   7.224135   6.271187   6.271187   7.224135
    30  H    6.146893   5.840965   4.609263   8.351904   9.090628
    31  H    4.874859   4.095617   2.707486   9.874271  10.342640
    32  H    3.397307   2.153357   1.084568  10.754327  10.915513
    33  H    1.084563   2.148255   3.399090   9.193260   8.808959
    34  H    2.142151   1.084261   2.147807  10.919230  10.762175
    35  C    3.778871   4.911750   5.116267   5.116266   4.911749
    36  C    2.470353   3.733980   4.231239   6.502754   6.191276
    37  H    4.261428   5.300878   5.482692   5.482685   5.300874
    38  H    2.704830   4.085580   4.865844   6.933639   6.410752
    39  H    5.078515   6.410752   6.933639   4.865844   4.085580
                   21         22         23         24         25
    21  C    0.000000
    22  C    1.414774   0.000000
    23  C    2.470352   1.407396   0.000000
    24  H    1.084562   2.158876   2.699038   0.000000
    25  H    2.142150   3.416286   4.609369   2.470110   0.000000
    26  H    3.397307   3.908551   5.315804   4.292056   2.474503
    27  H    4.874859   4.639830   5.868366   5.943084   4.784772
    28  H    6.146893   5.349014   6.165663   7.214092   6.749490
    29  H    7.067508   5.884861   6.161548   8.015060   8.263414
    30  H    8.632266   7.282709   7.093774   9.427002  10.168799
    31  H    9.593897   8.181198   7.570541  10.186888  11.420426
    32  H    9.910957   8.539374   7.569674  10.262934  11.943371
    33  H    7.511614   6.434257   5.078834   7.442360   9.649441
    34  H    9.559190   8.329721   7.093891   9.649441  11.691220
    35  C    3.778870   2.475975   1.426493   4.119294   5.874866
    36  C    4.956347   3.775994   2.487080   5.078834   7.093890
    37  H    4.261424   3.129356   2.358962   4.573287   6.215512
    38  H    5.078515   4.115992   2.714083   4.966670   7.206232
    39  H    2.704830   2.157712   1.084667   2.479026   4.778404
                   26         27         28         29         30
    26  H    0.000000
    27  H    2.477530   0.000000
    28  H    4.763893   2.453932   0.000000
    29  H    6.739479   4.758212   2.474086   0.000000
    30  H    8.970745   7.178611   4.948060   2.474086   0.000000
    31  H   10.655585   9.197680   7.178611   4.758212   2.453932
    32  H   11.677220  10.655585   8.970745   6.739480   4.763893
    33  H   10.262934  10.186888   9.427002   8.015060   7.214092
    34  H   11.943371  11.420427  10.168799   8.263415   6.749490
    35  C    6.174509   6.187350   5.907474   5.357131   5.907474
    36  C    7.569674   7.570541   7.093774   6.161548   6.165663
    37  H    6.488006   6.485849   6.213880   5.688629   6.213883
    38  H    8.017135   8.302926   8.037822   7.227127   7.231325
    39  H    5.934025   6.785850   7.231325   7.227127   8.037822
                   31         32         33         34         35
    31  H    0.000000
    32  H    2.477530   0.000000
    33  H    5.943084   4.292056   0.000000
    34  H    4.784772   2.474503   2.470110   0.000000
    35  C    6.187350   6.174510   4.119296   5.874867   0.000000
    36  C    5.868367   5.315805   2.699039   4.609369   1.426493
    37  H    6.485855   6.488012   4.573296   6.215519   1.728330
    38  H    6.785850   5.934025   2.479026   4.778404   2.167082
    39  H    8.302926   8.017135   4.966671   7.206233   2.167081
                   36         37         38         39
    36  C    0.000000
    37  H    2.358962   0.000000
    38  H    1.084668   2.878677   0.000000
    39  H    2.714083   2.878671   2.488760   0.000000
 Stoichiometry    C25H14(3)
 Framework group  C1[X(C25H14)]
 Deg. of freedom   111
 Full point group                 C1      NOp   1
 Largest Abelian subgroup         C1      NOp   1
 Largest concise Abelian subgroup C1      NOp   1
                         Standard orientation:                         
 ---------------------------------------------------------------------
 Center     Atomic      Atomic             Coordinates (Angstroms)
 Number     Number       Type             X           Y           Z
 ---------------------------------------------------------------------
      1          6           0       -3.692130    0.554020   -0.021280
      2          6           0       -2.464340   -0.159050    0.012310
      3          6           0       -1.224680    0.551120    0.036660
      4          6           0       -1.221010    1.982730    0.014240
      5          6           0       -3.656550    1.990290   -0.017290
      6          6           0       -2.480130    2.670210   -0.004360
      7          6           0        0.000000   -0.148240    0.068360
      8          6           0        1.224680    0.551120    0.036650
      9          6           0        1.221010    1.982730    0.014240
     10          6           0        0.000000    2.662710    0.013030
     11          6           0        2.464340   -0.159050    0.012310
     12          6           0        3.692130    0.554020   -0.021300
     13          6           0        3.656550    1.990290   -0.017310
     14          6           0        2.480130    2.670210   -0.004370
     15          6           0        2.468230   -1.593900   -0.013630
     16          6           0        3.711730   -2.265500   -0.078800
     17          6           0        4.903200   -1.555950   -0.103650
     18          6           0        4.901820   -0.162450   -0.072860
     19          6           0       -4.901820   -0.162450   -0.072840
     20          6           0       -4.903200   -1.555950   -0.103640
     21          6           0       -3.711730   -2.265500   -0.078790
     22          6           0       -2.468230   -1.593900   -0.013630
     23          6           0       -1.243540   -2.286430    0.022410
     24          1           0       -3.721180   -3.349780   -0.101660
     25          1           0       -5.845610   -2.090350   -0.147250
     26          1           0       -5.838610    0.383610   -0.095890
     27          1           0       -4.598840    2.527760   -0.034690
     28          1           0       -2.474030    3.755110   -0.010650
     29          1           0        0.000000    3.748300    0.004490
     30          1           0        2.474030    3.755110   -0.010660
     31          1           0        4.598840    2.527760   -0.034710
     32          1           0        5.838610    0.383610   -0.095910
     33          1           0        3.721180   -3.349780   -0.101680
     34          1           0        5.845610   -2.090350   -0.147270
     35          6           0        0.000000   -1.605900    0.181690
     36          6           0        1.243540   -2.286430    0.022410
     37          1           0        0.000000   -1.611690    1.910010
     38          1           0        1.244380   -3.370890    0.001210
     39          1           0       -1.244380   -3.370890    0.001220
 ---------------------------------------------------------------------
 Rotational constants (GHZ):      0.5167675      0.1737148      0.1303339
 Standard basis: 6-311+G(d,p) (5D, 7F)
 There are   659 symmetry adapted cartesian basis functions of A   symmetry.
 There are   634 symmetry adapted basis functions of A   symmetry.
   634 basis functions,  1012 primitive gaussians,   659 cartesian basis functions
    83 alpha electrons       81 beta electrons
       nuclear repulsion energy      1940.4445359621 Hartrees.
 NAtoms=   39 NActive=   39 NUniq=   39 SFac= 1.00D+00 NAtFMM=   60 NAOKFM=F Big=F
 Integral buffers will be    131072 words long.
 Raffenetti 2 integral format.
 Two-electron integral symmetry is turned on.
 One-electron integrals computed using PRISM.
 NBasis=   634 RedAO= T EigKep=  1.53D-06  NBF=   634
 NBsUse=   616 1.00D-06 EigRej=  9.71D-07 NBFU=   616
 ExpMin= 4.38D-02 ExpMax= 4.56D+03 ExpMxC= 6.82D+02 IAcc=2 IRadAn=         4 AccDes= 0.00D+00
 Harris functional with IExCor=  402 and IRadAn=       4 diagonalized for initial guess.
 HarFok:  IExCor=  402 AccDes= 0.00D+00 IRadAn=         4 IDoV= 1 UseB2=F ITyADJ=14
 ICtDFT=  3500011 ScaDFX=  1.000000  1.000000  1.000000  1.000000
 FoFCou: FMM=F IPFlag=           0 FMFlag=      100000 FMFlg1=           0
         NFxFlg=           0 DoJE=T BraDBF=F KetDBF=T FulRan=T
         wScrn=  0.000000 ICntrl=     500 IOpCl=  0 I1Cent=   200000004 NGrid=           0
         NMat0=    1 NMatS0=      1 NMatT0=    0 NMatD0=    1 NMtDS0=    0 NMtDT0=    0
 Petite list used in FoFCou.
 Initial guess <Sx>= 0.0000 <Sy>= 0.0000 <Sz>= 1.0000 <S**2>= 2.0000 S= 1.0000
 Requested convergence on RMS density matrix=1.00D-08 within 128 cycles.
 Requested convergence on MAX density matrix=1.00D-06.
 Requested convergence on             energy=1.00D-06.
 No special actions if energy rises.
 Restarting incremental Fock formation.
 SCF Done:  E(UB3LYP) =  -961.277740343     A.U. after   23 cycles
            NFock= 23  Conv=0.49D-08     -V/T= 2.0044
 <Sx>= 0.0000 <Sy>= 0.0000 <Sz>= 1.0000 <S**2>= 2.0843 S= 1.0278
 <L.S>= 0.000000000000E+00
 Annihilation of the first spin contaminant:
 S**2 before annihilation     2.0843,   after     2.0043
 DoSCS=F DFT=T ScalE2(SS,OS)=  1.000000  1.000000
 Range of M.O.s used for correlation:     1   616
 NBasis=   634 NAE=    83 NBE=    81 NFC=     0 NFV=     0
 NROrb=    616 NOA=    83 NOB=    81 NVA=   533 NVB=   535

 **** Warning!!: The largest alpha MO coefficient is  0.17646487D+03


 **** Warning!!: The largest beta MO coefficient is  0.16871962D+03

 Symmetrizing basis deriv contribution to polar:
 IMax=3 JMax=2 DiffMx= 0.00D+00
 G2DrvN: will do    40 centers at a time, making    1 passes.
 Calling FoFCou, ICntrl=  3107 FMM=F I1Cent=   0 AccDes= 0.00D+00.
 End of G2Drv F.D. properties file   721 does not exist.
 End of G2Drv F.D. properties file   722 does not exist.
 End of G2Drv F.D. properties file   788 does not exist.
          IDoAtm=111111111111111111111111111111111111111
          Differentiating once with respect to nuclear coordinates.
          There are   120 degrees of freedom in the 1st order CPHF.  IDoFFX=6 NUNeed=     0.
    115 vectors produced by pass  0 Test12= 8.76D-14 1.00D-09 XBig12= 5.19D-01 1.53D-01.
 AX will form   115 AO Fock derivatives at one time.
    114 vectors produced by pass  1 Test12= 8.76D-14 1.00D-09 XBig12= 1.02D-01 5.06D-02.
    114 vectors produced by pass  2 Test12= 8.76D-14 1.00D-09 XBig12= 2.86D-03 9.36D-03.
    114 vectors produced by pass  3 Test12= 8.76D-14 1.00D-09 XBig12= 7.00D-05 1.18D-03.
    114 vectors produced by pass  4 Test12= 8.76D-14 1.00D-09 XBig12= 7.65D-07 5.76D-05.
    114 vectors produced by pass  5 Test12= 8.76D-14 1.00D-09 XBig12= 4.39D-09 5.00D-06.
    114 vectors produced by pass  6 Test12= 8.76D-14 1.00D-09 XBig12= 7.60D-11 6.80D-07.
    114 vectors produced by pass  7 Test12= 8.76D-14 1.00D-09 XBig12= 1.96D-11 3.03D-07.
    114 vectors produced by pass  8 Test12= 8.76D-14 1.00D-09 XBig12= 1.97D-12 8.44D-08.
     81 vectors produced by pass  9 Test12= 8.76D-14 1.00D-09 XBig12= 2.23D-14 9.40D-09.
     32 vectors produced by pass 10 Test12= 8.76D-14 1.00D-09 XBig12= 7.61D-16 1.67D-09.
     32 vectors produced by pass 11 Test12= 8.76D-14 1.00D-09 XBig12= 1.74D-13 2.89D-08.
     32 vectors produced by pass 12 Test12= 8.76D-14 1.00D-09 XBig12= 1.87D-12 7.80D-08.
     32 vectors produced by pass 13 Test12= 8.76D-14 1.00D-09 XBig12= 8.19D-13 5.06D-08.
     32 vectors produced by pass 14 Test12= 8.76D-14 1.00D-09 XBig12= 2.48D-13 3.19D-08.
     32 vectors produced by pass 15 Test12= 8.76D-14 1.00D-09 XBig12= 2.49D-13 2.99D-08.
     32 vectors produced by pass 16 Test12= 8.76D-14 1.00D-09 XBig12= 3.57D-13 3.24D-08.
     32 vectors produced by pass 17 Test12= 8.76D-14 1.00D-09 XBig12= 4.09D-13 3.20D-08.
     32 vectors produced by pass 18 Test12= 8.76D-14 1.00D-09 XBig12= 1.41D-13 2.01D-08.
     32 vectors produced by pass 19 Test12= 8.76D-14 1.00D-09 XBig12= 1.86D-13 2.15D-08.
     32 vectors produced by pass 20 Test12= 8.76D-14 1.00D-09 XBig12= 3.21D-13 2.66D-08.
     32 vectors produced by pass 21 Test12= 8.76D-14 1.00D-09 XBig12= 2.18D-13 2.42D-08.
     32 vectors produced by pass 22 Test12= 8.76D-14 1.00D-09 XBig12= 1.79D-13 1.89D-08.
     32 vectors produced by pass 23 Test12= 8.76D-14 1.00D-09 XBig12= 1.63D-13 1.69D-08.
     32 vectors produced by pass 24 Test12= 8.76D-14 1.00D-09 XBig12= 2.05D-13 1.98D-08.
     32 vectors produced by pass 25 Test12= 8.76D-14 1.00D-09 XBig12= 1.54D-13 1.65D-08.
     31 vectors produced by pass 26 Test12= 8.76D-14 1.00D-09 XBig12= 1.27D-13 1.89D-08.
     31 vectors produced by pass 27 Test12= 8.76D-14 1.00D-09 XBig12= 2.32D-13 2.18D-08.
     31 vectors produced by pass 28 Test12= 8.76D-14 1.00D-09 XBig12= 1.94D-13 1.92D-08.
     30 vectors produced by pass 29 Test12= 8.76D-14 1.00D-09 XBig12= 1.42D-13 1.61D-08.
     30 vectors produced by pass 30 Test12= 8.76D-14 1.00D-09 XBig12= 1.57D-13 1.62D-08.
     30 vectors produced by pass 31 Test12= 8.76D-14 1.00D-09 XBig12= 2.06D-13 1.92D-08.
     27 vectors produced by pass 32 Test12= 8.76D-14 1.00D-09 XBig12= 1.02D-13 1.38D-08.
     27 vectors produced by pass 33 Test12= 8.76D-14 1.00D-09 XBig12= 1.27D-13 1.33D-08.
     25 vectors produced by pass 34 Test12= 8.76D-14 1.00D-09 XBig12= 4.73D-14 9.30D-09.
     25 vectors produced by pass 35 Test12= 8.76D-14 1.00D-09 XBig12= 1.21D-13 1.50D-08.
     25 vectors produced by pass 36 Test12= 8.76D-14 1.00D-09 XBig12= 1.93D-13 1.68D-08.
     24 vectors produced by pass 37 Test12= 8.76D-14 1.00D-09 XBig12= 5.98D-14 8.85D-09.
     24 vectors produced by pass 38 Test12= 8.76D-14 1.00D-09 XBig12= 1.45D-13 1.38D-08.
     24 vectors produced by pass 39 Test12= 8.76D-14 1.00D-09 XBig12= 9.55D-14 1.30D-08.
     24 vectors produced by pass 40 Test12= 8.76D-14 1.00D-09 XBig12= 1.10D-13 1.40D-08.
     24 vectors produced by pass 41 Test12= 8.76D-14 1.00D-09 XBig12= 9.11D-14 1.12D-08.
     24 vectors produced by pass 42 Test12= 8.76D-14 1.00D-09 XBig12= 7.72D-14 1.32D-08.
     22 vectors produced by pass 43 Test12= 8.76D-14 1.00D-09 XBig12= 7.56D-14 1.17D-08.
     22 vectors produced by pass 44 Test12= 8.76D-14 1.00D-09 XBig12= 6.91D-14 9.08D-09.
     22 vectors produced by pass 45 Test12= 8.76D-14 1.00D-09 XBig12= 8.67D-14 1.13D-08.
     18 vectors produced by pass 46 Test12= 8.76D-14 1.00D-09 XBig12= 5.01D-14 9.70D-09.
     18 vectors produced by pass 47 Test12= 8.76D-14 1.00D-09 XBig12= 1.07D-13 1.19D-08.
     18 vectors produced by pass 48 Test12= 8.76D-14 1.00D-09 XBig12= 8.45D-14 1.19D-08.
     18 vectors produced by pass 49 Test12= 8.76D-14 1.00D-09 XBig12= 5.56D-14 8.27D-09.
     18 vectors produced by pass 50 Test12= 8.76D-14 1.00D-09 XBig12= 8.65D-14 1.15D-08.
     18 vectors produced by pass 51 Test12= 8.76D-14 1.00D-09 XBig12= 4.04D-14 8.24D-09.
     18 vectors produced by pass 52 Test12= 8.76D-14 1.00D-09 XBig12= 5.79D-14 9.46D-09.
     18 vectors produced by pass 53 Test12= 8.76D-14 1.00D-09 XBig12= 5.67D-14 1.12D-08.
     18 vectors produced by pass 54 Test12= 8.76D-14 1.00D-09 XBig12= 6.32D-14 9.60D-09.
     17 vectors produced by pass 55 Test12= 8.76D-14 1.00D-09 XBig12= 5.00D-14 8.41D-09.
     15 vectors produced by pass 56 Test12= 8.76D-14 1.00D-09 XBig12= 4.80D-14 7.88D-09.
     15 vectors produced by pass 57 Test12= 8.76D-14 1.00D-09 XBig12= 7.04D-14 1.00D-08.
     14 vectors produced by pass 58 Test12= 8.76D-14 1.00D-09 XBig12= 4.47D-14 7.02D-09.
     14 vectors produced by pass 59 Test12= 8.76D-14 1.00D-09 XBig12= 6.10D-14 7.81D-09.
     14 vectors produced by pass 60 Test12= 8.76D-14 1.00D-09 XBig12= 3.75D-14 7.18D-09.
     14 vectors produced by pass 61 Test12= 8.76D-14 1.00D-09 XBig12= 5.99D-14 1.11D-08.
     13 vectors produced by pass 62 Test12= 8.76D-14 1.00D-09 XBig12= 3.04D-14 5.76D-09.
     13 vectors produced by pass 63 Test12= 8.76D-14 1.00D-09 XBig12= 2.34D-14 6.12D-09.
     13 vectors produced by pass 64 Test12= 8.76D-14 1.00D-09 XBig12= 3.62D-14 7.45D-09.
     13 vectors produced by pass 65 Test12= 8.76D-14 1.00D-09 XBig12= 3.11D-14 5.93D-09.
     13 vectors produced by pass 66 Test12= 8.76D-14 1.00D-09 XBig12= 3.72D-14 7.04D-09.
     13 vectors produced by pass 67 Test12= 8.76D-14 1.00D-09 XBig12= 4.94D-14 6.72D-09.
     13 vectors produced by pass 68 Test12= 8.76D-14 1.00D-09 XBig12= 3.05D-14 6.67D-09.
     13 vectors produced by pass 69 Test12= 8.76D-14 1.00D-09 XBig12= 4.86D-14 7.27D-09.
     13 vectors produced by pass 70 Test12= 8.76D-14 1.00D-09 XBig12= 2.96D-14 6.27D-09.
     13 vectors produced by pass 71 Test12= 8.76D-14 1.00D-09 XBig12= 3.18D-14 6.61D-09.
     13 vectors produced by pass 72 Test12= 8.76D-14 1.00D-09 XBig12= 2.49D-14 6.17D-09.
     13 vectors produced by pass 73 Test12= 8.76D-14 1.00D-09 XBig12= 3.36D-14 6.81D-09.
     11 vectors produced by pass 74 Test12= 8.76D-14 1.00D-09 XBig12= 2.81D-14 6.29D-09.
     11 vectors produced by pass 75 Test12= 8.76D-14 1.00D-09 XBig12= 3.08D-14 6.50D-09.
     10 vectors produced by pass 76 Test12= 8.76D-14 1.00D-09 XBig12= 2.78D-14 7.13D-09.
     10 vectors produced by pass 77 Test12= 8.76D-14 1.00D-09 XBig12= 4.59D-14 6.95D-09.
     10 vectors produced by pass 78 Test12= 8.76D-14 1.00D-09 XBig12= 2.46D-14 5.69D-09.
     10 vectors produced by pass 79 Test12= 8.76D-14 1.00D-09 XBig12= 3.62D-14 6.75D-09.
     10 vectors produced by pass 80 Test12= 8.76D-14 1.00D-09 XBig12= 1.92D-14 5.18D-09.
     10 vectors produced by pass 81 Test12= 8.76D-14 1.00D-09 XBig12= 4.73D-14 6.95D-09.
     10 vectors produced by pass 82 Test12= 8.76D-14 1.00D-09 XBig12= 3.32D-14 6.73D-09.
     10 vectors produced by pass 83 Test12= 8.76D-14 1.00D-09 XBig12= 3.49D-14 5.66D-09.
     10 vectors produced by pass 84 Test12= 8.76D-14 1.00D-09 XBig12= 3.22D-14 6.86D-09.
     10 vectors produced by pass 85 Test12= 8.76D-14 1.00D-09 XBig12= 2.73D-14 5.60D-09.
     10 vectors produced by pass 86 Test12= 8.76D-14 1.00D-09 XBig12= 3.28D-14 6.52D-09.
     10 vectors produced by pass 87 Test12= 8.76D-14 1.00D-09 XBig12= 3.75D-14 6.48D-09.
      8 vectors produced by pass 88 Test12= 8.76D-14 1.00D-09 XBig12= 1.24D-14 3.55D-09.
      8 vectors produced by pass 89 Test12= 8.76D-14 1.00D-09 XBig12= 2.78D-14 5.85D-09.
      8 vectors produced by pass 90 Test12= 8.76D-14 1.00D-09 XBig12= 3.00D-14 5.63D-09.
      8 vectors produced by pass 91 Test12= 8.76D-14 1.00D-09 XBig12= 2.27D-14 5.33D-09.
      8 vectors produced by pass 92 Test12= 8.76D-14 1.00D-09 XBig12= 2.78D-14 5.59D-09.
      8 vectors produced by pass 93 Test12= 8.76D-14 1.00D-09 XBig12= 1.97D-14 5.40D-09.
      8 vectors produced by pass 94 Test12= 8.76D-14 1.00D-09 XBig12= 3.26D-14 5.63D-09.
      8 vectors produced by pass 95 Test12= 8.76D-14 1.00D-09 XBig12= 1.84D-14 4.45D-09.
      8 vectors produced by pass 96 Test12= 8.76D-14 1.00D-09 XBig12= 3.28D-14 6.16D-09.
      8 vectors produced by pass 97 Test12= 8.76D-14 1.00D-09 XBig12= 1.72D-14 5.19D-09.
      8 vectors produced by pass 98 Test12= 8.76D-14 1.00D-09 XBig12= 2.45D-14 5.31D-09.
      8 vectors produced by pass 99 Test12= 8.76D-14 1.00D-09 XBig12= 2.08D-14 6.37D-09.
      8 vectors produced by pass100 Test12= 8.76D-14 1.00D-09 XBig12= 2.69D-14 6.62D-09.
      8 vectors produced by pass101 Test12= 8.76D-14 1.00D-09 XBig12= 1.35D-14 4.24D-09.
      8 vectors produced by pass102 Test12= 8.76D-14 1.00D-09 XBig12= 3.50D-14 7.45D-09.
      8 vectors produced by pass103 Test12= 8.76D-14 1.00D-09 XBig12= 2.06D-14 5.07D-09.
      8 vectors produced by pass104 Test12= 8.76D-14 1.00D-09 XBig12= 2.42D-14 5.06D-09.
      8 vectors produced by pass105 Test12= 8.76D-14 1.00D-09 XBig12= 2.62D-14 5.62D-09.
      8 vectors produced by pass106 Test12= 8.76D-14 1.00D-09 XBig12= 3.04D-14 6.40D-09.
      8 vectors produced by pass107 Test12= 8.76D-14 1.00D-09 XBig12= 1.48D-14 5.18D-09.
      8 vectors produced by pass108 Test12= 8.76D-14 1.00D-09 XBig12= 2.62D-14 5.82D-09.
      8 vectors produced by pass109 Test12= 8.76D-14 1.00D-09 XBig12= 2.01D-14 4.28D-09.
      8 vectors produced by pass110 Test12= 8.76D-14 1.00D-09 XBig12= 1.93D-14 4.55D-09.
      8 vectors produced by pass111 Test12= 8.76D-14 1.00D-09 XBig12= 1.78D-14 4.99D-09.
      8 vectors produced by pass112 Test12= 8.76D-14 1.00D-09 XBig12= 1.94D-14 4.75D-09.
      8 vectors produced by pass113 Test12= 8.76D-14 1.00D-09 XBig12= 2.52D-14 5.81D-09.
      8 vectors produced by pass114 Test12= 8.76D-14 1.00D-09 XBig12= 2.18D-14 5.18D-09.
      8 vectors produced by pass115 Test12= 8.76D-14 1.00D-09 XBig12= 1.95D-14 5.00D-09.
      8 vectors produced by pass116 Test12= 8.76D-14 1.00D-09 XBig12= 1.73D-14 4.88D-09.
      7 vectors produced by pass117 Test12= 8.76D-14 1.00D-09 XBig12= 2.00D-14 4.25D-09.
      7 vectors produced by pass118 Test12= 8.76D-14 1.00D-09 XBig12= 1.46D-14 3.68D-09.
      7 vectors produced by pass119 Test12= 8.76D-14 1.00D-09 XBig12= 1.70D-14 3.68D-09.
      7 vectors produced by pass120 Test12= 8.76D-14 1.00D-09 XBig12= 1.72D-14 4.39D-09.
      7 vectors produced by pass121 Test12= 8.76D-14 1.00D-09 XBig12= 1.43D-14 3.74D-09.
      7 vectors produced by pass122 Test12= 8.76D-14 1.00D-09 XBig12= 1.66D-14 4.52D-09.
      7 vectors produced by pass123 Test12= 8.76D-14 1.00D-09 XBig12= 2.24D-14 4.45D-09.
      7 vectors produced by pass124 Test12= 8.76D-14 1.00D-09 XBig12= 2.23D-14 4.90D-09.
      7 vectors produced by pass125 Test12= 8.76D-14 1.00D-09 XBig12= 1.33D-14 3.59D-09.
      7 vectors produced by pass126 Test12= 8.76D-14 1.00D-09 XBig12= 2.41D-14 5.02D-09.
      6 vectors produced by pass127 Test12= 8.76D-14 1.00D-09 XBig12= 1.33D-14 3.67D-09.
      6 vectors produced by pass128 Test12= 8.76D-14 1.00D-09 XBig12= 1.95D-14 4.38D-09.
      6 vectors produced by pass129 Test12= 8.76D-14 1.00D-09 XBig12= 1.32D-14 3.80D-09.
      6 vectors produced by pass130 Test12= 8.76D-14 1.00D-09 XBig12= 1.34D-14 4.06D-09.
      6 vectors produced by pass131 Test12= 8.76D-14 1.00D-09 XBig12= 1.46D-14 4.58D-09.
      6 vectors produced by pass132 Test12= 8.76D-14 1.00D-09 XBig12= 1.65D-14 4.41D-09.
      6 vectors produced by pass133 Test12= 8.76D-14 1.00D-09 XBig12= 1.88D-14 4.66D-09.
      6 vectors produced by pass134 Test12= 8.76D-14 1.00D-09 XBig12= 1.79D-14 4.35D-09.
      6 vectors produced by pass135 Test12= 8.76D-14 1.00D-09 XBig12= 2.07D-14 4.52D-09.
      6 vectors produced by pass136 Test12= 8.76D-14 1.00D-09 XBig12= 1.36D-14 3.85D-09.
      6 vectors produced by pass137 Test12= 8.76D-14 1.00D-09 XBig12= 1.78D-14 4.47D-09.
      5 vectors produced by pass138 Test12= 8.76D-14 1.00D-09 XBig12= 1.05D-14 3.68D-09.
      5 vectors produced by pass139 Test12= 8.76D-14 1.00D-09 XBig12= 2.18D-14 5.16D-09.
      5 vectors produced by pass140 Test12= 8.76D-14 1.00D-09 XBig12= 1.33D-14 3.90D-09.
      5 vectors produced by pass141 Test12= 8.76D-14 1.00D-09 XBig12= 1.48D-14 4.23D-09.
      5 vectors produced by pass142 Test12= 8.76D-14 1.00D-09 XBig12= 1.31D-14 4.39D-09.
      4 vectors produced by pass143 Test12= 8.76D-14 1.00D-09 XBig12= 8.88D-15 2.95D-09.
      4 vectors produced by pass144 Test12= 8.76D-14 1.00D-09 XBig12= 1.50D-14 3.96D-09.
      4 vectors produced by pass145 Test12= 8.76D-14 1.00D-09 XBig12= 1.10D-14 2.93D-09.
      4 vectors produced by pass146 Test12= 8.76D-14 1.00D-09 XBig12= 1.18D-14 3.49D-09.
      4 vectors produced by pass147 Test12= 8.76D-14 1.00D-09 XBig12= 1.48D-14 4.27D-09.
      3 vectors produced by pass148 Test12= 8.76D-14 1.00D-09 XBig12= 7.68D-15 3.50D-09.
      3 vectors produced by pass149 Test12= 8.76D-14 1.00D-09 XBig12= 9.17D-15 3.63D-09.
      3 vectors produced by pass150 Test12= 8.76D-14 1.00D-09 XBig12= 1.53D-14 3.85D-09.
      3 vectors produced by pass151 Test12= 8.76D-14 1.00D-09 XBig12= 1.05D-14 3.27D-09.
      3 vectors produced by pass152 Test12= 8.76D-14 1.00D-09 XBig12= 1.67D-14 4.13D-09.
      3 vectors produced by pass153 Test12= 8.76D-14 1.00D-09 XBig12= 2.07D-14 4.84D-09.
      3 vectors produced by pass154 Test12= 8.76D-14 1.00D-09 XBig12= 1.09D-14 3.49D-09.
      3 vectors produced by pass155 Test12= 8.76D-14 1.00D-09 XBig12= 1.23D-14 4.15D-09.
      3 vectors produced by pass156 Test12= 8.76D-14 1.00D-09 XBig12= 1.21D-14 3.44D-09.
      3 vectors produced by pass157 Test12= 8.76D-14 1.00D-09 XBig12= 1.76D-14 5.00D-09.
      3 vectors produced by pass158 Test12= 8.76D-14 1.00D-09 XBig12= 1.54D-14 5.03D-09.
      3 vectors produced by pass159 Test12= 8.76D-14 1.00D-09 XBig12= 1.54D-14 4.18D-09.
      3 vectors produced by pass160 Test12= 8.76D-14 1.00D-09 XBig12= 1.16D-14 3.75D-09.
      3 vectors produced by pass161 Test12= 8.76D-14 1.00D-09 XBig12= 1.12D-14 3.46D-09.
      3 vectors produced by pass162 Test12= 8.76D-14 1.00D-09 XBig12= 1.34D-14 4.46D-09.
      3 vectors produced by pass163 Test12= 8.76D-14 1.00D-09 XBig12= 1.69D-14 4.14D-09.
      3 vectors produced by pass164 Test12= 8.76D-14 1.00D-09 XBig12= 8.35D-15 3.60D-09.
      3 vectors produced by pass165 Test12= 8.76D-14 1.00D-09 XBig12= 1.69D-14 4.01D-09.
      3 vectors produced by pass166 Test12= 8.76D-14 1.00D-09 XBig12= 7.03D-15 2.60D-09.
      3 vectors produced by pass167 Test12= 8.76D-14 1.00D-09 XBig12= 1.45D-14 3.65D-09.
      3 vectors produced by pass168 Test12= 8.76D-14 1.00D-09 XBig12= 9.05D-15 3.13D-09.
      3 vectors produced by pass169 Test12= 8.76D-14 1.00D-09 XBig12= 9.93D-15 3.51D-09.
      3 vectors produced by pass170 Test12= 8.76D-14 1.00D-09 XBig12= 9.13D-15 2.94D-09.
      3 vectors produced by pass171 Test12= 8.76D-14 1.00D-09 XBig12= 9.10D-15 2.98D-09.
      3 vectors produced by pass172 Test12= 8.76D-14 1.00D-09 XBig12= 1.65D-14 4.52D-09.
      3 vectors produced by pass173 Test12= 8.76D-14 1.00D-09 XBig12= 1.28D-14 4.37D-09.
      3 vectors produced by pass174 Test12= 8.76D-14 1.00D-09 XBig12= 1.27D-14 3.52D-09.
      2 vectors produced by pass175 Test12= 8.76D-14 1.00D-09 XBig12= 5.84D-15 2.47D-09.
 InvSVY:  IOpt=1 It=  1 EMax= 2.11D-15
 Solved reduced A of dimension  3201 with   120 vectors.
 End of Minotr F.D. properties file   721 does not exist.
 End of Minotr F.D. properties file   722 does not exist.
 End of Minotr F.D. properties file   788 does not exist.

 **********************************************************************

            Population analysis using the SCF density.

 **********************************************************************

 Orbital symmetries:
 Alpha Orbitals:
       Occupied  (A) (A) (A) (A) (A) (A) (A) (A) (A) (A) (A) (A)
                 (A) (A) (A) (A) (A) (A) (A) (A) (A) (A) (A) (A)
                 (A) (A) (A) (A) (A) (A) (A) (A) (A) (A) (A) (A)
                 (A) (A) (A) (A) (A) (A) (A) (A) (A) (A) (A) (A)
                 (A) (A) (A) (A) (A) (A) (A) (A) (A) (A) (A) (A)
                 (A) (A) (A) (A) (A) (A) (A) (A) (A) (A) (A) (A)
                 (A) (A) (A) (A) (A) (A) (A) (A) (A) (A) (A)
       Virtual   (A) (A) (A) (A) (A) (A) (A) (A) (A) (A) (A) (A)
                 (A) (A) (A) (A) (A) (A) (A) (A) (A) (A) (A) (A)
                 (A) (A) (A) (A) (A) (A) (A) (A) (A) (A) (A) (A)
                 (A) (A) (A) (A) (A) (A) (A) (A) (A) (A) (A) (A)
                 (A) (A) (A) (A) (A) (A) (A) (A) (A) (A) (A) (A)
                 (A) (A) (A) (A) (A) (A) (A) (A) (A) (A) (A) (A)
                 (A) (A) (A) (A) (A) (A) (A) (A) (A) (A) (A) (A)
                 (A) (A) (A) (A) (A) (A) (A) (A) (A) (A) (A) (A)
                 (A) (A) (A) (A) (A) (A) (A) (A) (A) (A) (A) (A)
                 (A) (A) (A) (A) (A) (A) (A) (A) (A) (A) (A) (A)
                 (A) (A) (A) (A) (A) (A) (A) (A) (A) (A) (A) (A)
                 (A) (A) (A) (A) (A) (A) (A) (A) (A) (A) (A) (A)
                 (A) (A) (A) (A) (A) (A) (A) (A) (A) (A) (A) (A)
                 (A) (A) (A) (A) (A) (A) (A) (A) (A) (A) (A) (A)
                 (A) (A) (A) (A) (A) (A) (A) (A) (A) (A) (A) (A)
                 (A) (A) (A) (A) (A) (A) (A) (A) (A) (A) (A) (A)
                 (A) (A) (A) (A) (A) (A) (A) (A) (A) (A) (A) (A)
                 (A) (A) (A) (A) (A) (A) (A) (A) (A) (A) (A) (A)
                 (A) (A) (A) (A) (A) (A) (A) (A) (A) (A) (A) (A)
                 (A) (A) (A) (A) (A) (A) (A) (A) (A) (A) (A) (A)
                 (A) (A) (A) (A) (A) (A) (A) (A) (A) (A) (A) (A)
                 (A) (A) (A) (A) (A) (A) (A) (A) (A) (A) (A) (A)
                 (A) (A) (A) (A) (A) (A) (A) (A) (A) (A) (A) (A)
                 (A) (A) (A) (A) (A) (A) (A) (A) (A) (A) (A) (A)
                 (A) (A) (A) (A) (A) (A) (A) (A) (A) (A) (A) (A)
                 (A) (A) (A) (A) (A) (A) (A) (A) (A) (A) (A) (A)
                 (A) (A) (A) (A) (A) (A) (A) (A) (A) (A) (A) (A)
                 (A) (A) (A) (A) (A) (A) (A) (A) (A) (A) (A) (A)
                 (A) (A) (A) (A) (A) (A) (A) (A) (A) (A) (A) (A)
                 (A) (A) (A) (A) (A) (A) (A) (A) (A) (A) (A) (A)
                 (A) (A) (A) (A) (A) (A) (A) (A) (A) (A) (A) (A)
                 (A) (A) (A) (A) (A) (A) (A) (A) (A) (A) (A) (A)
                 (A) (A) (A) (A) (A) (A) (A) (A) (A) (A) (A) (A)
                 (A) (A) (A) (A) (A) (A) (A) (A) (A) (A) (A) (A)
                 (A) (A) (A) (A) (A) (A) (A) (A) (A) (A) (A) (A)
                 (A) (A) (A) (A) (A) (A) (A) (A) (A) (A) (A) (A)
                 (A) (A) (A) (A) (A) (A) (A) (A) (A) (A) (A) (A)
                 (A) (A) (A) (A) (A) (A) (A) (A) (A) (A) (A) (A)
                 (A) (A) (A) (A) (A) (A) (A) (A) (A) (A) (A) (A)
                 (A) (A) (A) (A) (A) (A) (A) (A) (A) (A) (A) (A)
                 (A) (A) (A) (A) (A) (A) (A) (A) (A) (A) (A) (A)
                 (A) (A) (A) (A) (A) (A) (A) (A) (A) (A) (A) (A)
                 (A) (A) (A) (A) (A) (A) (A) (A) (A) (A) (A) (A)
                 (A) (A) (A) (A) (A) (A) (A) (A) (A) (A) (A) (A)
                 (A) (A) (A) (A) (A)
 Beta  Orbitals:
       Occupied  (A) (A) (A) (A) (A) (A) (A) (A) (A) (A) (A) (A)
                 (A) (A) (A) (A) (A) (A) (A) (A) (A) (A) (A) (A)
                 (A) (A) (A) (A) (A) (A) (A) (A) (A) (A) (A) (A)
                 (A) (A) (A) (A) (A) (A) (A) (A) (A) (A) (A) (A)
                 (A) (A) (A) (A) (A) (A) (A) (A) (A) (A) (A) (A)
                 (A) (A) (A) (A) (A) (A) (A) (A) (A) (A) (A) (A)
                 (A) (A) (A) (A) (A) (A) (A) (A) (A)
       Virtual   (A) (A) (A) (A) (A) (A) (A) (A) (A) (A) (A) (A)
                 (A) (A) (A) (A) (A) (A) (A) (A) (A) (A) (A) (A)
                 (A) (A) (A) (A) (A) (A) (A) (A) (A) (A) (A) (A)
                 (A) (A) (A) (A) (A) (A) (A) (A) (A) (A) (A) (A)
                 (A) (A) (A) (A) (A) (A) (A) (A) (A) (A) (A) (A)
                 (A) (A) (A) (A) (A) (A) (A) (A) (A) (A) (A) (A)
                 (A) (A) (A) (A) (A) (A) (A) (A) (A) (A) (A) (A)
                 (A) (A) (A) (A) (A) (A) (A) (A) (A) (A) (A) (A)
                 (A) (A) (A) (A) (A) (A) (A) (A) (A) (A) (A) (A)
                 (A) (A) (A) (A) (A) (A) (A) (A) (A) (A) (A) (A)
                 (A) (A) (A) (A) (A) (A) (A) (A) (A) (A) (A) (A)
                 (A) (A) (A) (A) (A) (A) (A) (A) (A) (A) (A) (A)
                 (A) (A) (A) (A) (A) (A) (A) (A) (A) (A) (A) (A)
                 (A) (A) (A) (A) (A) (A) (A) (A) (A) (A) (A) (A)
                 (A) (A) (A) (A) (A) (A) (A) (A) (A) (A) (A) (A)
                 (A) (A) (A) (A) (A) (A) (A) (A) (A) (A) (A) (A)
                 (A) (A) (A) (A) (A) (A) (A) (A) (A) (A) (A) (A)
                 (A) (A) (A) (A) (A) (A) (A) (A) (A) (A) (A) (A)
                 (A) (A) (A) (A) (A) (A) (A) (A) (A) (A) (A) (A)
                 (A) (A) (A) (A) (A) (A) (A) (A) (A) (A) (A) (A)
                 (A) (A) (A) (A) (A) (A) (A) (A) (A) (A) (A) (A)
                 (A) (A) (A) (A) (A) (A) (A) (A) (A) (A) (A) (A)
                 (A) (A) (A) (A) (A) (A) (A) (A) (A) (A) (A) (A)
                 (A) (A) (A) (A) (A) (A) (A) (A) (A) (A) (A) (A)
                 (A) (A) (A) (A) (A) (A) (A) (A) (A) (A) (A) (A)
                 (A) (A) (A) (A) (A) (A) (A) (A) (A) (A) (A) (A)
                 (A) (A) (A) (A) (A) (A) (A) (A) (A) (A) (A) (A)
                 (A) (A) (A) (A) (A) (A) (A) (A) (A) (A) (A) (A)
                 (A) (A) (A) (A) (A) (A) (A) (A) (A) (A) (A) (A)
                 (A) (A) (A) (A) (A) (A) (A) (A) (A) (A) (A) (A)
                 (A) (A) (A) (A) (A) (A) (A) (A) (A) (A) (A) (A)
                 (A) (A) (A) (A) (A) (A) (A) (A) (A) (A) (A) (A)
                 (A) (A) (A) (A) (A) (A) (A) (A) (A) (A) (A) (A)
                 (A) (A) (A) (A) (A) (A) (A) (A) (A) (A) (A) (A)
                 (A) (A) (A) (A) (A) (A) (A) (A) (A) (A) (A) (A)
                 (A) (A) (A) (A) (A) (A) (A) (A) (A) (A) (A) (A)
                 (A) (A) (A) (A) (A) (A) (A) (A) (A) (A) (A) (A)
                 (A) (A) (A) (A) (A) (A) (A) (A) (A) (A) (A) (A)
                 (A) (A) (A) (A) (A) (A) (A) (A) (A) (A) (A) (A)
                 (A) (A) (A) (A) (A) (A) (A) (A) (A) (A) (A) (A)
                 (A) (A) (A) (A) (A) (A) (A) (A) (A) (A) (A) (A)
                 (A) (A) (A) (A) (A) (A) (A) (A) (A) (A) (A) (A)
                 (A) (A) (A) (A) (A) (A) (A) (A) (A) (A) (A) (A)
                 (A) (A) (A) (A) (A) (A) (A) (A) (A) (A) (A) (A)
                 (A) (A) (A) (A) (A) (A) (A)
 The electronic state is 3-A.
 Alpha  occ. eigenvalues --  -10.21420 -10.19686 -10.19500 -10.19500 -10.19470
 Alpha  occ. eigenvalues --  -10.19470 -10.19388 -10.19388 -10.19350 -10.19346
 Alpha  occ. eigenvalues --  -10.19264 -10.19264 -10.19179 -10.19178 -10.18556
 Alpha  occ. eigenvalues --  -10.18556 -10.18545 -10.18545 -10.18532 -10.18532
 Alpha  occ. eigenvalues --  -10.18429 -10.18429 -10.18390 -10.18291 -10.18291
 Alpha  occ. eigenvalues --   -0.91455  -0.89041  -0.86264  -0.85456  -0.83509
 Alpha  occ. eigenvalues --   -0.80649  -0.79503  -0.78054  -0.75772  -0.75582
 Alpha  occ. eigenvalues --   -0.74111  -0.72011  -0.68915  -0.65336  -0.64489
 Alpha  occ. eigenvalues --   -0.63440  -0.62714  -0.62066  -0.57947  -0.57862
 Alpha  occ. eigenvalues --   -0.54119  -0.52941  -0.52533  -0.52262  -0.50636
 Alpha  occ. eigenvalues --   -0.50500  -0.47924  -0.47220  -0.46518  -0.44916
 Alpha  occ. eigenvalues --   -0.44573  -0.44219  -0.43339  -0.42863  -0.42796
 Alpha  occ. eigenvalues --   -0.41341  -0.40875  -0.40841  -0.40335  -0.40334
 Alpha  occ. eigenvalues --   -0.39299  -0.38295  -0.37998  -0.37344  -0.36728
 Alpha  occ. eigenvalues --   -0.34854  -0.34529  -0.33442  -0.32748  -0.31462
 Alpha  occ. eigenvalues --   -0.30755  -0.29733  -0.27593  -0.26390  -0.24631
 Alpha  occ. eigenvalues --   -0.21598  -0.20019  -0.17807
 Alpha virt. eigenvalues --   -0.07386  -0.04795  -0.02898  -0.02474  -0.01455
 Alpha virt. eigenvalues --    0.00137   0.00484   0.00713   0.01528   0.01746
 Alpha virt. eigenvalues --    0.01867   0.02202   0.03185   0.03228   0.03546
 Alpha virt. eigenvalues --    0.04405   0.04922   0.05008   0.05316   0.05556
 Alpha virt. eigenvalues --    0.06001   0.06434   0.06908   0.07294   0.07573
 Alpha virt. eigenvalues --    0.07575   0.08194   0.08543   0.09052   0.09584
 Alpha virt. eigenvalues --    0.10057   0.10157   0.11266   0.11362   0.12151
 Alpha virt. eigenvalues --    0.12251   0.12380   0.12776   0.12913   0.13084
 Alpha virt. eigenvalues --    0.13262   0.13483   0.13519   0.14405   0.15053
 Alpha virt. eigenvalues --    0.15171   0.15511   0.16193   0.16336   0.16341
 Alpha virt. eigenvalues --    0.16520   0.16894   0.17007   0.17285   0.17578
 Alpha virt. eigenvalues --    0.17601   0.17993   0.18073   0.18737   0.18974
 Alpha virt. eigenvalues --    0.19322   0.19473   0.20003   0.20241   0.20547
 Alpha virt. eigenvalues --    0.20565   0.20725   0.21131   0.21527   0.21709
 Alpha virt. eigenvalues --    0.21878   0.21956   0.22398   0.22712   0.22715
 Alpha virt. eigenvalues --    0.23166   0.23287   0.23676   0.23907   0.24294
 Alpha virt. eigenvalues --    0.24569   0.25052   0.25214   0.25245   0.26073
 Alpha virt. eigenvalues --    0.26105   0.26264   0.26666   0.26716   0.27084
 Alpha virt. eigenvalues --    0.27656   0.27723   0.28258   0.28906   0.28955
 Alpha virt. eigenvalues --    0.29171   0.29196   0.29457   0.29711   0.30205
 Alpha virt. eigenvalues --    0.30289   0.30547   0.31173   0.31307   0.31600
 Alpha virt. eigenvalues --    0.31747   0.32247   0.32732   0.33420   0.33605
 Alpha virt. eigenvalues --    0.33779   0.33780   0.34465   0.35143   0.37321
 Alpha virt. eigenvalues --    0.37646   0.38724   0.39269   0.40135   0.40499
 Alpha virt. eigenvalues --    0.41443   0.41669   0.42424   0.43965   0.44301
 Alpha virt. eigenvalues --    0.45006   0.45200   0.45482   0.45828   0.47200
 Alpha virt. eigenvalues --    0.47316   0.48026   0.49140   0.49853   0.51296
 Alpha virt. eigenvalues --    0.52019   0.52652   0.52815   0.52944   0.53138
 Alpha virt. eigenvalues --    0.53595   0.53827   0.54501   0.54665   0.54875
 Alpha virt. eigenvalues --    0.55551   0.55614   0.55712   0.55777   0.56511
 Alpha virt. eigenvalues --    0.57251   0.57445   0.57964   0.58071   0.58818
 Alpha virt. eigenvalues --    0.59283   0.59522   0.60212   0.60778   0.60899
 Alpha virt. eigenvalues --    0.61633   0.62301   0.62794   0.63174   0.63492
 Alpha virt. eigenvalues --    0.63873   0.64584   0.65061   0.65215   0.65243
 Alpha virt. eigenvalues --    0.65561   0.66107   0.66671   0.67159   0.67855
 Alpha virt. eigenvalues --    0.68326   0.69347   0.70288   0.70690   0.70945
 Alpha virt. eigenvalues --    0.71566   0.71576   0.72067   0.72609   0.72819
 Alpha virt. eigenvalues --    0.73031   0.73552   0.73760   0.73932   0.74295
 Alpha virt. eigenvalues --    0.74926   0.75221   0.76054   0.76481   0.76588
 Alpha virt. eigenvalues --    0.77551   0.78722   0.81362   0.81378   0.81885
 Alpha virt. eigenvalues --    0.82175   0.83514   0.84072   0.84163   0.85404
 Alpha virt. eigenvalues --    0.86122   0.87215   0.87719   0.89317   0.90364
 Alpha virt. eigenvalues --    0.90375   0.90930   0.91731   0.91859   0.92411
 Alpha virt. eigenvalues --    0.93209   0.93671   0.93871   0.94042   0.94743
 Alpha virt. eigenvalues --    0.95060   0.95438   0.96510   0.96608   0.97045
 Alpha virt. eigenvalues --    0.97813   0.98141   0.98657   0.98757   0.99193
 Alpha virt. eigenvalues --    1.00067   1.01227   1.01495   1.01846   1.02086
 Alpha virt. eigenvalues --    1.03232   1.04020   1.04276   1.04884   1.05082
 Alpha virt. eigenvalues --    1.06029   1.07122   1.07717   1.07920   1.09564
 Alpha virt. eigenvalues --    1.09916   1.10648   1.12279   1.13011   1.13862
 Alpha virt. eigenvalues --    1.14036   1.15242   1.15998   1.16504   1.16977
 Alpha virt. eigenvalues --    1.18496   1.19906   1.20064   1.22326   1.24788
 Alpha virt. eigenvalues --    1.25984   1.29075   1.32222   1.33595   1.34938
 Alpha virt. eigenvalues --    1.37118   1.38624   1.38907   1.41343   1.42663
 Alpha virt. eigenvalues --    1.43564   1.44366   1.44875   1.45312   1.46247
 Alpha virt. eigenvalues --    1.46965   1.47552   1.47930   1.47956   1.48193
 Alpha virt. eigenvalues --    1.49501   1.49857   1.50105   1.50251   1.50851
 Alpha virt. eigenvalues --    1.51020   1.52157   1.52671   1.53438   1.55066
 Alpha virt. eigenvalues --    1.55830   1.56406   1.56421   1.57296   1.57887
 Alpha virt. eigenvalues --    1.58386   1.59176   1.59549   1.61441   1.62093
 Alpha virt. eigenvalues --    1.62921   1.64425   1.64458   1.65048   1.67009
 Alpha virt. eigenvalues --    1.69396   1.69648   1.71110   1.71768   1.72304
 Alpha virt. eigenvalues --    1.72979   1.73452   1.73657   1.74168   1.74442
 Alpha virt. eigenvalues --    1.75492   1.75821   1.76412   1.78552   1.79538
 Alpha virt. eigenvalues --    1.80219   1.82457   1.82533   1.83230   1.85889
 Alpha virt. eigenvalues --    1.86417   1.86824   1.87782   1.88083   1.88386
 Alpha virt. eigenvalues --    1.88832   1.89306   1.90015   1.90619   1.91204
 Alpha virt. eigenvalues --    1.91412   1.92805   1.92848   1.93641   1.94280
 Alpha virt. eigenvalues --    1.94295   1.95094   1.95602   1.95819   1.96946
 Alpha virt. eigenvalues --    1.97944   1.98237   1.99260   1.99954   2.01941
 Alpha virt. eigenvalues --    2.02900   2.03635   2.04398   2.05779   2.06221
 Alpha virt. eigenvalues --    2.06282   2.07497   2.07684   2.08603   2.09486
 Alpha virt. eigenvalues --    2.12914   2.13301   2.14522   2.16047   2.16892
 Alpha virt. eigenvalues --    2.17282   2.18103   2.20363   2.20670   2.21035
 Alpha virt. eigenvalues --    2.22820   2.24294   2.24934   2.24998   2.26459
 Alpha virt. eigenvalues --    2.29166   2.29625   2.29874   2.32073   2.35319
 Alpha virt. eigenvalues --    2.35639   2.37025   2.38608   2.39869   2.40112
 Alpha virt. eigenvalues --    2.43784   2.44572   2.46613   2.46796   2.48565
 Alpha virt. eigenvalues --    2.50279   2.50651   2.54096   2.55235   2.55248
 Alpha virt. eigenvalues --    2.56475   2.58670   2.59579   2.60456   2.62635
 Alpha virt. eigenvalues --    2.63679   2.64379   2.67120   2.68219   2.69355
 Alpha virt. eigenvalues --    2.69947   2.70400   2.71726   2.71922   2.73335
 Alpha virt. eigenvalues --    2.73997   2.74295   2.74422   2.74590   2.74905
[...]
 02744,-0.00026081,-0.00020045,0.00000165,0.62958235,0.00470988,-0.0020
 8941,0.00001599,-0.01241468,-0.01002029,-0.00057469,0.02859588,-0.0230
 1972,0.00235480,0.00405701,0.00400397,-0.00010971,0.00028115,0.0013723
 3,0.00000539,-0.00086938,-0.00048985,-0.00000460,0.00000178,-0.2250328
 8,0.01993191,-0.02859424,-0.02301756,0.00235342,-0.00405537,0.00400222
 ,-0.00010790,-0.00000192,0.00023034,-0.00015325,0.01241376,-0.01001987
 ,-0.00057700,-0.00471279,-0.00208573,0.00001593,-0.00028027,0.00136865
 ,0.00000419,0.00086808,-0.00048826,-0.00000496,0.00417849,0.02546940,0
 .00204798,-0.01147914,-0.00158783,0.00071126,0.00310234,0.00603206,-0.
 00002654,0.00133176,-0.00493795,-0.00011055,-0.00132663,-0.00493874,-0
 .00011207,-0.00310679,0.00603321,-0.00002635,0.01148004,-0.00158788,0.
 00071210,-0.00417851,0.02547224,0.00204268,-0.06917399,-0.16060524,-0.
 01300401,0.00039236,0.00018080,-0.00000918,0.00032697,-0.00006808,-0.0
 0005593,-0.00012436,-0.00009872,0.00001247,-0.00001100,0.00005011,0.00
 000012,0.00003901,-0.00002080,0.00002345,0.00000004,-0.00006791,0.0000
 0637,-0.00003888,-0.00001957,0.00002359,0.00001084,0.00004999,0.000000
 41,0.00012265,-0.00009984,0.00001276,-0.00039188,0.00018263,-0.0000090
 3,-0.00032428,-0.00006915,-0.00005605,-0.00000122,0.58603747,-0.004437
 19,0.00093660,-0.00092330,0.00678334,-0.00102986,-0.00645823,-0.010016
 41,0.00088252,0.00687145,-0.00076905,0.00003556,0.00514095,-0.00018884
 ,-0.00054405,-0.00010890,0.00054898,-0.00006148,0.00014104,0.00000276,
 -0.01559672,-0.05391887,0.01001283,0.00088117,0.00686229,0.00074739,0.
 00004554,0.00514490,0.00000965,-0.00040000,-0.00089708,-0.00678701,-0.
 00103813,-0.00646113,0.00444816,0.00091787,-0.00094234,0.00017320,-0.0
 0054266,-0.00010238,-0.00052657,-0.00005643,0.00014123,0.00497032,0.00
 436611,0.00606293,0.00017439,0.00041096,0.00479180,-0.00108962,-0.0013
 9866,0.00008695,-0.00235112,0.00196433,0.00044712,0.00233688,0.0019694
 5,0.00044154,0.00109641,-0.00140318,0.00008667,-0.00017589,0.00039056,
 0.00480404,-0.00494171,0.00434277,0.00604399,0.01003476,0.00125158,-0.
 03862218,-0.00000620,0.00003416,-0.00007705,0.00003071,-0.00001865,-0.
 00048091,0.00005770,0.00002280,0.00009823,0.00001185,-0.00003590,0.000
 04690,0.00001614,-0.00005999,0.00004808,0.00000117,-0.00004391,-0.0007
 9556,-0.00001547,-0.00006495,0.00004818,-0.00001096,-0.00003509,0.0000
 4893,-0.00004694,0.00003022,0.00009742,0.00000664,0.00002048,-0.000076
 10,-0.00004675,-0.00000839,-0.00047934,-0.00000988,0.00173332,0.024784
 29,0.00601902,0.00011161,0.00019985,-0.00601123,0.00265982,-0.00040159
 ,0.00408316,-0.00083443,0.00113152,-0.00000656,-0.00204719,-0.00012500
 ,0.00018278,-0.00009929,0.00001848,-0.00048189,-0.00000929,-0.00003362
 ,0.00883182,0.02298157,0.00451315,-0.01814737,0.00288863,0.00044826,-0
 .00329624,-0.00215768,-0.00007549,0.00183307,-0.00067602,-0.00008743,0
 .00757942,-0.04401637,-0.00185502,0.01029320,0.00022867,-0.00021979,-0
 .00117444,0.00335874,0.00004504,0.00403748,0.00014202,-0.00007099,-0.2
 1998572,-0.07186051,0.00674394,-0.07447458,-0.00600596,0.00385099,0.01
 022973,0.02143795,0.00041012,-0.00592580,-0.00875160,-0.00003238,-0.00
 317100,-0.00238068,-0.00012936,-0.00090472,0.00097566,0.00005071,-0.00
 146009,-0.00011512,-0.00066324,0.00471239,-0.00710991,0.00046318,-0.05
 473860,0.00632631,0.00755407,0.00002533,0.00000729,-0.00000207,-0.0000
 7044,0.00007933,0.00002627,-0.00002160,-0.00003568,-0.00001275,0.00000
 913,0.00004479,0.00000244,0.00003977,-0.00003873,-0.00002068,0.0000020
 2,0.00001681,0.00002207,0.00003196,-0.00001026,0.00001275,-0.00002891,
 0.00022310,0.00000684,0.00015083,-0.00014625,-0.00005254,0.00130421,-0
 .00183681,-0.00024618,-0.00052753,-0.00022069,-0.00009864,-0.21050098,
 0.06917291,-0.01004430,0.60131436,-0.00138337,-0.00063093,0.00000213,0
 .00032483,-0.00162446,-0.00014534,-0.00230024,-0.00609691,0.00025572,0
 .00304273,0.00083018,0.00015629,0.00045223,0.00078500,0.00000383,-0.00
 122471,-0.00040031,-0.00000363,0.03105742,-0.01840476,-0.00488659,-0.0
 0437581,0.00510080,-0.00071909,0.00092706,-0.00379479,0.00027315,-0.00
 298389,-0.00025842,0.00003477,-0.02903661,-0.03174539,0.00052703,0.003
 62358,-0.00602274,-0.00039926,-0.00191178,0.00003243,-0.00001065,0.001
 09057,0.00001434,-0.00003119,-0.08566762,-0.16431922,0.00072965,-0.000
 47144,0.01842318,0.00055092,0.00884219,0.00444427,-0.00029346,0.000122
 75,-0.00449605,-0.00006947,0.00083690,0.00045382,0.00003405,-0.0003199
 6,-0.00003379,0.00003668,0.00055931,0.00158102,-0.00001253,-0.00683492
 ,-0.00158692,-0.00115172,-0.00628825,0.01712812,0.00063921,-0.00000311
 ,-0.00009534,-0.00002658,-0.00012625,0.00006916,0.00001555,0.00000426,
 0.00004019,-0.00001590,0.00002540,0.00002295,0.00000465,0.00013319,-0.
 00006588,0.00001154,-0.00009881,0.00002049,-0.00001155,0.00006299,0.00
 003791,-0.00000579,-0.00001660,-0.00048641,0.00001334,-0.00003634,0.00
 008491,0.00002542,0.00144579,0.00066850,-0.00000814,0.00120351,0.00072
 523,-0.00002534,0.07641042,-0.16060834,0.00124169,0.01275276,0.6817220
 7,0.00019050,-0.00033618,-0.00044993,-0.00084810,-0.00010396,0.0006410
 0,0.00114357,0.00110931,0.00125463,0.00024194,0.00003571,0.00070119,0.
 00031859,-0.00001446,0.00011225,-0.00017159,0.00017225,-0.00031099,-0.
 00208012,0.00441574,0.00444458,-0.00080035,0.00047165,-0.00251181,-0.0
 0005941,-0.00024244,-0.00053468,-0.00000883,0.00029971,-0.00000200,-0.
 00071451,-0.00037638,0.00430411,-0.00045386,0.00003159,0.00459602,0.00
 012398,0.00014183,0.00004646,0.00000069,-0.00014671,0.00006474,0.01206
 102,0.00177020,-0.05464128,0.00117572,0.00119261,0.00509796,0.00126557
 ,0.00011733,0.00471819,-0.00029767,-0.00096759,-0.00072595,-0.00054982
 ,0.00000914,-0.00008537,0.00006519,0.00017534,-0.00018172,-0.00039762,
 0.00025247,0.00031395,-0.00003718,-0.00175481,0.00294241,-0.00752195,0
 .00061189,0.00202271,0.00001324,-0.00003082,-0.00000325,-0.00003865,0.
 00001507,-0.00003683,-0.00000800,0.00001226,0.00004566,-0.00001144,0.0
 0001700,0.00002339,-0.00000174,0.00003626,-0.00001307,-0.00000206,0.00
 001441,0.00003049,0.00002979,0.00002110,0.00001758,-0.00000106,-0.0000
 2127,-0.00008541,0.00000359,0.00001923,-0.00064405,-0.00021219,0.00019
 859,-0.00268682,0.00009145,0.00009093,0.00018961,0.02060479,-0.0130070
 2,-0.03861647,-0.03612227,0.01672025,0.12278948,-0.00034714,-0.0001065
 8,0.00001071,0.00017292,-0.00016007,0.00063516,-0.00065752,0.00033258,
 -0.00016173,-0.00008770,-0.00036978,-0.00011744,0.00020277,-0.00029335
 ,0.00001606,0.00004418,0.00015912,-0.00001484,0.00174349,0.00000971,-0
 .00000239,-0.00064858,-0.00033682,0.00016496,-0.00008481,0.00036426,0.
 00011957,0.00052045,0.00000171,0.00000107,0.00016083,0.00016785,-0.000
 63341,-0.00034477,0.00010161,-0.00000898,0.00020273,0.00029530,-0.0000
 1676,0.00003404,-0.00014546,0.00001431,0.00104960,0.00087464,0.0006452
 9,-0.00034748,-0.00006717,-0.00036558,0.00038785,-0.00004553,0.0000003
 8,-0.00041391,-0.00038357,0.00007568,-0.00041276,0.00039236,-0.0000724
 2,0.00039134,0.00005063,-0.00000207,-0.00033755,0.00005765,0.00037018,
 0.00104436,-0.00087625,-0.00064367,-0.00408544,-0.00182480,-0.01015871
 ,0.00000385,0.00000052,-0.00001986,-0.00004293,-0.00001666,-0.00001228
 ,0.00001250,0.00001087,0.00000996,-0.00000952,0.00001408,-0.00000067,0
 .00002130,0.00000574,0.00000029,0.00001795,-0.00000105,-0.00000019,0.0
 0002180,-0.00001552,0.00000026,-0.00000540,-0.00001212,0.00000033,0.00
 001038,-0.00001272,-0.00000950,0.00000386,0.00000161,0.00002077,-0.000
 02980,0.00000930,0.00001166,-0.00692231,0.00000066,0.00000290,-0.00407
 198,0.00181671,0.01014247,0.01268176,0.00024583,-0.00003975,-0.0000542
 2,-0.00026318,0.00048777,0.00002057,-0.00047351,-0.00065439,0.00085491
 ,-0.00040336,0.00015579,-0.00012532,-0.00003817,0.00002153,0.00001533,
 -0.00003108,0.00008231,0.00001283,-0.00000316,-0.00474644,0.00695489,0
 .00047204,-0.00065710,0.00085908,0.00040660,0.00015575,-0.00012878,0.0
 0000024,-0.00053371,-0.00014111,0.00026539,0.00048928,0.00002460,-0.00
 024452,-0.00004013,-0.00004933,0.00004098,0.00002627,0.00001546,0.0000
 2716,0.00007888,0.00001322,-0.00116120,-0.00064949,-0.00042239,0.00034
 869,-0.00009491,0.00009312,-0.00014609,-0.00022087,0.00001167,0.000105
 47,0.00017874,-0.00000580,-0.00010903,0.00017852,-0.00000213,0.0001506
 3,-0.00022127,0.00001141,-0.00034948,-0.00008960,0.00008871,0.00115389
 ,-0.00064752,-0.00041004,-0.00358933,0.00105807,-0.00451001,-0.0000171
 2,0.00000180,0.00000152,0.00000834,0.00000056,-0.00000172,0.00000597,0
 .00000209,0.00000376,0.00001303,0.00000350,-0.00000162,-0.00000810,0.0
 0000407,-0.00000135,-0.00000035,0.00001849,0.00002384,0.00000775,0.000
 00360,-0.00000157,-0.00001302,0.00000346,-0.00000255,-0.00000629,0.000
 00178,0.00000356,0.00001632,0.00000269,0.00000108,-0.00000806,-0.00000
 054,-0.00000195,0.00000434,-0.00516878,-0.00026171,0.00359315,0.001065
 00,-0.00450763,-0.00000164,0.00970961,0.00268055,-0.00066839,0.0000768
 6,-0.00421668,0.00074081,0.00104371,0.00604806,-0.00090213,-0.00093134
 ,0.00063203,-0.00002755,0.00027514,0.00011752,0.00025750,-0.00002047,-
 0.00033182,0.00003572,-0.00001405,-0.00000296,0.02198613,-0.01570829,-
 0.00604892,-0.00090425,-0.00092695,-0.00062725,-0.00002856,0.00027181,
 -0.00000072,0.00005743,0.00007715,0.00421890,0.00074288,0.00104739,-0.
 00268052,-0.00066693,0.00008286,-0.00011369,0.00026141,-0.00002104,0.0
 0032639,0.00003230,-0.00001372,-0.00423275,-0.00305442,-0.00064170,0.0
 0046119,-0.00041070,0.00045949,0.00014737,0.00061472,0.00005183,0.0015
 8136,-0.00074440,-0.00013560,-0.00158299,-0.00074504,-0.00013198,-0.00
 014417,0.00061476,0.00005163,-0.00046174,-0.00040425,0.00045463,0.0042
 2390,-0.00305051,-0.00062949,-0.02355302,-0.01010094,-0.02090126,0.000
 00782,0.00000551,-0.00007864,-0.00000734,-0.00000205,-0.00001834,-0.00
 000858,-0.00001897,0.00001043,-0.00000374,0.00001637,-0.00000066,0.000
 01905,0.00000067,0.00000372,-0.00000041,-0.00000072,-0.00003082,-0.000
 01940,0.00000076,0.00000354,0.00000365,0.00001626,-0.00000164,0.000007
 28,-0.00001994,0.00001035,-0.00000853,0.00000759,-0.00007912,0.0000091
 4,-0.00000397,-0.00001868,0.00000465,0.00500918,0.07178073,0.02355710,
 -0.01009418,-0.02089978,-0.00000168,0.00092833,-0.01577707,0.00005122,
 -0.00009121,0.00001004,0.00015487,0.00008764,-0.00002071,0.00052790,0.
 00145183,-0.00010715,-0.00041788,-0.00000156,-0.00007106,0.00001976,0.
 00000372,-0.00000073,0.00003761,0.00013704,0.00000520,-0.00484375,0.00
 080948,0.00116567,-0.00053640,0.00011991,-0.00003018,0.00005475,-0.000
 07013,-0.00007468,-0.00000177,0.00000970,-0.00000034,-0.00482029,-0.00
 122021,0.00046760,0.00063771,-0.00140234,-0.00002070,-0.00046364,0.000
 00952,0.00000209,0.00006305,0.00001270,0.00000800,0.00391539,-0.027116
 15,-0.00036936,0.00129033,-0.00152061,-0.00034998,0.00007343,0.0004109
 1,0.00000331,0.00004666,-0.00009239,-0.00000585,-0.00004274,-0.0000351
 4,-0.00000515,-0.00004037,0.00003168,0.00000082,0.00001606,0.00003351,
 0.00000606,-0.00004848,-0.00037482,0.00005294,0.00148640,0.00154434,-0
 .00021180,-0.00003230,-0.00001683,0.00000011,0.00000420,-0.00000034,-0
 .00000189,-0.00000684,-0.00000627,0.00000051,-0.00000540,-0.00000448,-
 0.00000103,-0.00004265,0.00003000,-0.00000301,0.00001585,0.00000536,0.
 00001309,0.00002188,-0.00000126,0.00000202,0.00000208,-0.00015331,-0.0
 0000035,-0.00002988,0.00005918,0.00000084,-0.00031538,0.00080655,0.000
 03717,-0.00001469,0.00000226,0.00002526,0.00286049,0.02744157,-0.00001
 834,-0.05716245,-0.00011147,0.00265058,0.00006054,-0.00005821,-0.00022
 105,0.05783845,0.00002591,0.00004632,-0.00001017,-0.00014227,0.0001386
 7,-0.00002362,-0.00055425,-0.00070879,0.00004111,0.00024871,-0.0000168
 3,0.00003311,0.00002541,-0.00001520,-0.00000567,-0.00005177,-0.0000517
 7,0.00000852,0.00249948,0.00110067,-0.00101758,-0.00002069,0.00032159,
 0.00016723,-0.00002465,-0.00000030,0.00002766,0.00002960,-0.00003253,0
 .00000532,-0.00265574,0.00102625,-0.00017563,0.00065439,-0.00077174,-0
 .00001699,-0.00031233,0.00001449,-0.00000520,0.00002857,-0.00001503,0.
 00000467,0.00213975,-0.01259813,-0.00017670,0.00183571,0.00078739,0.00
 003043,-0.00043079,0.00009480,0.00000864,0.00008549,0.00026006,0.00001
 841,-0.00002594,0.00001679,0.00000287,0.00005980,0.00001291,0.00000164
 ,-0.00001904,-0.00007449,0.00000104,0.00040023,0.00019326,0.00007319,-
 0.00165333,0.00072667,0.00002160,0.00001335,0.00002244,0.00000086,0.00
 000171,-0.00000242,-0.00000101,0.00001067,0.00000030,0.00000133,0.0000
 0849,0.00000281,0.00000135,0.00002651,-0.00002446,0.00000246,0.0000060
 0,-0.00002665,-0.00000919,-0.00000085,-0.00002718,-0.00000195,-0.00001
 037,-0.00009347,-0.00000032,-0.00004373,0.00003131,0.00000388,-0.00077
 802,0.00052822,0.00004127,-0.00004852,-0.00002714,-0.00001071,-0.00178
 220,-0.01217010,0.00055362,-0.00029405,-0.33330278,-0.00646319,-0.0000
 4339,0.00001744,0.00026047,0.00003131,0.35413071,-0.00005539,0.0000064
 3,0.00001627,0.00002953,-0.00000183,0.00008343,-0.00015211,-0.00028224
 ,0.00029414,0.00014619,0.00006716,-0.00024754,-0.00000534,0.00000948,0
 .00000108,-0.00001773,-0.00005676,-0.00000513,0.00089695,0.00041679,0.
 00428275,0.00011432,0.00006045,-0.00055199,-0.00004052,-0.00007897,-0.
 00062198,-0.00003568,0.00006623,0.00008096,0.00036583,0.00018828,0.005
 09981,-0.00005371,0.00001598,0.00020069,0.00001973,-0.00001325,-0.0001
 9498,-0.00002353,-0.00000239,0.00005291,-0.00038341,0.00050211,0.00347
 274,-0.00007761,0.00016817,-0.00301151,0.00003005,-0.00002041,-0.00014
 345,0.00003875,-0.00000357,0.00004986,0.00002923,0.00002612,-0.0000018
 1,0.00002247,-0.00003467,-0.00000070,-0.00005033,0.00000989,0.00003455
 ,0.00002340,-0.00004485,-0.00013414,0.00043550,0.00038058,-0.00212154,
 0.00000065,-0.00000305,0.00001185,0.00000181,0.00000136,0.00000198,-0.
 00000010,0.00000139,0.00000399,0.00000021,-0.00000168,0.00000087,0.000
 01002,-0.00000326,-0.00003119,-0.00000384,-0.00000271,0.00007173,-0.00
 000332,0.00000234,0.00004918,0.00000066,0.00000395,-0.00002643,0.00000
 398,-0.00000387,0.00002874,0.00003866,-0.00004292,0.00021218,0.0000036
 2,-0.00000308,0.00012787,0.00036331,-0.00453454,0.00247096,0.00167019,
 -0.00374465,-0.02980336,-0.00040356,0.00034580,0.00063971,-0.00293841,
 0.00662299,0.01945014,0.00063802,0.00140347,0.00002046,-0.00482390,0.0
 0121856,-0.00046650,-0.00053386,-0.00011932,0.00002948,0.00005489,0.00
 007133,0.00007363,-0.00046386,-0.00000955,-0.00000182,0.00006097,-0.00
 001647,-0.00000788,-0.00484271,-0.00081459,-0.00116388,0.00052584,-0.0
 0145035,0.00010509,-0.00041908,0.00000277,0.00007115,-0.00000185,-0.00
 001047,0.00000036,0.00015775,-0.00008977,0.00002041,0.00005047,0.00009
 247,-0.00001187,0.00001905,-0.00000530,0.00000096,0.00004098,-0.000139
 69,-0.00000520,-0.00004877,0.00037581,-0.00005179,0.00001884,-0.000030
 56,-0.00000784,-0.00004023,-0.00003286,-0.00000029,-0.00004185,0.00003
 280,0.00000502,0.00004695,0.00009012,0.00000451,0.00007180,-0.00041197
 ,-0.00000268,0.00128780,0.00152183,0.00034961,0.00391809,0.02711649,0.
 00036639,-0.05715985,0.00011492,-0.00264567,-0.00031522,-0.00080694,-0
 .00003752,-0.00001133,-0.00000050,-0.00002518,-0.00003036,-0.00005872,
 -0.00000096,0.00000315,0.00015283,0.00000027,0.00002205,0.00000376,-0.
 00000220,0.00001596,-0.00000479,-0.00001298,-0.00004270,-0.00002734,0.
 00000291,-0.00000647,0.00000402,0.00000125,-0.00000626,0.00000683,-0.0
 0000056,-0.00003220,0.00001616,-0.00000032,0.00000074,0.00000246,0.000
 00205,0.00285906,-0.02744182,0.00001607,0.00148245,-0.00154340,0.00021
 574,0.00006108,0.00005909,0.00022201,-0.00035371,0.00076084,-0.0000004
 9,0.05783826,-0.00065196,-0.00076758,-0.00000229,0.00265432,0.00102410
 ,-0.00018871,0.00002290,0.00032225,0.00017963,0.00002297,0.00000387,0.
 00002400,0.00030474,0.00002189,-0.00000690,-0.00002449,-0.00002555,0.0
 0000644,-0.00249578,0.00109889,-0.00102644,0.00055285,-0.00070568,0.00
 004775,-0.00025422,-0.00001081,0.00003356,-0.00002810,-0.00003534,-0.0
 0000576,0.00014079,0.00013346,-0.00004135,-0.00002762,0.00004744,-0.00
 000385,-0.00002344,-0.00001234,-0.00000636,0.00005563,-0.00005795,0.00
 000998,-0.00039250,0.00019192,0.00008928,0.00001945,-0.00006126,-0.000
 00552,-0.00006061,0.00000849,-0.00000082,0.00002663,0.00001533,0.00000
 271,-0.00008521,0.00025968,0.00001349,0.00042820,0.00009003,0.00000642
 ,-0.00183556,0.00079154,0.00003056,-0.00213499,-0.01260568,-0.00017653
 ,0.00029650,-0.33329641,-0.00646270,0.00077801,0.00052914,0.00004177,0
 .00004905,-0.00002787,-0.00001010,0.00004413,0.00003010,0.00000322,0.0
 0001106,-0.00009457,-0.00000062,0.00000154,-0.00002623,-0.00000223,-0.
 00000543,-0.00002666,-0.00000936,-0.00002673,-0.00002393,0.00000241,-0
 .00000901,0.00000190,0.00000236,-0.00000880,0.00000075,0.00000072,-0.0
 0001246,0.00001996,0.00000200,-0.00000545,-0.00000018,0.00000012,0.001
 77623,-0.01217290,0.00056842,0.00164539,0.00072386,0.00002059,0.000045
 56,0.00001754,0.00025913,-0.00076147,0.00048591,-0.00001680,-0.0000321
 4,0.35413288,0.00005218,0.00001376,0.00019874,-0.00036491,0.00018909,0
 .00510273,-0.00011478,0.00005928,-0.00055307,0.00004098,-0.00007950,-0
 .00062189,-0.00001838,-0.00001295,-0.00019437,0.00002340,-0.00000026,0
 .00005271,-0.00089622,0.00041865,0.00428370,0.00015360,-0.00028229,0.0
 0029290,-0.00014469,0.00006525,-0.00024681,0.00003423,0.00006693,0.000
 08279,-0.00003063,-0.00000032,0.00008540,0.00005488,0.00000703,0.00001
 534,0.00000525,0.00000796,0.00000072,0.00001601,-0.00005417,-0.0000055
 0,-0.00002395,-0.00004564,-0.00013446,0.00004975,0.00000728,0.00003552
 ,-0.00002415,-0.00003395,-0.00000055,-0.00002772,0.00002730,-0.0000009
 3,-0.00003698,-0.00000307,0.00005028,-0.00003093,-0.00001887,-0.000143
 18,0.00007872,0.00016662,-0.00301077,0.00038225,0.00050392,0.00347087,
 -0.00167167,-0.00374489,-0.02980384,-0.00003848,-0.00004344,0.00021211
 ,-0.00000391,-0.00000325,0.00012776,-0.00000441,-0.00000349,0.00002878
 ,-0.00000115,0.00000430,-0.00002653,0.00000322,0.00000100,0.00004922,0
 .00000379,-0.00000288,0.00007173,-0.00000989,-0.00000373,-0.00003109,0
 .00000015,-0.00000142,0.00000081,-0.00000090,0.00000082,0.00000421,-0.
 00000061,-0.00000193,0.00001181,0.00000067,0.00000011,0.00000173,-0.00
 036361,-0.00453395,0.00246921,-0.00043361,0.00037918,-0.00212363,0.000
 40373,0.00034551,0.00063965,0.00000046,-0.00001575,0.00015737,0.002938
 30,0.00662175,0.01945054\\-0.00000124,0.00000019,0.00000099,0.00000175
 ,-0.00000106,-0.00000117,-0.00000179,-0.00000016,0.00000378,0.00000046
 ,0.00000006,0.00000095,0.00000220,0.00000075,0.00000217,-0.00000157,-0
 .00000108,0.00000251,0.00000019,-0.00000470,-0.00000505,0.00000155,-0.
 00000022,0.00000364,-0.00000046,-0.00000019,0.00000089,-0.00000009,-0.
 00000065,0.00000407,-0.00000189,-0.00000114,-0.00000041,0.00000113,0.0
 0000046,0.00000044,-0.00000190,0.00000039,0.00000252,0.00000178,-0.000
 00065,0.00000234,0.00000154,0.00000122,-0.00000090,0.00000015,0.000001
 45,-0.00000301,-0.00000117,0.00000050,-0.00000127,-0.00000091,-0.00000
 077,-0.00000048,0.00000078,-0.00000062,-0.00000048,0.00000093,0.000000
 46,-0.00000139,0.00000017,0.00000135,-0.00000238,-0.00000141,0.0000012
 6,-0.00000098,0.00000735,0.00000371,-0.00000020,-0.00000002,0.00000010
 ,-0.00000320,0.00000010,0.00000020,-0.00000207,0.00000009,0.00000011,0
 .00000046,0.00000002,0.,0.00000267,0.,0.00000002,0.00000367,0.,-0.0000
 0016,0.00000370,-0.00000001,0.00000001,0.00000371,-0.00000002,-0.00000
 001,0.00000264,-0.00000006,0.00000018,0.00000051,-0.00000007,0.0000001
 8,-0.00000317,-0.00000007,0.00000024,-0.00000202,-0.00000015,-0.000003
 38,-0.00002169,-0.00000747,0.00000339,0.00000004,0.,-0.00000197,0.0000
 1475,-0.00000007,0.00000031,-0.00000327,0.00000019,0.00000019,-0.00000
 334\\\@


 There was a great rattling of the words for the fewness of ideas.
                   -- Charles Baxter in Gryphon
 Job cpu time:       3 days  1 hours 16 minutes 58.3 seconds.
 File lengths (MBytes):  RWF=   9008 Int=      0 D2E=      0 Chk=     42 Scr=      1
 Normal termination of Gaussian 09 at Sun Feb  2 10:41:53 2020.
