 Entering Gaussian System, Link 0=g09
 Initial command:
 /usr/local/Cluster-Apps/gaussian/g09/l1.exe "/rds/user/am2145/hpc-work/scratch/19187505/Gau-215158.inp" -scrdir="/rds/user/am2145/hpc-work/scratch/19187505/"
 Entering Link 1 = /usr/local/Cluster-Apps/gaussian/g09/l1.exe PID=    215159.
  
 Copyright (c) 1988,1990,1992,1993,1995,1998,2003,2009,2013,
            Gaussian, Inc.  All Rights Reserved.
  
 This is part of the Gaussian(R) 09 program.  It is based on
 the Gaussian(R) 03 system (copyright 2003, Gaussian, Inc.),
 the Gaussian(R) 98 system (copyright 1998, Gaussian, Inc.),
 the Gaussian(R) 94 system (copyright 1995, Gaussian, Inc.),
 the Gaussian 92(TM) system (copyright 1992, Gaussian, Inc.),
 the Gaussian 90(TM) system (copyright 1990, Gaussian, Inc.),
 the Gaussian 88(TM) system (copyright 1988, Gaussian, Inc.),
 the Gaussian 86(TM) system (copyright 1986, Carnegie Mellon
 University), and the Gaussian 82(TM) system (copyright 1983,
 Carnegie Mellon University). Gaussian is a federally registered
 trademark of Gaussian, Inc.
  
 This software contains proprietary and confidential information,
 including trade secrets, belonging to Gaussian, Inc.
  
 This software is provided under written license and may be
 used, copied, transmitted, or stored only in accord with that
 written license.
  
 The following legend is applicable only to US Government
 contracts under FAR:
  
                    RESTRICTED RIGHTS LEGEND
  
 Use, reproduction and disclosure by the US Government is
 subject to restrictions as set forth in subparagraphs (a)
 and (c) of the Commercial Computer Software - Restricted
 Rights clause in FAR 52.227-19.
  
 Gaussian, Inc.
 340 Quinnipiac St., Bldg. 40, Wallingford CT 06492
  
  
 ---------------------------------------------------------------
 Warning -- This program may not be used in any manner that
 competes with the business of Gaussian, Inc. or will provide
 assistance to any competitor of Gaussian, Inc.  The licensee
 of this program is prohibited from giving any competitor of
 Gaussian, Inc. access to this program.  By using this program,
 the user acknowledges that Gaussian, Inc. is engaged in the
 business of creating and licensing software in the field of
 computational chemistry and represents and warrants to the
 licensee that it is not a competitor of Gaussian, Inc. and that
 it will not use this program in any manner prohibited above.
 ---------------------------------------------------------------
  

 Cite this work as:
 Gaussian 09, Revision D.01,
 M. J. Frisch, G. W. Trucks, H. B. Schlegel, G. E. Scuseria, 
 M. A. Robb, J. R. Cheeseman, G. Scalmani, V. Barone, B. Mennucci, 
 G. A. Petersson, H. Nakatsuji, M. Caricato, X. Li, H. P. Hratchian, 
 A. F. Izmaylov, J. Bloino, G. Zheng, J. L. Sonnenberg, M. Hada, 
 M. Ehara, K. Toyota, R. Fukuda, J. Hasegawa, M. Ishida, T. Nakajima, 
 Y. Honda, O. Kitao, H. Nakai, T. Vreven, J. A. Montgomery, Jr., 
 J. E. Peralta, F. Ogliaro, M. Bearpark, J. J. Heyd, E. Brothers, 
 K. N. Kudin, V. N. Staroverov, T. Keith, R. Kobayashi, J. Normand, 
 K. Raghavachari, A. Rendell, J. C. Burant, S. S. Iyengar, J. Tomasi, 
 M. Cossi, N. Rega, J. M. Millam, M. Klene, J. E. Knox, J. B. Cross, 
 V. Bakken, C. Adamo, J. Jaramillo, R. Gomperts, R. E. Stratmann, 
 O. Yazyev, A. J. Austin, R. Cammi, C. Pomelli, J. W. Ochterski, 
 R. L. Martin, K. Morokuma, V. G. Zakrzewski, G. A. Voth, 
 P. Salvador, J. J. Dannenberg, S. Dapprich, A. D. Daniels, 
 O. Farkas, J. B. Foresman, J. V. Ortiz, J. Cioslowski, 
 and D. J. Fox, Gaussian, Inc., Wallingford CT, 2013.
 
 ******************************************
 Gaussian 09:  ES64L-G09RevD.01 24-Apr-2013
                 2-Feb-2020 
 ******************************************
 %NProcShared=20
 Will use up to   20 processors via shared memory.
 %mem=64GB
 %Chk=BPhexguess.chk
 --------------------------------------------------
 #n opt=(ts,calcfc,noeigen) freq b3lyp/6-311+g(d,p)
 --------------------------------------------------
 1/5=1,10=4,11=1,14=-1,18=20,26=3,38=1/1,3;
 2/9=110,12=2,17=6,18=5,40=1/2;
 3/5=4,6=6,7=111,11=2,16=1,25=1,30=1,71=2,74=-5,140=1/1,2,3;
 4//1;
 5/5=2,38=5/2;
 8/6=4,10=90,11=11/1;
 11/6=1,8=1,9=11,15=111,16=1/1,2,10;
 10/6=1,13=1/2;
 6/7=2,8=2,9=2,10=2,28=1/1;
 7/10=1,18=20,25=1/1,2,3,16;
 1/5=1,10=4,11=1,14=-1,18=20,26=3/3(2);
 2/9=110/2;
 99//99;
 2/9=110/2;
 3/5=4,6=6,7=111,11=2,16=1,25=1,30=1,71=1,74=-5/1,2,3;
 4/5=5,16=3,69=1/1;
 5/5=2,38=5/2;
 7//1,2,3,16;
 1/5=1,11=1,14=-1,18=20,26=3/3(-5);
 2/9=110/2;
 6/7=2,8=2,9=2,10=2,19=2,28=1/1;
 99/9=1/99;
 ----------
 BPhexguess
 ----------
 Symbolic Z-matrix:
 Charge =  0 Multiplicity = 1
 C                    -3.76424   0.34979   0.15946 
 C                    -2.48167  -0.22267   0.13985 
 C                    -1.3111    0.53414   0.34617 
 C                    -1.36812   1.93577   0.33951 
 C                    -3.82382   1.76901   0.39584 
 C                    -2.68429   2.52437   0.44461 
 C                    -0.0791   -0.21924   0.2596 
 C                     1.13023   0.53413  -0.00293 
 C                     1.05087   1.9487   -0.12346 
 C                    -0.17248   2.64012   0.1078 
 C                     2.39975  -0.11398  -0.0158 
 C                     3.56506   0.61933  -0.3383 
 C                     3.44794   2.02298  -0.57303 
 C                     2.25105   2.6626   -0.43522 
 C                     2.50758  -1.50753   0.36832 
 C                     3.78081  -2.11448   0.31376 
 C                     4.91351  -1.39205  -0.07324 
 C                     4.82132  -0.04848  -0.38381 
 C                    -4.83967  -0.4897   -0.21119 
 C                    -4.59112  -1.77759  -0.66101 
 C                    -3.27745  -2.29226  -0.78041 
 C                    -2.21141  -1.5184   -0.36246 
 C                    -0.75247  -1.76723  -0.41642 
 H                    -3.12449  -3.28002  -1.20121 
 H                    -5.42385  -2.40113  -0.96682 
 H                    -5.85528  -0.10849  -0.19303 
 H                    -4.79339   2.25317   0.45156 
 H                    -2.75977   3.60394   0.52506 
 H                    -0.17929   3.72357   0.05541 
 H                     2.19032   3.73796  -0.56654 
 H                     4.34101   2.58326  -0.82894 
 H                     5.70686   0.51671  -0.65263 
 H                     3.87501  -3.15711   0.59754 
 H                     5.87638  -1.88955  -0.1085 
 C                     0.02051  -1.60942   0.85439 
 C                     1.38212  -2.19308   0.84938 
 H                    -0.55123  -1.78085   1.76884 
 H                     1.48663  -3.22096   1.18057 
 H                    -0.27175  -2.22966  -1.26988 
 

 GradGradGradGradGradGradGradGradGradGradGradGradGradGradGradGradGradGrad
 Berny optimization.
 Initialization pass.
                           ----------------------------
                           !    Initial Parameters    !
                           ! (Angstroms and Degrees)  !
 --------------------------                            --------------------------
 ! Name  Definition              Value          Derivative Info.                !
 --------------------------------------------------------------------------------
 ! R1    R(1,2)                  1.4047         calculate D2E/DX2 analytically  !
 ! R2    R(1,5)                  1.44           calculate D2E/DX2 analytically  !
 ! R3    R(1,19)                 1.4137         calculate D2E/DX2 analytically  !
 ! R4    R(2,3)                  1.4091         calculate D2E/DX2 analytically  !
 ! R5    R(2,22)                 1.4157         calculate D2E/DX2 analytically  !
 ! R6    R(3,4)                  1.4028         calculate D2E/DX2 analytically  !
 ! R7    R(3,7)                  1.4467         calculate D2E/DX2 analytically  !
 ! R8    R(4,6)                  1.4456         calculate D2E/DX2 analytically  !
 ! R9    R(4,10)                 1.4069         calculate D2E/DX2 analytically  !
 ! R10   R(5,6)                  1.368          calculate D2E/DX2 analytically  !
 ! R11   R(5,27)                 1.0852         calculate D2E/DX2 analytically  !
 ! R12   R(6,28)                 1.0852         calculate D2E/DX2 analytically  !
 ! R13   R(7,8)                  1.4488         calculate D2E/DX2 analytically  !
 ! R14   R(7,23)                 1.8184         calculate D2E/DX2 analytically  !
 ! R15   R(7,35)                 1.5154         calculate D2E/DX2 analytically  !
 ! R16   R(8,9)                  1.4219         calculate D2E/DX2 analytically  !
 ! R17   R(8,11)                 1.4254         calculate D2E/DX2 analytically  !
 ! R18   R(9,10)                 1.4241         calculate D2E/DX2 analytically  !
 ! R19   R(9,14)                 1.4308         calculate D2E/DX2 analytically  !
 ! R20   R(10,29)                1.0847         calculate D2E/DX2 analytically  !
 ! R21   R(11,12)                1.4141         calculate D2E/DX2 analytically  !
 ! R22   R(11,15)                1.4495         calculate D2E/DX2 analytically  !
 ! R23   R(12,13)                1.428          calculate D2E/DX2 analytically  !
 ! R24   R(12,18)                1.4235         calculate D2E/DX2 analytically  !
 ! R25   R(13,14)                1.3641         calculate D2E/DX2 analytically  !
 ! R26   R(13,31)                1.0849         calculate D2E/DX2 analytically  !
 ! R27   R(14,30)                1.085          calculate D2E/DX2 analytically  !
 ! R28   R(15,16)                1.4116         calculate D2E/DX2 analytically  !
 ! R29   R(15,36)                1.4029         calculate D2E/DX2 analytically  !
 ! R30   R(16,17)                1.3981         calculate D2E/DX2 analytically  !
 ! R31   R(16,33)                1.0847         calculate D2E/DX2 analytically  !
 ! R32   R(17,18)                1.3821         calculate D2E/DX2 analytically  !
 ! R33   R(17,34)                1.0844         calculate D2E/DX2 analytically  !
 ! R34   R(18,32)                1.0844         calculate D2E/DX2 analytically  !
 ! R35   R(19,20)                1.3866         calculate D2E/DX2 analytically  !
 ! R36   R(19,26)                1.0849         calculate D2E/DX2 analytically  !
 ! R37   R(20,21)                1.4159         calculate D2E/DX2 analytically  !
 ! R38   R(20,25)                1.0843         calculate D2E/DX2 analytically  !
 ! R39   R(21,22)                1.382          calculate D2E/DX2 analytically  !
 ! R40   R(21,24)                1.0845         calculate D2E/DX2 analytically  !
 ! R41   R(22,23)                1.481          calculate D2E/DX2 analytically  !
 ! R42   R(23,35)                1.4958         calculate D2E/DX2 analytically  !
 ! R43   R(23,39)                1.0832         calculate D2E/DX2 analytically  !
 ! R44   R(35,36)                1.4814         calculate D2E/DX2 analytically  !
 ! R45   R(35,37)                1.092          calculate D2E/DX2 analytically  !
 ! R46   R(36,38)                1.085          calculate D2E/DX2 analytically  !
 ! A1    A(2,1,5)              116.2143         calculate D2E/DX2 analytically  !
 ! A2    A(2,1,19)             116.6741         calculate D2E/DX2 analytically  !
 ! A3    A(5,1,19)             126.641          calculate D2E/DX2 analytically  !
 ! A4    A(1,2,3)              122.5194         calculate D2E/DX2 analytically  !
 ! A5    A(1,2,22)             123.5221         calculate D2E/DX2 analytically  !
 ! A6    A(3,2,22)             112.6395         calculate D2E/DX2 analytically  !
 ! A7    A(2,3,4)              120.1441         calculate D2E/DX2 analytically  !
 ! A8    A(2,3,7)              114.7706         calculate D2E/DX2 analytically  !
 ! A9    A(4,3,7)              123.6871         calculate D2E/DX2 analytically  !
 ! A10   A(3,4,6)              116.3264         calculate D2E/DX2 analytically  !
 ! A11   A(3,4,10)             117.8048         calculate D2E/DX2 analytically  !
 ! A12   A(6,4,10)             125.5827         calculate D2E/DX2 analytically  !
 ! A13   A(1,5,6)              121.0359         calculate D2E/DX2 analytically  !
 ! A14   A(1,5,27)             119.0203         calculate D2E/DX2 analytically  !
 ! A15   A(6,5,27)             119.74           calculate D2E/DX2 analytically  !
 ! A16   A(4,6,5)              122.0718         calculate D2E/DX2 analytically  !
 ! A17   A(4,6,28)             118.2793         calculate D2E/DX2 analytically  !
 ! A18   A(5,6,28)             119.6039         calculate D2E/DX2 analytically  !
 ! A19   A(3,7,8)              116.8012         calculate D2E/DX2 analytically  !
 ! A20   A(3,7,23)              98.6391         calculate D2E/DX2 analytically  !
 ! A21   A(3,7,35)             120.6796         calculate D2E/DX2 analytically  !
 ! A22   A(8,7,23)             133.1884         calculate D2E/DX2 analytically  !
 ! A23   A(8,7,35)             119.558          calculate D2E/DX2 analytically  !
 ! A24   A(7,8,9)              119.0839         calculate D2E/DX2 analytically  !
 ! A25   A(7,8,11)             120.572          calculate D2E/DX2 analytically  !
 ! A26   A(9,8,11)             120.0838         calculate D2E/DX2 analytically  !
 ! A27   A(8,9,10)             121.1431         calculate D2E/DX2 analytically  !
 ! A28   A(8,9,14)             117.9058         calculate D2E/DX2 analytically  !
 ! A29   A(10,9,14)            120.9098         calculate D2E/DX2 analytically  !
 ! A30   A(4,10,9)             120.9114         calculate D2E/DX2 analytically  !
 ! A31   A(4,10,29)            120.1766         calculate D2E/DX2 analytically  !
 ! A32   A(9,10,29)            118.8475         calculate D2E/DX2 analytically  !
 ! A33   A(8,11,12)            120.0133         calculate D2E/DX2 analytically  !
 ! A34   A(8,11,15)            120.0642         calculate D2E/DX2 analytically  !
 ! A35   A(12,11,15)           119.8461         calculate D2E/DX2 analytically  !
 ! A36   A(11,12,13)           118.662          calculate D2E/DX2 analytically  !
 ! A37   A(11,12,18)           119.4244         calculate D2E/DX2 analytically  !
 ! A38   A(13,12,18)           121.8901         calculate D2E/DX2 analytically  !
 ! A39   A(12,13,14)           121.0837         calculate D2E/DX2 analytically  !
 ! A40   A(12,13,31)           118.6142         calculate D2E/DX2 analytically  !
 ! A41   A(14,13,31)           120.2634         calculate D2E/DX2 analytically  !
 ! A42   A(9,14,13)            121.6048         calculate D2E/DX2 analytically  !
 ! A43   A(9,14,30)            118.2883         calculate D2E/DX2 analytically  !
 ! A44   A(13,14,30)           120.1063         calculate D2E/DX2 analytically  !
 ! A45   A(11,15,16)           118.0497         calculate D2E/DX2 analytically  !
 ! A46   A(11,15,36)           120.0656         calculate D2E/DX2 analytically  !
 ! A47   A(16,15,36)           121.7873         calculate D2E/DX2 analytically  !
 ! A48   A(15,16,17)           121.285          calculate D2E/DX2 analytically  !
 ! A49   A(15,16,33)           118.7868         calculate D2E/DX2 analytically  !
 ! A50   A(17,16,33)           119.918          calculate D2E/DX2 analytically  !
 ! A51   A(16,17,18)           120.6962         calculate D2E/DX2 analytically  !
 ! A52   A(16,17,34)           119.4277         calculate D2E/DX2 analytically  !
 ! A53   A(18,17,34)           119.8632         calculate D2E/DX2 analytically  !
 ! A54   A(12,18,17)           120.5148         calculate D2E/DX2 analytically  !
 ! A55   A(12,18,32)           118.9544         calculate D2E/DX2 analytically  !
 ! A56   A(17,18,32)           120.5255         calculate D2E/DX2 analytically  !
 ! A57   A(1,19,20)            120.0142         calculate D2E/DX2 analytically  !
 ! A58   A(1,19,26)            119.9372         calculate D2E/DX2 analytically  !
 ! A59   A(20,19,26)           119.9709         calculate D2E/DX2 analytically  !
 ! A60   A(19,20,21)           122.0902         calculate D2E/DX2 analytically  !
 ! A61   A(19,20,25)           119.2045         calculate D2E/DX2 analytically  !
 ! A62   A(21,20,25)           118.6659         calculate D2E/DX2 analytically  !
 ! A63   A(20,21,22)           119.1185         calculate D2E/DX2 analytically  !
 ! A64   A(20,21,24)           119.6457         calculate D2E/DX2 analytically  !
 ! A65   A(22,21,24)           121.2349         calculate D2E/DX2 analytically  !
 ! A66   A(2,22,21)            118.1991         calculate D2E/DX2 analytically  !
 ! A67   A(2,22,23)            110.7787         calculate D2E/DX2 analytically  !
 ! A68   A(21,22,23)           130.9029         calculate D2E/DX2 analytically  !
 ! A69   A(7,23,22)            102.0178         calculate D2E/DX2 analytically  !
 ! A70   A(7,23,39)            119.4715         calculate D2E/DX2 analytically  !
 ! A71   A(22,23,35)           117.4128         calculate D2E/DX2 analytically  !
 ! A72   A(22,23,39)           122.5219         calculate D2E/DX2 analytically  !
 ! A73   A(35,23,39)           119.019          calculate D2E/DX2 analytically  !
 ! A74   A(7,35,36)            114.8678         calculate D2E/DX2 analytically  !
 ! A75   A(7,35,37)            115.9947         calculate D2E/DX2 analytically  !
 ! A76   A(23,35,36)           115.5014         calculate D2E/DX2 analytically  !
 ! A77   A(23,35,37)           115.1078         calculate D2E/DX2 analytically  !
 ! A78   A(36,35,37)           114.9734         calculate D2E/DX2 analytically  !
 ! A79   A(15,36,35)           123.0924         calculate D2E/DX2 analytically  !
 ! A80   A(15,36,38)           119.3643         calculate D2E/DX2 analytically  !
 ! A81   A(35,36,38)           117.4358         calculate D2E/DX2 analytically  !
 ! D1    D(5,1,2,3)              0.3756         calculate D2E/DX2 analytically  !
 ! D2    D(5,1,2,22)          -165.5367         calculate D2E/DX2 analytically  !
 ! D3    D(19,1,2,3)           173.0349         calculate D2E/DX2 analytically  !
 ! D4    D(19,1,2,22)            7.1225         calculate D2E/DX2 analytically  !
 ! D5    D(2,1,5,6)              7.1158         calculate D2E/DX2 analytically  !
 ! D6    D(2,1,5,27)          -178.0857         calculate D2E/DX2 analytically  !
 ! D7    D(19,1,5,6)          -164.7039         calculate D2E/DX2 analytically  !
 ! D8    D(19,1,5,27)           10.0946         calculate D2E/DX2 analytically  !
 ! D9    D(2,1,19,20)           -4.5897         calculate D2E/DX2 analytically  !
 ! D10   D(2,1,19,26)          178.6177         calculate D2E/DX2 analytically  !
 ! D11   D(5,1,19,20)          167.197          calculate D2E/DX2 analytically  !
 ! D12   D(5,1,19,26)           -9.5956         calculate D2E/DX2 analytically  !
 ! D13   D(1,2,3,4)            -11.629          calculate D2E/DX2 analytically  !
 ! D14   D(1,2,3,7)           -178.6248         calculate D2E/DX2 analytically  !
 ! D15   D(22,2,3,4)           155.67           calculate D2E/DX2 analytically  !
 ! D16   D(22,2,3,7)           -11.3258         calculate D2E/DX2 analytically  !
 ! D17   D(1,2,22,21)           -4.0894         calculate D2E/DX2 analytically  !
 ! D18   D(1,2,22,23)          172.3702         calculate D2E/DX2 analytically  !
 ! D19   D(3,2,22,21)         -171.2406         calculate D2E/DX2 analytically  !
 ! D20   D(3,2,22,23)            5.2189         calculate D2E/DX2 analytically  !
 ! D21   D(2,3,4,6)             14.6964         calculate D2E/DX2 analytically  !
 ! D22   D(2,3,4,10)          -159.5066         calculate D2E/DX2 analytically  !
 ! D23   D(7,3,4,6)           -179.5181         calculate D2E/DX2 analytically  !
 ! D24   D(7,3,4,10)             6.2789         calculate D2E/DX2 analytically  !
 ! D25   D(2,3,7,8)            159.1254         calculate D2E/DX2 analytically  !
 ! D26   D(2,3,7,23)            10.6606         calculate D2E/DX2 analytically  !
 ! D27   D(2,3,7,35)           -40.4296         calculate D2E/DX2 analytically  !
 ! D28   D(4,3,7,8)             -7.35           calculate D2E/DX2 analytically  !
 ! D29   D(4,3,7,23)          -155.8148         calculate D2E/DX2 analytically  !
 ! D30   D(4,3,7,35)           153.095          calculate D2E/DX2 analytically  !
 ! D31   D(3,4,6,5)             -7.4121         calculate D2E/DX2 analytically  !
 ! D32   D(3,4,6,28)           175.0384         calculate D2E/DX2 analytically  !
 ! D33   D(10,4,6,5)           166.2809         calculate D2E/DX2 analytically  !
 ! D34   D(10,4,6,28)          -11.2686         calculate D2E/DX2 analytically  !
 ! D35   D(3,4,10,9)             0.5349         calculate D2E/DX2 analytically  !
 ! D36   D(3,4,10,29)          177.5794         calculate D2E/DX2 analytically  !
 ! D37   D(6,4,10,9)          -173.074          calculate D2E/DX2 analytically  !
 ! D38   D(6,4,10,29)            3.9705         calculate D2E/DX2 analytically  !
 ! D39   D(1,5,6,4)             -3.5897         calculate D2E/DX2 analytically  !
 ! D40   D(1,5,6,28)           173.9283         calculate D2E/DX2 analytically  !
 ! D41   D(27,5,6,4)          -178.3511         calculate D2E/DX2 analytically  !
 ! D42   D(27,5,6,28)           -0.8332         calculate D2E/DX2 analytically  !
 ! D43   D(3,7,8,9)              1.6485         calculate D2E/DX2 analytically  !
 ! D44   D(3,7,8,11)           175.7927         calculate D2E/DX2 analytically  !
 ! D45   D(23,7,8,9)           136.478          calculate D2E/DX2 analytically  !
 ! D46   D(23,7,8,11)          -49.3778         calculate D2E/DX2 analytically  !
 ! D47   D(35,7,8,9)          -159.0261         calculate D2E/DX2 analytically  !
 ! D48   D(35,7,8,11)           15.1181         calculate D2E/DX2 analytically  !
 ! D49   D(3,7,23,22)           -6.953          calculate D2E/DX2 analytically  !
 ! D50   D(3,7,23,39)          131.7824         calculate D2E/DX2 analytically  !
 ! D51   D(8,7,23,22)         -147.1398         calculate D2E/DX2 analytically  !
 ! D52   D(8,7,23,39)           -8.4045         calculate D2E/DX2 analytically  !
 ! D53   D(3,7,35,36)         -172.4474         calculate D2E/DX2 analytically  !
 ! D54   D(3,7,35,37)          -34.3972         calculate D2E/DX2 analytically  !
 ! D55   D(8,7,35,36)          -12.5349         calculate D2E/DX2 analytically  !
 ! D56   D(8,7,35,37)          125.5153         calculate D2E/DX2 analytically  !
 ! D57   D(7,8,9,10)             4.7419         calculate D2E/DX2 analytically  !
 ! D58   D(7,8,9,14)          -177.5754         calculate D2E/DX2 analytically  !
 ! D59   D(11,8,9,10)         -169.4315         calculate D2E/DX2 analytically  !
 ! D60   D(11,8,9,14)            8.2512         calculate D2E/DX2 analytically  !
 ! D61   D(7,8,11,12)          176.8761         calculate D2E/DX2 analytically  !
 ! D62   D(7,8,11,15)           -6.3076         calculate D2E/DX2 analytically  !
 ! D63   D(9,8,11,12)           -9.0382         calculate D2E/DX2 analytically  !
 ! D64   D(9,8,11,15)          167.778          calculate D2E/DX2 analytically  !
 ! D65   D(8,9,10,4)            -6.0171         calculate D2E/DX2 analytically  !
 ! D66   D(8,9,10,29)          176.8998         calculate D2E/DX2 analytically  !
 ! D67   D(14,9,10,4)          176.3697         calculate D2E/DX2 analytically  !
 ! D68   D(14,9,10,29)          -0.7134         calculate D2E/DX2 analytically  !
 ! D69   D(8,9,14,13)           -2.0502         calculate D2E/DX2 analytically  !
 ! D70   D(8,9,14,30)          177.672          calculate D2E/DX2 analytically  !
 ! D71   D(10,9,14,13)         175.6383         calculate D2E/DX2 analytically  !
 ! D72   D(10,9,14,30)          -4.6395         calculate D2E/DX2 analytically  !
 ! D73   D(8,11,12,13)           3.4667         calculate D2E/DX2 analytically  !
 ! D74   D(8,11,12,18)        -178.2601         calculate D2E/DX2 analytically  !
 ! D75   D(15,11,12,13)       -173.3565         calculate D2E/DX2 analytically  !
 ! D76   D(15,11,12,18)          4.9166         calculate D2E/DX2 analytically  !
 ! D77   D(8,11,15,16)         178.721          calculate D2E/DX2 analytically  !
 ! D78   D(8,11,15,36)          -4.8036         calculate D2E/DX2 analytically  !
 ! D79   D(12,11,15,16)         -4.4573         calculate D2E/DX2 analytically  !
 ! D80   D(12,11,15,36)        172.018          calculate D2E/DX2 analytically  !
 ! D81   D(11,12,13,14)          2.7853         calculate D2E/DX2 analytically  !
 ! D82   D(11,12,13,31)       -179.4703         calculate D2E/DX2 analytically  !
 ! D83   D(18,12,13,14)       -175.4432         calculate D2E/DX2 analytically  !
 ! D84   D(18,12,13,31)          2.3012         calculate D2E/DX2 analytically  !
 ! D85   D(11,12,18,17)         -2.1314         calculate D2E/DX2 analytically  !
 ! D86   D(11,12,18,32)        178.7062         calculate D2E/DX2 analytically  !
 ! D87   D(13,12,18,17)        176.0839         calculate D2E/DX2 analytically  !
 ! D88   D(13,12,18,32)         -3.0784         calculate D2E/DX2 analytically  !
 ! D89   D(12,13,14,9)          -3.4982         calculate D2E/DX2 analytically  !
 ! D90   D(12,13,14,30)        176.7846         calculate D2E/DX2 analytically  !
 ! D91   D(31,13,14,9)         178.7944         calculate D2E/DX2 analytically  !
 ! D92   D(31,13,14,30)         -0.9229         calculate D2E/DX2 analytically  !
 ! D93   D(11,15,16,17)          1.2334         calculate D2E/DX2 analytically  !
 ! D94   D(11,15,16,33)       -179.9335         calculate D2E/DX2 analytically  !
 ! D95   D(36,15,16,17)       -175.1778         calculate D2E/DX2 analytically  !
 ! D96   D(36,15,16,33)          3.6552         calculate D2E/DX2 analytically  !
 ! D97   D(11,15,36,35)          6.9264         calculate D2E/DX2 analytically  !
 ! D98   D(11,15,36,38)       -176.9421         calculate D2E/DX2 analytically  !
 ! D99   D(16,15,36,35)       -176.7333         calculate D2E/DX2 analytically  !
 ! D100  D(16,15,36,38)         -0.6018         calculate D2E/DX2 analytically  !
 ! D101  D(15,16,17,18)          1.5589         calculate D2E/DX2 analytically  !
 ! D102  D(15,16,17,34)       -179.7502         calculate D2E/DX2 analytically  !
 ! D103  D(33,16,17,18)       -177.2611         calculate D2E/DX2 analytically  !
 ! D104  D(33,16,17,34)          1.4298         calculate D2E/DX2 analytically  !
 ! D105  D(16,17,18,12)         -1.1335         calculate D2E/DX2 analytically  !
 ! D106  D(16,17,18,32)        178.0157         calculate D2E/DX2 analytically  !
 ! D107  D(34,17,18,12)       -179.8187         calculate D2E/DX2 analytically  !
 ! D108  D(34,17,18,32)         -0.6696         calculate D2E/DX2 analytically  !
 ! D109  D(1,19,20,21)          -0.7013         calculate D2E/DX2 analytically  !
 ! D110  D(1,19,20,25)        -178.3868         calculate D2E/DX2 analytically  !
 ! D111  D(26,19,20,21)        176.0902         calculate D2E/DX2 analytically  !
 ! D112  D(26,19,20,25)         -1.5952         calculate D2E/DX2 analytically  !
 ! D113  D(19,20,21,22)          3.8961         calculate D2E/DX2 analytically  !
 ! D114  D(19,20,21,24)       -175.7706         calculate D2E/DX2 analytically  !
 ! D115  D(25,20,21,22)       -178.4064         calculate D2E/DX2 analytically  !
 ! D116  D(25,20,21,24)          1.9269         calculate D2E/DX2 analytically  !
 ! D117  D(20,21,22,2)          -1.5297         calculate D2E/DX2 analytically  !
 ! D118  D(20,21,22,23)       -177.1486         calculate D2E/DX2 analytically  !
 ! D119  D(24,21,22,2)         178.1315         calculate D2E/DX2 analytically  !
 ! D120  D(24,21,22,23)          2.5126         calculate D2E/DX2 analytically  !
 ! D121  D(2,22,23,7)            1.373          calculate D2E/DX2 analytically  !
 ! D122  D(2,22,23,35)          56.1191         calculate D2E/DX2 analytically  !
 ! D123  D(2,22,23,39)        -135.7066         calculate D2E/DX2 analytically  !
 ! D124  D(21,22,23,7)         177.2438         calculate D2E/DX2 analytically  !
 ! D125  D(21,22,23,35)       -128.0101         calculate D2E/DX2 analytically  !
 ! D126  D(21,22,23,39)         40.1642         calculate D2E/DX2 analytically  !
 ! D127  D(22,23,35,36)        164.8907         calculate D2E/DX2 analytically  !
 ! D128  D(22,23,35,37)         27.1502         calculate D2E/DX2 analytically  !
 ! D129  D(39,23,35,36)         -3.7122         calculate D2E/DX2 analytically  !
 ! D130  D(39,23,35,37)       -141.4528         calculate D2E/DX2 analytically  !
 ! D131  D(7,35,36,15)           1.711          calculate D2E/DX2 analytically  !
 ! D132  D(7,35,36,38)        -174.4904         calculate D2E/DX2 analytically  !
 ! D133  D(23,35,36,15)         85.429          calculate D2E/DX2 analytically  !
 ! D134  D(23,35,36,38)        -90.7724         calculate D2E/DX2 analytically  !
 ! D135  D(37,35,36,15)       -136.7735         calculate D2E/DX2 analytically  !
 ! D136  D(37,35,36,38)         47.0251         calculate D2E/DX2 analytically  !
 --------------------------------------------------------------------------------
 Trust Radius=3.00D-01 FncErr=1.00D-07 GrdErr=1.00D-06
 Number of steps in this run=    234 maximum allowed number of steps=    234.
 Search for a saddle point of order  1.
 GradGradGradGradGradGradGradGradGradGradGradGradGradGradGradGradGradGrad

                          Input orientation:                          
 ---------------------------------------------------------------------
 Center     Atomic      Atomic             Coordinates (Angstroms)
 Number     Number       Type             X           Y           Z
 ---------------------------------------------------------------------
      1          6           0       -3.764240    0.349790    0.159460
      2          6           0       -2.481670   -0.222670    0.139850
      3          6           0       -1.311100    0.534140    0.346170
      4          6           0       -1.368120    1.935770    0.339510
      5          6           0       -3.823820    1.769010    0.395840
      6          6           0       -2.684290    2.524370    0.444610
      7          6           0       -0.079100   -0.219240    0.259600
      8          6           0        1.130230    0.534130   -0.002930
      9          6           0        1.050870    1.948700   -0.123460
     10          6           0       -0.172480    2.640120    0.107800
     11          6           0        2.399750   -0.113980   -0.015800
     12          6           0        3.565060    0.619330   -0.338300
     13          6           0        3.447940    2.022980   -0.573030
     14          6           0        2.251050    2.662600   -0.435220
     15          6           0        2.507580   -1.507530    0.368320
     16          6           0        3.780810   -2.114480    0.313760
     17          6           0        4.913510   -1.392050   -0.073240
     18          6           0        4.821320   -0.048480   -0.383810
     19          6           0       -4.839670   -0.489700   -0.211190
     20          6           0       -4.591120   -1.777590   -0.661010
     21          6           0       -3.277450   -2.292260   -0.780410
     22          6           0       -2.211410   -1.518400   -0.362460
     23          6           0       -0.752470   -1.767230   -0.416420
     24          1           0       -3.124490   -3.280020   -1.201210
     25          1           0       -5.423850   -2.401130   -0.966820
     26          1           0       -5.855280   -0.108490   -0.193030
     27          1           0       -4.793390    2.253170    0.451560
     28          1           0       -2.759770    3.603940    0.525060
     29          1           0       -0.179290    3.723570    0.055410
     30          1           0        2.190320    3.737960   -0.566540
     31          1           0        4.341010    2.583260   -0.828940
     32          1           0        5.706860    0.516710   -0.652630
     33          1           0        3.875010   -3.157110    0.597540
     34          1           0        5.876380   -1.889550   -0.108500
     35          6           0        0.020510   -1.609420    0.854390
     36          6           0        1.382120   -2.193080    0.849380
     37          1           0       -0.551230   -1.780850    1.768840
     38          1           0        1.486630   -3.220960    1.180570
     39          1           0       -0.271750   -2.229660   -1.269880
 ---------------------------------------------------------------------
                    Distance matrix (angstroms):
                    1          2          3          4          5
     1  C    0.000000
     2  C    1.404664   0.000000
     3  C    2.467132   1.409100   0.000000
     4  C    2.879087   2.436949   1.402805   0.000000
     5  C    1.440004   2.415303   2.800202   2.462000   0.000000
     6  C    2.444668   2.771311   2.419991   1.445614   1.368019
     7  C    3.730158   2.405555   1.446686   2.512375   4.242007
     8  C    4.900631   3.693095   2.466164   2.885067   5.121187
     9  C    5.081520   4.154879   2.792926   2.462929   4.905565
    10  C    4.260167   3.678172   2.405915   1.406895   3.764848
    11  C    6.183896   4.885110   3.784374   4.304017   6.515207
    12  C    7.351126   6.123768   4.924702   5.150602   7.513739
    13  C    7.439869   6.380550   5.070506   4.902527   7.340416
    14  C    6.471974   5.572623   4.222538   3.771854   6.196225
    15  C    6.544386   5.157100   4.330268   5.184419   7.129032
    16  C    7.938779   6.544299   5.739668   6.551081   8.539241
    17  C    8.853897   7.490096   6.529309   7.120648   9.303401
    18  C    8.611945   7.323812   6.203136   6.539848   8.868459
    19  C    1.413745   2.398895   3.716141   4.270578   2.549943
    20  C    2.425417   2.740243   4.137274   5.017750   3.779425
    21  C    2.846181   2.400697   3.622741   4.772421   4.263332
    22  C    2.484716   1.415723   2.350667   3.624250   3.739244
    23  C    3.726147   2.384373   2.487954   3.829186   4.753730
    24  H    3.928896   3.399860   4.497842   5.715166   5.341567
    25  H    3.404464   3.824504   5.220581   6.079815   4.669797
    26  H    2.169497   3.391915   4.620961   4.959557   2.828180
    27  H    2.183421   3.401617   3.884909   3.441769   1.085164
    28  H    3.425218   3.855991   3.399164   2.180346   2.125057
    29  H    4.923930   4.569562   3.396763   2.165700   4.149554
    30  H    6.889380   6.165474   4.832954   4.090392   6.401001
    31  H    8.465247   7.440481   6.125857   5.863334   8.296236
    32  H    9.507318   8.259947   7.088700   7.283778   9.669612
    33  H    8.417149   7.016252   6.370577   7.313988   9.142173
    34  H    9.900909   8.526263   7.598741   8.204667  10.379465
    35  C    4.318074   2.948652   2.574164   3.842104   5.138378
    36  C    5.781626   4.394863   3.865797   4.987102   6.557871
    37  H    4.177698   2.967850   2.821448   4.064918   5.019610
    38  H    6.431528   5.081363   4.756500   5.953893   7.329153
    39  H    4.571002   3.301378   3.366074   4.598149   5.601891
                    6          7          8          9         10
     6  C    0.000000
     7  C    3.787960   0.000000
     8  C    4.325727   1.448781   0.000000
     9  C    3.821717   2.474577   1.421912   0.000000
    10  C    2.536933   2.864909   2.478812   1.424124   0.000000
    11  C    5.746332   2.496322   1.425445   2.466925   3.770505
    12  C    6.580008   3.786897   2.459294   2.852110   4.272213
    13  C    6.236283   4.261553   2.813089   2.439995   3.735215
    14  C    5.015056   3.770594   2.444074   1.430832   2.483722
    15  C    6.574006   2.891786   2.490642   3.782774   4.945057
    16  C    7.958239   4.300439   3.760452   4.914587   6.186852
    17  C    8.563474   5.139302   4.245977   5.107164   6.492955
    18  C    7.977469   4.945427   3.756148   4.274670   5.692828
    19  C    3.763025   4.791432   6.060636   6.375888   5.628516
    20  C    4.833762   4.861512   6.205720   6.782791   6.295364
    21  C    5.005241   3.950756   5.293449   6.095218   5.895602
    22  C    4.149574   2.573232   3.938109   4.766589   4.655284
    23  C    4.784468   1.818434   3.001965   4.140772   4.476151
    24  H    6.049251   4.558151   5.838344   6.777513   6.743584
    25  H    5.810153   5.901788   7.245744   7.845653   7.358390
    26  H    4.170577   5.794946   7.017581   7.206371   6.319776
    27  H    2.126476   5.326743   6.184734   5.880368   4.649808
    28  H    1.085192   4.676876   4.983433   4.204923   2.792333
    29  H    2.804386   3.949365   3.448300   2.166899   1.084737
    30  H    5.124163   4.635969   3.421399   2.167053   2.691247
    31  H    7.140045   5.345680   3.897478   3.424236   4.610022
    32  H    8.697473   5.903484   4.622549   4.899884   6.297123
    33  H    8.679114   4.937638   4.638926   5.879192   7.087305
    34  H    9.647471   6.196223   5.330226   6.165868   7.559987
    35  C    4.957024   1.515354   2.561500   3.831194   4.318939
    36  C    6.241303   2.525678   2.868372   4.267375   5.130940
    37  H    4.983819   2.222462   3.365354   4.478512   4.737877
    38  H    7.137719   3.508564   3.953276   5.349371   6.185122
    39  H    5.600056   2.533419   3.348021   4.530154   5.061879
                   11         12         13         14         15
    11  C    0.000000
    12  C    1.414107   0.000000
    13  C    2.444546   1.427953   0.000000
    14  C    2.812014   2.431248   1.364057   0.000000
    15  C    1.449537   2.478126   3.772919   4.254582   0.000000
    16  C    2.453148   2.818767   4.244499   5.071650   1.411552
    17  C    2.820594   2.436026   3.749682   4.864145   2.448839
    18  C    2.450250   1.423457   2.492574   3.736159   2.836885
    19  C    7.251796   8.478537   8.667697   7.763085   7.440020
    20  C    7.214995   8.507211   8.892613   8.159752   7.178022
    21  C    6.128632   7.449346   7.993446   7.431965   5.949954
    22  C    4.832739   6.159389   6.679368   6.115522   4.775251
    23  C    3.581930   4.933846   5.659829   5.352091   3.363211
    24  H    6.476591   7.790996   8.468368   8.049714   6.109448
    25  H    8.206352   9.503616   9.921516   9.210214   8.092509
    26  H    8.256934   9.449531   9.551831   8.570308   8.497638
    27  H    7.587034   8.553186   8.307966   7.111831   8.213036
    28  H    6.382484   7.046755   6.499300   5.188119   7.341435
    29  H    4.624209   4.879700   4.055088   2.696837   5.889108
    30  H    3.896744   3.415824   2.126689   1.085049   5.337582
    31  H    3.421226   2.167913   1.084886   2.128202   4.639985
    32  H    3.426412   2.167174   2.716230   4.073663   3.921132
    33  H    3.437036   3.902994   5.327847   6.129671   2.154883
    34  H    3.904894   3.418989   4.628283   5.828536   3.423757
    35  C    2.941828   4.353581   5.194144   4.988843   2.536171
    36  C    2.471187   3.753060   4.905713   5.097339   1.402875
    37  H    3.830363   5.210062   5.995568   5.696920   3.375275
    38  H    3.452306   4.623274   5.866921   6.149097   2.153586
    39  H    3.631216   4.868850   5.692683   5.567350   3.306032
                   16         17         18         19         20
    16  C    0.000000
    17  C    1.398100   0.000000
    18  C    2.416117   1.382076   0.000000
    19  C    8.787955   9.795805   9.672601   0.000000
    20  C    8.435217   9.530588   9.573959   1.386642   0.000000
    21  C    7.144778   8.270568   8.413199   2.452298   1.415934
    22  C    6.059644   7.131907   7.184735   2.826457   2.412329
    23  C    4.604821   5.688749   5.832864   4.287121   3.846448
    24  H    7.164969   8.333438   8.616664   3.421676   2.167975
    25  H    9.297732  10.424862  10.527980   2.136775   1.084325
    26  H    9.855712  10.845677  10.678473   1.084949   2.145460
    27  H    9.623526  10.382049   9.921597   2.822183   4.186377
    28  H    8.690464   9.175898   8.463991   4.650370   5.807019
    29  H    7.059176   7.219607   6.279122   6.288232   7.088037
    30  H    6.128266   5.828903   4.614399   8.210977   8.741747
    31  H    4.867068   4.086799   2.711991   9.701009   9.941235
    32  H    3.400991   2.146733   1.084382  10.603633  10.550463
    33  H    1.084658   2.154963   3.394426   9.149577   8.669624
    34  H    2.149491   1.084375   2.139740  10.807583  10.482669
    35  C    3.832391   4.984897   5.197831   5.100057   4.857144
    36  C    2.459020   3.736789   4.236527   6.537353   6.175233
    37  H    4.582045   5.779949   6.041465   4.896765   4.714328
    38  H    2.690524   4.081722   4.861283   7.029854   6.512586
    39  H    4.352519   5.387064   5.610885   5.001418   4.385436
                   21         22         23         24         25
    21  C    0.000000
    22  C    1.382021   0.000000
    23  C    2.604548   1.480991   0.000000
    24  H    1.084500   2.154187   2.920772   0.000000
    25  H    2.157228   3.385887   4.746215   2.472740   0.000000
    26  H    3.429151   3.910798   5.370288   4.304909   2.457861
    27  H    4.947399   4.642627   5.765938   6.011079   4.906301
    28  H    6.061140   5.227500   5.810775   7.106471   6.736757
    29  H    6.818167   5.637586   5.540762   7.700881   8.127873
    30  H    8.142837   6.859023   6.244171   8.826214   9.788985
    31  H    9.045108   7.744380   6.711220   9.500017  10.964290
    32  H    9.414057   8.180762   6.855299   9.628543  11.511091
    33  H    7.335148   6.375851   4.936948   7.227974   9.459785
    34  H    9.187287   8.100284   6.637125   9.172954  11.344321
    35  C    3.743712   2.543713   1.495781   4.111863   5.795228
    36  C    4.937372   3.851910   2.517950   5.069112   7.047205
    37  H    3.767292   2.714317   2.194549   4.205993   5.622367
    38  H    5.234920   4.353751   3.110832   5.190259   7.282729
    39  H    3.045937   2.256454   1.083202   3.040740   5.163853
                   26         27         28         29         30
    26  H    0.000000
    27  H    2.668435   0.000000
    28  H    4.886714   2.442456   0.000000
    29  H    6.852975   4.858902   2.625597   0.000000
    30  H    8.925602   7.212027   5.070793   2.449914   0.000000
    31  H   10.564764   9.229621   7.300423   4.745049   2.455128
    32  H   11.588149  10.699990   9.088551   6.740329   4.769687
    33  H   10.227298  10.219276   9.472980   8.004687   7.192722
    34  H   11.866388  11.459485  10.254897   8.258639   6.742826
    35  C    6.154250   6.185104   5.917562   5.396209   5.943197
    36  C    7.603426   7.619995   7.132032   6.170505   6.151037
    37  H    5.897344   6.000372   5.951521   5.776921   6.589944
    38  H    8.091841   8.362787   8.064792   7.229645   7.209309
    39  H    6.069166   6.595783   6.591126   6.099663   6.493763
                   31         32         33         34         35
    31  H    0.000000
    32  H    2.483397   0.000000
    33  H    5.933283   4.291335   0.000000
    34  H    4.783558   2.472833   2.471980   0.000000
    35  C    6.251311   6.255087   4.161549   5.941115   0.000000
    36  C    5.863891   5.319997   2.684637   4.605219   1.481440
    37  H    7.051803   7.092672   4.780966   6.697043   1.092014
    38  H    6.773078   5.927996   2.459341   4.764899   2.202944
    39  H    6.681031   6.608126   4.641448   6.266098   2.232182
                   36         37         38         39
    36  C    0.000000
    37  H    2.180179   0.000000
    38  H    1.084964   2.563757   0.000000
    39  H    2.688473   3.084373   3.174788   0.000000
 Stoichiometry    C25H14
 Framework group  C1[X(C25H14)]
 Deg. of freedom   111
 Full point group                 C1      NOp   1
 Largest Abelian subgroup         C1      NOp   1
 Largest concise Abelian subgroup C1      NOp   1
                         Standard orientation:                         
 ---------------------------------------------------------------------
 Center     Atomic      Atomic             Coordinates (Angstroms)
 Number     Number       Type             X           Y           Z
 ---------------------------------------------------------------------
      1          6           0       -3.764240    0.349789    0.159461
      2          6           0       -2.481670   -0.222670    0.139851
      3          6           0       -1.311100    0.534140    0.346171
      4          6           0       -1.368121    1.935770    0.339511
      5          6           0       -3.823821    1.769009    0.395841
      6          6           0       -2.684291    2.524370    0.444611
      7          6           0       -0.079100   -0.219239    0.259601
      8          6           0        1.130230    0.534132   -0.002929
      9          6           0        1.050869    1.948702   -0.123459
     10          6           0       -0.172481    2.640121    0.107801
     11          6           0        2.399750   -0.113978   -0.015799
     12          6           0        3.565060    0.619333   -0.338299
     13          6           0        3.447939    2.022983   -0.573029
     14          6           0        2.251049    2.662602   -0.435219
     15          6           0        2.507581   -1.507528    0.368321
     16          6           0        3.780811   -2.114477    0.313761
     17          6           0        4.913511   -1.392047   -0.073239
     18          6           0        4.821320   -0.048477   -0.383809
     19          6           0       -4.839670   -0.489701   -0.211189
     20          6           0       -4.591119   -1.777591   -0.661009
     21          6           0       -3.277449   -2.292260   -0.780409
     22          6           0       -2.211409   -1.518400   -0.362459
     23          6           0       -0.752469   -1.767229   -0.416419
     24          1           0       -3.124489   -3.280020   -1.201209
     25          1           0       -5.423849   -2.401131   -0.966819
     26          1           0       -5.855280   -0.108492   -0.193029
     27          1           0       -4.793391    2.253169    0.451561
     28          1           0       -2.759772    3.603940    0.525061
     29          1           0       -0.179292    3.723571    0.055411
     30          1           0        2.190318    3.737962   -0.566539
     31          1           0        4.341009    2.583263   -0.828939
     32          1           0        5.706860    0.516714   -0.652629
     33          1           0        3.875011   -3.157107    0.597541
     34          1           0        5.876381   -1.889546   -0.108499
     35          6           0        0.020511   -1.609419    0.854391
     36          6           0        1.382121   -2.193078    0.849381
     37          1           0       -0.551229   -1.780849    1.768841
     38          1           0        1.486631   -3.220958    1.180571
     39          1           0       -0.271749   -2.229659   -1.269879
 ---------------------------------------------------------------------
 Rotational constants (GHZ):      0.5226820      0.1773160      0.1371467
 Standard basis: 6-311+G(d,p) (5D, 7F)
 There are   659 symmetry adapted cartesian basis functions of A   symmetry.
 There are   634 symmetry adapted basis functions of A   symmetry.
   634 basis functions,  1012 primitive gaussians,   659 cartesian basis functions
    82 alpha electrons       82 beta electrons
       nuclear repulsion energy      1957.1917493753 Hartrees.
 NAtoms=   39 NActive=   39 NUniq=   39 SFac= 1.00D+00 NAtFMM=   60 NAOKFM=F Big=F
 Integral buffers will be    131072 words long.
 Raffenetti 2 integral format.
 Two-electron integral symmetry is turned on.
 One-electron integrals computed using PRISM.
 NBasis=   634 RedAO= T EigKep=  1.04D-06  NBF=   634
 NBsUse=   620 1.00D-06 EigRej=  7.65D-07 NBFU=   620
 ExpMin= 4.38D-02 ExpMax= 4.56D+03 ExpMxC= 6.82D+02 IAcc=2 IRadAn=         4 AccDes= 0.00D+00
 Harris functional with IExCor=  402 and IRadAn=       4 diagonalized for initial guess.
 HarFok:  IExCor=  402 AccDes= 0.00D+00 IRadAn=         4 IDoV= 1 UseB2=F ITyADJ=14
 ICtDFT=  3500011 ScaDFX=  1.000000  1.000000  1.000000  1.000000
 FoFCou: FMM=F IPFlag=           0 FMFlag=      100000 FMFlg1=           0
         NFxFlg=           0 DoJE=T BraDBF=F KetDBF=T FulRan=T
         wScrn=  0.000000 ICntrl=     500 IOpCl=  0 I1Cent=   200000004 NGrid=           0
         NMat0=    1 NMatS0=      1 NMatT0=    0 NMatD0=    1 NMtDS0=    0 NMtDT0=    0
 Petite list used in FoFCou.
 Requested convergence on RMS density matrix=1.00D-08 within 128 cycles.
 Requested convergence on MAX density matrix=1.00D-06.
 Requested convergence on             energy=1.00D-06.
 No special actions if energy rises.
 EnCoef did     4 forward-backward iterations
 SCF Done:  E(RB3LYP) =  -961.255163826     A.U. after   18 cycles
            NFock= 18  Conv=0.72D-08     -V/T= 2.0046
 DoSCS=F DFT=T ScalE2(SS,OS)=  1.000000  1.000000
 Range of M.O.s used for correlation:     1   620
 NBasis=   634 NAE=    82 NBE=    82 NFC=     0 NFV=     0
 NROrb=    620 NOA=    82 NOB=    82 NVA=   538 NVB=   538

 **** Warning!!: The largest alpha MO coefficient is  0.16318916D+03


 **** Warning!!: The smallest alpha delta epsilon is  0.57312285D-01

 Symmetrizing basis deriv contribution to polar:
 IMax=3 JMax=2 DiffMx= 0.00D+00
 G2DrvN: will do    40 centers at a time, making    1 passes.
 Calling FoFCou, ICntrl=  3107 FMM=F I1Cent=   0 AccDes= 0.00D+00.
 End of G2Drv F.D. properties file   721 does not exist.
 End of G2Drv F.D. properties file   722 does not exist.
 End of G2Drv F.D. properties file   788 does not exist.
          IDoAtm=111111111111111111111111111111111111111
          Differentiating once with respect to nuclear coordinates.
          There are   120 degrees of freedom in the 1st order CPHF.  IDoFFX=6 NUNeed=     0.
    117 vectors produced by pass  0 Test12= 4.41D-14 1.00D-09 XBig12= 2.88D-01 1.44D-01.
 AX will form   117 AO Fock derivatives at one time.
    114 vectors produced by pass  1 Test12= 4.41D-14 1.00D-09 XBig12= 6.64D-02 5.89D-02.
    114 vectors produced by pass  2 Test12= 4.41D-14 1.00D-09 XBig12= 8.83D-04 3.83D-03.
    114 vectors produced by pass  3 Test12= 4.41D-14 1.00D-09 XBig12= 4.22D-06 1.93D-04.
    114 vectors produced by pass  4 Test12= 4.41D-14 1.00D-09 XBig12= 1.26D-08 9.62D-06.
    114 vectors produced by pass  5 Test12= 4.41D-14 1.00D-09 XBig12= 6.64D-11 8.20D-07.
    114 vectors produced by pass  6 Test12= 4.41D-14 1.00D-09 XBig12= 1.41D-11 2.94D-07.
    108 vectors produced by pass  7 Test12= 4.41D-14 1.00D-09 XBig12= 1.39D-12 8.66D-08.
     68 vectors produced by pass  8 Test12= 4.41D-14 1.00D-09 XBig12= 2.86D-14 1.47D-08.
     27 vectors produced by pass  9 Test12= 4.41D-14 1.00D-09 XBig12= 5.82D-16 1.63D-09.
     27 vectors produced by pass 10 Test12= 4.41D-14 1.00D-09 XBig12= 7.19D-14 1.75D-08.
     27 vectors produced by pass 11 Test12= 4.41D-14 1.00D-09 XBig12= 5.56D-13 4.56D-08.
     27 vectors produced by pass 12 Test12= 4.41D-14 1.00D-09 XBig12= 8.29D-14 1.88D-08.
     27 vectors produced by pass 13 Test12= 4.41D-14 1.00D-09 XBig12= 2.06D-13 2.75D-08.
     27 vectors produced by pass 14 Test12= 4.41D-14 1.00D-09 XBig12= 1.65D-13 2.21D-08.
     27 vectors produced by pass 15 Test12= 4.41D-14 1.00D-09 XBig12= 1.08D-13 2.19D-08.
     27 vectors produced by pass 16 Test12= 4.41D-14 1.00D-09 XBig12= 8.57D-14 1.68D-08.
     27 vectors produced by pass 17 Test12= 4.41D-14 1.00D-09 XBig12= 7.31D-14 1.88D-08.
     27 vectors produced by pass 18 Test12= 4.41D-14 1.00D-09 XBig12= 7.35D-14 1.57D-08.
     27 vectors produced by pass 19 Test12= 4.41D-14 1.00D-09 XBig12= 4.27D-14 1.15D-08.
     27 vectors produced by pass 20 Test12= 4.41D-14 1.00D-09 XBig12= 9.18D-14 1.84D-08.
     27 vectors produced by pass 21 Test12= 4.41D-14 1.00D-09 XBig12= 9.45D-14 1.72D-08.
     27 vectors produced by pass 22 Test12= 4.41D-14 1.00D-09 XBig12= 8.78D-14 2.17D-08.
     27 vectors produced by pass 23 Test12= 4.41D-14 1.00D-09 XBig12= 6.36D-14 1.33D-08.
     25 vectors produced by pass 24 Test12= 4.41D-14 1.00D-09 XBig12= 1.76D-14 7.11D-09.
     25 vectors produced by pass 25 Test12= 4.41D-14 1.00D-09 XBig12= 2.69D-14 8.54D-09.
     25 vectors produced by pass 26 Test12= 4.41D-14 1.00D-09 XBig12= 5.42D-14 1.18D-08.
     25 vectors produced by pass 27 Test12= 4.41D-14 1.00D-09 XBig12= 9.42D-14 1.59D-08.
     21 vectors produced by pass 28 Test12= 4.41D-14 1.00D-09 XBig12= 2.47D-14 8.16D-09.
     21 vectors produced by pass 29 Test12= 4.41D-14 1.00D-09 XBig12= 5.41D-14 1.41D-08.
     21 vectors produced by pass 30 Test12= 4.41D-14 1.00D-09 XBig12= 4.46D-14 9.79D-09.
     15 vectors produced by pass 31 Test12= 4.41D-14 1.00D-09 XBig12= 1.50D-14 6.46D-09.
     15 vectors produced by pass 32 Test12= 4.41D-14 1.00D-09 XBig12= 3.03D-14 8.35D-09.
     15 vectors produced by pass 33 Test12= 4.41D-14 1.00D-09 XBig12= 3.03D-14 8.12D-09.
     15 vectors produced by pass 34 Test12= 4.41D-14 1.00D-09 XBig12= 3.38D-14 8.78D-09.
     15 vectors produced by pass 35 Test12= 4.41D-14 1.00D-09 XBig12= 2.94D-14 8.48D-09.
     15 vectors produced by pass 36 Test12= 4.41D-14 1.00D-09 XBig12= 6.93D-14 1.30D-08.
     15 vectors produced by pass 37 Test12= 4.41D-14 1.00D-09 XBig12= 2.43D-14 7.72D-09.
     15 vectors produced by pass 38 Test12= 4.41D-14 1.00D-09 XBig12= 3.59D-14 8.62D-09.
     15 vectors produced by pass 39 Test12= 4.41D-14 1.00D-09 XBig12= 1.62D-14 6.00D-09.
     15 vectors produced by pass 40 Test12= 4.41D-14 1.00D-09 XBig12= 3.22D-14 1.05D-08.
     15 vectors produced by pass 41 Test12= 4.41D-14 1.00D-09 XBig12= 2.47D-14 8.16D-09.
     15 vectors produced by pass 42 Test12= 4.41D-14 1.00D-09 XBig12= 3.38D-14 8.64D-09.
     15 vectors produced by pass 43 Test12= 4.41D-14 1.00D-09 XBig12= 4.89D-14 1.14D-08.
     15 vectors produced by pass 44 Test12= 4.41D-14 1.00D-09 XBig12= 1.53D-14 6.44D-09.
     14 vectors produced by pass 45 Test12= 4.41D-14 1.00D-09 XBig12= 1.86D-14 6.95D-09.
     12 vectors produced by pass 46 Test12= 4.41D-14 1.00D-09 XBig12= 1.28D-14 5.31D-09.
     12 vectors produced by pass 47 Test12= 4.41D-14 1.00D-09 XBig12= 3.20D-14 8.25D-09.
     10 vectors produced by pass 48 Test12= 4.41D-14 1.00D-09 XBig12= 7.60D-15 4.60D-09.
     10 vectors produced by pass 49 Test12= 4.41D-14 1.00D-09 XBig12= 2.25D-14 8.09D-09.
     10 vectors produced by pass 50 Test12= 4.41D-14 1.00D-09 XBig12= 1.31D-14 5.79D-09.
     10 vectors produced by pass 51 Test12= 4.41D-14 1.00D-09 XBig12= 2.98D-14 7.08D-09.
     10 vectors produced by pass 52 Test12= 4.41D-14 1.00D-09 XBig12= 3.50D-14 8.33D-09.
     10 vectors produced by pass 53 Test12= 4.41D-14 1.00D-09 XBig12= 1.76D-14 6.28D-09.
     10 vectors produced by pass 54 Test12= 4.41D-14 1.00D-09 XBig12= 1.61D-14 6.80D-09.
     10 vectors produced by pass 55 Test12= 4.41D-14 1.00D-09 XBig12= 2.25D-14 7.07D-09.
      8 vectors produced by pass 56 Test12= 4.41D-14 1.00D-09 XBig12= 6.28D-15 3.54D-09.
      8 vectors produced by pass 57 Test12= 4.41D-14 1.00D-09 XBig12= 2.59D-14 7.00D-09.
      8 vectors produced by pass 58 Test12= 4.41D-14 1.00D-09 XBig12= 1.77D-14 6.33D-09.
      7 vectors produced by pass 59 Test12= 4.41D-14 1.00D-09 XBig12= 4.44D-15 3.20D-09.
      7 vectors produced by pass 60 Test12= 4.41D-14 1.00D-09 XBig12= 1.04D-14 5.00D-09.
      7 vectors produced by pass 61 Test12= 4.41D-14 1.00D-09 XBig12= 5.10D-15 3.73D-09.
      7 vectors produced by pass 62 Test12= 4.41D-14 1.00D-09 XBig12= 2.30D-14 9.09D-09.
      7 vectors produced by pass 63 Test12= 4.41D-14 1.00D-09 XBig12= 1.39D-14 6.06D-09.
      7 vectors produced by pass 64 Test12= 4.41D-14 1.00D-09 XBig12= 8.94D-15 4.60D-09.
      7 vectors produced by pass 65 Test12= 4.41D-14 1.00D-09 XBig12= 1.52D-14 5.57D-09.
      7 vectors produced by pass 66 Test12= 4.41D-14 1.00D-09 XBig12= 8.08D-15 4.29D-09.
      7 vectors produced by pass 67 Test12= 4.41D-14 1.00D-09 XBig12= 1.73D-14 6.01D-09.
      7 vectors produced by pass 68 Test12= 4.41D-14 1.00D-09 XBig12= 7.38D-15 3.64D-09.
      7 vectors produced by pass 69 Test12= 4.41D-14 1.00D-09 XBig12= 1.01D-14 4.64D-09.
      7 vectors produced by pass 70 Test12= 4.41D-14 1.00D-09 XBig12= 8.44D-15 3.96D-09.
      7 vectors produced by pass 71 Test12= 4.41D-14 1.00D-09 XBig12= 1.25D-14 4.87D-09.
      7 vectors produced by pass 72 Test12= 4.41D-14 1.00D-09 XBig12= 1.99D-14 7.46D-09.
      7 vectors produced by pass 73 Test12= 4.41D-14 1.00D-09 XBig12= 1.78D-14 5.43D-09.
      7 vectors produced by pass 74 Test12= 4.41D-14 1.00D-09 XBig12= 1.68D-14 5.45D-09.
      7 vectors produced by pass 75 Test12= 4.41D-14 1.00D-09 XBig12= 1.23D-14 4.98D-09.
      7 vectors produced by pass 76 Test12= 4.41D-14 1.00D-09 XBig12= 1.53D-14 5.10D-09.
      7 vectors produced by pass 77 Test12= 4.41D-14 1.00D-09 XBig12= 1.47D-14 5.17D-09.
      5 vectors produced by pass 78 Test12= 4.41D-14 1.00D-09 XBig12= 6.15D-15 3.82D-09.
      5 vectors produced by pass 79 Test12= 4.41D-14 1.00D-09 XBig12= 1.37D-14 5.02D-09.
      4 vectors produced by pass 80 Test12= 4.41D-14 1.00D-09 XBig12= 5.04D-15 2.82D-09.
      4 vectors produced by pass 81 Test12= 4.41D-14 1.00D-09 XBig12= 1.63D-14 5.37D-09.
      4 vectors produced by pass 82 Test12= 4.41D-14 1.00D-09 XBig12= 1.65D-14 5.56D-09.
      4 vectors produced by pass 83 Test12= 4.41D-14 1.00D-09 XBig12= 4.02D-15 3.07D-09.
      4 vectors produced by pass 84 Test12= 4.41D-14 1.00D-09 XBig12= 1.33D-14 4.73D-09.
      4 vectors produced by pass 85 Test12= 4.41D-14 1.00D-09 XBig12= 6.67D-15 3.09D-09.
      4 vectors produced by pass 86 Test12= 4.41D-14 1.00D-09 XBig12= 1.25D-14 5.79D-09.
      4 vectors produced by pass 87 Test12= 4.41D-14 1.00D-09 XBig12= 1.06D-14 4.43D-09.
      4 vectors produced by pass 88 Test12= 4.41D-14 1.00D-09 XBig12= 1.40D-14 5.22D-09.
      4 vectors produced by pass 89 Test12= 4.41D-14 1.00D-09 XBig12= 6.00D-15 3.96D-09.
      4 vectors produced by pass 90 Test12= 4.41D-14 1.00D-09 XBig12= 2.23D-14 5.64D-09.
      4 vectors produced by pass 91 Test12= 4.41D-14 1.00D-09 XBig12= 1.15D-14 4.54D-09.
      4 vectors produced by pass 92 Test12= 4.41D-14 1.00D-09 XBig12= 1.43D-14 5.34D-09.
      4 vectors produced by pass 93 Test12= 4.41D-14 1.00D-09 XBig12= 6.72D-15 3.44D-09.
      4 vectors produced by pass 94 Test12= 4.41D-14 1.00D-09 XBig12= 1.39D-14 4.85D-09.
      4 vectors produced by pass 95 Test12= 4.41D-14 1.00D-09 XBig12= 7.05D-15 3.63D-09.
      4 vectors produced by pass 96 Test12= 4.41D-14 1.00D-09 XBig12= 1.48D-14 5.40D-09.
      4 vectors produced by pass 97 Test12= 4.41D-14 1.00D-09 XBig12= 8.21D-15 3.68D-09.
      4 vectors produced by pass 98 Test12= 4.41D-14 1.00D-09 XBig12= 1.09D-14 4.20D-09.
      4 vectors produced by pass 99 Test12= 4.41D-14 1.00D-09 XBig12= 1.62D-14 5.04D-09.
      4 vectors produced by pass100 Test12= 4.41D-14 1.00D-09 XBig12= 5.21D-15 3.69D-09.
      4 vectors produced by pass101 Test12= 4.41D-14 1.00D-09 XBig12= 5.52D-15 3.28D-09.
      4 vectors produced by pass102 Test12= 4.41D-14 1.00D-09 XBig12= 1.60D-14 5.34D-09.
      4 vectors produced by pass103 Test12= 4.41D-14 1.00D-09 XBig12= 6.61D-15 3.37D-09.
      4 vectors produced by pass104 Test12= 4.41D-14 1.00D-09 XBig12= 1.56D-14 5.48D-09.
      4 vectors produced by pass105 Test12= 4.41D-14 1.00D-09 XBig12= 7.80D-15 4.05D-09.
      4 vectors produced by pass106 Test12= 4.41D-14 1.00D-09 XBig12= 9.43D-15 3.94D-09.
      4 vectors produced by pass107 Test12= 4.41D-14 1.00D-09 XBig12= 5.25D-15 3.66D-09.
      4 vectors produced by pass108 Test12= 4.41D-14 1.00D-09 XBig12= 1.55D-14 4.96D-09.
      4 vectors produced by pass109 Test12= 4.41D-14 1.00D-09 XBig12= 6.83D-15 3.49D-09.
      4 vectors produced by pass110 Test12= 4.41D-14 1.00D-09 XBig12= 9.05D-15 4.32D-09.
      4 vectors produced by pass111 Test12= 4.41D-14 1.00D-09 XBig12= 1.32D-14 4.87D-09.
      4 vectors produced by pass112 Test12= 4.41D-14 1.00D-09 XBig12= 7.71D-15 4.02D-09.
      4 vectors produced by pass113 Test12= 4.41D-14 1.00D-09 XBig12= 7.08D-15 3.47D-09.
      4 vectors produced by pass114 Test12= 4.41D-14 1.00D-09 XBig12= 5.41D-15 3.34D-09.
      4 vectors produced by pass115 Test12= 4.41D-14 1.00D-09 XBig12= 2.26D-15 1.91D-09.
      4 vectors produced by pass116 Test12= 4.41D-14 1.00D-09 XBig12= 8.78D-15 4.51D-09.
      4 vectors produced by pass117 Test12= 4.41D-14 1.00D-09 XBig12= 6.70D-15 3.70D-09.
      4 vectors produced by pass118 Test12= 4.41D-14 1.00D-09 XBig12= 9.12D-15 3.63D-09.
      4 vectors produced by pass119 Test12= 4.41D-14 1.00D-09 XBig12= 5.85D-15 3.23D-09.
      4 vectors produced by pass120 Test12= 4.41D-14 1.00D-09 XBig12= 1.19D-14 5.05D-09.
      4 vectors produced by pass121 Test12= 4.41D-14 1.00D-09 XBig12= 9.30D-15 5.91D-09.
      4 vectors produced by pass122 Test12= 4.41D-14 1.00D-09 XBig12= 8.96D-15 3.72D-09.
      4 vectors produced by pass123 Test12= 4.41D-14 1.00D-09 XBig12= 7.61D-15 3.73D-09.
      4 vectors produced by pass124 Test12= 4.41D-14 1.00D-09 XBig12= 1.24D-14 4.45D-09.
      4 vectors produced by pass125 Test12= 4.41D-14 1.00D-09 XBig12= 4.17D-15 2.48D-09.
      4 vectors produced by pass126 Test12= 4.41D-14 1.00D-09 XBig12= 1.33D-14 5.05D-09.
      4 vectors produced by pass127 Test12= 4.41D-14 1.00D-09 XBig12= 3.00D-15 2.29D-09.
      4 vectors produced by pass128 Test12= 4.41D-14 1.00D-09 XBig12= 1.01D-14 3.96D-09.
      4 vectors produced by pass129 Test12= 4.41D-14 1.00D-09 XBig12= 6.22D-15 3.16D-09.
      4 vectors produced by pass130 Test12= 4.41D-14 1.00D-09 XBig12= 1.09D-14 4.27D-09.
      4 vectors produced by pass131 Test12= 4.41D-14 1.00D-09 XBig12= 7.82D-15 3.59D-09.
      4 vectors produced by pass132 Test12= 4.41D-14 1.00D-09 XBig12= 6.35D-15 2.97D-09.
      4 vectors produced by pass133 Test12= 4.41D-14 1.00D-09 XBig12= 8.56D-15 3.88D-09.
      4 vectors produced by pass134 Test12= 4.41D-14 1.00D-09 XBig12= 8.14D-15 4.27D-09.
      4 vectors produced by pass135 Test12= 4.41D-14 1.00D-09 XBig12= 1.11D-14 4.41D-09.
      4 vectors produced by pass136 Test12= 4.41D-14 1.00D-09 XBig12= 5.92D-15 3.33D-09.
      4 vectors produced by pass137 Test12= 4.41D-14 1.00D-09 XBig12= 8.85D-15 3.99D-09.
      4 vectors produced by pass138 Test12= 4.41D-14 1.00D-09 XBig12= 5.92D-15 3.59D-09.
      4 vectors produced by pass139 Test12= 4.41D-14 1.00D-09 XBig12= 6.26D-15 3.50D-09.
      4 vectors produced by pass140 Test12= 4.41D-14 1.00D-09 XBig12= 7.89D-15 3.49D-09.
      4 vectors produced by pass141 Test12= 4.41D-14 1.00D-09 XBig12= 9.72D-15 3.81D-09.
      4 vectors produced by pass142 Test12= 4.41D-14 1.00D-09 XBig12= 5.28D-15 2.88D-09.
      4 vectors produced by pass143 Test12= 4.41D-14 1.00D-09 XBig12= 9.50D-15 3.93D-09.
      3 vectors produced by pass144 Test12= 4.41D-14 1.00D-09 XBig12= 4.03D-15 3.00D-09.
      3 vectors produced by pass145 Test12= 4.41D-14 1.00D-09 XBig12= 7.82D-15 3.92D-09.
      3 vectors produced by pass146 Test12= 4.41D-14 1.00D-09 XBig12= 6.52D-15 3.25D-09.
      3 vectors produced by pass147 Test12= 4.41D-14 1.00D-09 XBig12= 9.12D-15 3.88D-09.
      3 vectors produced by pass148 Test12= 4.41D-14 1.00D-09 XBig12= 6.22D-15 3.18D-09.
      3 vectors produced by pass149 Test12= 4.41D-14 1.00D-09 XBig12= 5.50D-15 2.72D-09.
      3 vectors produced by pass150 Test12= 4.41D-14 1.00D-09 XBig12= 1.04D-14 4.13D-09.
      3 vectors produced by pass151 Test12= 4.41D-14 1.00D-09 XBig12= 3.04D-15 2.05D-09.
      3 vectors produced by pass152 Test12= 4.41D-14 1.00D-09 XBig12= 9.49D-15 3.59D-09.
      3 vectors produced by pass153 Test12= 4.41D-14 1.00D-09 XBig12= 4.27D-15 2.80D-09.
      2 vectors produced by pass154 Test12= 4.41D-14 1.00D-09 XBig12= 1.47D-15 1.48D-09.
 InvSVY:  IOpt=1 It=  1 EMax= 1.05D-15
 Solved reduced A of dimension  2328 with   120 vectors.
 End of Minotr F.D. properties file   721 does not exist.
 End of Minotr F.D. properties file   722 does not exist.
 End of Minotr F.D. properties file   788 does not exist.

 **********************************************************************

            Population analysis using the SCF density.

 **********************************************************************

 Orbital symmetries:
       Occupied  (A) (A) (A) (A) (A) (A) (A) (A) (A) (A) (A) (A)
                 (A) (A) (A) (A) (A) (A) (A) (A) (A) (A) (A) (A)
                 (A) (A) (A) (A) (A) (A) (A) (A) (A) (A) (A) (A)
                 (A) (A) (A) (A) (A) (A) (A) (A) (A) (A) (A) (A)
                 (A) (A) (A) (A) (A) (A) (A) (A) (A) (A) (A) (A)
                 (A) (A) (A) (A) (A) (A) (A) (A) (A) (A) (A) (A)
                 (A) (A) (A) (A) (A) (A) (A) (A) (A) (A)
       Virtual   (A) (A) (A) (A) (A) (A) (A) (A) (A) (A) (A) (A)
                 (A) (A) (A) (A) (A) (A) (A) (A) (A) (A) (A) (A)
                 (A) (A) (A) (A) (A) (A) (A) (A) (A) (A) (A) (A)
                 (A) (A) (A) (A) (A) (A) (A) (A) (A) (A) (A) (A)
                 (A) (A) (A) (A) (A) (A) (A) (A) (A) (A) (A) (A)
                 (A) (A) (A) (A) (A) (A) (A) (A) (A) (A) (A) (A)
                 (A) (A) (A) (A) (A) (A) (A) (A) (A) (A) (A) (A)
                 (A) (A) (A) (A) (A) (A) (A) (A) (A) (A) (A) (A)
                 (A) (A) (A) (A) (A) (A) (A) (A) (A) (A) (A) (A)
                 (A) (A) (A) (A) (A) (A) (A) (A) (A) (A) (A) (A)
                 (A) (A) (A) (A) (A) (A) (A) (A) (A) (A) (A) (A)
                 (A) (A) (A) (A) (A) (A) (A) (A) (A) (A) (A) (A)
                 (A) (A) (A) (A) (A) (A) (A) (A) (A) (A) (A) (A)
                 (A) (A) (A) (A) (A) (A) (A) (A) (A) (A) (A) (A)
                 (A) (A) (A) (A) (A) (A) (A) (A) (A) (A) (A) (A)
                 (A) (A) (A) (A) (A) (A) (A) (A) (A) (A) (A) (A)
                 (A) (A) (A) (A) (A) (A) (A) (A) (A) (A) (A) (A)
                 (A) (A) (A) (A) (A) (A) (A) (A) (A) (A) (A) (A)
                 (A) (A) (A) (A) (A) (A) (A) (A) (A) (A) (A) (A)
                 (A) (A) (A) (A) (A) (A) (A) (A) (A) (A) (A) (A)
                 (A) (A) (A) (A) (A) (A) (A) (A) (A) (A) (A) (A)
                 (A) (A) (A) (A) (A) (A) (A) (A) (A) (A) (A) (A)
                 (A) (A) (A) (A) (A) (A) (A) (A) (A) (A) (A) (A)
                 (A) (A) (A) (A) (A) (A) (A) (A) (A) (A) (A) (A)
                 (A) (A) (A) (A) (A) (A) (A) (A) (A) (A) (A) (A)
                 (A) (A) (A) (A) (A) (A) (A) (A) (A) (A) (A) (A)
                 (A) (A) (A) (A) (A) (A) (A) (A) (A) (A) (A) (A)
                 (A) (A) (A) (A) (A) (A) (A) (A) (A) (A) (A) (A)
                 (A) (A) (A) (A) (A) (A) (A) (A) (A) (A) (A) (A)
                 (A) (A) (A) (A) (A) (A) (A) (A) (A) (A) (A) (A)
                 (A) (A) (A) (A) (A) (A) (A) (A) (A) (A) (A) (A)
                 (A) (A) (A) (A) (A) (A) (A) (A) (A) (A) (A) (A)
                 (A) (A) (A) (A) (A) (A) (A) (A) (A) (A) (A) (A)
                 (A) (A) (A) (A) (A) (A) (A) (A) (A) (A) (A) (A)
                 (A) (A) (A) (A) (A) (A) (A) (A) (A) (A) (A) (A)
                 (A) (A) (A) (A) (A) (A) (A) (A) (A) (A) (A) (A)
                 (A) (A) (A) (A) (A) (A) (A) (A) (A) (A) (A) (A)
                 (A) (A) (A) (A) (A) (A) (A) (A) (A) (A) (A) (A)
                 (A) (A) (A) (A) (A) (A) (A) (A) (A) (A) (A) (A)
                 (A) (A) (A) (A) (A) (A) (A) (A) (A) (A) (A) (A)
                 (A) (A) (A) (A) (A) (A) (A) (A) (A) (A) (A) (A)
                 (A) (A) (A) (A) (A) (A) (A) (A) (A) (A) (A) (A)
                 (A) (A) (A) (A) (A) (A) (A) (A) (A) (A) (A) (A)
                 (A) (A) (A) (A) (A) (A) (A) (A) (A) (A) (A) (A)
                 (A) (A) (A) (A) (A) (A) (A) (A) (A) (A)
 The electronic state is 1-A.
 Alpha  occ. eigenvalues --  -10.21349 -10.20841 -10.20705 -10.20045 -10.19712
 Alpha  occ. eigenvalues --  -10.19433 -10.19409 -10.19171 -10.19032 -10.19009
 Alpha  occ. eigenvalues --  -10.18988 -10.18927 -10.18811 -10.18726 -10.18578
 Alpha  occ. eigenvalues --  -10.18457 -10.18336 -10.18312 -10.18208 -10.18167
 Alpha  occ. eigenvalues --  -10.18154 -10.18085 -10.18026 -10.17975 -10.17453
 Alpha  occ. eigenvalues --   -0.92305  -0.88824  -0.86392  -0.85527  -0.83107
 Alpha  occ. eigenvalues --   -0.80150  -0.79214  -0.76700  -0.75766  -0.75214
 Alpha  occ. eigenvalues --   -0.73385  -0.70935  -0.68170  -0.64827  -0.64060
 Alpha  occ. eigenvalues --   -0.62856  -0.61979  -0.61148  -0.58314  -0.58147
 Alpha  occ. eigenvalues --   -0.53944  -0.53173  -0.52253  -0.52023  -0.50834
 Alpha  occ. eigenvalues --   -0.49211  -0.48321  -0.47533  -0.46172  -0.46015
 Alpha  occ. eigenvalues --   -0.44147  -0.43597  -0.43021  -0.42649  -0.42022
 Alpha  occ. eigenvalues --   -0.41275  -0.40898  -0.40731  -0.40033  -0.39513
 Alpha  occ. eigenvalues --   -0.39294  -0.37806  -0.37162  -0.36615  -0.35950
 Alpha  occ. eigenvalues --   -0.34538  -0.33923  -0.33035  -0.32667  -0.32275
 Alpha  occ. eigenvalues --   -0.30006  -0.28737  -0.26490  -0.25467  -0.22934
 Alpha  occ. eigenvalues --   -0.21705  -0.16612
 Alpha virt. eigenvalues --   -0.10881  -0.05634  -0.04492  -0.02213   0.00043
 Alpha virt. eigenvalues --    0.00309   0.00651   0.00813   0.01229   0.01657
 Alpha virt. eigenvalues --    0.01736   0.02152   0.02514   0.03121   0.03227
 Alpha virt. eigenvalues --    0.03424   0.04211   0.04926   0.05199   0.05303
 Alpha virt. eigenvalues --    0.05762   0.06233   0.06695   0.06868   0.06987
 Alpha virt. eigenvalues --    0.07642   0.07744   0.07938   0.08506   0.09242
 Alpha virt. eigenvalues --    0.09724   0.10121   0.10345   0.10493   0.11079
 Alpha virt. eigenvalues --    0.11494   0.12051   0.12243   0.12656   0.12697
 Alpha virt. eigenvalues --    0.12771   0.13476   0.13709   0.14282   0.14629
 Alpha virt. eigenvalues --    0.14945   0.15193   0.15840   0.16001   0.16256
 Alpha virt. eigenvalues --    0.16731   0.16841   0.16934   0.17069   0.17340
 Alpha virt. eigenvalues --    0.17476   0.17791   0.17975   0.18070   0.18629
 Alpha virt. eigenvalues --    0.18833   0.19022   0.19233   0.19793   0.19875
 Alpha virt. eigenvalues --    0.20018   0.20291   0.20412   0.21022   0.21077
 Alpha virt. eigenvalues --    0.21350   0.21561   0.21759   0.21803   0.22163
 Alpha virt. eigenvalues --    0.22433   0.22773   0.22901   0.23258   0.23529
 Alpha virt. eigenvalues --    0.23941   0.24040   0.24320   0.24481   0.24664
 Alpha virt. eigenvalues --    0.25076   0.25196   0.25284   0.25947   0.26093
 Alpha virt. eigenvalues --    0.26184   0.26646   0.26797   0.27066   0.27301
 Alpha virt. eigenvalues --    0.27959   0.28174   0.28707   0.28743   0.28984
 Alpha virt. eigenvalues --    0.29115   0.29717   0.29966   0.30100   0.30659
 Alpha virt. eigenvalues --    0.30710   0.31116   0.31236   0.31711   0.31909
 Alpha virt. eigenvalues --    0.32181   0.32286   0.32851   0.33087   0.33238
 Alpha virt. eigenvalues --    0.34431   0.34882   0.35307   0.35436   0.36361
 Alpha virt. eigenvalues --    0.36927   0.37583   0.37882   0.37957   0.38933
 Alpha virt. eigenvalues --    0.39542   0.40457   0.41015   0.42210   0.42658
 Alpha virt. eigenvalues --    0.42978   0.43825   0.44438   0.46350   0.46843
 Alpha virt. eigenvalues --    0.47213   0.48267   0.49078   0.49959   0.51394
 Alpha virt. eigenvalues --    0.51786   0.51960   0.52466   0.53012   0.53775
 Alpha virt. eigenvalues --    0.53947   0.54591   0.54919   0.55179   0.55312
 Alpha virt. eigenvalues --    0.55780   0.56346   0.56520   0.57211   0.57571
 Alpha virt. eigenvalues --    0.57935   0.58282   0.59218   0.59347   0.59543
 Alpha virt. eigenvalues --    0.59879   0.60552   0.61081   0.61842   0.62337
 Alpha virt. eigenvalues --    0.62978   0.63075   0.63658   0.64155   0.64676
 Alpha virt. eigenvalues --    0.65514   0.65858   0.66381   0.67041   0.67249
 Alpha virt. eigenvalues --    0.67470   0.68043   0.68801   0.69264   0.69273
 Alpha virt. eigenvalues --    0.70251   0.70516   0.70766   0.71007   0.71475
 Alpha virt. eigenvalues --    0.71841   0.71903   0.72676   0.72966   0.73276
 Alpha virt. eigenvalues --    0.73599   0.73942   0.74299   0.74728   0.74824
 Alpha virt. eigenvalues --    0.75307   0.75885   0.76224   0.76586   0.77181
 Alpha virt. eigenvalues --    0.77553   0.79323   0.80350   0.80794   0.81873
 Alpha virt. eigenvalues --    0.82940   0.83531   0.83657   0.83980   0.84430
 Alpha virt. eigenvalues --    0.85017   0.85200   0.86105   0.87595   0.87909
 Alpha virt. eigenvalues --    0.89157   0.89307   0.89993   0.90547   0.90931
 Alpha virt. eigenvalues --    0.91747   0.92500   0.92741   0.93137   0.93365
 Alpha virt. eigenvalues --    0.93785   0.94210   0.94677   0.95288   0.96039
 Alpha virt. eigenvalues --    0.96439   0.96800   0.97452   0.97814   0.99028
 Alpha virt. eigenvalues --    0.99283   1.00202   1.01287   1.01854   1.02116
 Alpha virt. eigenvalues --    1.02798   1.03382   1.05004   1.05146   1.06292
 Alpha virt. eigenvalues --    1.06831   1.07447   1.08164   1.08380   1.09032
 Alpha virt. eigenvalues --    1.09413   1.11043   1.11787   1.12158   1.13080
 Alpha virt. eigenvalues --    1.13914   1.15638   1.16659   1.18028   1.18988
 Alpha virt. eigenvalues --    1.20751   1.22134   1.22816   1.23520   1.23711
 Alpha virt. eigenvalues --    1.28043   1.30453   1.30969   1.31734   1.33359
 Alpha virt. eigenvalues --    1.34241   1.34932   1.37489   1.38739   1.40386
 Alpha virt. eigenvalues --    1.42125   1.44661   1.45076   1.45422   1.46938
 Alpha virt. eigenvalues --    1.47378   1.48126   1.48494   1.49226   1.49546
 Alpha virt. eigenvalues --    1.49777   1.50093   1.51346   1.51874   1.52271
 Alpha virt. eigenvalues --    1.53264   1.54055   1.54846   1.55132   1.56272
 Alpha virt. eigenvalues --    1.56523   1.56808   1.57426   1.58334   1.60031
 Alpha virt. eigenvalues --    1.60631   1.61262   1.61671   1.62877   1.64280
 Alpha virt. eigenvalues --    1.64811   1.65279   1.66199   1.66619   1.67774
 Alpha virt. eigenvalues --    1.69086   1.70875   1.71470   1.72040   1.73352
 Alpha virt. eigenvalues --    1.73942   1.74663   1.75259   1.75632   1.75665
 Alpha virt. eigenvalues --    1.76552   1.77149   1.78095   1.79301   1.79867
 Alpha virt. eigenvalues --    1.81516   1.82589   1.83609   1.84972   1.85341
 Alpha virt. eigenvalues --    1.86676   1.86893   1.87196   1.87983   1.88827
 Alpha virt. eigenvalues --    1.89692   1.90008   1.90425   1.91700   1.92305
 Alpha virt. eigenvalues --    1.92693   1.93414   1.93700   1.94099   1.94445
 Alpha virt. eigenvalues --    1.95408   1.95694   1.96122   1.97141   1.97654
 Alpha virt. eigenvalues --    1.98025   1.99629   2.00962   2.02291   2.02828
 Alpha virt. eigenvalues --    2.03797   2.04697   2.05271   2.05966   2.06920
 Alpha virt. eigenvalues --    2.08699   2.09097   2.10047   2.10973   2.11941
 Alpha virt. eigenvalues --    2.12667   2.13365   2.14327   2.15886   2.16692
 Alpha virt. eigenvalues --    2.17362   2.17875   2.19712   2.22443   2.23025
 Alpha virt. eigenvalues --    2.23841   2.24986   2.25624   2.26519   2.29268
 Alpha virt. eigenvalues --    2.30390   2.31324   2.32007   2.33564   2.34767
 Alpha virt. eigenvalues --    2.36965   2.37605   2.38752   2.41387   2.42103
 Alpha virt. eigenvalues --    2.43518   2.44500   2.45646   2.46123   2.48297
 Alpha virt. eigenvalues --    2.49039   2.50844   2.52947   2.54618   2.55477
 Alpha virt. eigenvalues --    2.57402   2.58343   2.59473   2.61005   2.63564
 Alpha virt. eigenvalues --    2.64939   2.65921   2.67089   2.69298   2.69396
 Alpha virt. eigenvalues --    2.70585   2.70890   2.71456   2.72134   2.72478
 Alpha virt. eigenvalues --    2.73208   2.73890   2.74372   2.74759   2.75223
 Alpha virt. eigenvalues --    2.75380   2.76052   2.77098   2.77356   2.77656
 Alpha virt. eigenvalues --    2.78062   2.78726   2.79232   2.79838   2.80969
 Alpha virt. eigenvalues --    2.81395   2.81856   2.83240   2.84147   2.85767
 Alpha virt. eigenvalues --    2.86480   2.86839   2.88348   2.89084   2.90269
 Alpha virt. eigenvalues --    2.90371   2.91373   2.92378   2.93403   2.93933
 Alpha virt. eigenvalues --    2.96446   2.97423   3.02152   3.03043   3.03834
 Alpha virt. eigenvalues --    3.04847   3.07507   3.10285   3.10466   3.13938
 Alpha virt. eigenvalues --    3.14395   3.15624   3.16657   3.18120   3.20224
 Alpha virt. eigenvalues --    3.21027   3.22203   3.23107   3.24900   3.26467
 Alpha virt. eigenvalues --    3.30716   3.33443   3.34430   3.37182   3.38146
 Alpha virt. eigenvalues --    3.39135   3.39234   3.41376   3.42028   3.44316
 Alpha virt. eigenvalues --    3.45524   3.46608   3.49314   3.50809   3.51769
 Alpha virt. eigenvalues --    3.52754   3.54080   3.57559   3.58560   3.61997
 Alpha virt. eigenvalues --    3.63487   3.65958   3.69017   3.72974   3.78877
 Alpha virt. eigenvalues --    3.81473   3.88950   3.95849   4.02302   4.04748
 Alpha virt. eigenvalues --    4.05846   4.07163   4.09481   4.11606   4.12235
 Alpha virt. eigenvalues --    4.17994   4.22616   4.27750   4.31243   4.35334
 Alpha virt. eigenvalues --    4.43292   4.57542   4.73412   4.75958   4.81030
 Alpha virt. eigenvalues --    4.81953   4.83952   4.86216  23.46211  23.61190
 Alpha virt. eigenvalues --   23.75966  23.82319  23.86448  23.88078  23.89676
 Alpha virt. eigenvalues --   23.90830  23.92925  23.93982  23.96353  23.98519
 Alpha virt. eigenvalues --   24.00497  24.01994  24.02976  24.04153  24.07411
 Alpha virt. eigenvalues --   24.07584  24.09643  24.09994  24.10923  24.16870
 Alpha virt. eigenvalues --   24.17008  24.17238  24.19543
          Condensed to atoms (all electrons):
               1          2          3          4          5          6
     1  C   11.504813   2.188128  -1.334838   0.236064  -2.848757   0.312096
     2  C    2.188128  10.884766   1.279693   0.238988  -1.740833   1.076695
     3  C   -1.334838   1.279693   8.771154   1.114894   0.596890  -0.869589
     4  C    0.236064   0.238988   1.114894  10.504027  -0.771935  -1.855167
     5  C   -2.848757  -1.740833   0.596890  -0.771935  12.204860  -0.365175
     6  C    0.312096   1.076695  -0.869589  -1.855167  -0.365175  11.397983
     7  C   -0.556655  -0.640954   0.382530   0.785072  -0.419669  -1.046517
     8  C   -0.214067  -0.175244   0.237716  -0.028422  -0.053617  -0.750734
     9  C   -0.034935  -0.609565  -0.267331  -0.397619  -0.473868  -0.496455
    10  C   -0.422276  -0.496387   0.030276   1.464719   0.144368  -1.178796
    11  C   -0.124433  -0.621673  -0.074855  -0.867702  -0.214761  -0.030800
    12  C   -0.125838  -0.213459  -0.455367  -0.402969   0.003078   0.025882
    13  C   -0.025840  -0.129517  -0.325118  -0.067649   0.005754  -0.262102
    14  C   -0.037509  -0.327792  -0.715961  -1.226069  -0.250551  -0.229691
    15  C   -0.028973  -0.259482  -0.208468  -0.258244  -0.021113  -0.054464
    16  C    0.036457   0.035871   0.102601  -0.023067  -0.006970   0.005833
    17  C    0.006638   0.038975   0.021578  -0.015503  -0.000523  -0.008105
    18  C   -0.021006  -0.060960  -0.220497  -0.089346  -0.000480   0.023060
    19  C   -1.032342  -1.385414  -1.260839  -0.359282   0.458381   0.552896
    20  C   -0.272649   0.532523   0.099432  -0.091944  -0.733677  -0.141877
    21  C    1.154586  -3.376678  -1.986833  -0.237915   1.299673   0.027814
    22  C   -0.305111   2.793498  -0.234981  -1.102514  -1.620830   0.595450
    23  C   -2.553625  -3.657000   1.252834  -0.365136   1.046547  -1.102796
    24  H   -0.035896   0.015812   0.019705  -0.001025  -0.007580  -0.001367
    25  H    0.000156  -0.022612   0.008141   0.000478   0.011036  -0.001918
    26  H   -0.080597   0.036402  -0.000646   0.009938   0.020570   0.025787
    27  H   -0.059837   0.006746  -0.019157  -0.001859   0.365131  -0.026151
    28  H   -0.055711  -0.021304   0.017768  -0.070512   0.042719   0.322072
    29  H    0.008488  -0.004486  -0.002636  -0.073755   0.012455   0.052179
    30  H    0.000187   0.001624   0.011058   0.039971   0.000947   0.006170
    31  H   -0.000007   0.000168   0.001270   0.001974  -0.000029   0.000309
    32  H   -0.000004   0.000017  -0.000328   0.000335   0.000003   0.000023
    33  H    0.000046   0.000544   0.000174  -0.000119   0.000007  -0.000034
    34  H    0.000001   0.000023   0.000073   0.000073   0.000000   0.000003
    35  C   -0.070651  -0.376370  -0.616804  -1.167335  -0.245729   0.458772
[...]
 -0.00361090,-0.00576236,-0.00575072,0.01946921,-0.02478047,0.00600891,
 0.00637643,0.00740765,0.00095283,0.00073277,0.00429785,0.00063890,-0.0
 0371062,-0.00208232,0.00023069,-0.01043133,-0.12543614,0.02254564,-0.0
 1243485,-0.02369930,0.00789024,-0.00203358,-0.00117044,0.00482804,-0.0
 0593217,-0.00209814,0.00002750,0.01487018,-0.00981036,-0.00411455,-0.0
 0548048,-0.00284573,0.00089835,-0.00050179,-0.00108865,0.00016901,0.00
 066647,-0.00011830,-0.00008346,-0.00106408,0.01999641,-0.01327492,-0.0
 0914145,0.00021859,0.00426382,0.00149551,0.00912645,-0.00215503,0.0059
 7204,-0.00451838,0.00027575,0.00346470,-0.00151910,0.00004247,-0.00191
 780,0.00099809,-0.00044968,0.00598126,-0.00008363,0.00242339,-0.020898
 32,0.00567478,0.00804862,0.02288670,-0.01594951,-0.01677125,-0.0000844
 1,-0.00012086,0.00023751,0.00028429,0.00009242,-0.00015733,-0.00002356
 ,-0.00011352,0.00012633,0.00010714,-0.00012552,-0.00003196,0.00008306,
 -0.00016701,0.00013430,-0.00026070,-0.00012582,-0.00038190,-0.00039148
 ,-0.00007771,0.00006872,0.00002403,0.00020542,0.00002015,0.00014703,-0
 .00004175,0.00018232,-0.00042400,0.00014980,0.00016090,-0.00003148,-0.
 00017304,-0.00032457,-0.05105987,0.33453587,0.00305592,-0.00061397,0.0
 0056414,-0.00215409,-0.00428093,0.00589054,0.01384174,-0.01165860,-0.0
 0078330,0.00261878,0.00248841,-0.00132489,-0.00071866,0.00036007,-0.00
 030157,0.00056399,-0.00024672,0.00038534,0.03400460,0.10047935,-0.0458
 6733,-0.01521474,0.00420055,0.00175343,0.00041278,0.00200340,0.0019373
 2,0.00008215,0.00007322,-0.00045146,0.00550518,0.00192392,-0.00537872,
 -0.00474941,-0.00247596,-0.00019254,-0.00006831,0.00077087,-0.00022093
 ,0.00017927,0.00086771,-0.00000485,0.00331718,-0.01015265,0.01058686,0
 .00674460,0.00428909,0.00721645,-0.00023677,-0.00250687,0.00042301,0.0
 0147079,0.00101856,0.00004536,0.00148875,0.00056547,-0.00030503,0.0001
 0649,-0.00345511,-0.00087435,-0.00265902,0.00143400,-0.00342528,0.0031
 9417,-0.00454536,-0.00214570,-0.07946810,-0.06981239,-0.15941823,0.000
 02675,0.00000150,0.00005681,0.00008996,-0.00009943,0.00050477,-0.00008
 104,-0.00005256,-0.00004157,0.00002801,0.00003049,-0.00006707,0.000070
 95,-0.00015007,0.00015459,-0.00010374,-0.00000006,-0.00006578,0.000137
 29,0.00004499,-0.00006274,0.00002539,0.00004347,0.00003759,0.00005192,
 0.00002342,0.00016541,0.00011427,-0.00008952,-0.00026171,0.00003957,-0
 .00013055,-0.00108666,-0.07017001,-0.05530849,0.51259164,-0.00285449,-
 0.00208307,-0.00090198,0.00021495,-0.00041838,-0.00068709,0.00058987,-
 0.00715881,0.00191206,0.00699917,0.00677258,0.00060273,0.00224872,0.00
 181639,0.00048305,-0.00303570,0.00019380,0.00011049,-0.00033770,0.0141
 7374,-0.01506470,-0.01627071,0.01029203,0.00108567,0.00621209,-0.00986
 461,0.00048190,-0.01092031,-0.00120839,0.00134934,0.01937897,-0.031219
 34,0.00908188,-0.00313484,0.00589627,0.00031825,0.00171912,-0.00077592
 ,-0.00024122,-0.00095565,-0.00031791,0.00049604,-0.26303802,-0.0986634
 6,0.07280815,-0.06693262,-0.01403901,0.01695679,0.00809430,0.02264824,
 -0.00569731,0.00331802,-0.01351186,0.00242386,-0.00008806,0.00300098,0
 .00133697,0.00354500,-0.00152531,0.00012224,-0.00364100,-0.00249949,0.
 00018944,0.00979274,0.00746649,-0.00312456,-0.03758875,0.00607588,-0.0
 2236720,-0.00002779,0.00010181,-0.00011115,0.00009189,-0.00001974,-0.0
 0033664,0.00011478,0.00012704,-0.00006294,0.00003326,0.00003789,0.0001
 1002,0.00010303,-0.00006933,0.00005316,-0.00018124,-0.00000589,-0.0001
 4735,-0.00001447,-0.00001023,0.00009533,-0.00005043,0.00018624,-0.0001
 0281,0.00013296,-0.00030283,-0.00009691,0.00117180,-0.00165545,-0.0000
 6184,-0.00078128,-0.00029185,0.00019030,-0.19665793,0.04396802,0.03132
 656,0.61852200,0.00102195,0.00055539,0.00035064,-0.00100811,0.00022790
 ,0.00019090,-0.00212463,-0.00416486,0.00325926,0.00065031,-0.00010835,
 0.00021659,-0.00031245,-0.00041669,-0.00002844,0.00033173,-0.00021256,
 -0.00039950,0.03415083,-0.01929247,0.00126417,-0.00582035,0.00152605,0
 .00161140,0.00143130,0.00017481,-0.00049589,-0.00087258,-0.00043182,0.
 00032719,-0.02125413,-0.03079717,0.01672647,0.00313601,-0.00408105,0.0
 0033779,-0.00123371,-0.00131892,0.00051971,-0.00022070,0.00024574,-0.0
 0003152,-0.10548029,-0.17160916,0.06970575,-0.00302508,0.01517953,-0.0
 0383433,0.00861925,0.00396842,-0.00095831,0.00042665,-0.00427293,0.000
 65183,-0.00058307,-0.00078159,-0.00038742,-0.00086872,0.00033367,0.000
 64660,0.00072036,0.00057095,-0.00016841,-0.00088000,0.00093828,-0.0044
 8640,-0.01462886,0.00404443,0.00278673,0.00006681,0.00007784,-0.000223
 74,-0.00008302,0.00002822,0.00002750,0.00000888,0.00001553,-0.00005366
 ,0.00001171,0.00003029,0.00003941,0.00011716,-0.00005277,-0.00002889,0
 .00000496,0.00000080,0.00012315,0.00001076,0.00000178,-0.00009064,0.00
 002417,-0.00041213,0.00005275,-0.00002866,0.00006131,-0.00016725,0.001
 16096,0.00052274,-0.00107338,0.00100343,0.00072966,-0.00007582,0.05162
 130,-0.10599371,0.01075610,0.02406820,0.58134857,0.00080513,0.00047601
 ,0.00062188,-0.00123828,-0.00124717,0.00010341,0.00283061,0.00162689,-
 0.00001667,-0.00122154,-0.00049847,-0.00030074,-0.00034625,-0.00019074
 ,0.00007057,0.00046178,0.00002186,-0.00007720,-0.00568772,0.00426436,0
 .00189152,0.00197258,-0.00274304,0.00284366,-0.00187317,0.00252436,-0.
 00106100,0.00221124,0.00005101,-0.00039382,0.00751839,0.01400650,-0.00
 065279,-0.00067839,0.00049873,0.00222735,0.00010030,0.00052128,0.00010
 304,0.00016791,0.00009551,-0.00030184,0.08878527,0.07357180,-0.0962733
 2,0.01335458,-0.00125621,0.00284099,-0.00372596,-0.00356023,0.00479218
 ,-0.00058878,0.00312588,-0.00144562,0.00020794,-0.00108097,-0.00062820
 ,-0.00129222,0.00032962,0.00035941,0.00122106,0.00101537,0.00017950,-0
 .00477822,0.00076677,-0.00338237,-0.01322773,0.00461525,0.00514204,0.0
 0012583,0.00002555,-0.00012617,-0.00009416,0.00003387,0.00010367,-0.00
 003259,-0.00000509,-0.00002746,-0.00001775,0.00001727,-0.00000991,-0.0
 0005098,0.00002558,-0.00002612,0.00009011,0.00000927,0.00023413,0.0000
 0472,0.00000993,-0.00000400,0.00000179,0.00015010,0.00006107,-0.000046
 24,-0.00005154,-0.00030671,-0.00120508,-0.00027296,-0.00149324,-0.0002
 4427,-0.00014847,0.00030540,0.00348294,0.01377080,-0.08356606,-0.09586
 388,-0.20730079,0.24703546,-0.00061977,0.00019410,0.00021716,0.0004317
 0,-0.00170702,0.00172882,0.00232224,0.00052347,-0.00147451,0.00040477,
 0.00020853,-0.00022757,0.00007370,0.00004667,-0.00000900,-0.00006172,-
 0.00005297,0.00003952,-0.00025521,0.00389528,0.00020776,-0.00227107,-0
 .00117042,0.00086295,-0.00026895,0.00032390,0.00032508,-0.00008632,-0.
 00018368,-0.00003995,0.00212986,-0.00130830,0.00019401,-0.00068933,-0.
 00039216,0.00007457,-0.00005220,0.00004699,-0.00000198,0.00006916,0.00
 002039,-0.00005806,-0.00047509,0.00576492,0.00081179,-0.00185464,-0.00
 104947,-0.00050614,-0.00009362,0.00126069,-0.00056349,0.00059718,-0.00
 059249,0.00004204,0.00052634,0.00017874,-0.00005717,0.00006825,-0.0004
 9567,0.00024496,0.00001198,-0.00064945,0.00005294,0.00198145,0.0013144
 0,-0.00190002,0.00728493,-0.00029119,-0.01465261,-0.00002397,0.0000573
 2,-0.00013322,0.00007307,-0.00001123,0.00001093,0.00002731,0.00001605,
 -0.00007330,0.00001819,-0.00001785,-0.00000219,-0.00000823,-0.00002604
 ,0.00002271,-0.00000003,-0.00001374,0.00001680,-0.00002163,-0.00001787
 ,0.00001035,-0.00001197,0.00000458,0.00000660,0.00000020,-0.00002311,0
 .00002002,-0.00002118,0.00007628,0.00010334,-0.00005493,-0.00001123,0.
 00015641,-0.10390415,-0.01626063,0.09647391,-0.01802473,-0.00709917,0.
 02406699,0.11284487,-0.00033759,-0.00005963,-0.00017396,0.00103401,0.0
 0147009,-0.00049323,-0.00428239,0.00261582,-0.00011973,-0.00033528,-0.
 00086159,0.00012933,0.00015865,0.00002411,0.00000167,-0.00017411,0.000
 08376,0.00000590,-0.01665719,-0.01147237,0.02139126,0.00481834,-0.0007
 7819,0.00191362,-0.00060260,-0.00061486,0.00016860,-0.00001897,0.00025
 711,0.00003220,-0.00248509,-0.00021208,0.00008038,0.00114036,0.0007870
 5,-0.00024522,0.00008063,-0.00005356,0.00001302,-0.00004037,-0.0004773
 2,-0.00005483,0.00279639,-0.00032526,-0.00056985,-0.00015414,0.0005048
 8,0.00069413,0.00042602,-0.00035819,-0.00008725,-0.00090786,-0.0002032
 7,0.00024972,-0.00002059,0.00049737,0.00022565,0.00051783,-0.00028846,
 -0.00016925,-0.00092284,-0.00034135,0.00011369,0.00323831,-0.00075835,
 0.00163728,0.00432358,0.00509397,-0.01540375,-0.00001487,-0.00000897,-
 0.00000896,-0.00001708,-0.00001050,-0.00002451,0.00000247,0.00001726,-
 0.00000358,-0.00000713,0.00001204,0.00001282,-0.00001324,0.00001606,0.
 00003332,0.00003082,-0.00002341,-0.00003616,-0.00005898,-0.00005645,0.
 00001982,-0.00000850,-0.00002593,-0.00000249,-0.00000957,0.00001551,0.
 00000658,0.00004237,-0.00002947,-0.00000948,-0.00001885,0.00000762,-0.
 00010406,-0.00793482,-0.05516934,0.03405152,0.00077950,0.00596503,-0.0
 0886421,0.01676443,0.05403580,0.00049402,-0.00024894,-0.00001685,-0.00
 137721,0.00096608,0.00033273,0.00133039,0.00038609,0.00060910,-0.00015
 773,0.00028184,-0.00008155,-0.00014226,0.00011812,0.00000180,-0.000025
 57,-0.00002142,-0.00007443,0.00029404,0.00779980,-0.00296262,-0.001386
 97,-0.00162023,-0.00103006,-0.00006988,0.00006286,-0.00002344,-0.00005
 835,-0.00018589,0.00006487,0.00124126,0.00035277,-0.00030497,-0.000577
 27,-0.00043136,0.00021449,0.00002291,-0.00001382,0.00001532,0.00006000
 ,0.00005485,-0.00000959,-0.00144601,-0.00080412,-0.00035136,0.00004015
 ,-0.00002990,-0.00040638,-0.00019746,0.00020990,0.00011717,0.00053620,
 0.00018210,-0.00012100,-0.00059962,0.00036420,0.00015655,0.00057770,-0
 .00026015,-0.00013376,-0.00140426,-0.00038260,-0.00018199,0.00364472,-
 0.00158082,0.00106922,0.00101904,-0.00237828,-0.02487863,0.00000743,0.
 00003764,-0.00006448,0.00000287,-0.00000026,-0.00005327,0.00001300,0.0
 0000545,0.00000495,-0.00000553,-0.00000558,0.00000818,-0.00000659,0.00
 001431,-0.00001277,-0.00000525,0.00001278,0.00000518,-0.00002078,0.000
 00270,0.00000184,0.00000460,0.00001627,-0.00000698,0.00000197,-0.00001
 004,-0.00003041,-0.00001101,-0.00000091,-0.00001667,0.00001935,-0.0000
 0344,0.00003877,0.09888046,0.02816948,-0.22308882,0.00203640,-0.001810
 25,0.00610693,-0.10310345,-0.03196303,0.24738112,0.00024851,0.00002140
 ,0.00004615,-0.00016563,-0.00008111,0.00006583,0.00079123,0.00147121,-
 0.00094558,-0.00072421,-0.00022651,0.00004206,-0.00006628,-0.00000077,
 -0.00001631,0.00010911,0.00013844,0.00006358,-0.00571600,0.00012758,0.
 00136660,-0.00000642,-0.00030514,-0.00005982,0.00004434,0.00022471,-0.
 00010778,0.00021341,-0.00013939,-0.00004966,-0.00357762,-0.00029255,0.
 00236164,0.00040043,-0.00119191,0.00004505,-0.00040296,-0.00009446,0.0
 0002987,0.00000220,0.00004421,0.00001234,0.00433163,-0.02400062,0.0111
 3349,0.00103824,-0.00231924,-0.00054279,-0.00007640,0.00022942,0.00002
 136,0.00020988,0.00005139,0.00002782,-0.00009916,-0.00018170,-0.000072
 42,-0.00018839,0.00012431,0.00007320,0.00019484,0.00005021,0.00015543,
 -0.00054869,-0.00010093,-0.00034169,0.00121180,0.00031239,0.00085972,-
 0.00000414,-0.00001664,-0.00004149,-0.00001153,0.00001034,-0.00001767,
 -0.00000713,-0.00000515,-0.00000460,-0.00000446,-0.00000021,-0.0000099
 9,-0.00004977,0.00002977,0.00000983,0.00002102,0.00001406,-0.00000006,
 0.00001397,0.00000392,0.00000075,0.00000944,-0.00012434,-0.00000137,-0
 .00003073,0.00004693,-0.00001981,-0.00028159,0.00062899,-0.00012214,0.
 00000941,0.00001198,0.00004698,-0.00175852,0.02638867,-0.01247566,-0.0
 5902623,0.03907545,-0.01186869,0.00057631,-0.00045563,0.00051178,0.063
 29524,-0.00010724,0.00017783,0.00005859,0.00029890,0.00014259,0.000233
 57,-0.00086790,0.00014463,0.00052481,-0.00033423,-0.00045164,-0.000218
 22,-0.00016191,-0.00029223,-0.00003656,0.00029418,0.00000045,-0.000064
 50,0.00187956,-0.00109563,0.00219081,0.00078836,0.00023421,-0.00078638
 ,-0.00018375,0.00042101,-0.00054970,0.00061924,0.00021313,0.00003964,-
 0.00258763,0.00293742,0.00348468,0.00083498,-0.00052769,-0.00006509,-0
 .00019428,0.00000600,0.00009201,-0.00002513,-0.00002846,0.00000080,0.0
 0041821,-0.01351647,0.00896846,0.00284809,-0.00017961,-0.00313231,-0.0
 0086076,-0.00120425,0.00011413,-0.00044521,0.00093802,-0.00017840,0.00
 002230,0.00010394,0.00002130,0.00004134,-0.00010023,-0.00000495,-0.000
 06565,-0.00003136,-0.00015683,0.00046188,0.00021546,0.00007541,0.00083
 311,-0.00200125,-0.00094600,0.00000788,0.00001210,0.00000291,0.0000155
 4,-0.00000589,0.00001072,0.00000331,0.00000073,-0.00000482,0.00000257,
 -0.00000022,0.00000400,0.00001651,-0.00000729,-0.00003968,0.00003924,-
 0.00002002,0.00008531,0.00001279,-0.00001821,-0.00001396,-0.00001102,-
 0.00008626,-0.00002689,-0.00003102,0.00005759,0.00007607,-0.00065392,0
 .00054730,0.00037498,-0.00005148,-0.00000521,0.00018265,-0.00177850,-0
 .00166549,0.00419055,0.03828003,-0.27174861,0.10857127,0.00014053,0.00
 011169,-0.00007716,-0.03941059,0.28724879,0.00020408,0.00037399,0.0001
 7241,0.00015033,0.00019134,0.00042932,-0.00086013,0.00118444,0.0001382
 2,-0.00125537,-0.00125444,-0.00040675,-0.00036733,-0.00050691,-0.00007
 817,0.00061705,0.00005418,-0.00008483,0.00010370,-0.00462105,0.0066890
 6,0.00218276,-0.00074523,-0.00128605,-0.00059339,0.00098631,-0.0010496
 7,0.00153476,0.00029267,-0.00002252,0.00226254,0.00338549,0.00532888,-
 0.00001350,0.00098616,0.00016748,0.00031999,0.00009485,0.00001511,0.00
 002472,0.00003327,0.00001456,-0.00777228,0.00995745,0.00255005,0.00065
 910,-0.00170045,-0.00417893,-0.00081824,-0.00217220,0.00064538,-0.0007
 4830,0.00133068,-0.00032762,-0.00014267,-0.00017896,-0.00010656,-0.000
 26692,0.00009928,0.00010740,0.00030106,0.00008647,-0.00002606,-0.00009
 700,0.00017491,-0.00040414,0.00177870,-0.00318904,-0.00085417,0.000003
 37,-0.00000344,-0.00004160,0.00000406,0.00000540,-0.00000207,-0.000006
 28,-0.00000667,-0.00001006,-0.00000615,0.00000046,-0.00000660,-0.00000
 359,0.00001209,-0.00005214,0.00005401,0.00001613,0.00015304,0.00000653
 ,0.00001124,-0.00000604,-0.00002077,0.00009542,-0.00007212,0.00001978,
 -0.00000989,0.00002202,0.00048657,-0.00042608,0.00019673,0.00003566,0.
 00005116,0.00029842,-0.00259350,0.00899476,0.00220350,-0.00421861,0.11
 080657,-0.08742601,-0.00087515,-0.00055021,0.00057761,0.01033171,-0.12
 321328,0.07701841,0.00095579,0.00124688,-0.00025409,-0.00513978,-0.000
 26240,0.00018420,-0.00043213,-0.00086256,-0.00020906,0.00047045,0.0002
 8793,-0.00021187,-0.00032647,-0.00011264,-0.00008099,0.00003165,0.0002
 2250,0.00008996,0.00208347,0.00271913,-0.00164104,-0.00152043,0.000507
 58,0.00131800,0.00021356,0.00012016,-0.00018191,-0.00019704,0.00004694
 ,0.00003252,0.00029084,-0.00060447,0.00057670,-0.00025325,0.00019468,-
 0.00008387,0.00011459,0.00016051,-0.00003418,-0.00009862,-0.00009440,-
 0.00000259,0.00106880,0.00044325,-0.00036545,-0.00050664,-0.00001828,0
 .00028926,0.00029591,0.00014967,-0.00005464,-0.00021913,-0.00051417,0.
 00010839,-0.00030779,0.00025921,0.00016301,0.00032857,-0.00032934,-0.0
 0047027,0.00048436,0.00057172,-0.00033885,-0.00037746,0.01667192,0.019
 21191,-0.09432409,0.07005311,0.08258579,-0.00027746,-0.00078012,-0.000
 12616,-0.00009577,-0.00000483,0.00000448,-0.00004672,-0.00003665,-0.00
 000717,-0.00002130,0.00019175,0.00004060,0.00002668,0.00002102,-0.0000
 0747,0.00002582,0.00002043,0.00001504,0.00002233,-0.00000221,-0.000009
 29,-0.00000192,-0.00001826,0.00000278,0.00000330,-0.00000217,0.0000069
 5,-0.00000684,0.00000002,-0.00005573,-0.00002565,0.00001019,-0.0000106
 9,-0.00049650,-0.00712709,-0.01687144,0.00127925,-0.00213864,-0.003327
 28,-0.00064276,-0.00067601,-0.00014310,0.00002483,-0.00008833,-0.00042
 129,0.09759754,0.00099007,-0.00021962,-0.00067289,0.00122699,0.0012621
 6,-0.00008279,0.00036507,-0.00130351,-0.00052265,0.00041377,0.00033631
 ,-0.00063919,0.00008127,-0.00036609,-0.00008450,0.00027928,0.00033255,
 0.00010109,0.00500681,0.00396004,-0.00172485,-0.00298713,0.00071583,0.
 00185213,0.00039436,0.00030590,-0.00028730,-0.00006778,0.00027696,0.00
 003028,0.00053849,-0.00049694,0.00077644,-0.00072694,0.00010331,-0.000
 08773,0.00019483,0.00030288,-0.00007502,-0.00013954,0.00000268,-0.0000
 3835,0.00058252,0.00040787,-0.00062113,-0.00036037,-0.00010125,0.00019
 805,0.00039764,-0.00001178,0.00004541,-0.00036251,-0.00056746,0.000158
 85,-0.00061813,0.00099682,0.00021573,0.00143703,-0.00161932,0.00013307
 ,-0.00343393,-0.00070314,-0.00036799,0.01087951,-0.00281999,-0.0029778
 1,0.07300957,-0.13424316,-0.13371555,0.00025437,0.00029908,-0.00049659
 ,0.00000542,-0.00003060,0.00003194,0.00001992,0.00005945,-0.00015663,-
 0.00001156,0.00000669,0.00024676,0.00000707,0.00000342,-0.00000073,0.0
 0002328,0.00000857,0.00006757,0.00005705,0.00000237,-0.00002957,-0.000
 00623,-0.00001730,0.00000825,0.00001221,-0.00001278,-0.00000187,0.0000
 1116,-0.00000894,-0.00005519,-0.00003517,0.00002405,-0.00000237,-0.007
 44612,0.00368509,-0.00403741,-0.00024422,-0.00085214,-0.00290498,0.000
 53645,0.00061337,0.00279095,-0.00005849,-0.00052688,-0.00064690,-0.080
 22600,0.13019547,-0.00065765,0.00015803,0.00059205,-0.00091930,0.00021
 981,0.00022580,0.00042463,0.00111990,0.00077178,-0.00040285,-0.0003334
 9,0.00009345,-0.00019757,0.00034441,0.00000813,-0.00014909,-0.00019463
 ,-0.00010636,-0.00349308,0.00074733,0.00097474,0.00151492,-0.00098932,
 -0.00069473,-0.00045888,-0.00001231,0.00014743,0.00030065,0.00005861,-
 0.00004010,-0.00025542,0.00101813,-0.00074255,0.00018517,-0.00024649,0
 .00008529,-0.00009410,-0.00012518,0.00005749,0.00011863,0.00004424,-0.
 00003040,-0.00251574,-0.00105101,0.00149676,0.00087555,-0.00011989,-0.
 00029768,-0.00044100,-0.00056422,0.00016095,0.00015178,0.00075130,-0.0
 0015970,0.00059545,-0.00009407,0.00006759,-0.00030081,0.00014367,0.000
 05603,0.00133004,0.00061930,0.00022454,-0.00708643,0.00485493,0.002780
 97,0.07912348,-0.13811899,-0.18915824,0.00036699,-0.00001514,-0.000024
 06,0.00004910,-0.00000706,-0.00000387,-0.00000279,-0.00000186,0.000003
 20,0.00000134,-0.00000061,-0.00009605,-0.00001755,-0.00000376,0.000000
 85,-0.00000417,-0.00000416,-0.00000320,-0.00003515,-0.00000332,0.00000
 961,0.00000840,0.00002233,-0.00000257,-0.00000127,0.00001191,-0.000004
 59,0.00000111,0.00000426,0.00001279,0.00001210,-0.00002263,0.00000693,
 0.00869866,-0.01131288,-0.01558217,0.00551556,0.00121411,0.00249704,-0
 .00201183,-0.00189677,-0.00285581,-0.00050767,0.00021208,-0.00028552,-
 0.07972118,0.14357344,0.19981419\\-0.00001154,-0.00000261,-0.00000459,
 0.00001621,0.00002884,0.00000209,-0.00001776,-0.00000833,0.00001188,0.
 00000768,0.00001886,0.00000167,-0.00000143,0.00000470,0.00000158,-0.00
 000367,-0.00000219,-0.00000054,-0.00001009,-0.00005372,-0.00001534,-0.
 00004062,0.00005167,0.00000980,0.00010250,-0.00006825,-0.00001987,-0.0
 0011131,0.00005136,0.00001920,0.00005772,-0.00002498,-0.00000601,-0.00
 006041,0.00002238,0.00000518,-0.00000008,-0.00000617,0.00000098,-0.000
 00108,0.00000186,-0.00000086,0.00006813,0.00003044,-0.00003372,-0.0000
 5039,-0.00001645,0.00001458,0.00003747,0.00005605,-0.00001958,0.000057
 07,-0.00006017,0.00000456,0.00001028,0.00001510,0.00001039,0.00001237,
 -0.00001975,-0.00000367,-0.00002944,-0.00000283,0.00000087,0.00004665,
 -0.00003182,-0.00001983,-0.00005564,0.00003652,-0.00003664,-0.00000034
 ,0.00000168,-0.00000340,-0.00000007,0.00000184,-0.00000131,-0.00000019
 ,0.00000060,-0.00000033,0.00000046,0.00000094,-0.00000057,0.00000047,0
 .00000002,0.00000101,-0.00000136,0.00000107,0.00000109,0.00000057,0.00
 000040,0.00000062,0.00000090,-0.00000033,0.00000064,0.00000135,-0.0000
 0150,0.00000051,-0.00000158,-0.00000094,-0.00000044,0.00000031,-0.0000
 0031,-0.00000141,0.00005148,0.00004111,0.00004509,-0.00008512,-0.00004
 557,0.00002894,0.00000667,-0.00000553,0.00000023,0.00000013,-0.0000034
 0,-0.00000174,0.00000371,-0.00001058,0.00000895\\\@


 FORGIVE MY NONSENSE AS I ALSO FORGIVE THOSE WHO THINK THEY TALK SENSE

                                                       -- ROBERT FROST
 Job cpu time:       1 days 11 hours 11 minutes 20.7 seconds.
 File lengths (MBytes):  RWF=   3312 Int=      0 D2E=      0 Chk=     35 Scr=      1
 Normal termination of Gaussian 09 at Sun Feb  2 06:22:40 2020.
