 Entering Gaussian System, Link 0=g09
 Initial command:
 /usr/local/Cluster-Apps/gaussian/g09/l1.exe "/rds/user/am2145/hpc-work/scratch/19187510/Gau-56568.inp" -scrdir="/rds/user/am2145/hpc-work/scratch/19187510/"
 Entering Link 1 = /usr/local/Cluster-Apps/gaussian/g09/l1.exe PID=     56569.
  
 Copyright (c) 1988,1990,1992,1993,1995,1998,2003,2009,2013,
            Gaussian, Inc.  All Rights Reserved.
  
 This is part of the Gaussian(R) 09 program.  It is based on
 the Gaussian(R) 03 system (copyright 2003, Gaussian, Inc.),
 the Gaussian(R) 98 system (copyright 1998, Gaussian, Inc.),
 the Gaussian(R) 94 system (copyright 1995, Gaussian, Inc.),
 the Gaussian 92(TM) system (copyright 1992, Gaussian, Inc.),
 the Gaussian 90(TM) system (copyright 1990, Gaussian, Inc.),
 the Gaussian 88(TM) system (copyright 1988, Gaussian, Inc.),
 the Gaussian 86(TM) system (copyright 1986, Carnegie Mellon
 University), and the Gaussian 82(TM) system (copyright 1983,
 Carnegie Mellon University). Gaussian is a federally registered
 trademark of Gaussian, Inc.
  
 This software contains proprietary and confidential information,
 including trade secrets, belonging to Gaussian, Inc.
  
 This software is provided under written license and may be
 used, copied, transmitted, or stored only in accord with that
 written license.
  
 The following legend is applicable only to US Government
 contracts under FAR:
  
                    RESTRICTED RIGHTS LEGEND
  
 Use, reproduction and disclosure by the US Government is
 subject to restrictions as set forth in subparagraphs (a)
 and (c) of the Commercial Computer Software - Restricted
 Rights clause in FAR 52.227-19.
  
 Gaussian, Inc.
 340 Quinnipiac St., Bldg. 40, Wallingford CT 06492
  
  
 ---------------------------------------------------------------
 Warning -- This program may not be used in any manner that
 competes with the business of Gaussian, Inc. or will provide
 assistance to any competitor of Gaussian, Inc.  The licensee
 of this program is prohibited from giving any competitor of
 Gaussian, Inc. access to this program.  By using this program,
 the user acknowledges that Gaussian, Inc. is engaged in the
 business of creating and licensing software in the field of
 computational chemistry and represents and warrants to the
 licensee that it is not a competitor of Gaussian, Inc. and that
 it will not use this program in any manner prohibited above.
 ---------------------------------------------------------------
  

 Cite this work as:
 Gaussian 09, Revision D.01,
 M. J. Frisch, G. W. Trucks, H. B. Schlegel, G. E. Scuseria, 
 M. A. Robb, J. R. Cheeseman, G. Scalmani, V. Barone, B. Mennucci, 
 G. A. Petersson, H. Nakatsuji, M. Caricato, X. Li, H. P. Hratchian, 
 A. F. Izmaylov, J. Bloino, G. Zheng, J. L. Sonnenberg, M. Hada, 
 M. Ehara, K. Toyota, R. Fukuda, J. Hasegawa, M. Ishida, T. Nakajima, 
 Y. Honda, O. Kitao, H. Nakai, T. Vreven, J. A. Montgomery, Jr., 
 J. E. Peralta, F. Ogliaro, M. Bearpark, J. J. Heyd, E. Brothers, 
 K. N. Kudin, V. N. Staroverov, T. Keith, R. Kobayashi, J. Normand, 
 K. Raghavachari, A. Rendell, J. C. Burant, S. S. Iyengar, J. Tomasi, 
 M. Cossi, N. Rega, J. M. Millam, M. Klene, J. E. Knox, J. B. Cross, 
 V. Bakken, C. Adamo, J. Jaramillo, R. Gomperts, R. E. Stratmann, 
 O. Yazyev, A. J. Austin, R. Cammi, C. Pomelli, J. W. Ochterski, 
 R. L. Martin, K. Morokuma, V. G. Zakrzewski, G. A. Voth, 
 P. Salvador, J. J. Dannenberg, S. Dapprich, A. D. Daniels, 
 O. Farkas, J. B. Foresman, J. V. Ortiz, J. Cioslowski, 
 and D. J. Fox, Gaussian, Inc., Wallingford CT, 2013.
 
 ******************************************
 Gaussian 09:  ES64L-G09RevD.01 24-Apr-2013
                 2-Feb-2020 
 ******************************************
 %NProcShared=20
 Will use up to   20 processors via shared memory.
 %mem=64GB
 %Chk=BPradmigguess.chk
 --------------------------------------------------
 #n opt=(ts,calcfc,noeigen) freq b3lyp/6-311+g(d,p)
 --------------------------------------------------
 1/5=1,10=4,11=1,14=-1,18=20,26=3,38=1/1,3;
 2/9=110,12=2,17=6,18=5,40=1/2;
 3/5=4,6=6,7=111,11=2,16=1,25=1,30=1,71=2,74=-5,140=1/1,2,3;
 4//1;
 5/5=2,38=5/2;
 8/6=4,10=90,11=11/1;
 11/6=1,8=1,9=11,15=111,16=1/1,2,10;
 10/6=1,13=1/2;
 6/7=2,8=2,9=2,10=2,28=1/1;
 7/10=1,18=20,25=1/1,2,3,16;
 1/5=1,10=4,11=1,14=-1,18=20,26=3/3(2);
 2/9=110/2;
 99//99;
 2/9=110/2;
 3/5=4,6=6,7=111,11=2,16=1,25=1,30=1,71=1,74=-5/1,2,3;
 4/5=5,16=3,69=1/1;
 5/5=2,38=5/2;
 7//1,2,3,16;
 1/5=1,11=1,14=-1,18=20,26=3/3(-5);
 2/9=110/2;
 6/7=2,8=2,9=2,10=2,19=2,28=1/1;
 99/9=1/99;
 -------------
 BPradmigguess
 -------------
 Symbolic Z-matrix:
 Charge =  0 Multiplicity = 3
 C                    -3.82915   0.38121  -0.05149 
 C                    -2.5296   -0.11929   0.00817 
 C                    -1.38885   0.69299   0.02344 
 C                    -1.47663   2.08149  -0.01404 
 C                    -3.93122   1.82076  -0.09224 
 C                    -2.81199   2.62318  -0.07279 
 C                    -0.21861  -0.09102   0.06875 
 C                     1.05365   0.55984   0.04778 
 C                     0.97431   2.02449   0.041 
 C                    -0.23054   2.74208   0.01043 
 C                     2.33093  -0.09067   0.01416 
 C                     3.51165   0.73303   0.01714 
 C                     3.39666   2.1636    0.05702 
 C                     2.195     2.77649   0.05969 
 C                     2.54966  -1.55755  -0.05319 
 C                     3.91037  -2.02378  -0.11954 
 C                     4.99824  -1.19695  -0.10625 
 C                     4.79807   0.19015  -0.03292 
 C                    -4.84789  -0.60106  -0.07128 
 C                    -4.5108   -1.95265  -0.03122 
 C                    -3.17449  -2.4167    0.03388 
 C                    -2.15643  -1.4755    0.05255 
 C                    -0.66632  -1.48028   0.13712 
 H                    -2.98435  -3.48429   0.06496 
 H                    -5.30775  -2.6877   -0.05193 
 H                    -5.89224  -0.3111   -0.11984 
 H                    -4.91301   2.27985  -0.14222 
 H                    -2.93625   3.70095  -0.10543 
 H                    -0.17969   3.8259   -0.00019 
 H                     2.1276    3.85906   0.0727 
 H                     4.31273   2.74413   0.06991 
 H                     5.64674   0.86477  -0.02448 
 H                     4.06097  -3.09592  -0.17762 
 H                     6.00044  -1.60639  -0.1539 
 C                     0.20175  -2.65299   0.04116 
 C                     1.61956  -2.60544  -0.05435 
 H                     2.06642  -3.59224  -0.11428 
 H                    -0.28684  -3.61825   0.00294 
 H                    -0.31888  -2.03138   1.20142 
 

 GradGradGradGradGradGradGradGradGradGradGradGradGradGradGradGradGradGrad
 Berny optimization.
 Initialization pass.
                           ----------------------------
                           !    Initial Parameters    !
                           ! (Angstroms and Degrees)  !
 --------------------------                            --------------------------
 ! Name  Definition              Value          Derivative Info.                !
 --------------------------------------------------------------------------------
 ! R1    R(1,2)                  1.3939         calculate D2E/DX2 analytically  !
 ! R2    R(1,5)                  1.4437         calculate D2E/DX2 analytically  !
 ! R3    R(1,19)                 1.4153         calculate D2E/DX2 analytically  !
 ! R4    R(2,3)                  1.4005         calculate D2E/DX2 analytically  !
 ! R5    R(2,22)                 1.4073         calculate D2E/DX2 analytically  !
 ! R6    R(3,4)                  1.3918         calculate D2E/DX2 analytically  !
 ! R7    R(3,7)                  1.4093         calculate D2E/DX2 analytically  !
 ! R8    R(4,6)                  1.4422         calculate D2E/DX2 analytically  !
 ! R9    R(4,10)                 1.4106         calculate D2E/DX2 analytically  !
 ! R10   R(5,6)                  1.3773         calculate D2E/DX2 analytically  !
 ! R11   R(5,27)                 1.085          calculate D2E/DX2 analytically  !
 ! R12   R(6,28)                 1.0854         calculate D2E/DX2 analytically  !
 ! R13   R(7,8)                  1.4292         calculate D2E/DX2 analytically  !
 ! R14   R(7,23)                 1.4612         calculate D2E/DX2 analytically  !
 ! R15   R(8,9)                  1.4668         calculate D2E/DX2 analytically  !
 ! R16   R(8,11)                 1.4338         calculate D2E/DX2 analytically  !
 ! R17   R(9,10)                 1.4027         calculate D2E/DX2 analytically  !
 ! R18   R(9,14)                 1.4339         calculate D2E/DX2 analytically  !
 ! R19   R(10,29)                1.0851         calculate D2E/DX2 analytically  !
 ! R20   R(11,12)                1.4396         calculate D2E/DX2 analytically  !
 ! R21   R(11,15)                1.4846         calculate D2E/DX2 analytically  !
 ! R22   R(12,13)                1.4357         calculate D2E/DX2 analytically  !
 ! R23   R(12,18)                1.3972         calculate D2E/DX2 analytically  !
 ! R24   R(13,14)                1.3489         calculate D2E/DX2 analytically  !
 ! R25   R(13,31)                1.0846         calculate D2E/DX2 analytically  !
 ! R26   R(14,30)                1.0847         calculate D2E/DX2 analytically  !
 ! R27   R(15,16)                1.4399         calculate D2E/DX2 analytically  !
 ! R28   R(15,36)                1.4011         calculate D2E/DX2 analytically  !
 ! R29   R(16,17)                1.3665         calculate D2E/DX2 analytically  !
 ! R30   R(16,33)                1.0842         calculate D2E/DX2 analytically  !
 ! R31   R(17,18)                1.4034         calculate D2E/DX2 analytically  !
 ! R32   R(17,34)                1.0837         calculate D2E/DX2 analytically  !
 ! R33   R(18,32)                1.0842         calculate D2E/DX2 analytically  !
 ! R34   R(19,20)                1.3936         calculate D2E/DX2 analytically  !
 ! R35   R(19,26)                1.0849         calculate D2E/DX2 analytically  !
 ! R36   R(20,21)                1.4161         calculate D2E/DX2 analytically  !
 ! R37   R(20,25)                1.0844         calculate D2E/DX2 analytically  !
 ! R38   R(21,22)                1.3866         calculate D2E/DX2 analytically  !
 ! R39   R(21,24)                1.0848         calculate D2E/DX2 analytically  !
 ! R40   R(22,23)                1.4925         calculate D2E/DX2 analytically  !
 ! R41   R(23,35)                1.4622         calculate D2E/DX2 analytically  !
 ! R42   R(23,39)                1.2479         calculate D2E/DX2 analytically  !
 ! R43   R(35,36)                1.4218         calculate D2E/DX2 analytically  !
 ! R44   R(35,38)                1.0825         calculate D2E/DX2 analytically  !
 ! R45   R(36,37)                1.0849         calculate D2E/DX2 analytically  !
 ! A1    A(2,1,5)              115.1602         calculate D2E/DX2 analytically  !
 ! A2    A(2,1,19)             114.9915         calculate D2E/DX2 analytically  !
 ! A3    A(5,1,19)             129.8469         calculate D2E/DX2 analytically  !
 ! A4    A(1,2,3)              123.4787         calculate D2E/DX2 analytically  !
 ! A5    A(1,2,22)             126.4843         calculate D2E/DX2 analytically  !
 ! A6    A(3,2,22)             110.0359         calculate D2E/DX2 analytically  !
 ! A7    A(2,3,4)              121.8009         calculate D2E/DX2 analytically  !
 ! A8    A(2,3,7)              110.7355         calculate D2E/DX2 analytically  !
 ! A9    A(4,3,7)              127.4617         calculate D2E/DX2 analytically  !
 ! A10   A(3,4,6)              115.7342         calculate D2E/DX2 analytically  !
 ! A11   A(3,4,10)             114.2694         calculate D2E/DX2 analytically  !
 ! A12   A(6,4,10)             129.9963         calculate D2E/DX2 analytically  !
 ! A13   A(1,5,6)              121.5382         calculate D2E/DX2 analytically  !
 ! A14   A(1,5,27)             119.1554         calculate D2E/DX2 analytically  !
 ! A15   A(6,5,27)             119.3061         calculate D2E/DX2 analytically  !
 ! A16   A(4,6,5)              122.2871         calculate D2E/DX2 analytically  !
 ! A17   A(4,6,28)             118.6966         calculate D2E/DX2 analytically  !
 ! A18   A(5,6,28)             119.016          calculate D2E/DX2 analytically  !
 ! A19   A(3,7,8)              119.0355         calculate D2E/DX2 analytically  !
 ! A20   A(3,7,23)             106.0213         calculate D2E/DX2 analytically  !
 ! A21   A(8,7,23)             134.9424         calculate D2E/DX2 analytically  !
 ! A22   A(7,8,9)              113.9938         calculate D2E/DX2 analytically  !
 ! A23   A(7,8,11)             125.9258         calculate D2E/DX2 analytically  !
 ! A24   A(9,8,11)             120.0735         calculate D2E/DX2 analytically  !
 ! A25   A(8,9,10)             123.8755         calculate D2E/DX2 analytically  !
 ! A26   A(8,9,14)             118.5274         calculate D2E/DX2 analytically  !
 ! A27   A(10,9,14)            117.5964         calculate D2E/DX2 analytically  !
 ! A28   A(4,10,9)             121.3051         calculate D2E/DX2 analytically  !
 ! A29   A(4,10,29)            120.5976         calculate D2E/DX2 analytically  !
 ! A30   A(9,10,29)            118.0963         calculate D2E/DX2 analytically  !
 ! A31   A(8,11,12)            118.0983         calculate D2E/DX2 analytically  !
 ! A32   A(8,11,15)            125.4921         calculate D2E/DX2 analytically  !
 ! A33   A(12,11,15)           116.3962         calculate D2E/DX2 analytically  !
 ! A34   A(11,12,13)           120.2958         calculate D2E/DX2 analytically  !
 ! A35   A(11,12,18)           122.191          calculate D2E/DX2 analytically  !
 ! A36   A(13,12,18)           117.5094         calculate D2E/DX2 analytically  !
 ! A37   A(12,13,14)           121.6088         calculate D2E/DX2 analytically  !
 ! A38   A(12,13,31)           117.7752         calculate D2E/DX2 analytically  !
 ! A39   A(14,13,31)           120.6096         calculate D2E/DX2 analytically  !
 ! A40   A(9,14,13)            121.3371         calculate D2E/DX2 analytically  !
 ! A41   A(9,14,30)            118.0777         calculate D2E/DX2 analytically  !
 ! A42   A(13,14,30)           120.5849         calculate D2E/DX2 analytically  !
 ! A43   A(11,15,16)           117.4672         calculate D2E/DX2 analytically  !
 ! A44   A(11,15,36)           129.8804         calculate D2E/DX2 analytically  !
 ! A45   A(16,15,36)           112.6509         calculate D2E/DX2 analytically  !
 ! A46   A(15,16,17)           123.7766         calculate D2E/DX2 analytically  !
 ! A47   A(15,16,33)           116.9952         calculate D2E/DX2 analytically  !
 ! A48   A(17,16,33)           119.2273         calculate D2E/DX2 analytically  !
 ! A49   A(16,17,18)           119.0133         calculate D2E/DX2 analytically  !
 ! A50   A(16,17,34)           120.4788         calculate D2E/DX2 analytically  !
 ! A51   A(18,17,34)           120.5078         calculate D2E/DX2 analytically  !
 ! A52   A(12,18,17)           121.1476         calculate D2E/DX2 analytically  !
 ! A53   A(12,18,32)           118.5989         calculate D2E/DX2 analytically  !
 ! A54   A(17,18,32)           120.2504         calculate D2E/DX2 analytically  !
 ! A55   A(1,19,20)            119.9084         calculate D2E/DX2 analytically  !
 ! A56   A(1,19,26)            120.5315         calculate D2E/DX2 analytically  !
 ! A57   A(20,19,26)           119.56           calculate D2E/DX2 analytically  !
 ! A58   A(19,20,21)           123.1896         calculate D2E/DX2 analytically  !
 ! A59   A(19,20,25)           118.6277         calculate D2E/DX2 analytically  !
 ! A60   A(21,20,25)           118.1826         calculate D2E/DX2 analytically  !
 ! A61   A(20,21,22)           118.1014         calculate D2E/DX2 analytically  !
 ! A62   A(20,21,24)           119.2882         calculate D2E/DX2 analytically  !
 ! A63   A(22,21,24)           122.6102         calculate D2E/DX2 analytically  !
 ! A64   A(2,22,21)            117.3241         calculate D2E/DX2 analytically  !
 ! A65   A(2,22,23)            105.6411         calculate D2E/DX2 analytically  !
 ! A66   A(21,22,23)           137.0224         calculate D2E/DX2 analytically  !
 ! A67   A(7,23,22)            107.4699         calculate D2E/DX2 analytically  !
 ! A68   A(7,23,35)            125.2788         calculate D2E/DX2 analytically  !
 ! A69   A(7,23,39)            111.9924         calculate D2E/DX2 analytically  !
 ! A70   A(22,23,35)           126.2685         calculate D2E/DX2 analytically  !
 ! A71   A(22,23,39)           109.1305         calculate D2E/DX2 analytically  !
 ! A72   A(35,23,39)            62.3852         calculate D2E/DX2 analytically  !
 ! A73   A(23,35,36)           124.7216         calculate D2E/DX2 analytically  !
 ! A74   A(23,35,38)           116.7115         calculate D2E/DX2 analytically  !
 ! A75   A(36,35,38)           118.5229         calculate D2E/DX2 analytically  !
 ! A76   A(15,36,35)           133.3857         calculate D2E/DX2 analytically  !
 ! A77   A(15,36,37)           114.009          calculate D2E/DX2 analytically  !
 ! A78   A(35,36,37)           112.5825         calculate D2E/DX2 analytically  !
 ! D1    D(5,1,2,3)             -0.2383         calculate D2E/DX2 analytically  !
 ! D2    D(5,1,2,22)          -179.7987         calculate D2E/DX2 analytically  !
 ! D3    D(19,1,2,3)           179.3857         calculate D2E/DX2 analytically  !
 ! D4    D(19,1,2,22)           -0.1746         calculate D2E/DX2 analytically  !
 ! D5    D(2,1,5,6)              0.0079         calculate D2E/DX2 analytically  !
 ! D6    D(2,1,5,27)           179.8295         calculate D2E/DX2 analytically  !
 ! D7    D(19,1,5,6)          -179.5482         calculate D2E/DX2 analytically  !
 ! D8    D(19,1,5,27)            0.2734         calculate D2E/DX2 analytically  !
 ! D9    D(2,1,19,20)            0.0287         calculate D2E/DX2 analytically  !
 ! D10   D(2,1,19,26)         -179.8273         calculate D2E/DX2 analytically  !
 ! D11   D(5,1,19,20)          179.5855         calculate D2E/DX2 analytically  !
 ! D12   D(5,1,19,26)           -0.2706         calculate D2E/DX2 analytically  !
 ! D13   D(1,2,3,4)              0.3244         calculate D2E/DX2 analytically  !
 ! D14   D(1,2,3,7)           -179.2056         calculate D2E/DX2 analytically  !
 ! D15   D(22,2,3,4)           179.9482         calculate D2E/DX2 analytically  !
 ! D16   D(22,2,3,7)             0.4182         calculate D2E/DX2 analytically  !
 ! D17   D(1,2,22,21)            0.0881         calculate D2E/DX2 analytically  !
 ! D18   D(1,2,22,23)         -178.8469         calculate D2E/DX2 analytically  !
 ! D19   D(3,2,22,21)         -179.5216         calculate D2E/DX2 analytically  !
 ! D20   D(3,2,22,23)            1.5435         calculate D2E/DX2 analytically  !
 ! D21   D(2,3,4,6)             -0.1556         calculate D2E/DX2 analytically  !
 ! D22   D(2,3,4,10)           179.9057         calculate D2E/DX2 analytically  !
 ! D23   D(7,3,4,6)            179.2907         calculate D2E/DX2 analytically  !
 ! D24   D(7,3,4,10)            -0.648          calculate D2E/DX2 analytically  !
 ! D25   D(2,3,7,8)            178.0439         calculate D2E/DX2 analytically  !
 ! D26   D(2,3,7,23)            -2.2326         calculate D2E/DX2 analytically  !
 ! D27   D(4,3,7,8)             -1.4529         calculate D2E/DX2 analytically  !
 ! D28   D(4,3,7,23)           178.2706         calculate D2E/DX2 analytically  !
 ! D29   D(3,4,6,5)             -0.0703         calculate D2E/DX2 analytically  !
 ! D30   D(3,4,6,28)          -179.9011         calculate D2E/DX2 analytically  !
 ! D31   D(10,4,6,5)           179.8568         calculate D2E/DX2 analytically  !
 ! D32   D(10,4,6,28)            0.0259         calculate D2E/DX2 analytically  !
 ! D33   D(3,4,10,9)             1.2843         calculate D2E/DX2 analytically  !
 ! D34   D(3,4,10,29)         -179.098          calculate D2E/DX2 analytically  !
 ! D35   D(6,4,10,9)          -178.6436         calculate D2E/DX2 analytically  !
 ! D36   D(6,4,10,29)            0.974          calculate D2E/DX2 analytically  !
 ! D37   D(1,5,6,4)              0.1446         calculate D2E/DX2 analytically  !
 ! D38   D(1,5,6,28)           179.9749         calculate D2E/DX2 analytically  !
 ! D39   D(27,5,6,4)          -179.6767         calculate D2E/DX2 analytically  !
 ! D40   D(27,5,6,28)            0.1536         calculate D2E/DX2 analytically  !
 ! D41   D(3,7,8,9)              2.659          calculate D2E/DX2 analytically  !
 ! D42   D(3,7,8,11)          -176.3752         calculate D2E/DX2 analytically  !
 ! D43   D(23,7,8,9)          -176.9656         calculate D2E/DX2 analytically  !
 ! D44   D(23,7,8,11)            4.0003         calculate D2E/DX2 analytically  !
 ! D45   D(3,7,23,22)            3.1078         calculate D2E/DX2 analytically  !
 ! D46   D(3,7,23,35)          172.328          calculate D2E/DX2 analytically  !
 ! D47   D(3,7,23,39)         -116.7361         calculate D2E/DX2 analytically  !
 ! D48   D(8,7,23,22)         -177.2338         calculate D2E/DX2 analytically  !
 ! D49   D(8,7,23,35)           -8.0135         calculate D2E/DX2 analytically  !
 ! D50   D(8,7,23,39)           62.9223         calculate D2E/DX2 analytically  !
 ! D51   D(7,8,9,10)            -2.1287         calculate D2E/DX2 analytically  !
 ! D52   D(7,8,9,14)           178.2036         calculate D2E/DX2 analytically  !
 ! D53   D(11,8,9,10)          176.9676         calculate D2E/DX2 analytically  !
 ! D54   D(11,8,9,14)           -2.7002         calculate D2E/DX2 analytically  !
 ! D55   D(7,8,11,12)         -179.0833         calculate D2E/DX2 analytically  !
 ! D56   D(7,8,11,15)            2.3002         calculate D2E/DX2 analytically  !
 ! D57   D(9,8,11,12)            1.9364         calculate D2E/DX2 analytically  !
 ! D58   D(9,8,11,15)         -176.6801         calculate D2E/DX2 analytically  !
 ! D59   D(8,9,10,4)             0.1154         calculate D2E/DX2 analytically  !
 ! D60   D(8,9,10,29)         -179.5115         calculate D2E/DX2 analytically  !
 ! D61   D(14,9,10,4)          179.786          calculate D2E/DX2 analytically  !
 ! D62   D(14,9,10,29)           0.1591         calculate D2E/DX2 analytically  !
 ! D63   D(8,9,14,13)            1.2951         calculate D2E/DX2 analytically  !
 ! D64   D(8,9,14,30)         -178.912          calculate D2E/DX2 analytically  !
 ! D65   D(10,9,14,13)        -178.3937         calculate D2E/DX2 analytically  !
 ! D66   D(10,9,14,30)           1.3992         calculate D2E/DX2 analytically  !
 ! D67   D(8,11,12,13)           0.1877         calculate D2E/DX2 analytically  !
 ! D68   D(8,11,12,18)        -179.0853         calculate D2E/DX2 analytically  !
 ! D69   D(15,11,12,13)        178.9301         calculate D2E/DX2 analytically  !
 ! D70   D(15,11,12,18)         -0.3428         calculate D2E/DX2 analytically  !
 ! D71   D(8,11,15,16)         178.1701         calculate D2E/DX2 analytically  !
 ! D72   D(8,11,15,36)          -2.3162         calculate D2E/DX2 analytically  !
 ! D73   D(12,11,15,16)         -0.4674         calculate D2E/DX2 analytically  !
 ! D74   D(12,11,15,36)        179.0463         calculate D2E/DX2 analytically  !
 ! D75   D(11,12,13,14)         -1.6394         calculate D2E/DX2 analytically  !
 ! D76   D(11,12,13,31)        179.2758         calculate D2E/DX2 analytically  !
 ! D77   D(18,12,13,14)        177.6669         calculate D2E/DX2 analytically  !
 ! D78   D(18,12,13,31)         -1.4179         calculate D2E/DX2 analytically  !
 ! D79   D(11,12,18,17)          0.8259         calculate D2E/DX2 analytically  !
 ! D80   D(11,12,18,32)       -179.805          calculate D2E/DX2 analytically  !
 ! D81   D(13,12,18,17)       -178.4663         calculate D2E/DX2 analytically  !
 ! D82   D(13,12,18,32)          0.9027         calculate D2E/DX2 analytically  !
 ! D83   D(12,13,14,9)           0.8557         calculate D2E/DX2 analytically  !
 ! D84   D(12,13,14,30)       -178.932          calculate D2E/DX2 analytically  !
 ! D85   D(31,13,14,9)         179.9148         calculate D2E/DX2 analytically  !
 ! D86   D(31,13,14,30)          0.1271         calculate D2E/DX2 analytically  !
 ! D87   D(11,15,16,17)          0.8808         calculate D2E/DX2 analytically  !
 ! D88   D(11,15,16,33)       -179.4565         calculate D2E/DX2 analytically  !
 ! D89   D(36,15,16,17)       -178.7148         calculate D2E/DX2 analytically  !
 ! D90   D(36,15,16,33)          0.9478         calculate D2E/DX2 analytically  !
 ! D91   D(11,15,36,35)         -1.9992         calculate D2E/DX2 analytically  !
 ! D92   D(11,15,36,37)        179.9037         calculate D2E/DX2 analytically  !
 ! D93   D(16,15,36,35)        177.5333         calculate D2E/DX2 analytically  !
 ! D94   D(16,15,36,37)         -0.5638         calculate D2E/DX2 analytically  !
 ! D95   D(15,16,17,18)         -0.4354         calculate D2E/DX2 analytically  !
 ! D96   D(15,16,17,34)        179.7017         calculate D2E/DX2 analytically  !
 ! D97   D(33,16,17,18)        179.909          calculate D2E/DX2 analytically  !
 ! D98   D(33,16,17,34)          0.0462         calculate D2E/DX2 analytically  !
 ! D99   D(16,17,18,12)         -0.4346         calculate D2E/DX2 analytically  !
 ! D100  D(16,17,18,32)       -179.7933         calculate D2E/DX2 analytically  !
 ! D101  D(34,17,18,12)        179.4283         calculate D2E/DX2 analytically  !
 ! D102  D(34,17,18,32)          0.0696         calculate D2E/DX2 analytically  !
 ! D103  D(1,19,20,21)           0.1986         calculate D2E/DX2 analytically  !
 ! D104  D(1,19,20,25)        -179.7257         calculate D2E/DX2 analytically  !
 ! D105  D(26,19,20,21)       -179.9439         calculate D2E/DX2 analytically  !
 ! D106  D(26,19,20,25)          0.1318         calculate D2E/DX2 analytically  !
 ! D107  D(19,20,21,22)         -0.2871         calculate D2E/DX2 analytically  !
 ! D108  D(19,20,21,24)        179.8403         calculate D2E/DX2 analytically  !
 ! D109  D(25,20,21,22)        179.6375         calculate D2E/DX2 analytically  !
 ! D110  D(25,20,21,24)         -0.2351         calculate D2E/DX2 analytically  !
 ! D111  D(20,21,22,2)           0.1418         calculate D2E/DX2 analytically  !
 ! D112  D(20,21,22,23)        178.6373         calculate D2E/DX2 analytically  !
 ! D113  D(24,21,22,2)        -179.9901         calculate D2E/DX2 analytically  !
 ! D114  D(24,21,22,23)         -1.4946         calculate D2E/DX2 analytically  !
 ! D115  D(2,22,23,7)           -2.8723         calculate D2E/DX2 analytically  !
 ! D116  D(2,22,23,35)        -171.9559         calculate D2E/DX2 analytically  !
 ! D117  D(2,22,23,39)         118.7765         calculate D2E/DX2 analytically  !
 ! D118  D(21,22,23,7)         178.5157         calculate D2E/DX2 analytically  !
 ! D119  D(21,22,23,35)          9.4322         calculate D2E/DX2 analytically  !
 ! D120  D(21,22,23,39)        -59.8355         calculate D2E/DX2 analytically  !
 ! D121  D(7,23,35,36)           3.886          calculate D2E/DX2 analytically  !
 ! D122  D(7,23,35,38)        -173.6589         calculate D2E/DX2 analytically  !
 ! D123  D(22,23,35,36)        171.1018         calculate D2E/DX2 analytically  !
 ! D124  D(22,23,35,38)         -6.4432         calculate D2E/DX2 analytically  !
 ! D125  D(39,23,35,36)        -94.6023         calculate D2E/DX2 analytically  !
 ! D126  D(39,23,35,38)         87.8527         calculate D2E/DX2 analytically  !
 ! D127  D(23,35,36,15)          1.8018         calculate D2E/DX2 analytically  !
 ! D128  D(23,35,36,37)        179.9192         calculate D2E/DX2 analytically  !
 ! D129  D(38,35,36,15)        179.3058         calculate D2E/DX2 analytically  !
 ! D130  D(38,35,36,37)         -2.5768         calculate D2E/DX2 analytically  !
 --------------------------------------------------------------------------------
 Trust Radius=3.00D-01 FncErr=1.00D-07 GrdErr=1.00D-06
 Number of steps in this run=    234 maximum allowed number of steps=    234.
 Search for a saddle point of order  1.
 GradGradGradGradGradGradGradGradGradGradGradGradGradGradGradGradGradGrad

                          Input orientation:                          
 ---------------------------------------------------------------------
 Center     Atomic      Atomic             Coordinates (Angstroms)
 Number     Number       Type             X           Y           Z
 ---------------------------------------------------------------------
      1          6           0       -3.829150    0.381210   -0.051490
      2          6           0       -2.529600   -0.119290    0.008170
      3          6           0       -1.388850    0.692990    0.023440
      4          6           0       -1.476630    2.081490   -0.014040
      5          6           0       -3.931220    1.820760   -0.092240
      6          6           0       -2.811990    2.623180   -0.072790
      7          6           0       -0.218610   -0.091020    0.068750
      8          6           0        1.053650    0.559840    0.047780
      9          6           0        0.974310    2.024490    0.041000
     10          6           0       -0.230540    2.742080    0.010430
     11          6           0        2.330930   -0.090670    0.014160
     12          6           0        3.511650    0.733030    0.017140
     13          6           0        3.396660    2.163600    0.057020
     14          6           0        2.195000    2.776490    0.059690
     15          6           0        2.549660   -1.557550   -0.053190
     16          6           0        3.910370   -2.023780   -0.119540
     17          6           0        4.998240   -1.196950   -0.106250
     18          6           0        4.798070    0.190150   -0.032920
     19          6           0       -4.847890   -0.601060   -0.071280
     20          6           0       -4.510800   -1.952650   -0.031220
     21          6           0       -3.174490   -2.416700    0.033880
     22          6           0       -2.156430   -1.475500    0.052550
     23          6           0       -0.666320   -1.480280    0.137120
     24          1           0       -2.984350   -3.484290    0.064960
     25          1           0       -5.307750   -2.687700   -0.051930
     26          1           0       -5.892240   -0.311100   -0.119840
     27          1           0       -4.913010    2.279850   -0.142220
     28          1           0       -2.936250    3.700950   -0.105430
     29          1           0       -0.179690    3.825900   -0.000190
     30          1           0        2.127600    3.859060    0.072700
     31          1           0        4.312730    2.744130    0.069910
     32          1           0        5.646740    0.864770   -0.024480
     33          1           0        4.060970   -3.095920   -0.177620
     34          1           0        6.000440   -1.606390   -0.153900
     35          6           0        0.201750   -2.652990    0.041160
     36          6           0        1.619560   -2.605440   -0.054350
     37          1           0        2.066420   -3.592240   -0.114280
     38          1           0       -0.286840   -3.618250    0.002940
     39          1           0       -0.318880   -2.031380    1.201420
 ---------------------------------------------------------------------
                    Distance matrix (angstroms):
                    1          2          3          4          5
     1  C    0.000000
     2  C    1.393876   0.000000
     3  C    2.461277   1.400479   0.000000
     4  C    2.902879   2.439810   1.391777   0.000000
     5  C    1.443739   2.395499   2.783683   2.469637   0.000000
     6  C    2.462011   2.758159   2.400046   1.442243   1.377292
     7  C    3.643276   2.311957   1.409321   2.511826   4.179030
     8  C    4.887075   3.647255   2.446248   2.953228   5.143778
     9  C    5.077613   4.107829   2.712513   2.452220   4.911566
    10  C    4.304362   3.670575   2.353852   1.410574   3.815023
    11  C    6.178476   4.860618   3.801443   4.383673   6.548237
    12  C    7.349546   6.101084   4.900668   5.167422   7.522728
    13  C    7.443186   6.350947   5.006489   4.874500   7.337414
    14  C    6.483835   5.541664   4.145632   3.737556   6.202183
    15  C    6.666934   5.279322   4.536812   5.427260   7.308646
    16  C    8.104861   6.716890   5.956762   6.773783   8.733371
    17  C    8.967519   7.605447   6.662103   7.258141   9.425605
    18  C    8.629355   7.334316   6.207576   6.553578   8.880479
    19  C    1.415301   2.369152   3.694387   4.308683   2.589582
    20  C    2.431452   2.699614   4.092551   5.047848   3.818149
    21  C    2.874747   2.386344   3.585916   4.808195   4.306346
    22  C    2.501237   1.407313   2.300516   3.621980   3.746488
    23  C    3.674808   2.311003   2.293049   3.655907   4.648553
    24  H    3.958451   3.396064   4.471802   5.766920   5.391181
    25  H    3.406533   3.783974   5.176149   6.117523   4.714093
    26  H    2.177224   3.370538   4.616194   5.023275   2.896755
    27  H    2.188108   3.385134   3.868497   3.444486   1.084976
    28  H    3.438147   3.843501   3.385096   2.182085   2.127264
    29  H    5.018673   4.592023   3.358236   2.173755   4.254766
    30  H    6.898821   6.125434   4.732002   4.019671   6.394621
    31  H    8.478699   7.417578   6.059484   5.827764   8.297085
    32  H    9.488259   8.235410   7.037850   7.226543   9.625790
    33  H    8.623244   7.233979   6.640542   7.582700   9.383823
    34  H   10.029052   8.660215   7.740814   8.338261  10.506523
    35  C    5.046098   3.725721   3.704849   5.023476   6.092099
    36  C    6.213576   4.837394   4.465000   5.617413   7.099566
    37  H    7.109852   5.761925   5.506456   6.689878   8.079155
    38  H    5.342902   4.156046   4.449903   5.822622   6.547778
    39  H    4.439861   3.157090   3.155101   4.442232   5.437052
                    6          7          8          9         10
     6  C    0.000000
     7  C    3.756665   0.000000
     8  C    4.383501   1.429232   0.000000
     9  C    3.835029   2.428829   1.466813   0.000000
    10  C    2.585526   2.833725   2.532333   1.402688   0.000000
    11  C    5.815683   2.550124   1.433784   2.512974   3.819112
    12  C    6.600695   3.820545   2.464284   2.847197   4.247389
    13  C    6.226990   4.260707   2.839336   2.426394   3.673335
    14  C    5.011088   3.748094   2.493263   1.433854   2.426284
    15  C    6.798984   3.135107   2.594529   3.914283   5.120584
    16  C    8.172304   4.562838   3.855378   5.003470   6.314859
    17  C    8.694493   5.335656   4.320859   5.156682   6.547497
    18  C    7.989633   5.025582   3.763491   4.241628   5.639250
    19  C    3.813216   4.659397   6.015816   6.387811   5.701156
    20  C    4.881179   4.679589   6.105895   6.775639   6.353176
    21  C    5.054026   3.761280   5.170798   6.077562   5.939731
    22  C    4.152667   2.381637   3.800953   4.695913   4.636681
    23  C    4.635337   1.461219   2.669900   3.870958   4.246679
    24  H    6.111454   4.377626   5.714956   6.783673   6.808386
    25  H    5.868109   5.714600   7.143099   7.853512   7.434007
    26  H    4.254427   5.681028   7.002287   7.254678   6.433796
    27  H    2.130019   5.263357   6.212533   5.895703   4.707705
    28  H    1.085400   4.668505   5.080290   4.257281   2.872929
    29  H    2.894963   3.917720   3.491501   2.139741   1.085064
    30  H    5.093929   4.594328   3.469703   2.167194   2.610047
    31  H    7.127175   5.345196   3.923419   3.415226   4.543660
    32  H    8.639702   5.943447   4.603768   4.814649   6.169922
    33  H    8.941850   5.234972   4.739131   5.982797   7.248080
    34  H    9.775212   6.404881   5.404069   6.203488   7.600086
    35  C    6.077301   2.596373   3.323861   4.740851   5.412449
    36  C    6.854009   3.117103   3.217092   4.675649   5.658890
    37  H    7.901396   4.184902   4.276884   5.724026   6.739079
    38  H    6.733318   3.528504   4.388093   5.782081   6.360584
    39  H    5.431771   2.248998   3.151055   4.412369   4.920588
                   11         12         13         14         15
    11  C    0.000000
    12  C    1.439649   0.000000
    13  C    2.493863   1.435738   0.000000
    14  C    2.870741   2.431277   1.348936   0.000000
    15  C    1.484626   2.485383   3.817920   4.349992   0.000000
    16  C    2.499884   2.788846   4.222466   5.100707   1.439897
    17  C    2.890138   2.439262   3.726260   4.865585   2.475559
    18  C    2.483517   1.397176   2.422095   3.670655   2.847844
    19  C    7.197448   8.465785   8.696690   7.811997   7.459152
    20  C    7.090719   8.460196   8.915112   8.206143   7.071540
    21  C    5.976659   7.390910   8.009975   7.470028   5.788922
    22  C    4.696342   6.083255   6.639268   6.083947   4.707993
    23  C    3.306001   4.729542   5.458213   5.129643   3.222533
    24  H    6.306460   7.745069   8.521503   8.125458   5.861020
    25  H    8.068356   9.459809   9.965628   9.282300   7.938270
    26  H    8.227215   9.462670   9.614525   8.658458   8.533684
    27  H    7.623548   8.566968   8.312871   7.128199   8.391961
    28  H    6.491061   7.099224   6.518864   5.216476   7.599326
    29  H    4.652197   4.815821   3.944210   2.596921   6.036033
    30  H    3.955393   3.419173   2.117863   1.084744   5.434487
    31  H    3.459296   2.165418   1.084604   2.118002   4.650594
    32  H    3.450935   2.139555   2.599319   3.946678   3.931967
    33  H    3.472945   3.873053   5.306497   6.166308   2.160121
    34  H    3.973783   3.419973   4.586609   5.808324   3.452595
    35  C    3.331609   4.735097   5.779900   5.783826   2.592599
    36  C    2.614347   3.838033   5.090602   5.413807   1.401128
    37  H    3.513895   4.562228   5.910040   6.372403   2.092180
    38  H    4.392797   5.776016   6.855719   6.859698   3.506475
    39  H    3.492483   4.870056   5.719506   5.544254   3.166557
                   16         17         18         19         20
    16  C    0.000000
    17  C    1.366487   0.000000
    18  C    2.386839   1.403386   0.000000
    19  C    8.873194   9.864207   9.678431   0.000000
    20  C    8.421934   9.539316   9.552312   1.393567   0.000000
    21  C    7.097406   8.264438   8.388197   2.471411   1.416088
    22  C    6.093955   7.161851   7.151697   2.832655   2.403695
    23  C    4.615989   5.676860   5.716538   4.278082   3.877048
    24  H    7.050127   8.305599   8.606808   3.435747   2.164537
    25  H    9.242245  10.413391  10.507615   2.136800   1.084369
    26  H    9.951102  10.926457  10.702408   1.084943   2.147304
    27  H    9.817015  10.503443   9.933975   2.882519   4.253017
    28  H    8.924625   9.324460   8.494156   4.707741   5.869234
    29  H    7.138739   7.214654   6.164239   6.433904   7.221573
    30  H    6.150043   5.816858   4.539104   8.280752   8.823555
    31  H    4.788606   4.004131   2.601719   9.753317   9.996232
    32  H    3.371608   2.162852   1.084170  10.596608  10.541040
    33  H    1.084222   2.118881   3.370832   9.252212   8.648916
    34  H    2.131616   1.083659   2.165153  10.895126  10.517657
    35  C    3.765049   5.014788   5.405099   5.451782   4.764855
    36  C    2.364400   3.660876   4.233050   6.770948   6.165062
    37  H    2.420795   3.785901   4.666370   7.533704   6.779010
    38  H    4.491537   5.814352   6.353071   5.469197   4.540620
    39  H    4.430750   5.538776   5.713315   4.917063   4.370102
                   21         22         23         24         25
    21  C    0.000000
    22  C    1.386597   0.000000
    23  C    2.679264   1.492516   0.000000
    24  H    1.084835   2.172750   3.065049   0.000000
    25  H    2.152116   3.378041   4.799633   2.458944   0.000000
    26  H    3.441416   3.916864   5.361273   4.308029   2.448360
    27  H    5.011092   4.662545   5.678995   6.081773   4.984027
    28  H    6.123872   5.237243   5.661851   7.187421   6.814816
    29  H    6.923875   5.658191   5.330217   7.830022   8.290154
    30  H    8.215767   6.841845   6.026499   8.947451   9.907574
    31  H    9.093620   7.723704   6.530015   9.593780  11.048677
    32  H    9.411990   8.146917   6.736475   9.665301  11.516147
    33  H    7.270348   6.429215   5.005659   7.060185   9.378452
    34  H    9.212557   8.160532   6.674300   9.181550  11.360228
    35  C    3.384506   2.635835   1.462191   3.292850   5.510396
    36  C    4.798575   3.942879   2.554974   4.688560   6.927799
    37  H    5.373173   4.726614   3.462867   5.055102   7.429701
    38  H    3.127811   2.844153   2.175529   2.701546   5.106708
    39  H    3.109040   2.237296   1.247862   3.241484   5.185602
                   26         27         28         29         30
    26  H    0.000000
    27  H    2.769912   0.000000
    28  H    4.983436   2.434843   0.000000
    29  H    7.054241   4.981442   2.761397   0.000000
    30  H    9.041302   7.218745   5.069448   2.308679   0.000000
    31  H   10.654194   9.239850   7.313956   4.621361   2.453135
    32  H   11.599130  10.654794   9.039811   6.535761   4.621641
    33  H   10.335616  10.460998   9.755190   8.119499   7.223041
    34  H   11.963059  11.584748  10.393971   8.229666   6.702341
    35  C    6.530473   7.108256   7.088095   6.490241   6.790927
    36  C    7.854643   8.157711   7.780011   6.678500   6.485677
    37  H    8.608495   9.121111   8.844060   7.751569   7.453897
    38  H    6.509441   7.497340   7.784716   7.444922   7.857770
    39  H    5.980588   6.441902   6.435689   5.980884   6.477388
                   31         32         33         34         35
    31  H    0.000000
    32  H    2.306618   0.000000
    33  H    5.850713   4.269096   0.000000
    34  H    4.671775   2.499697   2.445569   0.000000
    35  C    6.784533   6.482813   3.890711   5.895611   0.000000
    36  C    5.990535   5.316148   2.493241   4.494454   1.421819
    37  H    6.725282   5.717665   2.056350   4.407004   2.093644
    38  H    7.851141   7.436773   4.382794   6.603186   1.082547
    39  H    6.748157   6.743822   4.713606   6.476983   1.415506
                   36         37         38         39
    36  C    0.000000
    37  H    1.084919   0.000000
    38  H    2.159497   2.356321   0.000000
    39  H    2.379927   3.139587   1.988853   0.000000
 Stoichiometry    C25H14(3)
 Framework group  C1[X(C25H14)]
 Deg. of freedom   111
 Full point group                 C1      NOp   1
 Largest Abelian subgroup         C1      NOp   1
 Largest concise Abelian subgroup C1      NOp   1
                         Standard orientation:                         
 ---------------------------------------------------------------------
 Center     Atomic      Atomic             Coordinates (Angstroms)
 Number     Number       Type             X           Y           Z
 ---------------------------------------------------------------------
      1          6           0       -3.829149    0.381210   -0.051490
      2          6           0       -2.529599   -0.119290    0.008170
      3          6           0       -1.388849    0.692990    0.023440
      4          6           0       -1.476629    2.081490   -0.014040
      5          6           0       -3.931219    1.820760   -0.092240
      6          6           0       -2.811989    2.623180   -0.072790
      7          6           0       -0.218609   -0.091020    0.068750
      8          6           0        1.053651    0.559840    0.047780
      9          6           0        0.974311    2.024490    0.041000
     10          6           0       -0.230539    2.742080    0.010430
     11          6           0        2.330931   -0.090670    0.014160
     12          6           0        3.511651    0.733030    0.017140
     13          6           0        3.396661    2.163600    0.057020
     14          6           0        2.195001    2.776490    0.059690
     15          6           0        2.549661   -1.557550   -0.053190
     16          6           0        3.910371   -2.023780   -0.119540
     17          6           0        4.998241   -1.196950   -0.106250
     18          6           0        4.798071    0.190150   -0.032920
     19          6           0       -4.847889   -0.601060   -0.071280
     20          6           0       -4.510799   -1.952650   -0.031220
     21          6           0       -3.174489   -2.416700    0.033880
     22          6           0       -2.156429   -1.475500    0.052550
     23          6           0       -0.666319   -1.480280    0.137120
     24          1           0       -2.984349   -3.484290    0.064960
     25          1           0       -5.307749   -2.687700   -0.051930
     26          1           0       -5.892239   -0.311099   -0.119840
     27          1           0       -4.913009    2.279850   -0.142220
     28          1           0       -2.936249    3.700950   -0.105430
     29          1           0       -0.179689    3.825900   -0.000190
     30          1           0        2.127601    3.859060    0.072700
     31          1           0        4.312731    2.744130    0.069910
     32          1           0        5.646741    0.864770   -0.024480
     33          1           0        4.060971   -3.095920   -0.177620
     34          1           0        6.000441   -1.606390   -0.153900
     35          6           0        0.201751   -2.652990    0.041160
     36          6           0        1.619561   -2.605440   -0.054350
     37          1           0        2.066421   -3.592240   -0.114280
     38          1           0       -0.286839   -3.618250    0.002940
     39          1           0       -0.318879   -2.031380    1.201420
 ---------------------------------------------------------------------
 Rotational constants (GHZ):      0.4873419      0.1794352      0.1313344
 Standard basis: 6-311+G(d,p) (5D, 7F)
 There are   659 symmetry adapted cartesian basis functions of A   symmetry.
 There are   634 symmetry adapted basis functions of A   symmetry.
   634 basis functions,  1012 primitive gaussians,   659 cartesian basis functions
    83 alpha electrons       81 beta electrons
       nuclear repulsion energy      1937.1379775488 Hartrees.
 NAtoms=   39 NActive=   39 NUniq=   39 SFac= 1.00D+00 NAtFMM=   60 NAOKFM=F Big=F
 Integral buffers will be    131072 words long.
 Raffenetti 2 integral format.
 Two-electron integral symmetry is turned on.
 One-electron integrals computed using PRISM.
 NBasis=   634 RedAO= T EigKep=  1.07D-06  NBF=   634
 NBsUse=   616 1.00D-06 EigRej=  8.34D-07 NBFU=   616
 ExpMin= 4.38D-02 ExpMax= 4.56D+03 ExpMxC= 6.82D+02 IAcc=2 IRadAn=         4 AccDes= 0.00D+00
 Harris functional with IExCor=  402 and IRadAn=       4 diagonalized for initial guess.
 HarFok:  IExCor=  402 AccDes= 0.00D+00 IRadAn=         4 IDoV= 1 UseB2=F ITyADJ=14
 ICtDFT=  3500011 ScaDFX=  1.000000  1.000000  1.000000  1.000000
 FoFCou: FMM=F IPFlag=           0 FMFlag=      100000 FMFlg1=           0
         NFxFlg=           0 DoJE=T BraDBF=F KetDBF=T FulRan=T
         wScrn=  0.000000 ICntrl=     500 IOpCl=  0 I1Cent=   200000004 NGrid=           0
         NMat0=    1 NMatS0=      1 NMatT0=    0 NMatD0=    1 NMtDS0=    0 NMtDT0=    0
 Petite list used in FoFCou.
 Initial guess <Sx>= 0.0000 <Sy>= 0.0000 <Sz>= 1.0000 <S**2>= 2.0000 S= 1.0000
 Requested convergence on RMS density matrix=1.00D-08 within 128 cycles.
 Requested convergence on MAX density matrix=1.00D-06.
 Requested convergence on             energy=1.00D-06.
 No special actions if energy rises.
 Restarting incremental Fock formation.
 SCF Done:  E(UB3LYP) =  -961.218643224     A.U. after   25 cycles
            NFock= 25  Conv=0.74D-08     -V/T= 2.0044
 <Sx>= 0.0000 <Sy>= 0.0000 <Sz>= 1.0000 <S**2>= 2.0160 S= 1.0053
 <L.S>= 0.000000000000E+00
 Annihilation of the first spin contaminant:
 S**2 before annihilation     2.0160,   after     2.0002
 DoSCS=F DFT=T ScalE2(SS,OS)=  1.000000  1.000000
 Range of M.O.s used for correlation:     1   616
 NBasis=   634 NAE=    83 NBE=    81 NFC=     0 NFV=     0
 NROrb=    616 NOA=    83 NOB=    81 NVA=   533 NVB=   535

 **** Warning!!: The largest alpha MO coefficient is  0.16800383D+03


 **** Warning!!: The smallest alpha delta epsilon is  0.71258920D-01


 **** Warning!!: The largest beta MO coefficient is  0.15955638D+03


 **** Warning!!: The smallest beta delta epsilon is  0.68725482D-01

 Symmetrizing basis deriv contribution to polar:
 IMax=3 JMax=2 DiffMx= 0.00D+00
 G2DrvN: will do    40 centers at a time, making    1 passes.
 Calling FoFCou, ICntrl=  3107 FMM=F I1Cent=   0 AccDes= 0.00D+00.
 End of G2Drv F.D. properties file   721 does not exist.
 End of G2Drv F.D. properties file   722 does not exist.
 End of G2Drv F.D. properties file   788 does not exist.
          IDoAtm=111111111111111111111111111111111111111
          Differentiating once with respect to nuclear coordinates.
          There are   120 degrees of freedom in the 1st order CPHF.  IDoFFX=6 NUNeed=     0.
    114 vectors produced by pass  0 Test12= 8.76D-14 1.00D-09 XBig12= 6.06D-01 1.77D-01.
 AX will form   114 AO Fock derivatives at one time.
    114 vectors produced by pass  1 Test12= 8.76D-14 1.00D-09 XBig12= 1.77D-01 7.20D-02.
    114 vectors produced by pass  2 Test12= 8.76D-14 1.00D-09 XBig12= 2.88D-03 1.08D-02.
    114 vectors produced by pass  3 Test12= 8.76D-14 1.00D-09 XBig12= 5.15D-05 1.09D-03.
    114 vectors produced by pass  4 Test12= 8.76D-14 1.00D-09 XBig12= 5.52D-07 8.72D-05.
    114 vectors produced by pass  5 Test12= 8.76D-14 1.00D-09 XBig12= 3.04D-09 3.60D-06.
    114 vectors produced by pass  6 Test12= 8.76D-14 1.00D-09 XBig12= 6.76D-11 6.11D-07.
    114 vectors produced by pass  7 Test12= 8.76D-14 1.00D-09 XBig12= 1.40D-11 2.09D-07.
    113 vectors produced by pass  8 Test12= 8.76D-14 1.00D-09 XBig12= 1.98D-12 8.44D-08.
     79 vectors produced by pass  9 Test12= 8.76D-14 1.00D-09 XBig12= 2.83D-14 9.98D-09.
     21 vectors produced by pass 10 Test12= 8.76D-14 1.00D-09 XBig12= 5.60D-16 1.50D-09.
     21 vectors produced by pass 11 Test12= 8.76D-14 1.00D-09 XBig12= 2.26D-13 3.11D-08.
     21 vectors produced by pass 12 Test12= 8.76D-14 1.00D-09 XBig12= 9.10D-13 5.41D-08.
     21 vectors produced by pass 13 Test12= 8.76D-14 1.00D-09 XBig12= 4.04D-13 3.22D-08.
     21 vectors produced by pass 14 Test12= 8.76D-14 1.00D-09 XBig12= 3.80D-13 3.16D-08.
     21 vectors produced by pass 15 Test12= 8.76D-14 1.00D-09 XBig12= 1.49D-13 2.05D-08.
     21 vectors produced by pass 16 Test12= 8.76D-14 1.00D-09 XBig12= 6.12D-13 4.17D-08.
     21 vectors produced by pass 17 Test12= 8.76D-14 1.00D-09 XBig12= 2.46D-13 2.27D-08.
     21 vectors produced by pass 18 Test12= 8.76D-14 1.00D-09 XBig12= 2.49D-13 2.31D-08.
     21 vectors produced by pass 19 Test12= 8.76D-14 1.00D-09 XBig12= 3.34D-13 2.79D-08.
     21 vectors produced by pass 20 Test12= 8.76D-14 1.00D-09 XBig12= 1.35D-13 1.96D-08.
     21 vectors produced by pass 21 Test12= 8.76D-14 1.00D-09 XBig12= 1.38D-13 1.65D-08.
     21 vectors produced by pass 22 Test12= 8.76D-14 1.00D-09 XBig12= 2.81D-13 3.34D-08.
     21 vectors produced by pass 23 Test12= 8.76D-14 1.00D-09 XBig12= 1.88D-13 2.02D-08.
     21 vectors produced by pass 24 Test12= 8.76D-14 1.00D-09 XBig12= 1.94D-13 1.81D-08.
     21 vectors produced by pass 25 Test12= 8.76D-14 1.00D-09 XBig12= 2.39D-13 2.36D-08.
     21 vectors produced by pass 26 Test12= 8.76D-14 1.00D-09 XBig12= 2.67D-13 2.30D-08.
     21 vectors produced by pass 27 Test12= 8.76D-14 1.00D-09 XBig12= 3.18D-13 2.60D-08.
     21 vectors produced by pass 28 Test12= 8.76D-14 1.00D-09 XBig12= 2.58D-13 2.09D-08.
     21 vectors produced by pass 29 Test12= 8.76D-14 1.00D-09 XBig12= 1.83D-13 2.02D-08.
     21 vectors produced by pass 30 Test12= 8.76D-14 1.00D-09 XBig12= 1.51D-13 1.66D-08.
     21 vectors produced by pass 31 Test12= 8.76D-14 1.00D-09 XBig12= 1.99D-13 1.99D-08.
     21 vectors produced by pass 32 Test12= 8.76D-14 1.00D-09 XBig12= 1.57D-13 2.38D-08.
     21 vectors produced by pass 33 Test12= 8.76D-14 1.00D-09 XBig12= 1.29D-13 1.74D-08.
     21 vectors produced by pass 34 Test12= 8.76D-14 1.00D-09 XBig12= 2.35D-13 2.58D-08.
     20 vectors produced by pass 35 Test12= 8.76D-14 1.00D-09 XBig12= 8.21D-14 1.11D-08.
     20 vectors produced by pass 36 Test12= 8.76D-14 1.00D-09 XBig12= 1.12D-13 1.41D-08.
     20 vectors produced by pass 37 Test12= 8.76D-14 1.00D-09 XBig12= 6.42D-14 9.67D-09.
     20 vectors produced by pass 38 Test12= 8.76D-14 1.00D-09 XBig12= 1.28D-13 1.61D-08.
     20 vectors produced by pass 39 Test12= 8.76D-14 1.00D-09 XBig12= 1.75D-13 1.55D-08.
     20 vectors produced by pass 40 Test12= 8.76D-14 1.00D-09 XBig12= 1.55D-13 1.52D-08.
     20 vectors produced by pass 41 Test12= 8.76D-14 1.00D-09 XBig12= 1.33D-13 1.54D-08.
     20 vectors produced by pass 42 Test12= 8.76D-14 1.00D-09 XBig12= 1.55D-13 1.53D-08.
     20 vectors produced by pass 43 Test12= 8.76D-14 1.00D-09 XBig12= 6.83D-14 9.10D-09.
     20 vectors produced by pass 44 Test12= 8.76D-14 1.00D-09 XBig12= 1.95D-13 1.65D-08.
     20 vectors produced by pass 45 Test12= 8.76D-14 1.00D-09 XBig12= 1.09D-13 1.37D-08.
     20 vectors produced by pass 46 Test12= 8.76D-14 1.00D-09 XBig12= 1.01D-13 1.55D-08.
     20 vectors produced by pass 47 Test12= 8.76D-14 1.00D-09 XBig12= 1.21D-13 1.76D-08.
     19 vectors produced by pass 48 Test12= 8.76D-14 1.00D-09 XBig12= 8.32D-14 1.11D-08.
     18 vectors produced by pass 49 Test12= 8.76D-14 1.00D-09 XBig12= 8.50D-14 9.68D-09.
     18 vectors produced by pass 50 Test12= 8.76D-14 1.00D-09 XBig12= 1.02D-13 1.17D-08.
     12 vectors produced by pass 51 Test12= 8.76D-14 1.00D-09 XBig12= 4.14D-14 8.28D-09.
     12 vectors produced by pass 52 Test12= 8.76D-14 1.00D-09 XBig12= 6.11D-14 9.14D-09.
     12 vectors produced by pass 53 Test12= 8.76D-14 1.00D-09 XBig12= 8.33D-14 1.20D-08.
     12 vectors produced by pass 54 Test12= 8.76D-14 1.00D-09 XBig12= 8.35D-14 1.01D-08.
     12 vectors produced by pass 55 Test12= 8.76D-14 1.00D-09 XBig12= 6.69D-14 9.96D-09.
     12 vectors produced by pass 56 Test12= 8.76D-14 1.00D-09 XBig12= 4.26D-14 7.25D-09.
     12 vectors produced by pass 57 Test12= 8.76D-14 1.00D-09 XBig12= 3.67D-14 8.10D-09.
     12 vectors produced by pass 58 Test12= 8.76D-14 1.00D-09 XBig12= 1.05D-13 1.13D-08.
     12 vectors produced by pass 59 Test12= 8.76D-14 1.00D-09 XBig12= 5.15D-14 1.02D-08.
     12 vectors produced by pass 60 Test12= 8.76D-14 1.00D-09 XBig12= 3.93D-14 9.79D-09.
     12 vectors produced by pass 61 Test12= 8.76D-14 1.00D-09 XBig12= 5.24D-14 8.44D-09.
     12 vectors produced by pass 62 Test12= 8.76D-14 1.00D-09 XBig12= 9.36D-14 1.15D-08.
     12 vectors produced by pass 63 Test12= 8.76D-14 1.00D-09 XBig12= 6.69D-14 1.16D-08.
     12 vectors produced by pass 64 Test12= 8.76D-14 1.00D-09 XBig12= 7.37D-14 9.71D-09.
     12 vectors produced by pass 65 Test12= 8.76D-14 1.00D-09 XBig12= 5.20D-14 9.77D-09.
     12 vectors produced by pass 66 Test12= 8.76D-14 1.00D-09 XBig12= 5.41D-14 8.41D-09.
     11 vectors produced by pass 67 Test12= 8.76D-14 1.00D-09 XBig12= 2.05D-14 5.47D-09.
     11 vectors produced by pass 68 Test12= 8.76D-14 1.00D-09 XBig12= 5.29D-14 8.69D-09.
     11 vectors produced by pass 69 Test12= 8.76D-14 1.00D-09 XBig12= 6.10D-14 8.47D-09.
     11 vectors produced by pass 70 Test12= 8.76D-14 1.00D-09 XBig12= 6.76D-14 1.02D-08.
     11 vectors produced by pass 71 Test12= 8.76D-14 1.00D-09 XBig12= 6.30D-14 1.14D-08.
     11 vectors produced by pass 72 Test12= 8.76D-14 1.00D-09 XBig12= 3.67D-14 7.30D-09.
     11 vectors produced by pass 73 Test12= 8.76D-14 1.00D-09 XBig12= 6.23D-14 8.59D-09.
     11 vectors produced by pass 74 Test12= 8.76D-14 1.00D-09 XBig12= 2.02D-14 5.80D-09.
     11 vectors produced by pass 75 Test12= 8.76D-14 1.00D-09 XBig12= 5.24D-14 9.69D-09.
     11 vectors produced by pass 76 Test12= 8.76D-14 1.00D-09 XBig12= 2.68D-14 5.67D-09.
     10 vectors produced by pass 77 Test12= 8.76D-14 1.00D-09 XBig12= 3.08D-14 6.62D-09.
     10 vectors produced by pass 78 Test12= 8.76D-14 1.00D-09 XBig12= 4.70D-14 7.70D-09.
     10 vectors produced by pass 79 Test12= 8.76D-14 1.00D-09 XBig12= 3.85D-14 7.62D-09.
     10 vectors produced by pass 80 Test12= 8.76D-14 1.00D-09 XBig12= 3.48D-14 7.45D-09.
     10 vectors produced by pass 81 Test12= 8.76D-14 1.00D-09 XBig12= 4.08D-14 7.19D-09.
     10 vectors produced by pass 82 Test12= 8.76D-14 1.00D-09 XBig12= 3.28D-14 7.04D-09.
     10 vectors produced by pass 83 Test12= 8.76D-14 1.00D-09 XBig12= 2.18D-14 5.50D-09.
     10 vectors produced by pass 84 Test12= 8.76D-14 1.00D-09 XBig12= 5.64D-14 8.16D-09.
     10 vectors produced by pass 85 Test12= 8.76D-14 1.00D-09 XBig12= 3.58D-14 7.33D-09.
     10 vectors produced by pass 86 Test12= 8.76D-14 1.00D-09 XBig12= 4.50D-14 7.88D-09.
     10 vectors produced by pass 87 Test12= 8.76D-14 1.00D-09 XBig12= 4.61D-14 8.25D-09.
     10 vectors produced by pass 88 Test12= 8.76D-14 1.00D-09 XBig12= 3.11D-14 6.80D-09.
      8 vectors produced by pass 89 Test12= 8.76D-14 1.00D-09 XBig12= 1.38D-14 4.31D-09.
      8 vectors produced by pass 90 Test12= 8.76D-14 1.00D-09 XBig12= 5.60D-14 8.71D-09.
      8 vectors produced by pass 91 Test12= 8.76D-14 1.00D-09 XBig12= 3.99D-14 6.01D-09.
      8 vectors produced by pass 92 Test12= 8.76D-14 1.00D-09 XBig12= 3.84D-14 7.43D-09.
      8 vectors produced by pass 93 Test12= 8.76D-14 1.00D-09 XBig12= 3.75D-14 7.81D-09.
      8 vectors produced by pass 94 Test12= 8.76D-14 1.00D-09 XBig12= 2.74D-14 7.04D-09.
      8 vectors produced by pass 95 Test12= 8.76D-14 1.00D-09 XBig12= 3.07D-14 7.68D-09.
      8 vectors produced by pass 96 Test12= 8.76D-14 1.00D-09 XBig12= 1.49D-14 4.31D-09.
      8 vectors produced by pass 97 Test12= 8.76D-14 1.00D-09 XBig12= 4.02D-14 6.81D-09.
      8 vectors produced by pass 98 Test12= 8.76D-14 1.00D-09 XBig12= 3.46D-14 9.78D-09.
      8 vectors produced by pass 99 Test12= 8.76D-14 1.00D-09 XBig12= 4.38D-14 7.18D-09.
      8 vectors produced by pass100 Test12= 8.76D-14 1.00D-09 XBig12= 3.12D-14 9.37D-09.
      8 vectors produced by pass101 Test12= 8.76D-14 1.00D-09 XBig12= 2.66D-14 5.55D-09.
      8 vectors produced by pass102 Test12= 8.76D-14 1.00D-09 XBig12= 3.95D-14 6.19D-09.
      8 vectors produced by pass103 Test12= 8.76D-14 1.00D-09 XBig12= 1.74D-14 4.75D-09.
      8 vectors produced by pass104 Test12= 8.76D-14 1.00D-09 XBig12= 3.78D-14 6.56D-09.
      8 vectors produced by pass105 Test12= 8.76D-14 1.00D-09 XBig12= 2.87D-14 5.83D-09.
      8 vectors produced by pass106 Test12= 8.76D-14 1.00D-09 XBig12= 3.82D-14 7.51D-09.
      8 vectors produced by pass107 Test12= 8.76D-14 1.00D-09 XBig12= 2.61D-14 6.52D-09.
      8 vectors produced by pass108 Test12= 8.76D-14 1.00D-09 XBig12= 2.25D-14 5.00D-09.
      8 vectors produced by pass109 Test12= 8.76D-14 1.00D-09 XBig12= 2.82D-14 5.99D-09.
      8 vectors produced by pass110 Test12= 8.76D-14 1.00D-09 XBig12= 3.36D-14 6.04D-09.
      8 vectors produced by pass111 Test12= 8.76D-14 1.00D-09 XBig12= 2.57D-14 5.90D-09.
      8 vectors produced by pass112 Test12= 8.76D-14 1.00D-09 XBig12= 2.32D-14 7.39D-09.
      8 vectors produced by pass113 Test12= 8.76D-14 1.00D-09 XBig12= 2.07D-14 4.88D-09.
      8 vectors produced by pass114 Test12= 8.76D-14 1.00D-09 XBig12= 3.19D-14 5.96D-09.
      8 vectors produced by pass115 Test12= 8.76D-14 1.00D-09 XBig12= 3.50D-14 6.16D-09.
      8 vectors produced by pass116 Test12= 8.76D-14 1.00D-09 XBig12= 1.39D-14 4.49D-09.
      8 vectors produced by pass117 Test12= 8.76D-14 1.00D-09 XBig12= 2.06D-14 5.11D-09.
      8 vectors produced by pass118 Test12= 8.76D-14 1.00D-09 XBig12= 3.51D-14 6.34D-09.
      8 vectors produced by pass119 Test12= 8.76D-14 1.00D-09 XBig12= 3.43D-14 6.92D-09.
      8 vectors produced by pass120 Test12= 8.76D-14 1.00D-09 XBig12= 2.81D-14 5.50D-09.
      8 vectors produced by pass121 Test12= 8.76D-14 1.00D-09 XBig12= 2.43D-14 6.04D-09.
      8 vectors produced by pass122 Test12= 8.76D-14 1.00D-09 XBig12= 2.43D-14 5.16D-09.
      8 vectors produced by pass123 Test12= 8.76D-14 1.00D-09 XBig12= 2.44D-14 4.95D-09.
      8 vectors produced by pass124 Test12= 8.76D-14 1.00D-09 XBig12= 2.38D-14 5.63D-09.
      8 vectors produced by pass125 Test12= 8.76D-14 1.00D-09 XBig12= 2.47D-14 5.46D-09.
      6 vectors produced by pass126 Test12= 8.76D-14 1.00D-09 XBig12= 1.10D-14 3.85D-09.
      6 vectors produced by pass127 Test12= 8.76D-14 1.00D-09 XBig12= 2.67D-14 5.66D-09.
      6 vectors produced by pass128 Test12= 8.76D-14 1.00D-09 XBig12= 1.59D-14 4.64D-09.
      6 vectors produced by pass129 Test12= 8.76D-14 1.00D-09 XBig12= 2.14D-14 5.32D-09.
      6 vectors produced by pass130 Test12= 8.76D-14 1.00D-09 XBig12= 3.07D-14 5.64D-09.
      6 vectors produced by pass131 Test12= 8.76D-14 1.00D-09 XBig12= 2.02D-14 6.05D-09.
      6 vectors produced by pass132 Test12= 8.76D-14 1.00D-09 XBig12= 1.52D-14 4.49D-09.
      6 vectors produced by pass133 Test12= 8.76D-14 1.00D-09 XBig12= 1.69D-14 4.76D-09.
      6 vectors produced by pass134 Test12= 8.76D-14 1.00D-09 XBig12= 2.79D-14 5.71D-09.
      6 vectors produced by pass135 Test12= 8.76D-14 1.00D-09 XBig12= 9.37D-15 3.01D-09.
      6 vectors produced by pass136 Test12= 8.76D-14 1.00D-09 XBig12= 1.70D-14 4.58D-09.
      6 vectors produced by pass137 Test12= 8.76D-14 1.00D-09 XBig12= 2.21D-14 4.74D-09.
      6 vectors produced by pass138 Test12= 8.76D-14 1.00D-09 XBig12= 1.68D-14 4.94D-09.
      6 vectors produced by pass139 Test12= 8.76D-14 1.00D-09 XBig12= 1.76D-14 5.40D-09.
      6 vectors produced by pass140 Test12= 8.76D-14 1.00D-09 XBig12= 2.48D-14 5.99D-09.
      6 vectors produced by pass141 Test12= 8.76D-14 1.00D-09 XBig12= 1.57D-14 4.90D-09.
      6 vectors produced by pass142 Test12= 8.76D-14 1.00D-09 XBig12= 1.37D-14 4.05D-09.
      6 vectors produced by pass143 Test12= 8.76D-14 1.00D-09 XBig12= 1.80D-14 4.19D-09.
      6 vectors produced by pass144 Test12= 8.76D-14 1.00D-09 XBig12= 1.09D-14 3.29D-09.
      6 vectors produced by pass145 Test12= 8.76D-14 1.00D-09 XBig12= 1.89D-14 5.66D-09.
      6 vectors produced by pass146 Test12= 8.76D-14 1.00D-09 XBig12= 1.34D-14 3.66D-09.
      6 vectors produced by pass147 Test12= 8.76D-14 1.00D-09 XBig12= 1.50D-14 4.19D-09.
      6 vectors produced by pass148 Test12= 8.76D-14 1.00D-09 XBig12= 2.35D-14 5.28D-09.
      6 vectors produced by pass149 Test12= 8.76D-14 1.00D-09 XBig12= 1.43D-14 4.10D-09.
      6 vectors produced by pass150 Test12= 8.76D-14 1.00D-09 XBig12= 1.33D-14 3.34D-09.
      6 vectors produced by pass151 Test12= 8.76D-14 1.00D-09 XBig12= 1.55D-14 4.03D-09.
      6 vectors produced by pass152 Test12= 8.76D-14 1.00D-09 XBig12= 1.63D-14 5.32D-09.
      6 vectors produced by pass153 Test12= 8.76D-14 1.00D-09 XBig12= 1.79D-14 4.59D-09.
      6 vectors produced by pass154 Test12= 8.76D-14 1.00D-09 XBig12= 1.31D-14 4.20D-09.
      6 vectors produced by pass155 Test12= 8.76D-14 1.00D-09 XBig12= 1.82D-14 4.97D-09.
      6 vectors produced by pass156 Test12= 8.76D-14 1.00D-09 XBig12= 2.21D-14 4.88D-09.
      6 vectors produced by pass157 Test12= 8.76D-14 1.00D-09 XBig12= 2.35D-14 5.93D-09.
      6 vectors produced by pass158 Test12= 8.76D-14 1.00D-09 XBig12= 1.44D-14 4.13D-09.
      6 vectors produced by pass159 Test12= 8.76D-14 1.00D-09 XBig12= 2.52D-14 5.12D-09.
      6 vectors produced by pass160 Test12= 8.76D-14 1.00D-09 XBig12= 1.67D-14 4.55D-09.
      6 vectors produced by pass161 Test12= 8.76D-14 1.00D-09 XBig12= 1.30D-14 3.70D-09.
      6 vectors produced by pass162 Test12= 8.76D-14 1.00D-09 XBig12= 1.63D-14 3.98D-09.
      6 vectors produced by pass163 Test12= 8.76D-14 1.00D-09 XBig12= 1.79D-14 4.19D-09.
      6 vectors produced by pass164 Test12= 8.76D-14 1.00D-09 XBig12= 1.06D-14 3.36D-09.
      6 vectors produced by pass165 Test12= 8.76D-14 1.00D-09 XBig12= 2.03D-14 4.80D-09.
      6 vectors produced by pass166 Test12= 8.76D-14 1.00D-09 XBig12= 9.45D-15 3.69D-09.
      6 vectors produced by pass167 Test12= 8.76D-14 1.00D-09 XBig12= 2.29D-14 6.03D-09.
      6 vectors produced by pass168 Test12= 8.76D-14 1.00D-09 XBig12= 1.71D-14 4.88D-09.
      6 vectors produced by pass169 Test12= 8.76D-14 1.00D-09 XBig12= 1.96D-14 4.15D-09.
      6 vectors produced by pass170 Test12= 8.76D-14 1.00D-09 XBig12= 1.50D-14 4.12D-09.
      6 vectors produced by pass171 Test12= 8.76D-14 1.00D-09 XBig12= 1.69D-14 4.68D-09.
      6 vectors produced by pass172 Test12= 8.76D-14 1.00D-09 XBig12= 9.64D-15 3.42D-09.
      6 vectors produced by pass173 Test12= 8.76D-14 1.00D-09 XBig12= 2.01D-14 5.00D-09.
      6 vectors produced by pass174 Test12= 8.76D-14 1.00D-09 XBig12= 1.06D-14 3.65D-09.
      6 vectors produced by pass175 Test12= 8.76D-14 1.00D-09 XBig12= 1.44D-14 3.93D-09.
      6 vectors produced by pass176 Test12= 8.76D-14 1.00D-09 XBig12= 7.94D-15 2.72D-09.
      6 vectors produced by pass177 Test12= 8.76D-14 1.00D-09 XBig12= 1.65D-14 3.90D-09.
      6 vectors produced by pass178 Test12= 8.76D-14 1.00D-09 XBig12= 1.01D-14 3.33D-09.
      6 vectors produced by pass179 Test12= 8.76D-14 1.00D-09 XBig12= 1.58D-14 3.85D-09.
      6 vectors produced by pass180 Test12= 8.76D-14 1.00D-09 XBig12= 2.35D-14 5.15D-09.
      6 vectors produced by pass181 Test12= 8.76D-14 1.00D-09 XBig12= 8.55D-15 3.10D-09.
      6 vectors produced by pass182 Test12= 8.76D-14 1.00D-09 XBig12= 1.26D-14 3.86D-09.
      6 vectors produced by pass183 Test12= 8.76D-14 1.00D-09 XBig12= 1.12D-14 3.68D-09.
      6 vectors produced by pass184 Test12= 8.76D-14 1.00D-09 XBig12= 1.70D-14 4.19D-09.
      6 vectors produced by pass185 Test12= 8.76D-14 1.00D-09 XBig12= 6.48D-15 3.31D-09.
      6 vectors produced by pass186 Test12= 8.76D-14 1.00D-09 XBig12= 1.18D-14 3.50D-09.
      6 vectors produced by pass187 Test12= 8.76D-14 1.00D-09 XBig12= 1.65D-14 4.01D-09.
      6 vectors produced by pass188 Test12= 8.76D-14 1.00D-09 XBig12= 8.08D-15 2.76D-09.
      6 vectors produced by pass189 Test12= 8.76D-14 1.00D-09 XBig12= 1.56D-14 4.29D-09.
      6 vectors produced by pass190 Test12= 8.76D-14 1.00D-09 XBig12= 7.13D-15 3.14D-09.
      6 vectors produced by pass191 Test12= 8.76D-14 1.00D-09 XBig12= 1.05D-14 3.60D-09.
      6 vectors produced by pass192 Test12= 8.76D-14 1.00D-09 XBig12= 7.15D-15 2.69D-09.
      6 vectors produced by pass193 Test12= 8.76D-14 1.00D-09 XBig12= 1.13D-14 3.56D-09.
      6 vectors produced by pass194 Test12= 8.76D-14 1.00D-09 XBig12= 1.20D-14 3.85D-09.
      6 vectors produced by pass195 Test12= 8.76D-14 1.00D-09 XBig12= 1.38D-14 3.74D-09.
      6 vectors produced by pass196 Test12= 8.76D-14 1.00D-09 XBig12= 1.07D-14 3.17D-09.
      6 vectors produced by pass197 Test12= 8.76D-14 1.00D-09 XBig12= 9.88D-15 3.17D-09.
      6 vectors produced by pass198 Test12= 8.76D-14 1.00D-09 XBig12= 1.07D-14 3.74D-09.
      6 vectors produced by pass199 Test12= 8.76D-14 1.00D-09 XBig12= 8.31D-15 3.77D-09.
      6 vectors produced by pass200 Test12= 8.76D-14 1.00D-09 XBig12= 1.41D-14 3.74D-09.
      6 vectors produced by pass201 Test12= 8.76D-14 1.00D-09 XBig12= 8.10D-15 3.03D-09.
      6 vectors produced by pass202 Test12= 8.76D-14 1.00D-09 XBig12= 1.08D-14 3.59D-09.
      6 vectors produced by pass203 Test12= 8.76D-14 1.00D-09 XBig12= 9.38D-15 3.16D-09.
      6 vectors produced by pass204 Test12= 8.76D-14 1.00D-09 XBig12= 1.19D-14 3.90D-09.
      6 vectors produced by pass205 Test12= 8.76D-14 1.00D-09 XBig12= 8.08D-15 3.30D-09.
      5 vectors produced by pass206 Test12= 8.76D-14 1.00D-09 XBig12= 6.94D-15 2.58D-09.
      5 vectors produced by pass207 Test12= 8.76D-14 1.00D-09 XBig12= 9.18D-15 2.94D-09.
      5 vectors produced by pass208 Test12= 8.76D-14 1.00D-09 XBig12= 1.49D-14 3.78D-09.
      5 vectors produced by pass209 Test12= 8.76D-14 1.00D-09 XBig12= 9.81D-15 3.79D-09.
      5 vectors produced by pass210 Test12= 8.76D-14 1.00D-09 XBig12= 1.10D-14 3.13D-09.
      5 vectors produced by pass211 Test12= 8.76D-14 1.00D-09 XBig12= 1.03D-14 3.00D-09.
      5 vectors produced by pass212 Test12= 8.76D-14 1.00D-09 XBig12= 1.16D-14 3.35D-09.
      5 vectors produced by pass213 Test12= 8.76D-14 1.00D-09 XBig12= 6.66D-15 2.78D-09.
      5 vectors produced by pass214 Test12= 8.76D-14 1.00D-09 XBig12= 8.69D-15 2.88D-09.
      5 vectors produced by pass215 Test12= 8.76D-14 1.00D-09 XBig12= 1.16D-14 3.89D-09.
      5 vectors produced by pass216 Test12= 8.76D-14 1.00D-09 XBig12= 7.91D-15 3.01D-09.
      5 vectors produced by pass217 Test12= 8.76D-14 1.00D-09 XBig12= 1.15D-14 3.43D-09.
      4 vectors produced by pass218 Test12= 8.76D-14 1.00D-09 XBig12= 4.04D-15 2.04D-09.
      4 vectors produced by pass219 Test12= 8.76D-14 1.00D-09 XBig12= 9.25D-15 3.23D-09.
      4 vectors produced by pass220 Test12= 8.76D-14 1.00D-09 XBig12= 1.60D-14 4.43D-09.
      4 vectors produced by pass221 Test12= 8.76D-14 1.00D-09 XBig12= 9.36D-15 2.97D-09.
      4 vectors produced by pass222 Test12= 8.76D-14 1.00D-09 XBig12= 6.75D-15 2.68D-09.
      4 vectors produced by pass223 Test12= 8.76D-14 1.00D-09 XBig12= 9.25D-15 3.24D-09.
      4 vectors produced by pass224 Test12= 8.76D-14 1.00D-09 XBig12= 8.58D-15 3.19D-09.
      4 vectors produced by pass225 Test12= 8.76D-14 1.00D-09 XBig12= 1.02D-14 3.28D-09.
      4 vectors produced by pass226 Test12= 8.76D-14 1.00D-09 XBig12= 1.30D-14 3.70D-09.
      4 vectors produced by pass227 Test12= 8.76D-14 1.00D-09 XBig12= 1.13D-14 3.48D-09.
      4 vectors produced by pass228 Test12= 8.76D-14 1.00D-09 XBig12= 1.31D-14 4.60D-09.
      4 vectors produced by pass229 Test12= 8.76D-14 1.00D-09 XBig12= 6.20D-15 2.59D-09.
      4 vectors produced by pass230 Test12= 8.76D-14 1.00D-09 XBig12= 1.13D-14 3.46D-09.
      3 vectors produced by pass231 Test12= 8.76D-14 1.00D-09 XBig12= 3.83D-15 2.00D-09.
      3 vectors produced by pass232 Test12= 8.76D-14 1.00D-09 XBig12= 6.50D-15 2.82D-09.
      3 vectors produced by pass233 Test12= 8.76D-14 1.00D-09 XBig12= 1.51D-14 4.24D-09.
      3 vectors produced by pass234 Test12= 8.76D-14 1.00D-09 XBig12= 1.02D-14 3.62D-09.
      3 vectors produced by pass235 Test12= 8.76D-14 1.00D-09 XBig12= 1.64D-14 3.63D-09.
      3 vectors produced by pass236 Test12= 8.76D-14 1.00D-09 XBig12= 8.19D-15 3.12D-09.
      3 vectors produced by pass237 Test12= 8.76D-14 1.00D-09 XBig12= 7.83D-15 2.45D-09.
      3 vectors produced by pass238 Test12= 8.76D-14 1.00D-09 XBig12= 1.29D-14 3.74D-09.
      3 vectors produced by pass239 Test12= 8.76D-14 1.00D-09 XBig12= 8.08D-15 2.77D-09.
      3 vectors produced by pass240 Test12= 8.76D-14 1.00D-09 XBig12= 6.98D-15 2.63D-09.
      3 vectors produced by pass241 Test12= 8.76D-14 1.00D-09 XBig12= 8.25D-15 3.34D-09.
      3 vectors produced by pass242 Test12= 8.76D-14 1.00D-09 XBig12= 8.18D-15 3.04D-09.
      3 vectors produced by pass243 Test12= 8.76D-14 1.00D-09 XBig12= 7.14D-15 2.65D-09.
      3 vectors produced by pass244 Test12= 8.76D-14 1.00D-09 XBig12= 8.86D-15 2.53D-09.
      3 vectors produced by pass245 Test12= 8.76D-14 1.00D-09 XBig12= 1.18D-14 3.51D-09.
      3 vectors produced by pass246 Test12= 8.76D-14 1.00D-09 XBig12= 9.53D-15 3.54D-09.
      3 vectors produced by pass247 Test12= 8.76D-14 1.00D-09 XBig12= 9.34D-15 3.12D-09.
      3 vectors produced by pass248 Test12= 8.76D-14 1.00D-09 XBig12= 1.30D-14 3.81D-09.
      3 vectors produced by pass249 Test12= 8.76D-14 1.00D-09 XBig12= 5.52D-15 2.33D-09.
      3 vectors produced by pass250 Test12= 8.76D-14 1.00D-09 XBig12= 1.10D-14 3.59D-09.
      3 vectors produced by pass251 Test12= 8.76D-14 1.00D-09 XBig12= 5.43D-15 3.19D-09.
      3 vectors produced by pass252 Test12= 8.76D-14 1.00D-09 XBig12= 1.08D-14 3.37D-09.
      3 vectors produced by pass253 Test12= 8.76D-14 1.00D-09 XBig12= 1.03D-14 3.35D-09.
      3 vectors produced by pass254 Test12= 8.76D-14 1.00D-09 XBig12= 7.45D-15 2.73D-09.
      3 vectors produced by pass255 Test12= 8.76D-14 1.00D-09 XBig12= 1.22D-14 3.62D-09.
      3 vectors produced by pass256 Test12= 8.76D-14 1.00D-09 XBig12= 9.26D-15 3.26D-09.
      3 vectors produced by pass257 Test12= 8.76D-14 1.00D-09 XBig12= 8.66D-15 2.95D-09.
      3 vectors produced by pass258 Test12= 8.76D-14 1.00D-09 XBig12= 1.03D-14 3.16D-09.
      3 vectors produced by pass259 Test12= 8.76D-14 1.00D-09 XBig12= 8.66D-15 2.85D-09.
      3 vectors produced by pass260 Test12= 8.76D-14 1.00D-09 XBig12= 9.20D-15 2.84D-09.
      3 vectors produced by pass261 Test12= 8.76D-14 1.00D-09 XBig12= 9.90D-15 3.93D-09.
      3 vectors produced by pass262 Test12= 8.76D-14 1.00D-09 XBig12= 9.55D-15 2.65D-09.
      3 vectors produced by pass263 Test12= 8.76D-14 1.00D-09 XBig12= 1.42D-14 3.98D-09.
      3 vectors produced by pass264 Test12= 8.76D-14 1.00D-09 XBig12= 9.71D-15 3.27D-09.
      3 vectors produced by pass265 Test12= 8.76D-14 1.00D-09 XBig12= 1.09D-14 3.16D-09.
      3 vectors produced by pass266 Test12= 8.76D-14 1.00D-09 XBig12= 1.55D-14 3.54D-09.
      3 vectors produced by pass267 Test12= 8.76D-14 1.00D-09 XBig12= 8.15D-15 2.80D-09.
      3 vectors produced by pass268 Test12= 8.76D-14 1.00D-09 XBig12= 5.94D-15 2.71D-09.
      3 vectors produced by pass269 Test12= 8.76D-14 1.00D-09 XBig12= 8.68D-15 2.97D-09.
      3 vectors produced by pass270 Test12= 8.76D-14 1.00D-09 XBig12= 9.57D-15 2.98D-09.
      3 vectors produced by pass271 Test12= 8.76D-14 1.00D-09 XBig12= 1.22D-14 4.11D-09.
      3 vectors produced by pass272 Test12= 8.76D-14 1.00D-09 XBig12= 9.40D-15 2.89D-09.
      3 vectors produced by pass273 Test12= 8.76D-14 1.00D-09 XBig12= 1.06D-14 3.27D-09.
      3 vectors produced by pass274 Test12= 8.76D-14 1.00D-09 XBig12= 1.20D-14 3.49D-09.
      3 vectors produced by pass275 Test12= 8.76D-14 1.00D-09 XBig12= 8.45D-15 2.81D-09.
      3 vectors produced by pass276 Test12= 8.76D-14 1.00D-09 XBig12= 1.23D-14 3.40D-09.
      3 vectors produced by pass277 Test12= 8.76D-14 1.00D-09 XBig12= 5.65D-15 2.26D-09.
      3 vectors produced by pass278 Test12= 8.76D-14 1.00D-09 XBig12= 1.02D-14 3.20D-09.
      3 vectors produced by pass279 Test12= 8.76D-14 1.00D-09 XBig12= 5.16D-15 2.46D-09.
      3 vectors produced by pass280 Test12= 8.76D-14 1.00D-09 XBig12= 1.27D-14 3.90D-09.
      3 vectors produced by pass281 Test12= 8.76D-14 1.00D-09 XBig12= 6.84D-15 2.92D-09.
      3 vectors produced by pass282 Test12= 8.76D-14 1.00D-09 XBig12= 1.15D-14 4.22D-09.
      3 vectors produced by pass283 Test12= 8.76D-14 1.00D-09 XBig12= 6.22D-15 2.32D-09.
      3 vectors produced by pass284 Test12= 8.76D-14 1.00D-09 XBig12= 9.98D-15 3.49D-09.
      3 vectors produced by pass285 Test12= 8.76D-14 1.00D-09 XBig12= 6.31D-15 2.51D-09.
      3 vectors produced by pass286 Test12= 8.76D-14 1.00D-09 XBig12= 1.08D-14 3.25D-09.
      3 vectors produced by pass287 Test12= 8.76D-14 1.00D-09 XBig12= 6.54D-15 2.65D-09.
      3 vectors produced by pass288 Test12= 8.76D-14 1.00D-09 XBig12= 4.89D-15 2.44D-09.
      3 vectors produced by pass289 Test12= 8.76D-14 1.00D-09 XBig12= 1.17D-14 3.43D-09.
      3 vectors produced by pass290 Test12= 8.76D-14 1.00D-09 XBig12= 3.53D-15 1.88D-09.
      3 vectors produced by pass291 Test12= 8.76D-14 1.00D-09 XBig12= 1.24D-14 3.69D-09.
      3 vectors produced by pass292 Test12= 8.76D-14 1.00D-09 XBig12= 8.46D-15 2.69D-09.
      3 vectors produced by pass293 Test12= 8.76D-14 1.00D-09 XBig12= 6.98D-15 2.78D-09.
      3 vectors produced by pass294 Test12= 8.76D-14 1.00D-09 XBig12= 1.02D-14 3.59D-09.
      3 vectors produced by pass295 Test12= 8.76D-14 1.00D-09 XBig12= 3.88D-15 1.81D-09.
      3 vectors produced by pass296 Test12= 8.76D-14 1.00D-09 XBig12= 8.06D-15 3.24D-09.
      3 vectors produced by pass297 Test12= 8.76D-14 1.00D-09 XBig12= 1.07D-14 3.42D-09.
      3 vectors produced by pass298 Test12= 8.76D-14 1.00D-09 XBig12= 9.08D-15 2.89D-09.
      3 vectors produced by pass299 Test12= 8.76D-14 1.00D-09 XBig12= 7.86D-15 2.56D-09.
      3 vectors produced by pass300 Test12= 8.76D-14 1.00D-09 XBig12= 6.11D-15 2.34D-09.
      3 vectors produced by pass301 Test12= 8.76D-14 1.00D-09 XBig12= 1.22D-14 3.49D-09.
      3 vectors produced by pass302 Test12= 8.76D-14 1.00D-09 XBig12= 5.95D-15 2.77D-09.
      3 vectors produced by pass303 Test12= 8.76D-14 1.00D-09 XBig12= 6.59D-15 2.46D-09.
      3 vectors produced by pass304 Test12= 8.76D-14 1.00D-09 XBig12= 6.93D-15 2.59D-09.
      3 vectors produced by pass305 Test12= 8.76D-14 1.00D-09 XBig12= 6.10D-15 2.63D-09.
      3 vectors produced by pass306 Test12= 8.76D-14 1.00D-09 XBig12= 1.20D-14 3.15D-09.
      3 vectors produced by pass307 Test12= 8.76D-14 1.00D-09 XBig12= 6.81D-15 2.54D-09.
      3 vectors produced by pass308 Test12= 8.76D-14 1.00D-09 XBig12= 7.34D-15 2.86D-09.
      3 vectors produced by pass309 Test12= 8.76D-14 1.00D-09 XBig12= 4.79D-15 2.23D-09.
      3 vectors produced by pass310 Test12= 8.76D-14 1.00D-09 XBig12= 8.22D-15 2.70D-09.
      3 vectors produced by pass311 Test12= 8.76D-14 1.00D-09 XBig12= 6.55D-15 2.28D-09.
      3 vectors produced by pass312 Test12= 8.76D-14 1.00D-09 XBig12= 9.43D-15 3.14D-09.
      3 vectors produced by pass313 Test12= 8.76D-14 1.00D-09 XBig12= 7.10D-15 2.67D-09.
      3 vectors produced by pass314 Test12= 8.76D-14 1.00D-09 XBig12= 9.49D-15 2.87D-09.
      3 vectors produced by pass315 Test12= 8.76D-14 1.00D-09 XBig12= 4.42D-15 1.99D-09.
      3 vectors produced by pass316 Test12= 8.76D-14 1.00D-09 XBig12= 7.28D-15 2.64D-09.
      3 vectors produced by pass317 Test12= 8.76D-14 1.00D-09 XBig12= 8.82D-15 2.65D-09.
      3 vectors produced by pass318 Test12= 8.76D-14 1.00D-09 XBig12= 6.18D-15 2.93D-09.
      3 vectors produced by pass319 Test12= 8.76D-14 1.00D-09 XBig12= 1.24D-14 5.10D-09.
      3 vectors produced by pass320 Test12= 8.76D-14 1.00D-09 XBig12= 6.41D-15 3.10D-09.
      3 vectors produced by pass321 Test12= 8.76D-14 1.00D-09 XBig12= 9.02D-15 2.92D-09.
      3 vectors produced by pass322 Test12= 8.76D-14 1.00D-09 XBig12= 8.64D-15 3.20D-09.
      3 vectors produced by pass323 Test12= 8.76D-14 1.00D-09 XBig12= 9.30D-15 3.21D-09.
      3 vectors produced by pass324 Test12= 8.76D-14 1.00D-09 XBig12= 6.48D-15 2.55D-09.
      3 vectors produced by pass325 Test12= 8.76D-14 1.00D-09 XBig12= 9.88D-15 3.09D-09.
      3 vectors produced by pass326 Test12= 8.76D-14 1.00D-09 XBig12= 6.12D-15 2.58D-09.
      3 vectors produced by pass327 Test12= 8.76D-14 1.00D-09 XBig12= 9.58D-15 2.77D-09.
      3 vectors produced by pass328 Test12= 8.76D-14 1.00D-09 XBig12= 9.54D-15 3.23D-09.
      2 vectors produced by pass329 Test12= 8.76D-14 1.00D-09 XBig12= 5.55D-15 2.55D-09.
 InvSVY:  IOpt=1 It=  1 EMax= 1.33D-15
 Solved reduced A of dimension  3550 with   120 vectors.
 End of Minotr F.D. properties file   721 does not exist.
 End of Minotr F.D. properties file   722 does not exist.
 End of Minotr F.D. properties file   788 does not exist.

 **********************************************************************

            Population analysis using the SCF density.

 **********************************************************************

 Orbital symmetries:
 Alpha Orbitals:
       Occupied  (A) (A) (A) (A) (A) (A) (A) (A) (A) (A) (A) (A)
                 (A) (A) (A) (A) (A) (A) (A) (A) (A) (A) (A) (A)
                 (A) (A) (A) (A) (A) (A) (A) (A) (A) (A) (A) (A)
                 (A) (A) (A) (A) (A) (A) (A) (A) (A) (A) (A) (A)
                 (A) (A) (A) (A) (A) (A) (A) (A) (A) (A) (A) (A)
                 (A) (A) (A) (A) (A) (A) (A) (A) (A) (A) (A) (A)
                 (A) (A) (A) (A) (A) (A) (A) (A) (A) (A) (A)
       Virtual   (A) (A) (A) (A) (A) (A) (A) (A) (A) (A) (A) (A)
                 (A) (A) (A) (A) (A) (A) (A) (A) (A) (A) (A) (A)
                 (A) (A) (A) (A) (A) (A) (A) (A) (A) (A) (A) (A)
                 (A) (A) (A) (A) (A) (A) (A) (A) (A) (A) (A) (A)
                 (A) (A) (A) (A) (A) (A) (A) (A) (A) (A) (A) (A)
                 (A) (A) (A) (A) (A) (A) (A) (A) (A) (A) (A) (A)
[...]
 56735,0.00541607,-0.00691539,-0.00046691,0.00108475,0.00319806,0.00017
 937,0.00064174,-0.00035060,0.00008205,0.00041350,0.00057298,0.00005616
 ,0.02259202,-0.01361193,-0.00612301,-0.00355656,-0.00187995,0.00015101
 ,-0.00161856,0.00350872,0.00014813,0.00108337,-0.00312661,-0.00000658,
 0.00236290,0.00201040,0.00038338,-0.00147148,-0.00219094,-0.00018171,-
 0.00180448,0.00127175,0.00002417,0.00096742,0.00108227,0.00002595,-0.0
 3380101,0.00230616,0.00230084,0.00901628,-0.00385517,-0.00116976,-0.00
 621752,-0.00356948,0.00005781,0.00160609,0.00442954,0.00028655,-0.0005
 9914,-0.00251667,0.00009426,-0.00102716,0.00167376,-0.00021378,-0.0006
 4545,0.00180465,-0.00012484,0.00102261,0.00709236,0.00291575,0.0883001
 2,-0.22908417,0.02930205,-0.00018163,0.00001719,0.00011458,-0.00027420
 ,0.00014268,0.00004718,0.00001896,-0.00000853,-0.00001179,0.00004953,0
 .00016619,0.00008710,0.00011788,-0.00008855,-0.00001320,0.00001041,0.0
 0006625,0.00000115,0.00001739,0.00000939,-0.00000865,-0.00010705,0.000
 01543,0.00000638,-0.00013445,-0.00001744,-0.00001877,-0.00038500,0.001
 01175,-0.00001282,-0.00024108,-0.00039064,0.00002525,0.04155190,0.6034
 6451,-0.00318414,0.00220768,0.00073210,-0.00063273,-0.00984664,-0.0005
 8451,0.01178616,-0.00524643,-0.00065531,-0.00847106,0.00197415,0.00046
 313,-0.00416081,-0.00287101,0.00002702,0.00668499,-0.00048381,0.000147
 48,-0.00645964,0.02234369,0.00087762,0.01578535,-0.00910040,-0.0020748
 3,-0.00708631,0.00919828,0.00045974,0.01042976,-0.00154210,0.00017121,
 -0.01624824,0.01667849,-0.00189874,0.00911311,-0.00097579,-0.00043490,
 -0.00111929,0.00127650,0.00011881,0.00155298,0.00012946,0.00001478,-0.
 00735651,-0.01116616,0.00359749,0.01606370,0.00245712,0.00507935,-0.00
 451887,-0.02228776,-0.00111464,-0.00939215,0.01715743,0.00127354,0.001
 85226,-0.00178680,0.00008766,-0.00258094,0.00260983,0.00006010,0.00627
 649,0.00375103,-0.00029401,-0.02541194,0.00437688,-0.00470490,0.050160
 52,-0.07704855,0.09365742,0.00004958,-0.00001279,-0.00022201,-0.000072
 91,0.00003515,0.00000045,-0.00000907,-0.00000672,-0.00003769,0.0000208
 4,-0.00014118,-0.00011659,0.00005703,0.00001970,-0.00001895,0.00010593
 ,-0.00005712,-0.00003868,-0.00003726,-0.00003437,0.00001919,0.00002234
 ,0.00000788,-0.00000151,-0.00016732,0.00025433,0.00008750,0.00025603,0
 .00006688,-0.00001838,-0.00028687,-0.00025974,-0.00061670,0.01935774,0
 .00672251,0.02125490,0.00202533,0.01000449,-0.00019739,0.00161521,0.00
 241141,-0.00005213,-0.00875955,0.00554033,0.00005454,-0.02799655,-0.01
 435680,-0.00070229,-0.01099257,-0.01055369,-0.00010365,0.01681771,-0.0
 0004843,0.00054346,-0.01798520,-0.02691562,-0.00120602,0.03874245,-0.0
 0006781,0.00094857,-0.00987033,0.00677587,-0.00008151,0.02678071,0.003
 91191,0.00033550,-0.01616906,0.00204809,0.00059345,0.02982177,0.003811
 94,-0.00086663,-0.00256659,0.00478837,0.00010871,0.00722999,0.00054050
 ,0.00015193,-0.17138632,-0.09941776,0.00030018,-0.06725325,-0.02352915
 ,0.00259390,0.00020687,-0.00394007,-0.00018875,-0.01974279,0.01562830,
 0.00116662,-0.00065388,-0.00545972,0.00003386,-0.00545659,0.00302523,-
 0.00053462,0.00573695,0.00228221,0.00020164,-0.00502582,-0.00104882,-0
 .00011416,-0.00415830,0.01324582,0.01163828,-0.00008183,-0.00008763,0.
 00020880,0.00005653,0.00013606,0.00006516,-0.00007425,-0.00015896,0.00
 007593,0.00000027,-0.00024131,-0.00007129,0.00007250,0.00008304,0.0000
 4968,0.00028841,-0.00013866,0.00010493,-0.00004961,-0.00007011,0.00003
 551,-0.00002671,0.00025383,0.00001396,-0.00010854,0.00015040,0.0000607
 4,-0.00112686,-0.00349373,-0.00004818,-0.00101508,-0.00075765,-0.00017
 045,-0.26648142,-0.01650694,-0.00459880,0.63517464,-0.00011014,0.00362
 132,0.00018611,0.00371456,0.00315247,0.00043619,-0.00749483,0.00505824
 ,0.00008460,-0.01098688,-0.00780684,-0.00015525,-0.00428289,-0.0043274
 0,-0.00002609,0.00619676,-0.00019656,0.00016869,-0.00539817,-0.0120865
 2,0.00103206,0.00882094,0.00289367,0.00016151,-0.00346143,0.00013963,-
 0.00004687,0.00982025,0.00282524,0.00011834,-0.03029025,-0.03362645,-0
 .00103489,0.02069122,-0.00190497,-0.00047873,-0.00178005,0.00099710,-0
 .00002280,0.00316119,-0.00019440,0.00007910,-0.09569243,-0.22672834,-0
 .00428822,-0.03511754,0.00862556,0.00244842,0.01219737,0.00793330,-0.0
 0018666,-0.01005675,-0.00183642,0.00005393,-0.00006301,-0.00148988,-0.
 00003942,-0.00205867,0.00115564,-0.00017367,0.00307333,0.00094657,0.00
 021701,-0.00327478,-0.00535775,-0.00195680,0.04055428,0.00899624,-0.01
 040519,0.00025419,0.00023168,0.00007250,0.00010061,0.00002026,0.000026
 62,-0.00004088,-0.00003936,0.00003242,-0.00001966,-0.00014777,-0.00006
 950,0.00000631,0.00005236,0.00001954,0.00009009,-0.00008446,0.00002232
 ,0.00004947,-0.00005139,0.00003431,0.00006175,-0.00044318,-0.00001698,
 -0.00003629,0.00014955,0.00004084,0.00316947,-0.00006300,0.00003074,0.
 00065714,0.00074170,-0.00006173,0.00342168,-0.09565165,-0.00678392,0.0
 1328073,0.62774769,-0.00014667,-0.00059548,0.00007669,0.00002035,0.000
 15285,0.00093032,-0.00065688,0.00042592,-0.00018868,0.00184336,0.00021
 845,-0.00012534,0.00084981,0.00049619,0.00000776,-0.00122452,0.0001705
 7,0.00009726,0.00154741,-0.00079235,-0.00120286,-0.00335260,0.00055343
 ,0.00131303,0.00080317,-0.00069286,-0.00035066,-0.00161039,-0.00002948
 ,-0.00003854,0.00015930,-0.00414528,0.00182201,-0.00066389,-0.00002581
 ,0.00203126,0.00021126,-0.00021197,0.00011758,-0.00032577,-0.00006950,
 -0.00003097,0.00461392,-0.00101308,-0.04957014,-0.00028179,0.00088838,
 0.00686679,0.00132480,0.00254956,0.00348771,0.00059961,-0.00247285,-0.
 00100688,-0.00006228,0.00036663,0.00007721,0.00031584,-0.00004104,-0.0
 0018239,-0.00011537,0.00004869,0.00003274,-0.00058740,0.00045456,0.000
 59988,-0.00086719,-0.00301453,-0.00659903,0.00011039,0.00006707,0.0000
 1274,-0.00000377,-0.00000559,-0.00003618,0.00000138,0.00001896,0.00004
 088,-0.00000020,0.00003495,-0.00010288,-0.00000712,-0.00001067,0.00002
 251,-0.00001424,-0.00000349,-0.00000924,0.00002237,-0.00001263,0.00002
 552,-0.00000512,-0.00004057,0.00000858,0.00001284,-0.00000198,-0.00026
 823,0.00000575,0.00040326,-0.00198389,0.00010170,0.00011162,0.00035938
 ,0.01176765,0.00252916,-0.03755501,-0.03491704,0.02189473,0.10568832,0
 .00009983,0.00026595,-0.00007006,-0.00053813,0.00006229,-0.00011954,-0
 .00017125,0.00018597,-0.00001734,-0.00044949,-0.00023478,-0.00003274,-
 0.00021682,-0.00017743,-0.00000061,0.00026988,0.00001785,0.00000658,-0
 .00021409,-0.00088519,0.00009666,0.00030008,0.00014658,0.00002762,-0.0
 0010244,0.00016196,-0.00002805,0.00042141,0.00008119,0.00000334,-0.003
 03838,-0.00159625,0.00037838,0.00070880,-0.00082488,-0.00001300,-0.000
 31927,-0.00002748,-0.00002410,0.00008852,0.00001794,0.00000943,0.00775
 027,-0.01784848,-0.00100805,-0.00281604,-0.00553926,-0.00043625,0.0002
 0869,0.00015902,0.00002201,-0.00022184,-0.00004403,-0.00002259,-0.0000
 3876,-0.00007834,0.00000078,-0.00011138,-0.00001069,-0.00004115,0.0000
 2601,0.00016901,-0.00002087,0.00014808,0.00116944,0.00062843,-0.004806
 55,-0.00190909,-0.00030768,-0.00002460,-0.00004819,0.00003387,-0.00003
 698,0.00000462,0.00000281,-0.00001342,-0.00000175,0.00000511,-0.000009
 77,0.00001886,0.00000503,-0.00000136,0.00001127,0.00000222,0.00001321,
 0.00000125,0.00000487,0.00000662,0.00000059,0.00000437,0.00002583,-0.0
 0009422,-0.00000561,-0.00001339,0.00005821,0.00000131,-0.00170339,-0.0
 0059250,0.00010444,0.00000208,0.00001389,0.00004800,-0.01534243,0.0300
 0057,0.00282304,-0.09974463,0.10507664,0.00962227,0.11926203,-0.000007
 31,0.00004968,-0.00000849,0.00005289,-0.00003327,0.00000925,0.00007239
 ,0.00006057,-0.00000302,-0.00012688,-0.00004514,-0.00001750,-0.0000429
 7,-0.00001702,-0.00000135,0.00004937,-0.00000784,0.00000294,-0.0001696
 9,0.00028567,0.00002925,-0.00009489,0.00000250,0.00000847,0.00002855,0
 .00010102,-0.00000232,0.00010434,-0.00007346,0.00000491,-0.00368631,0.
 00053725,-0.00019973,0.00085254,-0.00122697,-0.00005017,-0.00045150,-0
 .00006257,0.00001454,0.00002166,0.00001744,0.00000127,0.00836489,-0.02
 425857,-0.00135179,0.00348805,-0.00051808,-0.00002965,-0.00061260,0.00
 065969,0.00008792,0.00012224,0.00027518,0.00002843,0.00003305,-0.00002
 309,0.00000270,-0.00000556,0.00001674,0.00000857,0.00005106,-0.0000339
 1,0.00000692,-0.00030662,0.00003648,-0.00014666,-0.00022066,0.00112769
 ,0.00041097,-0.00001243,0.00000506,-0.00000600,0.00001184,0.00000121,0
 .00000027,0.00000544,-0.00000202,-0.00000041,0.00000613,-0.00000570,0.
 00000134,0.00000067,-0.00000580,0.00000114,0.00001617,-0.00001866,0.00
 000392,0.00000811,-0.00002001,-0.00000198,-0.00000572,-0.00014121,-0.0
 0000325,-0.00006180,0.00008584,-0.00000132,-0.00102979,0.00151540,0.00
 007039,-0.00007574,-0.00007420,-0.00002565,-0.00122399,0.00108093,-0.0
 0010618,0.10301930,-0.28132832,-0.01561919,-0.10762130,0.30063563,0.00
 008273,-0.00005865,-0.00002778,0.00012782,0.00003890,-0.00015461,0.000
 12772,-0.00008809,-0.00001385,0.00025833,0.00016987,-0.00003434,0.0001
 0763,0.00016339,0.00001716,-0.00019863,-0.00004760,-0.00000672,0.00048
 314,0.00042724,-0.00002385,-0.00071975,-0.00003827,-0.00006949,0.00004
 016,-0.00016195,-0.00032334,-0.00032541,-0.00018177,0.00000054,0.00068
 108,-0.00080691,0.00579694,-0.00008509,-0.00016898,0.00024045,-0.00012
 183,-0.00001076,-0.00022493,0.00003754,0.00004047,0.00005807,0.0005573
 6,0.00013878,0.00393386,-0.00049148,0.00037322,-0.00468347,0.00003447,
 0.00072391,0.00026927,0.00040364,-0.00039951,0.00011447,-0.00000691,-0
 .00003975,-0.00000425,0.00005872,-0.00002324,0.00000898,-0.00014741,-0
 .00017864,-0.00004403,0.00045404,-0.00044814,0.00046020,-0.00057133,0.
 00187067,0.00222796,-0.00000428,0.00000117,0.00000825,0.00001165,-0.00
 000320,0.00000689,0.00000498,-0.00000170,-0.00000537,0.00000337,-0.000
 00976,0.00001395,-0.00000206,-0.00000111,0.00000306,-0.00000551,0.0000
 0849,0.00002922,-0.00000646,0.00000599,0.00003315,-0.00000055,-0.00000
 387,-0.00005140,-0.00000194,-0.00000999,-0.00003488,0.00009366,0.00000
 860,0.00035461,0.00001320,-0.00002226,0.00025674,0.00070744,-0.0038562
 4,0.00402537,0.00871798,-0.01356807,-0.03161246,-0.01095647,0.01667551
 ,0.02125540,0.00008460,-0.00021189,0.00002769,0.00009722,0.00027040,0.
 00005450,0.00019196,0.00118757,-0.00018397,0.00003589,-0.00005226,-0.0
 0008847,0.00012411,0.00016599,-0.00000625,-0.00021840,0.00006689,0.000
 00573,-0.00254356,0.00108962,0.00073127,-0.00062480,0.00020658,-0.0000
 3365,0.00027178,-0.00014719,-0.00002075,-0.00026293,0.00004659,-0.0000
 0191,0.00021921,0.00004472,0.00000640,-0.00015077,-0.00009092,-0.00000
 011,0.00003218,-0.00002928,-0.00000186,-0.00010100,-0.00001335,-0.0000
 0068,-0.00328719,0.00284799,0.00038543,-0.00041697,-0.00124373,0.00020
 180,-0.00033086,0.00054877,0.00002489,0.00020490,-0.00023690,-0.000002
 93,0.00004261,0.00004221,0.00002503,-0.00011848,-0.00021819,-0.0000293
 5,0.00017578,0.00043599,-0.00002613,0.00074234,-0.00037517,-0.00042351
 ,0.01008027,0.01998972,0.00088064,-0.00052278,-0.00012440,0.00005085,0
 .00001621,0.00000486,-0.00000346,0.00000632,-0.00003649,0.00000660,0.0
 0000176,-0.00000292,-0.00000016,-0.00003766,0.00001178,0.00000806,0.00
 000392,0.00000224,0.00000186,0.00001689,0.00000368,-0.00000111,-0.0000
 0134,-0.00002181,-0.00000176,-0.00000345,-0.00001945,0.00000711,-0.000
 03616,0.00009175,0.00000715,-0.00011128,-0.00007623,-0.00004455,-0.113
 35258,-0.11659288,0.00133375,-0.01148498,-0.02806269,-0.00216847,0.000
 48739,-0.00008435,-0.00008932,0.11993596,-0.00024034,0.00013639,0.0000
 0301,0.00008362,-0.00037327,-0.00005806,-0.00057701,-0.00147784,0.0002
 7834,0.00005918,0.00002369,0.00015963,-0.00013908,-0.00015825,-0.00000
 479,0.00020556,-0.00012966,-0.00000553,0.00389419,0.00082595,-0.001767
 04,0.00073208,-0.00016174,0.00000734,-0.00027699,0.00016860,0.00004114
 ,0.00034499,0.00003652,0.00000496,-0.00041324,0.00035207,-0.00008392,0
 .00031682,0.00007261,0.00000558,0.00000209,0.00000380,0.00000080,0.000
 06108,-0.00006099,0.00000248,0.00074935,0.00109053,-0.00010121,0.00008
 184,-0.00003087,-0.00005898,-0.00002622,-0.00044570,-0.00001446,-0.000
 31755,0.00037515,0.00002905,0.00002195,0.00010074,0.00000824,0.0002122
 2,0.00023069,0.00002375,0.00038669,-0.00017633,-0.00005963,-0.00149457
 ,0.00086736,0.00050383,-0.00968846,-0.02163878,-0.00027794,0.00035660,
 0.00037171,-0.00004957,0.00001096,-0.00000970,0.00000217,0.00000080,0.
 00003045,-0.00000483,0.00000671,-0.00000257,-0.00000313,0.00005438,-0.
 00002015,-0.00000475,-0.00000134,-0.00002112,-0.00000977,-0.00001535,-
 0.00001692,0.00000222,-0.00000401,0.00000010,0.00000025,-0.00000953,0.
 00000555,-0.00000612,-0.00000842,-0.00002315,0.00000302,-0.00001252,-0
 .00001362,0.00000510,-0.11662197,-0.28103921,-0.01581377,0.00255250,0.
 00263078,0.00100189,-0.00000500,0.00114198,0.00014678,0.12065316,0.298
 14138,0.00015877,-0.00017442,-0.00018479,-0.00011312,-0.00018809,-0.00
 032716,0.00030308,-0.00015493,0.00168156,0.00062530,0.00044687,-0.0000
 3058,0.00030683,0.00018766,0.00003532,-0.00034848,0.00008281,-0.000231
 24,0.00060088,0.00174010,0.00107691,-0.00120338,-0.00012791,-0.0001770
 9,0.00010458,0.00002897,-0.00012902,-0.00051756,-0.00020932,0.00003872
 ,0.00103485,-0.00048869,-0.00010405,-0.00073402,-0.00006721,0.00012167
 ,-0.00002405,0.00000743,-0.00001627,-0.00006996,0.00006638,-0.00001171
 ,-0.00054171,-0.00032501,0.00263706,0.00057945,0.00000118,0.00028457,-
 0.00021694,0.00032017,-0.00007376,0.00052034,-0.00037215,0.00000174,-0
 .00007207,-0.00001036,0.00000849,0.00009222,-0.00001632,-0.00017693,-0
 .00031118,-0.00018706,-0.00020355,0.00143708,-0.00032407,0.00031123,0.
 00235809,0.00254959,-0.00622401,0.00004253,0.00002103,0.00040569,-0.00
 001145,0.00000976,0.00004949,0.00000071,0.00000316,0.00001112,0.000001
 99,0.00001632,0.00006992,-0.00000287,-0.00000463,-0.00001023,-0.000007
 16,0.00000471,0.00004437,0.00000007,-0.00000134,0.00000495,-0.00000831
 ,0.00000890,0.00000156,0.00000127,-0.00000905,0.00000881,-0.00004109,0
 .00002348,0.00001644,0.00002906,0.00001891,-0.00007084,-0.00685930,-0.
 00758656,-0.02082654,0.00329881,0.00356457,0.00150061,0.00011486,0.000
 26488,-0.00172553,0.00117007,0.01416525,0.02052355,-0.00214454,0.00005
 375,0.00078406,-0.00029940,-0.00551570,0.00012210,0.00754442,-0.005342
 81,-0.00149735,-0.00226298,0.00337476,-0.00036905,-0.00137600,-0.00087
 614,0.00000120,0.00254652,-0.00016999,0.00014117,-0.00031140,0.0143197
 9,0.00391781,0.00525699,-0.00650725,-0.00020361,-0.00324927,0.00530775
 ,0.00000794,0.00358511,-0.00157003,0.00013350,-0.00669150,0.00834931,0
 .00003387,0.00239118,-0.00060132,-0.00012065,-0.00028138,0.00037895,0.
 00000729,0.00016346,0.00015418,0.00006978,-0.00675496,-0.00607246,0.00
 059919,0.01008788,0.00136728,-0.00104913,-0.00261988,-0.01186968,-0.00
 050403,-0.00391638,0.00834573,0.00054951,0.00072035,-0.00010554,-0.000
 04467,-0.00038959,0.00119020,0.00075152,0.00163511,0.00133376,0.000581
 02,-0.02047307,0.00480981,-0.01832778,0.00646403,-0.03561849,0.0416109
 3,0.00007401,-0.00004193,-0.00045426,0.00002315,-0.00002847,-0.0001058
 2,0.00002781,0.00000293,-0.00008805,0.00001963,-0.00007407,-0.00004404
 ,0.00003334,-0.00000681,0.00005317,0.00002402,-0.00002614,-0.00005531,
 -0.00001163,-0.00002294,-0.00000663,0.00000457,0.00003210,-0.00000199,
 -0.00006278,0.00011771,-0.00000280,0.00013846,0.00007045,0.00003358,-0
 .00013123,-0.00012782,0.00006823,0.01509186,-0.01763325,-0.05193674,-0
 .01635860,0.00382933,0.01307754,0.00011569,-0.00046859,0.00072775,0.00
 083391,-0.00093517,-0.00169820,0.01055307,0.00321936,-0.00134493,-0.00
 012436,-0.00080427,0.00976566,0.00159347,-0.01197579,0.00576214,0.0009
 6620,0.00468032,-0.00393930,-0.00057201,0.00254618,0.00171544,-0.00002
 919,-0.00454162,0.00035372,-0.00020467,0.00257316,-0.03252489,0.015000
 93,-0.00895347,0.00768326,0.00031067,0.00605674,-0.00752103,-0.0003601
 7,-0.00657053,0.00231064,-0.00014520,0.01014913,-0.01288146,-0.0004718
 4,-0.00565238,0.00138828,0.00015503,0.00136511,-0.00106620,-0.00001425
 ,-0.00136092,-0.00029950,-0.00006116,0.00939790,0.01258936,-0.00014761
 ,-0.01548413,-0.00221035,0.00071043,0.00486917,0.01819804,0.00073447,0
 .00600789,-0.01391643,-0.00088333,-0.00187167,0.00149433,-0.00017182,0
 .00195505,-0.00250570,0.00004944,-0.00552262,-0.00245037,-0.00018287,0
 .02266432,-0.00198192,0.00381018,-0.02880941,0.03232424,-0.06014871,-0
 .00026971,-0.00022090,0.00001963,0.00001865,-0.00003232,0.00000831,-0.
 00001779,-0.00001855,0.00005959,-0.00003852,0.00012780,0.00000380,-0.0
 0006141,0.00001945,0.00003540,-0.00005925,0.00003761,0.00009438,0.0000
 6162,0.00003676,-0.00002176,0.00000649,-0.00001187,-0.00000010,0.00016
 991,-0.00018628,0.00002686,-0.00018682,-0.00008262,0.00001088,0.000166
 74,0.00025055,-0.00001103,-0.03745206,0.01546247,0.07430424,0.01330252
 ,-0.00455433,-0.00358850,-0.00008426,0.00025987,-0.00066452,-0.0000704
 3,-0.00080620,-0.01328499,0.04057680,-0.02122448,-0.00033781,-0.000361
 48,-0.00004476,0.00098055,-0.00253668,0.00003560,0.00372563,-0.0037405
 6,0.00042514,0.00125919,0.00288249,-0.00037982,0.00040879,0.00014419,0
 .00005029,0.00010692,-0.00000045,-0.00001701,0.00398827,0.00805275,0.0
 0443308,-0.00256596,-0.00107699,-0.00015917,-0.00065058,0.00100360,0.0
 0011311,-0.00093626,-0.00141241,-0.00000492,0.00235643,0.00227364,-0.0
 0061348,-0.00199066,-0.00121138,-0.00007558,-0.00067964,0.00012646,-0.
 00000385,0.00014465,0.00032332,-0.00000358,-0.00674891,-0.00577259,0.0
 0080226,0.00572593,0.00013709,-0.00034339,-0.00253371,-0.00295187,-0.0
 0010685,0.00163922,0.00225990,0.00020350,-0.00001187,-0.00043015,-0.00
 000821,0.00000912,0.00053665,0.00010435,-0.00023946,-0.00023898,0.0007
 1578,-0.00207877,-0.00122410,0.00057434,-0.02887485,0.03322268,-0.1012
 3277,-0.00000364,0.00004578,-0.00017262,0.00002908,0.00000217,-0.00004
 173,0.00003894,-0.00000242,0.00000160,0.00003073,-0.00004164,-0.000035
 76,0.00003710,-0.00003435,0.00001504,-0.00001869,0.00001501,-0.0000027
 3,-0.00003436,0.00000315,-0.00000875,-0.00002555,0.00000249,0.00000474
 ,-0.00005858,-0.00001812,-0.00001655,0.00005963,-0.00000201,-0.0000108
 7,0.00001885,-0.00008738,-0.00002621,0.00408232,-0.02354203,-0.0609409
 6,0.01255075,0.00859023,0.00574460,-0.00084132,-0.00005890,-0.00007421
 ,-0.00180042,0.00192868,0.00168950,0.01323895,-0.01680581,0.14941084\\
 -0.00000059,-0.00000179,-0.00000106,0.00000053,-0.00000120,-0.00000151
 ,-0.00000055,-0.00000116,-0.00000052,-0.00000110,-0.00000083,-0.000001
 11,0.00000021,-0.00000167,-0.00000194,-0.00000246,-0.00000253,-0.00000
 153,0.00000006,-0.00000018,0.00000001,0.00000071,0.00000012,-0.0000001
 5,-0.00000177,0.00000112,0.00000060,-0.00000076,-0.00000072,-0.0000009
 0,-0.00000075,0.00000227,0.00000078,0.00000052,0.00000140,0.00000048,-
 0.00000263,0.00000214,0.00000088,-0.00000028,0.00000014,-0.00000010,-0
 .00000008,-0.00000047,0.00000157,0.00000295,0.00000349,0.00000174,-0.0
 0000113,0.00000106,0.00000189,-0.00000138,0.00000288,0.00000180,0.0000
 0134,-0.00000355,-0.00000158,0.00000183,-0.00000152,-0.00000109,0.0000
 0016,-0.00000046,-0.00000048,0.00000049,-0.00000180,-0.00000014,0.0000
 0261,-0.00000325,0.00000146,0.00000166,-0.00000146,-0.00000022,0.00000
 139,-0.00000270,-0.00000119,0.00000022,-0.00000303,-0.00000199,-0.0000
 0112,-0.00000269,-0.00000227,-0.00000179,-0.00000156,-0.00000197,-0.00
 000194,-0.00000018,-0.00000102,-0.00000211,0.00000110,-0.00000023,-0.0
 0000143,0.00000213,0.00000076,-0.00000055,0.00000292,0.00000168,0.0000
 0156,0.00000210,0.00000208,0.00000082,0.00000301,0.00000249,0.00000061
 ,0.00000199,0.00000014,0.00000133,0.00000204,0.00000150,0.00000184,0.0
 0000108,0.00000153,0.00000189,0.00000012,0.00000086,-0.00000030,0.0000
 0164,-0.00000125\\\@


 TO SEE A WORLD IN A GRAIN OF SAND
 AND A HEAVEN IN A WILD FLOWER
 HOLD INFINITY IN THE PALM OF YOUR HAND
 AND ETERNITY IN AN HOUR

                       -- WILLIAM BLAKE
 Job cpu time:       3 days 11 hours  0 minutes 21.4 seconds.
 File lengths (MBytes):  RWF=   9009 Int=      0 D2E=      0 Chk=     42 Scr=      1
 Normal termination of Gaussian 09 at Sun Feb  2 12:34:52 2020.
