 Entering Gaussian System, Link 0=g09
 Initial command:
 /usr/local/Cluster-Apps/gaussian/g09/l1.exe "/rds/user/am2145/hpc-work/scratch/19187508/Gau-52740.inp" -scrdir="/rds/user/am2145/hpc-work/scratch/19187508/"
 Entering Link 1 = /usr/local/Cluster-Apps/gaussian/g09/l1.exe PID=     52741.
  
 Copyright (c) 1988,1990,1992,1993,1995,1998,2003,2009,2013,
            Gaussian, Inc.  All Rights Reserved.
  
 This is part of the Gaussian(R) 09 program.  It is based on
 the Gaussian(R) 03 system (copyright 2003, Gaussian, Inc.),
 the Gaussian(R) 98 system (copyright 1998, Gaussian, Inc.),
 the Gaussian(R) 94 system (copyright 1995, Gaussian, Inc.),
 the Gaussian 92(TM) system (copyright 1992, Gaussian, Inc.),
 the Gaussian 90(TM) system (copyright 1990, Gaussian, Inc.),
 the Gaussian 88(TM) system (copyright 1988, Gaussian, Inc.),
 the Gaussian 86(TM) system (copyright 1986, Carnegie Mellon
 University), and the Gaussian 82(TM) system (copyright 1983,
 Carnegie Mellon University). Gaussian is a federally registered
 trademark of Gaussian, Inc.
  
 This software contains proprietary and confidential information,
 including trade secrets, belonging to Gaussian, Inc.
  
 This software is provided under written license and may be
 used, copied, transmitted, or stored only in accord with that
 written license.
  
 The following legend is applicable only to US Government
 contracts under FAR:
  
                    RESTRICTED RIGHTS LEGEND
  
 Use, reproduction and disclosure by the US Government is
 subject to restrictions as set forth in subparagraphs (a)
 and (c) of the Commercial Computer Software - Restricted
 Rights clause in FAR 52.227-19.
  
 Gaussian, Inc.
 340 Quinnipiac St., Bldg. 40, Wallingford CT 06492
  
  
 ---------------------------------------------------------------
 Warning -- This program may not be used in any manner that
 competes with the business of Gaussian, Inc. or will provide
 assistance to any competitor of Gaussian, Inc.  The licensee
 of this program is prohibited from giving any competitor of
 Gaussian, Inc. access to this program.  By using this program,
 the user acknowledges that Gaussian, Inc. is engaged in the
 business of creating and licensing software in the field of
 computational chemistry and represents and warrants to the
 licensee that it is not a competitor of Gaussian, Inc. and that
 it will not use this program in any manner prohibited above.
 ---------------------------------------------------------------
  

 Cite this work as:
 Gaussian 09, Revision D.01,
 M. J. Frisch, G. W. Trucks, H. B. Schlegel, G. E. Scuseria, 
 M. A. Robb, J. R. Cheeseman, G. Scalmani, V. Barone, B. Mennucci, 
 G. A. Petersson, H. Nakatsuji, M. Caricato, X. Li, H. P. Hratchian, 
 A. F. Izmaylov, J. Bloino, G. Zheng, J. L. Sonnenberg, M. Hada, 
 M. Ehara, K. Toyota, R. Fukuda, J. Hasegawa, M. Ishida, T. Nakajima, 
 Y. Honda, O. Kitao, H. Nakai, T. Vreven, J. A. Montgomery, Jr., 
 J. E. Peralta, F. Ogliaro, M. Bearpark, J. J. Heyd, E. Brothers, 
 K. N. Kudin, V. N. Staroverov, T. Keith, R. Kobayashi, J. Normand, 
 K. Raghavachari, A. Rendell, J. C. Burant, S. S. Iyengar, J. Tomasi, 
 M. Cossi, N. Rega, J. M. Millam, M. Klene, J. E. Knox, J. B. Cross, 
 V. Bakken, C. Adamo, J. Jaramillo, R. Gomperts, R. E. Stratmann, 
 O. Yazyev, A. J. Austin, R. Cammi, C. Pomelli, J. W. Ochterski, 
 R. L. Martin, K. Morokuma, V. G. Zakrzewski, G. A. Voth, 
 P. Salvador, J. J. Dannenberg, S. Dapprich, A. D. Daniels, 
 O. Farkas, J. B. Foresman, J. V. Ortiz, J. Cioslowski, 
 and D. J. Fox, Gaussian, Inc., Wallingford CT, 2013.
 
 ******************************************
 Gaussian 09:  ES64L-G09RevD.01 24-Apr-2013
                 2-Feb-2020 
 ******************************************
 %NProcShared=20
 Will use up to   20 processors via shared memory.
 %mem=64GB
 %Chk=BPradguess.chk
 --------------------------------------------------
 #n opt=(ts,calcfc,noeigen) freq b3lyp/6-311+g(d,p)
 --------------------------------------------------
 1/5=1,10=4,11=1,14=-1,18=20,26=3,38=1/1,3;
 2/9=110,12=2,17=6,18=5,40=1/2;
 3/5=4,6=6,7=111,11=2,16=1,25=1,30=1,71=2,74=-5,140=1/1,2,3;
 4//1;
 5/5=2,38=5/2;
 8/6=4,10=90,11=11/1;
 11/6=1,8=1,9=11,15=111,16=1/1,2,10;
 10/6=1,13=1/2;
 6/7=2,8=2,9=2,10=2,28=1/1;
 7/10=1,18=20,25=1/1,2,3,16;
 1/5=1,10=4,11=1,14=-1,18=20,26=3/3(2);
 2/9=110/2;
 99//99;
 2/9=110/2;
 3/5=4,6=6,7=111,11=2,16=1,25=1,30=1,71=1,74=-5/1,2,3;
 4/5=5,16=3,69=1/1;
 5/5=2,38=5/2;
 7//1,2,3,16;
 1/5=1,11=1,14=-1,18=20,26=3/3(-5);
 2/9=110/2;
 6/7=2,8=2,9=2,10=2,19=2,28=1/1;
 99/9=1/99;
 ----------
 BPradguess
 ----------
 Symbolic Z-matrix:
 Charge =  0 Multiplicity = 3
 C                    -3.81697   0.38286  -0.02288 
 C                    -2.51884  -0.11501  -0.0171 
 C                    -1.38104   0.70548  -0.0073 
 C                    -1.46956   2.09829  -0.00055 
 C                    -3.9207    1.82685  -0.01835 
 C                    -2.8121    2.6376   -0.00736 
 C                    -0.21549  -0.08105  -0.00254 
 C                     1.03921   0.56987   0.00521 
 C                     0.977     2.0251    0.01959 
 C                    -0.23342   2.75241   0.01627 
 C                     2.33746  -0.09694  -0.00648 
 C                     3.50695   0.72692   0.00715 
 C                     3.39851   2.15636   0.03524 
 C                     2.19755   2.77332   0.0385 
 C                     2.54085  -1.53263  -0.04243 
 C                     3.86385  -2.01995  -0.06744 
 C                     4.98141  -1.19575  -0.05135 
 C                     4.80209   0.16929  -0.01222 
 C                    -4.83516  -0.60136  -0.02867 
 C                    -4.48927  -1.95299  -0.02628 
 C                    -3.153    -2.41357  -0.01878 
 C                    -2.12885  -1.46974  -0.01584 
 C                    -0.66281  -1.4719   -0.00759 
 H                    -2.95851  -3.48043  -0.01295 
 H                    -5.28488  -2.68998  -0.02864 
 H                    -5.88146  -0.31496  -0.03347 
 H                    -4.90628   2.28134  -0.02235 
 H                    -2.94339   3.71471  -0.00283 
 H                    -0.17688   3.83608   0.02695 
 H                     2.13418   3.85595   0.05469 
 H                     4.3161    2.7341    0.04913 
 H                     5.65426   0.83962   0.001 
 H                     4.00588  -3.09388  -0.09662 
 H                     5.97599  -1.62607  -0.06858 
 C                     0.17334  -2.59486   0.01071 
 C                     1.55844  -2.59142  -0.06043 
 H                    -0.30424  -3.56532  -0.08153 
 H                     2.00485  -3.57921  -0.10021 
 H                    -0.07242  -3.0352    2.00104 
 
 Add virtual bond connecting atoms H39        and C35        Dist= 3.88D+00.
 Add virtual bond connecting atoms H39        and H37        Dist= 4.08D+00.

 GradGradGradGradGradGradGradGradGradGradGradGradGradGradGradGradGradGrad
 Berny optimization.
 Initialization pass.
                           ----------------------------
                           !    Initial Parameters    !
                           ! (Angstroms and Degrees)  !
 --------------------------                            --------------------------
 ! Name  Definition              Value          Derivative Info.                !
 --------------------------------------------------------------------------------
 ! R1    R(1,2)                  1.3903         calculate D2E/DX2 analytically  !
 ! R2    R(1,5)                  1.4477         calculate D2E/DX2 analytically  !
 ! R3    R(1,19)                 1.4161         calculate D2E/DX2 analytically  !
 ! R4    R(2,3)                  1.4028         calculate D2E/DX2 analytically  !
 ! R5    R(2,22)                 1.4097         calculate D2E/DX2 analytically  !
 ! R6    R(3,4)                  1.3956         calculate D2E/DX2 analytically  !
 ! R7    R(3,7)                  1.4061         calculate D2E/DX2 analytically  !
 ! R8    R(4,6)                  1.4468         calculate D2E/DX2 analytically  !
 ! R9    R(4,10)                 1.3986         calculate D2E/DX2 analytically  !
 ! R10   R(5,6)                  1.3735         calculate D2E/DX2 analytically  !
 ! R11   R(5,27)                 1.0853         calculate D2E/DX2 analytically  !
 ! R12   R(6,28)                 1.0851         calculate D2E/DX2 analytically  !
 ! R13   R(7,8)                  1.4135         calculate D2E/DX2 analytically  !
 ! R14   R(7,23)                 1.461          calculate D2E/DX2 analytically  !
 ! R15   R(8,9)                  1.4566         calculate D2E/DX2 analytically  !
 ! R16   R(8,11)                 1.4595         calculate D2E/DX2 analytically  !
 ! R17   R(9,10)                 1.4121         calculate D2E/DX2 analytically  !
 ! R18   R(9,14)                 1.4318         calculate D2E/DX2 analytically  !
 ! R19   R(10,29)                1.0852         calculate D2E/DX2 analytically  !
 ! R20   R(11,12)                1.4306         calculate D2E/DX2 analytically  !
 ! R21   R(11,15)                1.4505         calculate D2E/DX2 analytically  !
 ! R22   R(12,13)                1.4338         calculate D2E/DX2 analytically  !
 ! R23   R(12,18)                1.4102         calculate D2E/DX2 analytically  !
 ! R24   R(13,14)                1.3502         calculate D2E/DX2 analytically  !
 ! R25   R(13,31)                1.0844         calculate D2E/DX2 analytically  !
 ! R26   R(14,30)                1.0846         calculate D2E/DX2 analytically  !
 ! R27   R(15,16)                1.4101         calculate D2E/DX2 analytically  !
 ! R28   R(15,36)                1.4445         calculate D2E/DX2 analytically  !
 ! R29   R(16,17)                1.3887         calculate D2E/DX2 analytically  !
 ! R30   R(16,33)                1.0837         calculate D2E/DX2 analytically  !
 ! R31   R(17,18)                1.3773         calculate D2E/DX2 analytically  !
 ! R32   R(17,34)                1.0838         calculate D2E/DX2 analytically  !
 ! R33   R(18,32)                1.0843         calculate D2E/DX2 analytically  !
 ! R34   R(19,20)                1.3952         calculate D2E/DX2 analytically  !
 ! R35   R(19,26)                1.0848         calculate D2E/DX2 analytically  !
 ! R36   R(20,21)                1.4134         calculate D2E/DX2 analytically  !
 ! R37   R(20,25)                1.0845         calculate D2E/DX2 analytically  !
 ! R38   R(21,22)                1.3927         calculate D2E/DX2 analytically  !
 ! R39   R(21,24)                1.0845         calculate D2E/DX2 analytically  !
 ! R40   R(22,23)                1.4661         calculate D2E/DX2 analytically  !
 ! R41   R(23,35)                1.4002         calculate D2E/DX2 analytically  !
 ! R42   R(35,36)                1.3869         calculate D2E/DX2 analytically  !
 ! R43   R(35,37)                1.0855         calculate D2E/DX2 analytically  !
 ! R44   R(35,39)                2.0532         calculate D2E/DX2 analytically  !
 ! R45   R(36,38)                1.0847         calculate D2E/DX2 analytically  !
 ! R46   R(37,39)                2.1614         calculate D2E/DX2 analytically  !
 ! A1    A(2,1,5)              115.0909         calculate D2E/DX2 analytically  !
 ! A2    A(2,1,19)             114.9893         calculate D2E/DX2 analytically  !
 ! A3    A(5,1,19)             129.9196         calculate D2E/DX2 analytically  !
 ! A4    A(1,2,3)              123.2214         calculate D2E/DX2 analytically  !
 ! A5    A(1,2,22)             127.0428         calculate D2E/DX2 analytically  !
 ! A6    A(3,2,22)             109.7356         calculate D2E/DX2 analytically  !
 ! A7    A(2,3,4)              122.1606         calculate D2E/DX2 analytically  !
 ! A8    A(2,3,7)              110.1926         calculate D2E/DX2 analytically  !
 ! A9    A(4,3,7)              127.6466         calculate D2E/DX2 analytically  !
 ! A10   A(3,4,6)              115.5202         calculate D2E/DX2 analytically  !
 ! A11   A(3,4,10)             114.2511         calculate D2E/DX2 analytically  !
 ! A12   A(6,4,10)             130.2283         calculate D2E/DX2 analytically  !
 ! A13   A(1,5,6)              122.0706         calculate D2E/DX2 analytically  !
 ! A14   A(1,5,27)             118.864          calculate D2E/DX2 analytically  !
 ! A15   A(6,5,27)             119.0654         calculate D2E/DX2 analytically  !
 ! A16   A(4,6,5)              121.9362         calculate D2E/DX2 analytically  !
 ! A17   A(4,6,28)             118.8334         calculate D2E/DX2 analytically  !
 ! A18   A(5,6,28)             119.2304         calculate D2E/DX2 analytically  !
 ! A19   A(3,7,8)              118.5689         calculate D2E/DX2 analytically  !
 ! A20   A(3,7,23)             106.1825         calculate D2E/DX2 analytically  !
 ! A21   A(8,7,23)             135.2486         calculate D2E/DX2 analytically  !
 ! A22   A(7,8,9)              114.9735         calculate D2E/DX2 analytically  !
 ! A23   A(7,8,11)             125.3893         calculate D2E/DX2 analytically  !
 ! A24   A(9,8,11)             119.6365         calculate D2E/DX2 analytically  !
 ! A25   A(8,9,10)             123.4449         calculate D2E/DX2 analytically  !
 ! A26   A(8,9,14)             119.0654         calculate D2E/DX2 analytically  !
 ! A27   A(10,9,14)            117.4897         calculate D2E/DX2 analytically  !
 ! A28   A(4,10,9)             121.1126         calculate D2E/DX2 analytically  !
 ! A29   A(4,10,29)            120.8766         calculate D2E/DX2 analytically  !
 ! A30   A(9,10,29)            118.0108         calculate D2E/DX2 analytically  !
 ! A31   A(8,11,12)            117.6435         calculate D2E/DX2 analytically  !
 ! A32   A(8,11,15)            125.2495         calculate D2E/DX2 analytically  !
 ! A33   A(12,11,15)           117.1048         calculate D2E/DX2 analytically  !
 ! A34   A(11,12,13)           120.8293         calculate D2E/DX2 analytically  !
 ! A35   A(11,12,18)           121.5285         calculate D2E/DX2 analytically  !
 ! A36   A(13,12,18)           117.6416         calculate D2E/DX2 analytically  !
 ! A37   A(12,13,14)           121.5252         calculate D2E/DX2 analytically  !
 ! A38   A(12,13,31)           117.8654         calculate D2E/DX2 analytically  !
 ! A39   A(14,13,31)           120.6088         calculate D2E/DX2 analytically  !
 ! A40   A(9,14,13)            121.2951         calculate D2E/DX2 analytically  !
 ! A41   A(9,14,30)            118.1659         calculate D2E/DX2 analytically  !
 ! A42   A(13,14,30)           120.539          calculate D2E/DX2 analytically  !
 ! A43   A(11,15,16)           118.2986         calculate D2E/DX2 analytically  !
 ! A44   A(11,15,36)           129.0846         calculate D2E/DX2 analytically  !
 ! A45   A(16,15,36)           112.6167         calculate D2E/DX2 analytically  !
 ! A46   A(15,16,17)           123.3477         calculate D2E/DX2 analytically  !
 ! A47   A(15,16,33)           117.77           calculate D2E/DX2 analytically  !
 ! A48   A(17,16,33)           118.8818         calculate D2E/DX2 analytically  !
 ! A49   A(16,17,18)           118.9315         calculate D2E/DX2 analytically  !
 ! A50   A(16,17,34)           120.1761         calculate D2E/DX2 analytically  !
 ! A51   A(18,17,34)           120.8923         calculate D2E/DX2 analytically  !
 ! A52   A(12,18,17)           120.7875         calculate D2E/DX2 analytically  !
 ! A53   A(12,18,32)           118.5001         calculate D2E/DX2 analytically  !
 ! A54   A(17,18,32)           120.7121         calculate D2E/DX2 analytically  !
 ! A55   A(1,19,20)            119.673          calculate D2E/DX2 analytically  !
 ! A56   A(1,19,26)            120.6641         calculate D2E/DX2 analytically  !
 ! A57   A(20,19,26)           119.6628         calculate D2E/DX2 analytically  !
 ! A58   A(19,20,21)           123.3721         calculate D2E/DX2 analytically  !
 ! A59   A(19,20,25)           118.4549         calculate D2E/DX2 analytically  !
 ! A60   A(21,20,25)           118.1728         calculate D2E/DX2 analytically  !
 ! A61   A(20,21,22)           118.3195         calculate D2E/DX2 analytically  !
 ! A62   A(20,21,24)           119.3504         calculate D2E/DX2 analytically  !
 ! A63   A(22,21,24)           122.3298         calculate D2E/DX2 analytically  !
 ! A64   A(2,22,21)            116.603          calculate D2E/DX2 analytically  !
 ! A65   A(2,22,23)            106.1441         calculate D2E/DX2 analytically  !
 ! A66   A(21,22,23)           137.2526         calculate D2E/DX2 analytically  !
 ! A67   A(7,23,22)            107.745          calculate D2E/DX2 analytically  !
 ! A68   A(7,23,35)            125.4933         calculate D2E/DX2 analytically  !
 ! A69   A(22,23,35)           126.7565         calculate D2E/DX2 analytically  !
 ! A70   A(23,35,36)           126.4217         calculate D2E/DX2 analytically  !
 ! A71   A(23,35,37)           116.9462         calculate D2E/DX2 analytically  !
 ! A72   A(23,35,39)            96.4994         calculate D2E/DX2 analytically  !
 ! A73   A(36,35,37)           115.9271         calculate D2E/DX2 analytically  !
 ! A74   A(36,35,39)            99.7757         calculate D2E/DX2 analytically  !
 ! A75   A(15,36,35)           132.8749         calculate D2E/DX2 analytically  !
 ! A76   A(15,36,38)           112.8337         calculate D2E/DX2 analytically  !
 ! A77   A(35,36,38)           114.2443         calculate D2E/DX2 analytically  !
 ! D1    D(5,1,2,3)              0.013          calculate D2E/DX2 analytically  !
 ! D2    D(5,1,2,22)           179.8061         calculate D2E/DX2 analytically  !
 ! D3    D(19,1,2,3)          -179.825          calculate D2E/DX2 analytically  !
 ! D4    D(19,1,2,22)           -0.0318         calculate D2E/DX2 analytically  !
 ! D5    D(2,1,5,6)             -0.0817         calculate D2E/DX2 analytically  !
 ! D6    D(2,1,5,27)          -179.993          calculate D2E/DX2 analytically  !
 ! D7    D(19,1,5,6)           179.7267         calculate D2E/DX2 analytically  !
 ! D8    D(19,1,5,27)           -0.1845         calculate D2E/DX2 analytically  !
 ! D9    D(2,1,19,20)            0.0928         calculate D2E/DX2 analytically  !
 ! D10   D(2,1,19,26)         -179.9978         calculate D2E/DX2 analytically  !
 ! D11   D(5,1,19,20)         -179.7158         calculate D2E/DX2 analytically  !
 ! D12   D(5,1,19,26)            0.1936         calculate D2E/DX2 analytically  !
 ! D13   D(1,2,3,4)              0.0983         calculate D2E/DX2 analytically  !
 ! D14   D(1,2,3,7)            179.9631         calculate D2E/DX2 analytically  !
 ! D15   D(22,2,3,4)          -179.7263         calculate D2E/DX2 analytically  !
 ! D16   D(22,2,3,7)             0.1386         calculate D2E/DX2 analytically  !
 ! D17   D(1,2,22,21)           -0.0989         calculate D2E/DX2 analytically  !
 ! D18   D(1,2,22,23)         -179.9389         calculate D2E/DX2 analytically  !
 ! D19   D(3,2,22,21)          179.7173         calculate D2E/DX2 analytically  !
 ! D20   D(3,2,22,23)           -0.1228         calculate D2E/DX2 analytically  !
 ! D21   D(2,3,4,6)             -0.1326         calculate D2E/DX2 analytically  !
 ! D22   D(2,3,4,10)           179.6677         calculate D2E/DX2 analytically  !
 ! D23   D(7,3,4,6)           -179.9724         calculate D2E/DX2 analytically  !
 ! D24   D(7,3,4,10)            -0.1722         calculate D2E/DX2 analytically  !
 ! D25   D(2,3,7,8)            179.8969         calculate D2E/DX2 analytically  !
 ! D26   D(2,3,7,23)            -0.0926         calculate D2E/DX2 analytically  !
 ! D27   D(4,3,7,8)             -0.2475         calculate D2E/DX2 analytically  !
 ! D28   D(4,3,7,23)           179.7629         calculate D2E/DX2 analytically  !
 ! D29   D(3,4,6,5)              0.0637         calculate D2E/DX2 analytically  !
 ! D30   D(3,4,6,28)          -179.9857         calculate D2E/DX2 analytically  !
 ! D31   D(10,4,6,5)          -179.6977         calculate D2E/DX2 analytically  !
 ! D32   D(10,4,6,28)            0.2529         calculate D2E/DX2 analytically  !
 ! D33   D(3,4,10,9)             0.265          calculate D2E/DX2 analytically  !
 ! D34   D(3,4,10,29)         -179.7485         calculate D2E/DX2 analytically  !
 ! D35   D(6,4,10,9)          -179.9711         calculate D2E/DX2 analytically  !
 ! D36   D(6,4,10,29)            0.0154         calculate D2E/DX2 analytically  !
 ! D37   D(1,5,6,4)              0.0437         calculate D2E/DX2 analytically  !
 ! D38   D(1,5,6,28)          -179.9067         calculate D2E/DX2 analytically  !
 ! D39   D(27,5,6,4)           179.9548         calculate D2E/DX2 analytically  !
 ! D40   D(27,5,6,28)            0.0043         calculate D2E/DX2 analytically  !
 ! D41   D(3,7,8,9)              0.5275         calculate D2E/DX2 analytically  !
 ! D42   D(3,7,8,11)          -179.1641         calculate D2E/DX2 analytically  !
 ! D43   D(23,7,8,9)          -179.4867         calculate D2E/DX2 analytically  !
 ! D44   D(23,7,8,11)            0.8217         calculate D2E/DX2 analytically  !
 ! D45   D(3,7,23,22)            0.0157         calculate D2E/DX2 analytically  !
 ! D46   D(3,7,23,35)         -179.1984         calculate D2E/DX2 analytically  !
 ! D47   D(8,7,23,22)         -179.9713         calculate D2E/DX2 analytically  !
 ! D48   D(8,7,23,35)            0.8146         calculate D2E/DX2 analytically  !
 ! D49   D(7,8,9,10)            -0.452          calculate D2E/DX2 analytically  !
 ! D50   D(7,8,9,14)           179.5317         calculate D2E/DX2 analytically  !
 ! D51   D(11,8,9,10)          179.2587         calculate D2E/DX2 analytically  !
 ! D52   D(11,8,9,14)           -0.7576         calculate D2E/DX2 analytically  !
 ! D53   D(7,8,11,12)         -179.8547         calculate D2E/DX2 analytically  !
 ! D54   D(7,8,11,15)            0.7034         calculate D2E/DX2 analytically  !
 ! D55   D(9,8,11,12)            0.4669         calculate D2E/DX2 analytically  !
 ! D56   D(9,8,11,15)         -178.9749         calculate D2E/DX2 analytically  !
 ! D57   D(8,9,10,4)             0.0433         calculate D2E/DX2 analytically  !
 ! D58   D(8,9,10,29)         -179.9435         calculate D2E/DX2 analytically  !
 ! D59   D(14,9,10,4)         -179.9405         calculate D2E/DX2 analytically  !
 ! D60   D(14,9,10,29)           0.0726         calculate D2E/DX2 analytically  !
 ! D61   D(8,9,14,13)            0.3954         calculate D2E/DX2 analytically  !
 ! D62   D(8,9,14,30)         -179.6615         calculate D2E/DX2 analytically  !
 ! D63   D(10,9,14,13)        -179.62           calculate D2E/DX2 analytically  !
 ! D64   D(10,9,14,30)           0.3231         calculate D2E/DX2 analytically  !
 ! D65   D(8,11,12,13)           0.1775         calculate D2E/DX2 analytically  !
 ! D66   D(8,11,12,18)        -179.5457         calculate D2E/DX2 analytically  !
 ! D67   D(15,11,12,13)        179.6654         calculate D2E/DX2 analytically  !
 ! D68   D(15,11,12,18)         -0.0577         calculate D2E/DX2 analytically  !
 ! D69   D(8,11,15,16)         179.1685         calculate D2E/DX2 analytically  !
 ! D70   D(8,11,15,36)          -0.6755         calculate D2E/DX2 analytically  !
 ! D71   D(12,11,15,16)         -0.276          calculate D2E/DX2 analytically  !
 ! D72   D(12,11,15,36)        179.88           calculate D2E/DX2 analytically  !
 ! D73   D(11,12,13,14)         -0.5606         calculate D2E/DX2 analytically  !
 ! D74   D(11,12,13,31)        179.7291         calculate D2E/DX2 analytically  !
 ! D75   D(18,12,13,14)        179.1731         calculate D2E/DX2 analytically  !
 ! D76   D(18,12,13,31)         -0.5373         calculate D2E/DX2 analytically  !
 ! D77   D(11,12,18,17)          0.3028         calculate D2E/DX2 analytically  !
 ! D78   D(11,12,18,32)       -179.901          calculate D2E/DX2 analytically  !
 ! D79   D(13,12,18,17)       -179.4289         calculate D2E/DX2 analytically  !
 ! D80   D(13,12,18,32)          0.3673         calculate D2E/DX2 analytically  !
 ! D81   D(12,13,14,9)           0.2623         calculate D2E/DX2 analytically  !
 ! D82   D(12,13,14,30)       -179.6794         calculate D2E/DX2 analytically  !
 ! D83   D(31,13,14,9)         179.9649         calculate D2E/DX2 analytically  !
 ! D84   D(31,13,14,30)          0.0232         calculate D2E/DX2 analytically  !
 ! D85   D(11,15,16,17)          0.3979         calculate D2E/DX2 analytically  !
 ! D86   D(11,15,16,33)       -179.8571         calculate D2E/DX2 analytically  !
 ! D87   D(36,15,16,17)       -179.7333         calculate D2E/DX2 analytically  !
 ! D88   D(36,15,16,33)          0.0117         calculate D2E/DX2 analytically  !
 ! D89   D(11,15,36,35)         -3.4289         calculate D2E/DX2 analytically  !
 ! D90   D(11,15,36,38)        179.2699         calculate D2E/DX2 analytically  !
 ! D91   D(16,15,36,35)        176.7198         calculate D2E/DX2 analytically  !
 ! D92   D(16,15,36,38)         -0.5813         calculate D2E/DX2 analytically  !
 ! D93   D(15,16,17,18)         -0.1605         calculate D2E/DX2 analytically  !
 ! D94   D(15,16,17,34)        179.7862         calculate D2E/DX2 analytically  !
 ! D95   D(33,16,17,18)       -179.9028         calculate D2E/DX2 analytically  !
 ! D96   D(33,16,17,34)          0.0439         calculate D2E/DX2 analytically  !
 ! D97   D(16,17,18,12)         -0.1951         calculate D2E/DX2 analytically  !
 ! D98   D(16,17,18,32)       -179.9868         calculate D2E/DX2 analytically  !
 ! D99   D(34,17,18,12)        179.8586         calculate D2E/DX2 analytically  !
 ! D100  D(34,17,18,32)          0.0669         calculate D2E/DX2 analytically  !
 ! D101  D(1,19,20,21)          -0.0261         calculate D2E/DX2 analytically  !
 ! D102  D(1,19,20,25)         179.8695         calculate D2E/DX2 analytically  !
 ! D103  D(26,19,20,21)       -179.9365         calculate D2E/DX2 analytically  !
 ! D104  D(26,19,20,25)         -0.0409         calculate D2E/DX2 analytically  !
 ! D105  D(19,20,21,22)         -0.1092         calculate D2E/DX2 analytically  !
 ! D106  D(19,20,21,24)        179.7349         calculate D2E/DX2 analytically  !
 ! D107  D(25,20,21,22)        179.995          calculate D2E/DX2 analytically  !
 ! D108  D(25,20,21,24)         -0.161          calculate D2E/DX2 analytically  !
 ! D109  D(20,21,22,2)           0.1623         calculate D2E/DX2 analytically  !
 ! D110  D(20,21,22,23)        179.936          calculate D2E/DX2 analytically  !
 ! D111  D(24,21,22,2)        -179.6768         calculate D2E/DX2 analytically  !
 ! D112  D(24,21,22,23)          0.0969         calculate D2E/DX2 analytically  !
 ! D113  D(2,22,23,7)            0.0647         calculate D2E/DX2 analytically  !
 ! D114  D(2,22,23,35)         179.2661         calculate D2E/DX2 analytically  !
 ! D115  D(21,22,23,7)        -179.7246         calculate D2E/DX2 analytically  !
 ! D116  D(21,22,23,35)         -0.5232         calculate D2E/DX2 analytically  !
 ! D117  D(7,23,35,36)          -4.9863         calculate D2E/DX2 analytically  !
 ! D118  D(7,23,35,37)        -174.9245         calculate D2E/DX2 analytically  !
 ! D119  D(7,23,35,39)         102.2571         calculate D2E/DX2 analytically  !
 ! D120  D(22,23,35,36)        175.9479         calculate D2E/DX2 analytically  !
 ! D121  D(22,23,35,37)          6.0097         calculate D2E/DX2 analytically  !
 ! D122  D(22,23,35,39)        -76.8087         calculate D2E/DX2 analytically  !
 ! D123  D(23,35,36,15)          6.815          calculate D2E/DX2 analytically  !
 ! D124  D(23,35,36,38)       -175.913          calculate D2E/DX2 analytically  !
 ! D125  D(37,35,36,15)        176.8427         calculate D2E/DX2 analytically  !
 ! D126  D(37,35,36,38)         -5.8853         calculate D2E/DX2 analytically  !
 ! D127  D(39,35,36,15)        -98.8414         calculate D2E/DX2 analytically  !
 ! D128  D(39,35,36,38)         78.4306         calculate D2E/DX2 analytically  !
 --------------------------------------------------------------------------------
 Trust Radius=3.00D-01 FncErr=1.00D-07 GrdErr=1.00D-06
 Number of steps in this run=    234 maximum allowed number of steps=    234.
 Search for a saddle point of order  1.
 GradGradGradGradGradGradGradGradGradGradGradGradGradGradGradGradGradGrad

                          Input orientation:                          
 ---------------------------------------------------------------------
 Center     Atomic      Atomic             Coordinates (Angstroms)
 Number     Number       Type             X           Y           Z
 ---------------------------------------------------------------------
      1          6           0       -3.816970    0.382860   -0.022880
      2          6           0       -2.518840   -0.115010   -0.017100
      3          6           0       -1.381040    0.705480   -0.007300
      4          6           0       -1.469560    2.098290   -0.000550
      5          6           0       -3.920700    1.826850   -0.018350
      6          6           0       -2.812100    2.637600   -0.007360
      7          6           0       -0.215490   -0.081050   -0.002540
      8          6           0        1.039210    0.569870    0.005210
      9          6           0        0.977000    2.025100    0.019590
     10          6           0       -0.233420    2.752410    0.016270
     11          6           0        2.337460   -0.096940   -0.006480
     12          6           0        3.506950    0.726920    0.007150
     13          6           0        3.398510    2.156360    0.035240
     14          6           0        2.197550    2.773320    0.038500
     15          6           0        2.540850   -1.532630   -0.042430
     16          6           0        3.863850   -2.019950   -0.067440
     17          6           0        4.981410   -1.195750   -0.051350
     18          6           0        4.802090    0.169290   -0.012220
     19          6           0       -4.835160   -0.601360   -0.028670
     20          6           0       -4.489270   -1.952990   -0.026280
     21          6           0       -3.153000   -2.413570   -0.018780
     22          6           0       -2.128850   -1.469740   -0.015840
     23          6           0       -0.662810   -1.471900   -0.007590
     24          1           0       -2.958510   -3.480430   -0.012950
     25          1           0       -5.284880   -2.689980   -0.028640
     26          1           0       -5.881460   -0.314960   -0.033470
     27          1           0       -4.906280    2.281340   -0.022350
     28          1           0       -2.943390    3.714710   -0.002830
     29          1           0       -0.176880    3.836080    0.026950
     30          1           0        2.134180    3.855950    0.054690
     31          1           0        4.316100    2.734100    0.049130
     32          1           0        5.654260    0.839620    0.001000
     33          1           0        4.005880   -3.093880   -0.096620
     34          1           0        5.975990   -1.626070   -0.068580
     35          6           0        0.173340   -2.594860    0.010710
     36          6           0        1.558440   -2.591420   -0.060430
     37          1           0       -0.304240   -3.565320   -0.081530
     38          1           0        2.004850   -3.579210   -0.100210
     39          1           0       -0.072420   -3.035200    2.001040
 ---------------------------------------------------------------------
                    Distance matrix (angstroms):
                    1          2          3          4          5
     1  C    0.000000
     2  C    1.390341   0.000000
     3  C    2.457251   1.402815   0.000000
     4  C    2.907496   2.449481   1.395636   0.000000
     5  C    1.447718   2.395002   2.776232   2.466188   0.000000
     6  C    2.468574   2.768205   2.404375   1.446829   1.373474
     7  C    3.631292   2.303646   1.406115   2.514402   4.167603
     8  C    4.859861   3.623435   2.424079   2.937691   5.116763
     9  C    5.067633   4.099063   2.702309   2.447737   4.901858
    10  C    4.296293   3.666927   2.346808   1.398641   3.801828
    11  C    6.173126   4.856345   3.804093   4.394596   6.547188
    12  C    7.332059   6.084372   4.888058   5.162012   7.508694
    13  C    7.430466   6.338524   4.995094   4.868548   7.326819
    14  C    6.472443   5.530812   4.133324   3.728926   6.191286
    15  C    6.640132   5.254593   4.515705   5.410058   7.282741
    16  C    8.048011   6.661086   5.911045   6.738667   8.683288
    17  C    8.938921   7.577791   6.640586   7.243500   9.401317
    18  C    8.621712   7.326450   6.206337   6.561613   8.878886
    19  C    1.416133   2.366856   3.693133   4.314645   2.594715
    20  C    2.430678   2.694596   4.090100   5.052938   3.822372
    21  C    2.874177   2.384437   3.587262   4.815723   4.309353
    22  C    2.506377   1.409747   2.300190   3.628462   3.752098
    23  C    3.659111   2.299149   2.292780   3.660212   4.636347
    24  H    3.957532   3.394021   4.473286   5.774014   5.393798
    25  H    3.405457   3.779098   5.173932   6.122498   4.718352
    26  H    2.179262   3.368599   4.614733   5.028889   2.903818
    27  H    2.188795   3.382660   3.861461   3.441660   1.085332
    28  H    3.444527   3.853207   3.390638   2.187463   2.125886
    29  H    5.017715   4.593237   3.354375   2.166031   4.249146
    30  H    6.890904   6.117538   4.720813   4.009908   6.386247
    31  H    8.466424   7.405283   6.047800   5.820703   8.286889
    32  H    9.482268   8.228682   7.036584   7.234160   9.625739
    33  H    8.560966   7.173002   6.592573   7.546410   9.330079
    34  H    9.996997   8.628331   7.717886   8.325365  10.481873
    35  C    4.979008   3.660364   3.648104   4.972414   6.026071
    36  C    6.143516   4.770608   4.417343   5.582629   7.038740
    37  H    5.284963   4.100396   4.405081   5.782820   6.492940
    38  H    7.042554   5.698365   5.461818   6.656986   8.021492
    39  H    5.459033   4.311075   4.442815   5.684284   6.521252
                    6          7          8          9         10
     6  C    0.000000
     7  C    3.759450   0.000000
     8  C    4.371299   1.413517   0.000000
     9  C    3.838380   2.420411   1.456630   0.000000
    10  C    2.581343   2.833579   2.526498   1.412129   0.000000
    11  C    5.830581   2.553002   1.459529   2.520830   3.837804
    12  C    6.601614   3.809130   2.472733   2.843602   4.253594
    13  C    6.229373   4.250697   2.843264   2.425115   3.680564
    14  C    5.011698   3.737897   2.489589   1.431759   2.431162
    15  C    6.785729   3.115459   2.584124   3.886762   5.105055
    16  C    8.140313   4.517141   3.832889   4.970302   6.290473
    17  C    8.685350   5.315328   4.319902   5.139475   6.541177
    18  C    8.004278   5.023830   3.784182   4.251630   5.659477
    19  C    3.818912   4.648952   5.990088   6.378231   5.694366
    20  C    4.887410   4.665825   6.076998   6.760726   6.344672
    21  C    5.062673   3.750984   5.145495   6.063016   5.934014
    22  C    4.163790   2.364230   3.767898   4.675625   4.628200
    23  C    4.637611   1.461022   2.658169   3.862476   4.246144
    24  H    6.119784   4.368072   5.690960   6.767581   6.802592
    25  H    5.873517   5.701396   7.114906   7.838715   7.425555
    26  H    4.259021   5.670881   6.977112   7.246873   6.427409
    27  H    2.124320   5.252122   6.186982   5.889007   4.696703
    28  H    1.085091   4.674316   5.074563   4.269045   2.875817
    29  H    2.895154   3.917431   3.485323   2.147357   1.085197
    30  H    5.094498   4.585215   3.464063   2.166174   2.612433
    31  H    7.129077   5.335077   3.927318   3.413670   4.549676
    32  H    8.655175   5.941516   4.622929   4.825191   6.190620
    33  H    8.907451   5.187096   4.715354   5.949082   7.222431
    34  H    9.767966   6.381683   5.403646   6.191019   7.598359
    35  C    6.024269   2.543738   3.281048   4.689347   5.362721
    36  C    6.815210   3.074433   3.204319   4.653679   5.636769
    37  H    6.691119   3.486295   4.348813   5.736253   6.318884
    38  H    7.865135   4.144463   4.261272   5.699045   6.716609
    39  H    6.612123   3.572367   4.267972   5.534805   6.120593
                   11         12         13         14         15
    11  C    0.000000
    12  C    1.430608   0.000000
    13  C    2.490969   1.433823   0.000000
    14  C    2.874020   2.429663   1.350169   0.000000
    15  C    1.450471   2.457921   3.788174   4.320372   0.000000
    16  C    2.455921   2.770963   4.203409   5.075748   1.410119
    17  C    2.863541   2.423657   3.708060   4.848862   2.463717
    18  C    2.478974   1.410218   2.433256   3.683364   2.830309
    19  C    7.190369   8.447272   8.683457   7.800768   7.434580
    20  C    7.074571   8.433420   8.894246   8.188758   7.042695
    21  C    5.959201   7.363307   7.988082   7.452214   5.761644
    22  C    4.672536   6.048809   6.610818   6.060053   4.670199
    23  C    3.300324   4.714014   5.446139   5.119148   3.204425
    24  H    6.284532   7.713908   8.496318   8.105368   5.834188
    25  H    8.051361   9.432537   9.944463   9.264929   7.910860
    26  H    8.221855   9.446132   9.603644   8.649454   8.509883
    27  H    7.624188   8.555672   8.305930   7.121106   8.366990
    28  H    6.512762   7.108718   6.530666   5.226585   7.590325
    29  H    4.668155   4.820568   3.950309   2.601444   6.017800
    30  H    3.958586   3.417248   2.118376   1.084604   5.404776
    31  H    3.454402   2.164546   1.084411   2.118940   4.622216
    32  H    3.446500   2.150274   2.612161   3.960991   3.914432
    33  H    3.431239   3.854635   5.286899   6.141038   2.141670
    34  H    3.947277   3.411518   4.578314   5.800233   3.436510
    35  C    3.305044   4.706080   5.742509   5.737208   2.595431
    36  C    2.613850   3.848719   5.092782   5.403581   1.444469
    37  H    4.360490   5.740763   6.816276   6.815550   3.496841
    38  H    3.499374   4.561862   5.904015   6.356966   2.116394
    39  H    4.297794   5.562467   6.547062   6.537831   3.641794
                   16         17         18         19         20
    16  C    0.000000
    17  C    1.388706   0.000000
    18  C    2.382460   1.377324   0.000000
    19  C    8.814005   9.834575   9.668028   0.000000
    20  C    8.353490   9.500938   9.530668   1.395188   0.000000
    21  C    7.028050   8.225131   8.363891   2.472623   1.413438
    22  C    6.018127   7.115626   7.122104   2.842246   2.409403
    23  C    4.560109   5.651141   5.706019   4.262252   3.856630
    24  H    6.977146   8.262177   8.575976   3.436729   2.162516
    25  H    9.173315  10.374486  10.484401   2.136488   1.084507
    26  H    9.893392  10.898535  10.694540   1.084800   2.149741
    27  H    9.768230  10.481289   9.935457   2.883584   4.254816
    28  H    8.901068   9.322952   8.518366   4.712528   5.874787
    29  H    7.115441   7.206483   6.183609   6.433781   7.218925
    30  H    6.126408   5.799796   4.551229   8.273226   8.810246
    31  H    4.776935   3.987036   2.611168   9.740478   9.975422
    32  H    3.374521   2.144341   1.084302  10.587976  10.520961
    33  H    1.083674   2.134621   3.359963   9.185927   8.571706
    34  H    2.148553   1.083818   2.145818  10.859677  10.470450
    35  C    3.735839   5.007884   5.391324   5.390794   4.706729
    36  C    2.375193   3.696580   4.259708   6.696228   6.081411
    37  H    4.445373   5.792570   6.326668   5.414526   4.485213
    38  H    2.426571   3.813552   4.677985   7.460459   6.695047
    39  H    4.561092   5.756481   6.171128   5.720751   4.978932
                   21         22         23         24         25
    21  C    0.000000
    22  C    1.392734   0.000000
    23  C    2.662314   1.466065   0.000000
    24  H    1.084459   2.175136   3.050321   0.000000
    25  H    2.149747   3.383737   4.779926   2.457042   0.000000
    26  H    3.442219   3.926310   5.345417   4.308626   2.448806
    27  H    5.011605   4.667415   5.665162   6.082096   4.985720
    28  H    6.131884   5.248063   5.665862   7.195163   6.819332
    29  H    6.922247   5.653649   5.330288   7.827540   8.287594
    30  H    8.201619   6.822124   6.017725   8.930988   9.894372
    31  H    9.071415   7.695055   6.517914   9.567873  11.027489
    32  H    9.388901   8.118511   6.726706   9.635499  11.494509
    33  H    7.191554   6.346595   4.943219   6.975611   9.299784
    34  H    9.163029   8.106519   6.640870   9.125077  11.311087
    35  C    3.331407   2.562553   1.400186   3.254732   5.459191
    36  C    4.714980   3.854382   2.487985   4.603850   6.844104
    37  H    3.073418   2.779383   2.125193   2.656513   5.057251
    38  H    5.288550   4.641601   3.400845   4.965110   7.344114
    39  H    3.735782   3.278319   2.612865   3.547379   5.604330
                   26         27         28         29         30
    26  H    0.000000
    27  H    2.773423   0.000000
    28  H    4.987127   2.430611   0.000000
    29  H    7.055283   4.978642   2.769331   0.000000
    30  H    9.036302   7.214805   5.079860   2.311312   0.000000
    31  H   10.643957   9.233764   7.325605   4.626199   2.453437
    32  H   11.593407  10.658523   9.065635   6.556038   4.635956
    33  H   10.270632  10.407935   9.729237   8.095375   7.199048
    34  H   11.929768  11.562603  10.396326   8.228124   6.695315
    35  C    6.469969   7.041375   7.037390   6.440490   6.742387
    36  C    7.780431   8.095545   7.748359   6.658207   6.474049
    37  H    6.455427   7.440814   7.744039   7.403291   7.812791
    38  H    8.535436   9.061778   8.814524   7.730630   7.437898
    39  H    6.729330   7.464979   7.603897   7.149995   7.493017
                   31         32         33         34         35
    31  H    0.000000
    32  H    2.319923   0.000000
    33  H    5.838050   4.266041   0.000000
    34  H    4.666923   2.487565   2.456946   0.000000
    35  C    6.749945   6.468093   3.866381   5.883501   0.000000
    36  C    5.998154   5.343365   2.498747   4.521804   1.386930
    37  H    7.813278   7.410400   4.335853   6.572834   1.085534
    38  H    6.724735   5.731884   2.059048   4.425574   2.082229
    39  H    7.506922   7.197865   4.586518   6.546162   2.053220
                   36         37         38         39
    36  C    0.000000
    37  H    2.102024   0.000000
    38  H    1.084709   2.309207   0.000000
    39  H    2.665765   2.161450   3.004372   0.000000
 Stoichiometry    C25H14(3)
 Framework group  C1[X(C25H14)]
 Deg. of freedom   111
 Full point group                 C1      NOp   1
 Largest Abelian subgroup         C1      NOp   1
 Largest concise Abelian subgroup C1      NOp   1
                         Standard orientation:                         
 ---------------------------------------------------------------------
 Center     Atomic      Atomic             Coordinates (Angstroms)
 Number     Number       Type             X           Y           Z
 ---------------------------------------------------------------------
      1          6           0       -3.816969    0.382861   -0.022881
      2          6           0       -2.518839   -0.115009   -0.017101
      3          6           0       -1.381039    0.705481   -0.007301
      4          6           0       -1.469560    2.098291   -0.000551
      5          6           0       -3.920700    1.826851   -0.018351
      6          6           0       -2.812100    2.637601   -0.007361
      7          6           0       -0.215489   -0.081049   -0.002541
      8          6           0        1.039211    0.569871    0.005209
      9          6           0        0.977000    2.025101    0.019589
     10          6           0       -0.233420    2.752411    0.016269
     11          6           0        2.337461   -0.096939   -0.006481
     12          6           0        3.506951    0.726921    0.007149
     13          6           0        3.398510    2.156361    0.035239
     14          6           0        2.197550    2.773321    0.038499
     15          6           0        2.540851   -1.532629   -0.042431
     16          6           0        3.863851   -2.019949   -0.067441
     17          6           0        4.981411   -1.195749   -0.051351
     18          6           0        4.802091    0.169291   -0.012221
     19          6           0       -4.835159   -0.601359   -0.028671
     20          6           0       -4.489269   -1.952989   -0.026281
     21          6           0       -3.152999   -2.413569   -0.018781
     22          6           0       -2.128849   -1.469739   -0.015841
     23          6           0       -0.662809   -1.471899   -0.007591
     24          1           0       -2.958509   -3.480429   -0.012951
     25          1           0       -5.284879   -2.689979   -0.028641
     26          1           0       -5.881459   -0.314959   -0.033471
     27          1           0       -4.906280    2.281341   -0.022351
     28          1           0       -2.943390    3.714711   -0.002831
     29          1           0       -0.176880    3.836081    0.026949
     30          1           0        2.134180    3.855951    0.054689
     31          1           0        4.316100    2.734101    0.049129
     32          1           0        5.654261    0.839621    0.000999
     33          1           0        4.005881   -3.093879   -0.096621
     34          1           0        5.975991   -1.626069   -0.068581
     35          6           0        0.173341   -2.594859    0.010709
     36          6           0        1.558441   -2.591419   -0.060431
     37          1           0       -0.304239   -3.565319   -0.081531
     38          1           0        2.004851   -3.579209   -0.100211
     39          1           0       -0.072419   -3.035199    2.001039
 ---------------------------------------------------------------------
 Rotational constants (GHZ):      0.4862908      0.1806574      0.1320173
 Standard basis: 6-311+G(d,p) (5D, 7F)
 There are   659 symmetry adapted cartesian basis functions of A   symmetry.
 There are   634 symmetry adapted basis functions of A   symmetry.
   634 basis functions,  1012 primitive gaussians,   659 cartesian basis functions
    83 alpha electrons       81 beta electrons
       nuclear repulsion energy      1937.1830531060 Hartrees.
 NAtoms=   39 NActive=   39 NUniq=   39 SFac= 1.00D+00 NAtFMM=   60 NAOKFM=F Big=F
 Integral buffers will be    131072 words long.
 Raffenetti 2 integral format.
 Two-electron integral symmetry is turned on.
 One-electron integrals computed using PRISM.
 NBasis=   634 RedAO= T EigKep=  1.04D-06  NBF=   634
 NBsUse=   616 1.00D-06 EigRej=  6.29D-07 NBFU=   616
 ExpMin= 4.38D-02 ExpMax= 4.56D+03 ExpMxC= 6.82D+02 IAcc=2 IRadAn=         4 AccDes= 0.00D+00
 Harris functional with IExCor=  402 and IRadAn=       4 diagonalized for initial guess.
 HarFok:  IExCor=  402 AccDes= 0.00D+00 IRadAn=         4 IDoV= 1 UseB2=F ITyADJ=14
 ICtDFT=  3500011 ScaDFX=  1.000000  1.000000  1.000000  1.000000
 FoFCou: FMM=F IPFlag=           0 FMFlag=      100000 FMFlg1=           0
         NFxFlg=           0 DoJE=T BraDBF=F KetDBF=T FulRan=T
         wScrn=  0.000000 ICntrl=     500 IOpCl=  0 I1Cent=   200000004 NGrid=           0
         NMat0=    1 NMatS0=      1 NMatT0=    0 NMatD0=    1 NMtDS0=    0 NMtDT0=    0
 Petite list used in FoFCou.
 Initial guess <Sx>= 0.0000 <Sy>= 0.0000 <Sz>= 1.0000 <S**2>= 2.0000 S= 1.0000
 Requested convergence on RMS density matrix=1.00D-08 within 128 cycles.
 Requested convergence on MAX density matrix=1.00D-06.
 Requested convergence on             energy=1.00D-06.
 No special actions if energy rises.
 Restarting incremental Fock formation.
 SCF Done:  E(UB3LYP) =  -961.231763497     A.U. after   26 cycles
            NFock= 26  Conv=0.16D-08     -V/T= 2.0044
 <Sx>= 0.0000 <Sy>= 0.0000 <Sz>= 1.0000 <S**2>= 2.0425 S= 1.0141
 <L.S>= 0.000000000000E+00
 Annihilation of the first spin contaminant:
 S**2 before annihilation     2.0425,   after     2.0009
 DoSCS=F DFT=T ScalE2(SS,OS)=  1.000000  1.000000
 Range of M.O.s used for correlation:     1   616
 NBasis=   634 NAE=    83 NBE=    81 NFC=     0 NFV=     0
 NROrb=    616 NOA=    83 NOB=    81 NVA=   533 NVB=   535

 **** Warning!!: The largest alpha MO coefficient is  0.14370956D+03


 **** Warning!!: The largest beta MO coefficient is  0.14496536D+03


 **** Warning!!: The smallest beta delta epsilon is  0.94709807D-01

 Symmetrizing basis deriv contribution to polar:
 IMax=3 JMax=2 DiffMx= 0.00D+00
 G2DrvN: will do    40 centers at a time, making    1 passes.
 Calling FoFCou, ICntrl=  3107 FMM=F I1Cent=   0 AccDes= 0.00D+00.
 End of G2Drv F.D. properties file   721 does not exist.
 End of G2Drv F.D. properties file   722 does not exist.
 End of G2Drv F.D. properties file   788 does not exist.
          IDoAtm=111111111111111111111111111111111111111
          Differentiating once with respect to nuclear coordinates.
          There are   120 degrees of freedom in the 1st order CPHF.  IDoFFX=6 NUNeed=     0.
    114 vectors produced by pass  0 Test12= 8.76D-14 1.00D-09 XBig12= 6.04D-01 1.86D-01.
 AX will form   114 AO Fock derivatives at one time.
    114 vectors produced by pass  1 Test12= 8.76D-14 1.00D-09 XBig12= 1.70D-01 7.62D-02.
    114 vectors produced by pass  2 Test12= 8.76D-14 1.00D-09 XBig12= 2.31D-03 9.65D-03.
    114 vectors produced by pass  3 Test12= 8.76D-14 1.00D-09 XBig12= 3.75D-05 1.05D-03.
    114 vectors produced by pass  4 Test12= 8.76D-14 1.00D-09 XBig12= 3.92D-07 6.25D-05.
    114 vectors produced by pass  5 Test12= 8.76D-14 1.00D-09 XBig12= 2.22D-09 3.73D-06.
    114 vectors produced by pass  6 Test12= 8.76D-14 1.00D-09 XBig12= 7.57D-11 5.66D-07.
    114 vectors produced by pass  7 Test12= 8.76D-14 1.00D-09 XBig12= 1.48D-11 2.36D-07.
    114 vectors produced by pass  8 Test12= 8.76D-14 1.00D-09 XBig12= 2.04D-12 6.73D-08.
     79 vectors produced by pass  9 Test12= 8.76D-14 1.00D-09 XBig12= 2.47D-14 8.17D-09.
     28 vectors produced by pass 10 Test12= 8.76D-14 1.00D-09 XBig12= 7.61D-16 1.48D-09.
     28 vectors produced by pass 11 Test12= 8.76D-14 1.00D-09 XBig12= 2.14D-13 3.53D-08.
     28 vectors produced by pass 12 Test12= 8.76D-14 1.00D-09 XBig12= 1.32D-12 5.42D-08.
     28 vectors produced by pass 13 Test12= 8.76D-14 1.00D-09 XBig12= 8.95D-13 4.66D-08.
     28 vectors produced by pass 14 Test12= 8.76D-14 1.00D-09 XBig12= 4.71D-13 3.10D-08.
     28 vectors produced by pass 15 Test12= 8.76D-14 1.00D-09 XBig12= 3.35D-13 2.48D-08.
     28 vectors produced by pass 16 Test12= 8.76D-14 1.00D-09 XBig12= 2.78D-13 3.43D-08.
     28 vectors produced by pass 17 Test12= 8.76D-14 1.00D-09 XBig12= 3.49D-13 2.40D-08.
     28 vectors produced by pass 18 Test12= 8.76D-14 1.00D-09 XBig12= 3.72D-13 3.09D-08.
     28 vectors produced by pass 19 Test12= 8.76D-14 1.00D-09 XBig12= 3.70D-13 2.35D-08.
     28 vectors produced by pass 20 Test12= 8.76D-14 1.00D-09 XBig12= 1.75D-13 1.90D-08.
     28 vectors produced by pass 21 Test12= 8.76D-14 1.00D-09 XBig12= 3.02D-13 2.86D-08.
     28 vectors produced by pass 22 Test12= 8.76D-14 1.00D-09 XBig12= 4.50D-13 2.90D-08.
     28 vectors produced by pass 23 Test12= 8.76D-14 1.00D-09 XBig12= 2.51D-13 2.15D-08.
     28 vectors produced by pass 24 Test12= 8.76D-14 1.00D-09 XBig12= 2.41D-13 2.18D-08.
     28 vectors produced by pass 25 Test12= 8.76D-14 1.00D-09 XBig12= 3.13D-13 2.50D-08.
     27 vectors produced by pass 26 Test12= 8.76D-14 1.00D-09 XBig12= 9.23D-14 1.30D-08.
     27 vectors produced by pass 27 Test12= 8.76D-14 1.00D-09 XBig12= 1.91D-13 1.79D-08.
     27 vectors produced by pass 28 Test12= 8.76D-14 1.00D-09 XBig12= 1.59D-13 1.83D-08.
     27 vectors produced by pass 29 Test12= 8.76D-14 1.00D-09 XBig12= 1.84D-13 1.66D-08.
     24 vectors produced by pass 30 Test12= 8.76D-14 1.00D-09 XBig12= 9.68D-14 1.28D-08.
     24 vectors produced by pass 31 Test12= 8.76D-14 1.00D-09 XBig12= 1.45D-13 1.62D-08.
     24 vectors produced by pass 32 Test12= 8.76D-14 1.00D-09 XBig12= 1.20D-13 1.52D-08.
     24 vectors produced by pass 33 Test12= 8.76D-14 1.00D-09 XBig12= 1.37D-13 1.45D-08.
     22 vectors produced by pass 34 Test12= 8.76D-14 1.00D-09 XBig12= 7.46D-14 1.08D-08.
     22 vectors produced by pass 35 Test12= 8.76D-14 1.00D-09 XBig12= 1.94D-13 1.87D-08.
     22 vectors produced by pass 36 Test12= 8.76D-14 1.00D-09 XBig12= 1.02D-13 1.21D-08.
     22 vectors produced by pass 37 Test12= 8.76D-14 1.00D-09 XBig12= 1.08D-13 1.31D-08.
     22 vectors produced by pass 38 Test12= 8.76D-14 1.00D-09 XBig12= 8.79D-14 1.19D-08.
     22 vectors produced by pass 39 Test12= 8.76D-14 1.00D-09 XBig12= 7.54D-14 1.06D-08.
     21 vectors produced by pass 40 Test12= 8.76D-14 1.00D-09 XBig12= 9.74D-14 1.22D-08.
     21 vectors produced by pass 41 Test12= 8.76D-14 1.00D-09 XBig12= 1.16D-13 1.17D-08.
     21 vectors produced by pass 42 Test12= 8.76D-14 1.00D-09 XBig12= 1.21D-13 1.36D-08.
     18 vectors produced by pass 43 Test12= 8.76D-14 1.00D-09 XBig12= 6.62D-14 1.12D-08.
     18 vectors produced by pass 44 Test12= 8.76D-14 1.00D-09 XBig12= 9.15D-14 1.05D-08.
     18 vectors produced by pass 45 Test12= 8.76D-14 1.00D-09 XBig12= 9.05D-14 1.22D-08.
     18 vectors produced by pass 46 Test12= 8.76D-14 1.00D-09 XBig12= 9.16D-14 1.13D-08.
     18 vectors produced by pass 47 Test12= 8.76D-14 1.00D-09 XBig12= 1.08D-13 1.15D-08.
     15 vectors produced by pass 48 Test12= 8.76D-14 1.00D-09 XBig12= 4.03D-14 7.65D-09.
     15 vectors produced by pass 49 Test12= 8.76D-14 1.00D-09 XBig12= 7.33D-14 9.27D-09.
     14 vectors produced by pass 50 Test12= 8.76D-14 1.00D-09 XBig12= 4.15D-14 8.47D-09.
     14 vectors produced by pass 51 Test12= 8.76D-14 1.00D-09 XBig12= 4.18D-14 7.66D-09.
     14 vectors produced by pass 52 Test12= 8.76D-14 1.00D-09 XBig12= 3.08D-14 6.57D-09.
     14 vectors produced by pass 53 Test12= 8.76D-14 1.00D-09 XBig12= 4.06D-14 8.85D-09.
     14 vectors produced by pass 54 Test12= 8.76D-14 1.00D-09 XBig12= 6.32D-14 1.01D-08.
     14 vectors produced by pass 55 Test12= 8.76D-14 1.00D-09 XBig12= 4.88D-14 9.62D-09.
     14 vectors produced by pass 56 Test12= 8.76D-14 1.00D-09 XBig12= 5.56D-14 8.91D-09.
     14 vectors produced by pass 57 Test12= 8.76D-14 1.00D-09 XBig12= 4.31D-14 6.99D-09.
     14 vectors produced by pass 58 Test12= 8.76D-14 1.00D-09 XBig12= 4.24D-14 7.26D-09.
     14 vectors produced by pass 59 Test12= 8.76D-14 1.00D-09 XBig12= 6.22D-14 8.32D-09.
     14 vectors produced by pass 60 Test12= 8.76D-14 1.00D-09 XBig12= 5.85D-14 8.96D-09.
     14 vectors produced by pass 61 Test12= 8.76D-14 1.00D-09 XBig12= 7.31D-14 1.09D-08.
     14 vectors produced by pass 62 Test12= 8.76D-14 1.00D-09 XBig12= 4.99D-14 7.92D-09.
     14 vectors produced by pass 63 Test12= 8.76D-14 1.00D-09 XBig12= 3.84D-14 6.14D-09.
     14 vectors produced by pass 64 Test12= 8.76D-14 1.00D-09 XBig12= 4.12D-14 7.55D-09.
     14 vectors produced by pass 65 Test12= 8.76D-14 1.00D-09 XBig12= 4.61D-14 7.12D-09.
     14 vectors produced by pass 66 Test12= 8.76D-14 1.00D-09 XBig12= 5.19D-14 7.84D-09.
     14 vectors produced by pass 67 Test12= 8.76D-14 1.00D-09 XBig12= 5.02D-14 8.59D-09.
     13 vectors produced by pass 68 Test12= 8.76D-14 1.00D-09 XBig12= 2.45D-14 5.57D-09.
     13 vectors produced by pass 69 Test12= 8.76D-14 1.00D-09 XBig12= 3.87D-14 7.65D-09.
     13 vectors produced by pass 70 Test12= 8.76D-14 1.00D-09 XBig12= 5.09D-14 7.87D-09.
     13 vectors produced by pass 71 Test12= 8.76D-14 1.00D-09 XBig12= 4.37D-14 7.69D-09.
     13 vectors produced by pass 72 Test12= 8.76D-14 1.00D-09 XBig12= 4.23D-14 7.08D-09.
     13 vectors produced by pass 73 Test12= 8.76D-14 1.00D-09 XBig12= 2.56D-14 5.83D-09.
     13 vectors produced by pass 74 Test12= 8.76D-14 1.00D-09 XBig12= 3.47D-14 8.11D-09.
     13 vectors produced by pass 75 Test12= 8.76D-14 1.00D-09 XBig12= 4.71D-14 6.90D-09.
     12 vectors produced by pass 76 Test12= 8.76D-14 1.00D-09 XBig12= 1.91D-14 4.05D-09.
     12 vectors produced by pass 77 Test12= 8.76D-14 1.00D-09 XBig12= 2.00D-14 4.89D-09.
     12 vectors produced by pass 78 Test12= 8.76D-14 1.00D-09 XBig12= 3.48D-14 6.43D-09.
     12 vectors produced by pass 79 Test12= 8.76D-14 1.00D-09 XBig12= 2.56D-14 5.38D-09.
     12 vectors produced by pass 80 Test12= 8.76D-14 1.00D-09 XBig12= 4.08D-14 7.81D-09.
     12 vectors produced by pass 81 Test12= 8.76D-14 1.00D-09 XBig12= 2.37D-14 5.20D-09.
     12 vectors produced by pass 82 Test12= 8.76D-14 1.00D-09 XBig12= 2.32D-14 4.52D-09.
     12 vectors produced by pass 83 Test12= 8.76D-14 1.00D-09 XBig12= 2.48D-14 5.81D-09.
     12 vectors produced by pass 84 Test12= 8.76D-14 1.00D-09 XBig12= 2.51D-14 5.11D-09.
     12 vectors produced by pass 85 Test12= 8.76D-14 1.00D-09 XBig12= 3.16D-14 5.89D-09.
     12 vectors produced by pass 86 Test12= 8.76D-14 1.00D-09 XBig12= 2.51D-14 5.58D-09.
     12 vectors produced by pass 87 Test12= 8.76D-14 1.00D-09 XBig12= 2.63D-14 5.26D-09.
     11 vectors produced by pass 88 Test12= 8.76D-14 1.00D-09 XBig12= 2.16D-14 4.88D-09.
     11 vectors produced by pass 89 Test12= 8.76D-14 1.00D-09 XBig12= 2.50D-14 4.87D-09.
     10 vectors produced by pass 90 Test12= 8.76D-14 1.00D-09 XBig12= 2.01D-14 5.59D-09.
     10 vectors produced by pass 91 Test12= 8.76D-14 1.00D-09 XBig12= 2.75D-14 5.92D-09.
     10 vectors produced by pass 92 Test12= 8.76D-14 1.00D-09 XBig12= 2.37D-14 4.75D-09.
     10 vectors produced by pass 93 Test12= 8.76D-14 1.00D-09 XBig12= 2.14D-14 4.49D-09.
     10 vectors produced by pass 94 Test12= 8.76D-14 1.00D-09 XBig12= 3.09D-14 5.73D-09.
     10 vectors produced by pass 95 Test12= 8.76D-14 1.00D-09 XBig12= 3.83D-14 7.00D-09.
     10 vectors produced by pass 96 Test12= 8.76D-14 1.00D-09 XBig12= 1.88D-14 4.60D-09.
     10 vectors produced by pass 97 Test12= 8.76D-14 1.00D-09 XBig12= 2.04D-14 4.59D-09.
     10 vectors produced by pass 98 Test12= 8.76D-14 1.00D-09 XBig12= 1.81D-14 4.43D-09.
     10 vectors produced by pass 99 Test12= 8.76D-14 1.00D-09 XBig12= 3.25D-14 5.85D-09.
      9 vectors produced by pass100 Test12= 8.76D-14 1.00D-09 XBig12= 2.03D-14 4.70D-09.
      9 vectors produced by pass101 Test12= 8.76D-14 1.00D-09 XBig12= 2.66D-14 4.97D-09.
      9 vectors produced by pass102 Test12= 8.76D-14 1.00D-09 XBig12= 2.09D-14 4.85D-09.
      9 vectors produced by pass103 Test12= 8.76D-14 1.00D-09 XBig12= 2.18D-14 4.90D-09.
      9 vectors produced by pass104 Test12= 8.76D-14 1.00D-09 XBig12= 1.60D-14 4.51D-09.
      9 vectors produced by pass105 Test12= 8.76D-14 1.00D-09 XBig12= 1.99D-14 4.55D-09.
      7 vectors produced by pass106 Test12= 8.76D-14 1.00D-09 XBig12= 1.23D-14 3.97D-09.
      7 vectors produced by pass107 Test12= 8.76D-14 1.00D-09 XBig12= 2.26D-14 4.74D-09.
      7 vectors produced by pass108 Test12= 8.76D-14 1.00D-09 XBig12= 2.86D-14 4.80D-09.
      7 vectors produced by pass109 Test12= 8.76D-14 1.00D-09 XBig12= 1.41D-14 3.51D-09.
      7 vectors produced by pass110 Test12= 8.76D-14 1.00D-09 XBig12= 2.19D-14 4.46D-09.
      7 vectors produced by pass111 Test12= 8.76D-14 1.00D-09 XBig12= 2.22D-14 4.68D-09.
      7 vectors produced by pass112 Test12= 8.76D-14 1.00D-09 XBig12= 1.60D-14 4.23D-09.
      7 vectors produced by pass113 Test12= 8.76D-14 1.00D-09 XBig12= 1.62D-14 4.66D-09.
      7 vectors produced by pass114 Test12= 8.76D-14 1.00D-09 XBig12= 2.41D-14 5.11D-09.
      7 vectors produced by pass115 Test12= 8.76D-14 1.00D-09 XBig12= 1.19D-14 3.46D-09.
      7 vectors produced by pass116 Test12= 8.76D-14 1.00D-09 XBig12= 1.80D-14 4.14D-09.
      7 vectors produced by pass117 Test12= 8.76D-14 1.00D-09 XBig12= 9.93D-15 2.94D-09.
      7 vectors produced by pass118 Test12= 8.76D-14 1.00D-09 XBig12= 2.57D-14 5.15D-09.
      7 vectors produced by pass119 Test12= 8.76D-14 1.00D-09 XBig12= 1.47D-14 4.29D-09.
      7 vectors produced by pass120 Test12= 8.76D-14 1.00D-09 XBig12= 1.61D-14 4.07D-09.
      7 vectors produced by pass121 Test12= 8.76D-14 1.00D-09 XBig12= 2.11D-14 4.10D-09.
      7 vectors produced by pass122 Test12= 8.76D-14 1.00D-09 XBig12= 1.26D-14 3.40D-09.
      7 vectors produced by pass123 Test12= 8.76D-14 1.00D-09 XBig12= 1.67D-14 3.96D-09.
      7 vectors produced by pass124 Test12= 8.76D-14 1.00D-09 XBig12= 1.92D-14 4.63D-09.
      7 vectors produced by pass125 Test12= 8.76D-14 1.00D-09 XBig12= 2.01D-14 3.99D-09.
      7 vectors produced by pass126 Test12= 8.76D-14 1.00D-09 XBig12= 2.65D-14 6.27D-09.
      6 vectors produced by pass127 Test12= 8.76D-14 1.00D-09 XBig12= 1.39D-14 3.60D-09.
      6 vectors produced by pass128 Test12= 8.76D-14 1.00D-09 XBig12= 1.71D-14 4.23D-09.
      5 vectors produced by pass129 Test12= 8.76D-14 1.00D-09 XBig12= 8.19D-15 2.78D-09.
      5 vectors produced by pass130 Test12= 8.76D-14 1.00D-09 XBig12= 1.42D-14 3.55D-09.
      5 vectors produced by pass131 Test12= 8.76D-14 1.00D-09 XBig12= 1.99D-14 4.75D-09.
      5 vectors produced by pass132 Test12= 8.76D-14 1.00D-09 XBig12= 1.55D-14 3.92D-09.
      5 vectors produced by pass133 Test12= 8.76D-14 1.00D-09 XBig12= 1.97D-14 5.09D-09.
      5 vectors produced by pass134 Test12= 8.76D-14 1.00D-09 XBig12= 1.87D-14 5.24D-09.
      5 vectors produced by pass135 Test12= 8.76D-14 1.00D-09 XBig12= 1.28D-14 4.10D-09.
      5 vectors produced by pass136 Test12= 8.76D-14 1.00D-09 XBig12= 2.58D-14 5.09D-09.
      5 vectors produced by pass137 Test12= 8.76D-14 1.00D-09 XBig12= 9.87D-15 3.52D-09.
      5 vectors produced by pass138 Test12= 8.76D-14 1.00D-09 XBig12= 1.88D-14 4.59D-09.
      5 vectors produced by pass139 Test12= 8.76D-14 1.00D-09 XBig12= 1.80D-14 4.28D-09.
      5 vectors produced by pass140 Test12= 8.76D-14 1.00D-09 XBig12= 2.00D-14 4.96D-09.
      5 vectors produced by pass141 Test12= 8.76D-14 1.00D-09 XBig12= 1.77D-14 4.47D-09.
      5 vectors produced by pass142 Test12= 8.76D-14 1.00D-09 XBig12= 1.84D-14 4.28D-09.
      5 vectors produced by pass143 Test12= 8.76D-14 1.00D-09 XBig12= 2.14D-14 4.57D-09.
      5 vectors produced by pass144 Test12= 8.76D-14 1.00D-09 XBig12= 1.17D-14 3.65D-09.
      5 vectors produced by pass145 Test12= 8.76D-14 1.00D-09 XBig12= 1.19D-14 3.62D-09.
      5 vectors produced by pass146 Test12= 8.76D-14 1.00D-09 XBig12= 1.27D-14 3.46D-09.
      5 vectors produced by pass147 Test12= 8.76D-14 1.00D-09 XBig12= 1.69D-14 3.92D-09.
      5 vectors produced by pass148 Test12= 8.76D-14 1.00D-09 XBig12= 7.77D-15 2.51D-09.
      5 vectors produced by pass149 Test12= 8.76D-14 1.00D-09 XBig12= 1.71D-14 4.39D-09.
      5 vectors produced by pass150 Test12= 8.76D-14 1.00D-09 XBig12= 1.22D-14 3.31D-09.
      5 vectors produced by pass151 Test12= 8.76D-14 1.00D-09 XBig12= 1.13D-14 3.33D-09.
      5 vectors produced by pass152 Test12= 8.76D-14 1.00D-09 XBig12= 8.09D-15 2.72D-09.
      5 vectors produced by pass153 Test12= 8.76D-14 1.00D-09 XBig12= 2.26D-14 4.78D-09.
      5 vectors produced by pass154 Test12= 8.76D-14 1.00D-09 XBig12= 6.17D-15 2.57D-09.
      5 vectors produced by pass155 Test12= 8.76D-14 1.00D-09 XBig12= 1.25D-14 3.44D-09.
      5 vectors produced by pass156 Test12= 8.76D-14 1.00D-09 XBig12= 1.67D-14 4.36D-09.
      5 vectors produced by pass157 Test12= 8.76D-14 1.00D-09 XBig12= 7.63D-15 3.12D-09.
      5 vectors produced by pass158 Test12= 8.76D-14 1.00D-09 XBig12= 1.49D-14 4.07D-09.
      5 vectors produced by pass159 Test12= 8.76D-14 1.00D-09 XBig12= 1.12D-14 3.29D-09.
      5 vectors produced by pass160 Test12= 8.76D-14 1.00D-09 XBig12= 1.06D-14 3.01D-09.
      5 vectors produced by pass161 Test12= 8.76D-14 1.00D-09 XBig12= 1.90D-14 5.14D-09.
      5 vectors produced by pass162 Test12= 8.76D-14 1.00D-09 XBig12= 1.01D-14 2.85D-09.
      5 vectors produced by pass163 Test12= 8.76D-14 1.00D-09 XBig12= 9.26D-15 3.27D-09.
      5 vectors produced by pass164 Test12= 8.76D-14 1.00D-09 XBig12= 1.27D-14 3.30D-09.
      5 vectors produced by pass165 Test12= 8.76D-14 1.00D-09 XBig12= 1.04D-14 3.38D-09.
      5 vectors produced by pass166 Test12= 8.76D-14 1.00D-09 XBig12= 1.19D-14 3.70D-09.
      5 vectors produced by pass167 Test12= 8.76D-14 1.00D-09 XBig12= 1.16D-14 4.00D-09.
      5 vectors produced by pass168 Test12= 8.76D-14 1.00D-09 XBig12= 1.00D-14 3.27D-09.
      5 vectors produced by pass169 Test12= 8.76D-14 1.00D-09 XBig12= 9.86D-15 3.17D-09.
      5 vectors produced by pass170 Test12= 8.76D-14 1.00D-09 XBig12= 1.04D-14 3.81D-09.
      5 vectors produced by pass171 Test12= 8.76D-14 1.00D-09 XBig12= 4.98D-15 2.16D-09.
      5 vectors produced by pass172 Test12= 8.76D-14 1.00D-09 XBig12= 1.33D-14 3.73D-09.
      5 vectors produced by pass173 Test12= 8.76D-14 1.00D-09 XBig12= 1.46D-14 3.80D-09.
      5 vectors produced by pass174 Test12= 8.76D-14 1.00D-09 XBig12= 1.31D-14 3.54D-09.
      5 vectors produced by pass175 Test12= 8.76D-14 1.00D-09 XBig12= 1.25D-14 4.25D-09.
      5 vectors produced by pass176 Test12= 8.76D-14 1.00D-09 XBig12= 1.28D-14 3.56D-09.
      5 vectors produced by pass177 Test12= 8.76D-14 1.00D-09 XBig12= 1.17D-14 3.54D-09.
      5 vectors produced by pass178 Test12= 8.76D-14 1.00D-09 XBig12= 1.47D-14 4.02D-09.
      5 vectors produced by pass179 Test12= 8.76D-14 1.00D-09 XBig12= 9.15D-15 3.65D-09.
      5 vectors produced by pass180 Test12= 8.76D-14 1.00D-09 XBig12= 9.19D-15 3.41D-09.
      5 vectors produced by pass181 Test12= 8.76D-14 1.00D-09 XBig12= 1.16D-14 3.45D-09.
      5 vectors produced by pass182 Test12= 8.76D-14 1.00D-09 XBig12= 9.84D-15 2.97D-09.
      5 vectors produced by pass183 Test12= 8.76D-14 1.00D-09 XBig12= 1.60D-14 4.11D-09.
      5 vectors produced by pass184 Test12= 8.76D-14 1.00D-09 XBig12= 1.29D-14 3.27D-09.
      5 vectors produced by pass185 Test12= 8.76D-14 1.00D-09 XBig12= 1.11D-14 3.71D-09.
      5 vectors produced by pass186 Test12= 8.76D-14 1.00D-09 XBig12= 1.13D-14 3.18D-09.
      5 vectors produced by pass187 Test12= 8.76D-14 1.00D-09 XBig12= 1.57D-14 4.98D-09.
      5 vectors produced by pass188 Test12= 8.76D-14 1.00D-09 XBig12= 1.12D-14 3.75D-09.
      5 vectors produced by pass189 Test12= 8.76D-14 1.00D-09 XBig12= 1.69D-14 3.57D-09.
      5 vectors produced by pass190 Test12= 8.76D-14 1.00D-09 XBig12= 9.80D-15 3.40D-09.
      5 vectors produced by pass191 Test12= 8.76D-14 1.00D-09 XBig12= 1.35D-14 3.65D-09.
      5 vectors produced by pass192 Test12= 8.76D-14 1.00D-09 XBig12= 1.31D-14 3.46D-09.
      5 vectors produced by pass193 Test12= 8.76D-14 1.00D-09 XBig12= 9.84D-15 2.96D-09.
      5 vectors produced by pass194 Test12= 8.76D-14 1.00D-09 XBig12= 1.11D-14 3.24D-09.
      5 vectors produced by pass195 Test12= 8.76D-14 1.00D-09 XBig12= 1.40D-14 3.40D-09.
      5 vectors produced by pass196 Test12= 8.76D-14 1.00D-09 XBig12= 9.22D-15 3.26D-09.
      5 vectors produced by pass197 Test12= 8.76D-14 1.00D-09 XBig12= 1.03D-14 3.11D-09.
      5 vectors produced by pass198 Test12= 8.76D-14 1.00D-09 XBig12= 6.17D-15 2.53D-09.
      5 vectors produced by pass199 Test12= 8.76D-14 1.00D-09 XBig12= 1.26D-14 3.90D-09.
      5 vectors produced by pass200 Test12= 8.76D-14 1.00D-09 XBig12= 1.31D-14 3.75D-09.
      5 vectors produced by pass201 Test12= 8.76D-14 1.00D-09 XBig12= 7.65D-15 2.90D-09.
      5 vectors produced by pass202 Test12= 8.76D-14 1.00D-09 XBig12= 1.23D-14 3.69D-09.
      5 vectors produced by pass203 Test12= 8.76D-14 1.00D-09 XBig12= 7.28D-15 2.94D-09.
      5 vectors produced by pass204 Test12= 8.76D-14 1.00D-09 XBig12= 1.12D-14 3.73D-09.
      5 vectors produced by pass205 Test12= 8.76D-14 1.00D-09 XBig12= 6.14D-15 2.34D-09.
      5 vectors produced by pass206 Test12= 8.76D-14 1.00D-09 XBig12= 1.03D-14 3.40D-09.
      5 vectors produced by pass207 Test12= 8.76D-14 1.00D-09 XBig12= 8.05D-15 2.76D-09.
      5 vectors produced by pass208 Test12= 8.76D-14 1.00D-09 XBig12= 6.55D-15 2.56D-09.
      5 vectors produced by pass209 Test12= 8.76D-14 1.00D-09 XBig12= 9.75D-15 2.90D-09.
      5 vectors produced by pass210 Test12= 8.76D-14 1.00D-09 XBig12= 6.71D-15 2.46D-09.
      5 vectors produced by pass211 Test12= 8.76D-14 1.00D-09 XBig12= 1.23D-14 3.71D-09.
      4 vectors produced by pass212 Test12= 8.76D-14 1.00D-09 XBig12= 3.82D-15 1.99D-09.
      4 vectors produced by pass213 Test12= 8.76D-14 1.00D-09 XBig12= 1.09D-14 2.95D-09.
      4 vectors produced by pass214 Test12= 8.76D-14 1.00D-09 XBig12= 5.72D-15 2.32D-09.
      4 vectors produced by pass215 Test12= 8.76D-14 1.00D-09 XBig12= 6.38D-15 2.63D-09.
      4 vectors produced by pass216 Test12= 8.76D-14 1.00D-09 XBig12= 1.07D-14 3.04D-09.
      4 vectors produced by pass217 Test12= 8.76D-14 1.00D-09 XBig12= 8.57D-15 3.03D-09.
      4 vectors produced by pass218 Test12= 8.76D-14 1.00D-09 XBig12= 9.40D-15 2.93D-09.
      4 vectors produced by pass219 Test12= 8.76D-14 1.00D-09 XBig12= 5.94D-15 2.57D-09.
      4 vectors produced by pass220 Test12= 8.76D-14 1.00D-09 XBig12= 7.32D-15 3.05D-09.
      4 vectors produced by pass221 Test12= 8.76D-14 1.00D-09 XBig12= 4.02D-15 2.15D-09.
      4 vectors produced by pass222 Test12= 8.76D-14 1.00D-09 XBig12= 1.19D-14 3.35D-09.
      4 vectors produced by pass223 Test12= 8.76D-14 1.00D-09 XBig12= 1.15D-14 3.63D-09.
      4 vectors produced by pass224 Test12= 8.76D-14 1.00D-09 XBig12= 4.44D-15 2.18D-09.
      4 vectors produced by pass225 Test12= 8.76D-14 1.00D-09 XBig12= 1.07D-14 3.15D-09.
      4 vectors produced by pass226 Test12= 8.76D-14 1.00D-09 XBig12= 6.16D-15 2.33D-09.
      4 vectors produced by pass227 Test12= 8.76D-14 1.00D-09 XBig12= 9.64D-15 3.07D-09.
      4 vectors produced by pass228 Test12= 8.76D-14 1.00D-09 XBig12= 6.82D-15 2.53D-09.
      4 vectors produced by pass229 Test12= 8.76D-14 1.00D-09 XBig12= 1.33D-14 3.95D-09.
      4 vectors produced by pass230 Test12= 8.76D-14 1.00D-09 XBig12= 6.78D-15 2.29D-09.
      4 vectors produced by pass231 Test12= 8.76D-14 1.00D-09 XBig12= 8.92D-15 2.64D-09.
      4 vectors produced by pass232 Test12= 8.76D-14 1.00D-09 XBig12= 8.79D-15 3.68D-09.
      4 vectors produced by pass233 Test12= 8.76D-14 1.00D-09 XBig12= 7.92D-15 2.47D-09.
      4 vectors produced by pass234 Test12= 8.76D-14 1.00D-09 XBig12= 8.83D-15 3.05D-09.
      4 vectors produced by pass235 Test12= 8.76D-14 1.00D-09 XBig12= 1.07D-14 3.11D-09.
      4 vectors produced by pass236 Test12= 8.76D-14 1.00D-09 XBig12= 4.94D-15 2.42D-09.
      4 vectors produced by pass237 Test12= 8.76D-14 1.00D-09 XBig12= 9.19D-15 2.88D-09.
      4 vectors produced by pass238 Test12= 8.76D-14 1.00D-09 XBig12= 9.99D-15 3.23D-09.
      4 vectors produced by pass239 Test12= 8.76D-14 1.00D-09 XBig12= 1.20D-14 3.41D-09.
      4 vectors produced by pass240 Test12= 8.76D-14 1.00D-09 XBig12= 6.66D-15 2.79D-09.
      4 vectors produced by pass241 Test12= 8.76D-14 1.00D-09 XBig12= 6.17D-15 2.45D-09.
      2 vectors produced by pass242 Test12= 8.76D-14 1.00D-09 XBig12= 3.22D-15 1.90D-09.
 InvSVY:  IOpt=1 It=  1 EMax= 1.78D-15
 Solved reduced A of dimension  3444 with   120 vectors.
 End of Minotr F.D. properties file   721 does not exist.
 End of Minotr F.D. properties file   722 does not exist.
 End of Minotr F.D. properties file   788 does not exist.

 **********************************************************************

            Population analysis using the SCF density.

 **********************************************************************

 Orbital symmetries:
 Alpha Orbitals:
       Occupied  (A) (A) (A) (A) (A) (A) (A) (A) (A) (A) (A) (A)
                 (A) (A) (A) (A) (A) (A) (A) (A) (A) (A) (A) (A)
                 (A) (A) (A) (A) (A) (A) (A) (A) (A) (A) (A) (A)
                 (A) (A) (A) (A) (A) (A) (A) (A) (A) (A) (A) (A)
                 (A) (A) (A) (A) (A) (A) (A) (A) (A) (A) (A) (A)
                 (A) (A) (A) (A) (A) (A) (A) (A) (A) (A) (A) (A)
                 (A) (A) (A) (A) (A) (A) (A) (A) (A) (A) (A)
       Virtual   (A) (A) (A) (A) (A) (A) (A) (A) (A) (A) (A) (A)
                 (A) (A) (A) (A) (A) (A) (A) (A) (A) (A) (A) (A)
                 (A) (A) (A) (A) (A) (A) (A) (A) (A) (A) (A) (A)
                 (A) (A) (A) (A) (A) (A) (A) (A) (A) (A) (A) (A)
                 (A) (A) (A) (A) (A) (A) (A) (A) (A) (A) (A) (A)
                 (A) (A) (A) (A) (A) (A) (A) (A) (A) (A) (A) (A)
                 (A) (A) (A) (A) (A) (A) (A) (A) (A) (A) (A) (A)
                 (A) (A) (A) (A) (A) (A) (A) (A) (A) (A) (A) (A)
                 (A) (A) (A) (A) (A) (A) (A) (A) (A) (A) (A) (A)
                 (A) (A) (A) (A) (A) (A) (A) (A) (A) (A) (A) (A)
                 (A) (A) (A) (A) (A) (A) (A) (A) (A) (A) (A) (A)
                 (A) (A) (A) (A) (A) (A) (A) (A) (A) (A) (A) (A)
                 (A) (A) (A) (A) (A) (A) (A) (A) (A) (A) (A) (A)
                 (A) (A) (A) (A) (A) (A) (A) (A) (A) (A) (A) (A)
                 (A) (A) (A) (A) (A) (A) (A) (A) (A) (A) (A) (A)
                 (A) (A) (A) (A) (A) (A) (A) (A) (A) (A) (A) (A)
                 (A) (A) (A) (A) (A) (A) (A) (A) (A) (A) (A) (A)
                 (A) (A) (A) (A) (A) (A) (A) (A) (A) (A) (A) (A)
                 (A) (A) (A) (A) (A) (A) (A) (A) (A) (A) (A) (A)
                 (A) (A) (A) (A) (A) (A) (A) (A) (A) (A) (A) (A)
                 (A) (A) (A) (A) (A) (A) (A) (A) (A) (A) (A) (A)
                 (A) (A) (A) (A) (A) (A) (A) (A) (A) (A) (A) (A)
                 (A) (A) (A) (A) (A) (A) (A) (A) (A) (A) (A) (A)
                 (A) (A) (A) (A) (A) (A) (A) (A) (A) (A) (A) (A)
                 (A) (A) (A) (A) (A) (A) (A) (A) (A) (A) (A) (A)
                 (A) (A) (A) (A) (A) (A) (A) (A) (A) (A) (A) (A)
                 (A) (A) (A) (A) (A) (A) (A) (A) (A) (A) (A) (A)
                 (A) (A) (A) (A) (A) (A) (A) (A) (A) (A) (A) (A)
                 (A) (A) (A) (A) (A) (A) (A) (A) (A) (A) (A) (A)
                 (A) (A) (A) (A) (A) (A) (A) (A) (A) (A) (A) (A)
                 (A) (A) (A) (A) (A) (A) (A) (A) (A) (A) (A) (A)
                 (A) (A) (A) (A) (A) (A) (A) (A) (A) (A) (A) (A)
                 (A) (A) (A) (A) (A) (A) (A) (A) (A) (A) (A) (A)
                 (A) (A) (A) (A) (A) (A) (A) (A) (A) (A) (A) (A)
                 (A) (A) (A) (A) (A) (A) (A) (A) (A) (A) (A) (A)
                 (A) (A) (A) (A) (A) (A) (A) (A) (A) (A) (A) (A)
                 (A) (A) (A) (A) (A) (A) (A) (A) (A) (A) (A) (A)
                 (A) (A) (A) (A) (A) (A) (A) (A) (A) (A) (A) (A)
                 (A) (A) (A) (A) (A) (A) (A) (A) (A) (A) (A) (A)
                 (A) (A) (A) (A) (A) (A) (A) (A) (A) (A) (A) (A)
                 (A) (A) (A) (A) (A) (A) (A) (A) (A) (A) (A) (A)
                 (A) (A) (A) (A) (A) (A) (A) (A) (A) (A) (A) (A)
                 (A) (A) (A) (A) (A) (A) (A) (A) (A) (A) (A) (A)
                 (A) (A) (A) (A) (A) (A) (A) (A) (A) (A) (A) (A)
                 (A) (A) (A) (A) (A)
 Beta  Orbitals:
       Occupied  (A) (A) (A) (A) (A) (A) (A) (A) (A) (A) (A) (A)
                 (A) (A) (A) (A) (A) (A) (A) (A) (A) (A) (A) (A)
                 (A) (A) (A) (A) (A) (A) (A) (A) (A) (A) (A) (A)
                 (A) (A) (A) (A) (A) (A) (A) (A) (A) (A) (A) (A)
                 (A) (A) (A) (A) (A) (A) (A) (A) (A) (A) (A) (A)
                 (A) (A) (A) (A) (A) (A) (A) (A) (A) (A) (A) (A)
                 (A) (A) (A) (A) (A) (A) (A) (A) (A)
       Virtual   (A) (A) (A) (A) (A) (A) (A) (A) (A) (A) (A) (A)
                 (A) (A) (A) (A) (A) (A) (A) (A) (A) (A) (A) (A)
                 (A) (A) (A) (A) (A) (A) (A) (A) (A) (A) (A) (A)
                 (A) (A) (A) (A) (A) (A) (A) (A) (A) (A) (A) (A)
                 (A) (A) (A) (A) (A) (A) (A) (A) (A) (A) (A) (A)
                 (A) (A) (A) (A) (A) (A) (A) (A) (A) (A) (A) (A)
                 (A) (A) (A) (A) (A) (A) (A) (A) (A) (A) (A) (A)
                 (A) (A) (A) (A) (A) (A) (A) (A) (A) (A) (A) (A)
                 (A) (A) (A) (A) (A) (A) (A) (A) (A) (A) (A) (A)
                 (A) (A) (A) (A) (A) (A) (A) (A) (A) (A) (A) (A)
                 (A) (A) (A) (A) (A) (A) (A) (A) (A) (A) (A) (A)
                 (A) (A) (A) (A) (A) (A) (A) (A) (A) (A) (A) (A)
                 (A) (A) (A) (A) (A) (A) (A) (A) (A) (A) (A) (A)
                 (A) (A) (A) (A) (A) (A) (A) (A) (A) (A) (A) (A)
                 (A) (A) (A) (A) (A) (A) (A) (A) (A) (A) (A) (A)
                 (A) (A) (A) (A) (A) (A) (A) (A) (A) (A) (A) (A)
                 (A) (A) (A) (A) (A) (A) (A) (A) (A) (A) (A) (A)
                 (A) (A) (A) (A) (A) (A) (A) (A) (A) (A) (A) (A)
                 (A) (A) (A) (A) (A) (A) (A) (A) (A) (A) (A) (A)
                 (A) (A) (A) (A) (A) (A) (A) (A) (A) (A) (A) (A)
                 (A) (A) (A) (A) (A) (A) (A) (A) (A) (A) (A) (A)
                 (A) (A) (A) (A) (A) (A) (A) (A) (A) (A) (A) (A)
                 (A) (A) (A) (A) (A) (A) (A) (A) (A) (A) (A) (A)
                 (A) (A) (A) (A) (A) (A) (A) (A) (A) (A) (A) (A)
                 (A) (A) (A) (A) (A) (A) (A) (A) (A) (A) (A) (A)
                 (A) (A) (A) (A) (A) (A) (A) (A) (A) (A) (A) (A)
                 (A) (A) (A) (A) (A) (A) (A) (A) (A) (A) (A) (A)
                 (A) (A) (A) (A) (A) (A) (A) (A) (A) (A) (A) (A)
                 (A) (A) (A) (A) (A) (A) (A) (A) (A) (A) (A) (A)
                 (A) (A) (A) (A) (A) (A) (A) (A) (A) (A) (A) (A)
                 (A) (A) (A) (A) (A) (A) (A) (A) (A) (A) (A) (A)
                 (A) (A) (A) (A) (A) (A) (A) (A) (A) (A) (A) (A)
                 (A) (A) (A) (A) (A) (A) (A) (A) (A) (A) (A) (A)
                 (A) (A) (A) (A) (A) (A) (A) (A) (A) (A) (A) (A)
                 (A) (A) (A) (A) (A) (A) (A) (A) (A) (A) (A) (A)
                 (A) (A) (A) (A) (A) (A) (A) (A) (A) (A) (A) (A)
                 (A) (A) (A) (A) (A) (A) (A) (A) (A) (A) (A) (A)
                 (A) (A) (A) (A) (A) (A) (A) (A) (A) (A) (A) (A)
                 (A) (A) (A) (A) (A) (A) (A) (A) (A) (A) (A) (A)
                 (A) (A) (A) (A) (A) (A) (A) (A) (A) (A) (A) (A)
                 (A) (A) (A) (A) (A) (A) (A) (A) (A) (A) (A) (A)
                 (A) (A) (A) (A) (A) (A) (A) (A) (A) (A) (A) (A)
                 (A) (A) (A) (A) (A) (A) (A) (A) (A) (A) (A) (A)
                 (A) (A) (A) (A) (A) (A) (A) (A) (A) (A) (A) (A)
                 (A) (A) (A) (A) (A) (A) (A)
 The electronic state is 3-A.
 Alpha  occ. eigenvalues --  -10.20938 -10.20902 -10.20724 -10.20395 -10.20175
 Alpha  occ. eigenvalues --  -10.19749 -10.19663 -10.19608 -10.19208 -10.19055
 Alpha  occ. eigenvalues --  -10.19001 -10.18951 -10.18844 -10.18819 -10.18807
 Alpha  occ. eigenvalues --  -10.18728 -10.18719 -10.18521 -10.18494 -10.18465
 Alpha  occ. eigenvalues --  -10.18292 -10.18172 -10.18117 -10.17327 -10.17043
 Alpha  occ. eigenvalues --   -0.91890  -0.89082  -0.86205  -0.84933  -0.83397
 Alpha  occ. eigenvalues --   -0.81123  -0.79443  -0.78366  -0.75820  -0.75294
 Alpha  occ. eigenvalues --   -0.73653  -0.71559  -0.69139  -0.66479  -0.64782
 Alpha  occ. eigenvalues --   -0.63194  -0.62347  -0.59709  -0.59259  -0.57009
 Alpha  occ. eigenvalues --   -0.55934  -0.52840  -0.52469  -0.51555  -0.50436
 Alpha  occ. eigenvalues --   -0.49126  -0.48052  -0.47347  -0.46645  -0.45511
 Alpha  occ. eigenvalues --   -0.44423  -0.43868  -0.43837  -0.42467  -0.41974
 Alpha  occ. eigenvalues --   -0.41445  -0.41054  -0.40814  -0.39796  -0.39687
 Alpha  occ. eigenvalues --   -0.38521  -0.37562  -0.36942  -0.36764  -0.35952
 Alpha  occ. eigenvalues --   -0.34979  -0.34393  -0.33893  -0.33218  -0.32361
 Alpha  occ. eigenvalues --   -0.31024  -0.29691  -0.26787  -0.26149  -0.24629
 Alpha  occ. eigenvalues --   -0.23451  -0.21074  -0.17607
 Alpha virt. eigenvalues --   -0.07458  -0.05814  -0.04374  -0.02580  -0.00071
 Alpha virt. eigenvalues --    0.00440   0.00570   0.00667   0.01742   0.01761
 Alpha virt. eigenvalues --    0.01815   0.03144   0.03219   0.03242   0.03632
 Alpha virt. eigenvalues --    0.04483   0.04840   0.05067   0.05088   0.05399
 Alpha virt. eigenvalues --    0.05979   0.06759   0.07104   0.07436   0.07588
 Alpha virt. eigenvalues --    0.07979   0.08167   0.08451   0.09546   0.09694
 Alpha virt. eigenvalues --    0.09932   0.10335   0.10488   0.10633   0.11482
 Alpha virt. eigenvalues --    0.12253   0.12488   0.12721   0.12865   0.13022
[...]
 9,-0.01075397,-0.00002620,-0.00005068,-0.00065810,-0.00373644,-0.00003
 195,-0.00048211,-0.00040579,0.00000022,0.00003064,0.00004634,-0.000009
 63,0.01645531,-0.04453054,0.00035214,0.00378057,0.00569603,0.00024896,
 0.00281686,-0.00374436,-0.00000813,-0.00025530,0.00226879,-0.00001246,
 -0.00096904,-0.00270508,-0.00010319,0.00025412,0.00134779,-0.00002712,
 0.00078852,-0.00018869,-0.00001083,-0.00058432,-0.00016897,-0.00001657
 ,-0.01132500,0.01767240,0.00163582,-0.00994855,-0.00432279,0.00020295,
 0.00192157,0.00566800,0.00014050,-0.00032420,-0.00344470,-0.00010676,-
 0.00192686,-0.00037022,-0.00001518,0.00054874,-0.00140478,-0.00002758,
 -0.00462789,-0.00128213,-0.00007033,0.01927991,0.00497695,-0.00005725,
 0.09803045,-0.23807026,0.00112698,-0.00075789,-0.00043256,0.00011592,-
 0.00013946,0.00002343,0.00000728,-0.00002925,-0.00004448,0.00000634,-0
 .00003763,0.00014532,0.00001166,0.00009826,-0.00000619,-0.00000421,-0.
 00000560,0.00002394,0.00001560,0.00007283,0.00001861,-0.00000066,-0.00
 000617,-0.00002145,0.00000206,0.00004758,-0.00000989,0.00000436,-0.000
 37988,0.00082492,-0.00001576,-0.00038897,-0.00018585,-0.00001775,0.014
 07307,0.65019524,-0.00114072,-0.00004319,0.00097592,0.00134779,-0.0000
 9743,0.00207223,-0.00042272,-0.00118126,0.00234414,0.00016747,0.000414
 45,0.00084394,-0.00007286,-0.00065103,-0.00020944,0.00056227,0.0000912
 9,-0.00014121,0.00035762,0.00149511,0.00232302,-0.00024942,-0.00053735
 ,-0.00071407,-0.00099097,0.00109949,0.00009854,0.00064498,-0.00001117,
 -0.00022928,-0.00101411,-0.00171764,-0.00097330,0.00223658,-0.00003521
 ,-0.00019524,-0.00033809,0.00052106,0.00004048,0.00052873,-0.00017574,
 -0.00005732,0.00427625,0.00438753,0.00190867,-0.00182105,0.00010423,0.
 00341047,-0.00009860,-0.00003853,0.00020761,-0.00153223,0.00037281,0.0
 0000300,0.00003381,0.00090039,-0.00008945,0.00065827,-0.00059336,-0.00
 013348,-0.00099875,0.00013538,-0.00068496,-0.00001456,0.00039675,0.002
 00633,0.00555992,-0.01136818,-0.04470488,-0.00012041,-0.00006046,0.000
 04364,-0.00000647,-0.00001864,-0.00000263,-0.00000211,0.00000531,0.000
 05679,-0.00002135,0.00000556,-0.00013535,0.00002713,0.00000916,-0.0000
 9346,0.00001956,-0.00002795,0.00006381,-0.00000379,-0.00002530,-0.0000
 0172,-0.00000105,-0.00002397,-0.00000020,-0.00001118,0.00001098,0.0000
 4995,-0.00004941,0.00002823,-0.00006934,-0.00002606,-0.00000188,-0.000
 25061,0.01487922,0.04145306,0.07909025,0.00408951,0.00230509,0.0000123
 3,-0.00088436,0.00791766,-0.00029850,-0.01080598,0.00595773,-0.0002286
 8,-0.00406736,-0.00691780,-0.00001150,-0.00100413,-0.00150526,0.000010
 30,0.00102976,0.00038852,0.00001648,-0.00151733,-0.02135110,-0.0002888
 1,0.00089187,0.00524334,0.00010298,-0.00081035,-0.00257642,0.00003748,
 0.00416746,0.00189687,0.00004955,0.00974639,-0.02058942,-0.00130072,0.
 01001613,0.00477241,0.00007080,-0.00017829,0.00221493,0.00006157,0.002
 42660,0.00048909,0.00000771,-0.13217666,-0.04232527,0.00004927,-0.0776
 7078,-0.02412498,0.00068546,0.00453445,0.01579020,0.00067904,-0.006172
 07,-0.00622679,-0.00016689,-0.00202604,-0.00150142,-0.00000069,-0.0005
 8929,-0.00018942,-0.00002741,-0.00201556,-0.00190092,-0.00014085,0.015
 98806,0.00008754,0.00075984,-0.05145290,0.05731295,0.00529853,-0.00005
 426,-0.00010187,-0.00002643,-0.00001570,0.00003320,0.00000105,-0.00004
 660,-0.00006221,-0.00000342,-0.00003093,0.00005877,0.00000799,-0.00003
 485,0.00003900,0.00000036,0.00006551,0.00003975,-0.00001294,0.00004579
 ,0.00000137,-0.00000127,-0.00001499,0.00031772,0.00000895,0.00020041,-
 0.00012345,-0.00004274,-0.00133500,-0.00387602,-0.00022111,-0.00084029
 ,-0.00046035,-0.00008532,-0.31235218,-0.04090000,-0.01005223,0.6704933
 1,0.00133353,0.00072553,0.00000529,0.00078393,0.00067512,0.00003072,-0
 .00170278,0.00293063,-0.00000265,-0.00225232,-0.00337266,-0.00004633,-
 0.00043693,-0.00035056,0.00000093,0.00019368,-0.00003061,0.00000111,0.
 00106033,-0.00353251,0.00012786,-0.00218808,0.00291158,0.00002123,-0.0
 0244479,-0.00118689,0.00001564,0.00322671,0.00015829,0.00001474,-0.021
 49816,-0.03262753,-0.00107737,0.00984141,-0.00430854,-0.00028623,-0.00
 213237,0.00132634,0.00001557,0.00209791,0.00064322,0.00001708,-0.06930
 191,-0.18079987,-0.00314251,-0.02291857,0.01037866,0.00066956,0.007618
 59,0.00518710,-0.00002899,-0.00376529,-0.00268857,-0.00002607,-0.00034
 022,-0.00149159,0.00000087,-0.00115938,0.00134452,-0.00002777,0.001605
 00,0.00002331,0.00001005,-0.00025654,-0.00451206,0.00000005,0.03214115
 ,0.01507184,-0.00093393,0.00038496,0.00035689,0.00002704,0.00005304,0.
 00002371,0.00000070,-0.00001397,-0.00001894,0.00000403,0.00001476,-0.0
 0004732,-0.00000357,-0.00005087,0.00001114,0.00000191,-0.00000563,0.00
 005786,-0.00000082,0.00007652,0.00002068,-0.00000028,0.00003756,-0.000
 33539,-0.00000309,0.00001039,0.00005165,0.00002236,0.00347868,-0.00041
 742,0.00006290,0.00085468,0.00067402,-0.00000485,0.02391454,-0.1173391
 6,-0.00692509,-0.03089140,0.59325559,-0.00020268,-0.00021300,-0.000888
 66,-0.00004699,0.00013565,0.00043886,-0.00007518,0.00008614,0.00019598
 ,0.00031205,0.00012145,0.00001065,0.00010572,0.00012151,0.00009834,-0.
 00017879,0.00000199,-0.00003761,0.00009709,-0.00053268,-0.00203789,-0.
 00020139,0.00030243,-0.00141620,0.00015497,-0.00022236,-0.00002470,-0.
 00027418,0.00018108,0.00009598,-0.00090746,-0.00106012,0.00088806,-0.0
 0017195,-0.00003995,0.00477145,0.00017755,-0.00009641,0.00036397,-0.00
 017414,-0.00005336,-0.00005357,0.00132449,-0.00231872,-0.05445364,-0.0
 0038522,0.00048661,0.00747820,0.00084648,0.00014153,0.00605701,-0.0001
 6788,-0.00061779,-0.00113449,0.00006708,0.00013312,0.00008981,-0.00000
 154,0.00005743,-0.00010376,0.00011642,-0.00001277,0.00001880,0.0000177
 4,0.00009597,0.00463672,-0.00074729,0.00090172,0.00380235,0.00004996,-
 0.00001173,-0.00006767,-0.00001862,-0.00000490,-0.00000420,-0.00000561
 ,0.00000742,0.00001155,-0.00000521,0.00000938,0.00005204,-0.00000490,0
 .00000243,0.00001178,-0.00000454,0.00000021,-0.00005006,0.00001056,-0.
 00000012,0.00002386,0.00000999,-0.00000578,-0.00001165,0.00001198,0.00
 002718,-0.00079637,0.00008295,0.00014618,-0.00344233,0.00003946,0.0000
 5059,0.00000108,0.01187302,-0.00417748,-0.04367738,-0.02049207,0.01455
 312,0.11671044,-0.00011352,-0.00012994,-0.00000041,0.00019636,-0.00018
 942,0.00000539,0.00066492,0.00069457,-0.00004036,-0.00013707,0.0001799
 7,0.00000116,0.00000940,0.00003702,-0.00000303,0.00001846,0.00002994,0
 .00001180,-0.00200406,0.00264547,-0.00020479,-0.00044446,-0.00011407,0
 .00001139,0.00004712,0.00012008,0.00001600,-0.00002816,-0.00005082,-0.
 00000478,-0.00010153,0.00034325,-0.00000689,0.00008189,-0.00015484,-0.
 00001683,-0.00002738,0.00000237,0.00000133,-0.00003820,-0.00000588,0.0
 0000095,-0.00393244,0.00208551,0.00035495,0.00003681,-0.00122184,0.000
 02084,-0.00048812,0.00008519,-0.00003538,0.00002241,0.00015641,0.00000
 963,0.00011566,0.00002811,0.00000429,-0.00011865,-0.00017107,0.0000262
 2,0.00025395,0.00056091,0.00001020,-0.00013875,-0.00014228,0.00002461,
 0.01239127,0.01671233,0.00152348,-0.00049751,-0.00024311,-0.00000610,0
 .00002270,0.00000372,0.00000120,0.00001019,-0.00003751,-0.00000609,0.0
 0000365,-0.00001235,-0.00000137,-0.00002995,0.00000943,0.00000509,0.00
 000462,-0.00000170,-0.00000550,0.00001318,0.00000174,0.00000159,-0.000
 00178,-0.00002329,-0.00000168,-0.00000902,-0.00001244,0.00000483,-0.00
 003004,0.00012345,0.00002069,-0.00011724,-0.00008671,-0.00000757,-0.11
 008077,-0.10470895,-0.00941221,-0.01382992,-0.02986000,-0.00226837,0.1
 1755662,-0.00016131,0.00005787,-0.00000961,0.00015142,-0.00014808,0.00
 001468,-0.00097657,-0.00132470,0.00003391,0.00036561,-0.00009206,0.000
 04452,0.00001781,-0.00006752,-0.00001031,-0.00003301,-0.00008249,-0.00
 000358,0.00407768,-0.00076516,-0.00030256,0.00030322,0.00004250,-0.000
 01415,-0.00017309,0.00002460,0.00001454,0.00010668,0.00000468,-0.00000
 983,0.00010293,-0.00017573,-0.00002892,0.00017863,0.00004918,0.0000212
 1,-0.00003534,0.00002300,0.00000748,0.00008527,-0.00004020,-0.00000214
 ,0.00096167,0.00185283,-0.00041648,-0.00021197,-0.00009919,0.00000288,
 -0.00011405,0.00002739,0.00002243,-0.00008950,0.00010293,-0.00000304,-
 0.00002181,0.00013327,-0.00000679,0.00023360,0.00022770,0.00004001,0.0
 0038732,-0.00023788,0.00000950,-0.00102701,0.00107808,0.00036392,-0.01
 252828,-0.02204430,-0.00175038,0.00034044,0.00043702,-0.00007355,0.000
 01313,-0.00000759,-0.00000052,0.00000030,0.00003098,-0.00000648,0.0000
 0826,0.00000636,0.00000093,0.00005278,-0.00002397,-0.00000140,-0.00000
 254,-0.00001949,-0.00000065,-0.00001636,-0.00001876,-0.00000041,-0.000
 00883,-0.00000079,0.00000066,-0.00001162,-0.00000115,-0.00000204,-0.00
 002621,-0.00002116,0.00000164,-0.00000379,-0.00001119,-0.00000297,-0.1
 0683902,-0.27624529,-0.02128069,0.00101045,0.00128346,0.00007659,0.113
 55324,0.29421636,0.00022208,0.00004060,0.00014967,-0.00022117,0.000063
 29,0.00025549,-0.00007495,0.00029478,-0.00045157,-0.00009328,-0.000131
 29,-0.00055709,0.00000518,0.00006766,0.00003083,-0.00006979,0.00001244
 ,0.00004820,-0.00023254,-0.00038172,0.00561115,0.00013578,0.00016932,0
 .00015631,0.00018379,-0.00020340,-0.00034238,-0.00006741,0.00003231,0.
 00006303,0.00013193,0.00024290,0.00022146,-0.00033351,0.00004856,-0.00
 042636,0.00005815,-0.00006264,-0.00003289,-0.00007145,0.00002045,-0.00
 000908,-0.00013205,-0.00085625,0.00677234,0.00024084,0.00003329,-0.000
 23049,0.00006109,0.00000229,-0.00042486,0.00018823,-0.00008600,0.00003
 235,-0.00004628,-0.00015294,0.00002246,-0.00008582,0.00015004,-0.00011
 021,0.00014539,-0.00016757,0.00000340,0.00020288,-0.00000496,-0.002776
 16,-0.00134096,0.00361688,0.00311641,0.00005947,0.00008312,0.00034200,
 0.00000266,0.00000049,-0.00000245,-0.00000292,0.00000603,0.00002126,0.
 00000291,0.00000190,-0.00002209,-0.00000266,-0.00000063,0.00000726,-0.
 00000182,0.00000399,0.00005703,0.00000141,0.00000303,-0.00000508,-0.00
 000084,0.00000413,0.00000211,0.00000168,-0.00000241,0.00003937,-0.0000
 0520,-0.00001361,0.00001610,0.00000856,0.00000481,0.00007807,-0.012867
 05,-0.02618051,-0.03198183,0.00493907,0.00248817,0.00271672,0.00984964
 ,0.02189725,0.02988416,0.00008602,0.00015113,-0.00000270,-0.00053696,0
 .00009254,-0.00003222,-0.00015672,0.00021455,0.00000471,-0.00007596,-0
 .00011657,-0.00000251,-0.00004881,-0.00003788,0.00000375,0.00001651,0.
 00002731,-0.00000210,0.00012385,-0.00063499,-0.00005232,-0.00029794,0.
 00027225,0.00002745,0.00002716,-0.00003433,-0.00001829,0.00007512,0.00
 004254,0.00000269,-0.00293579,-0.00189163,0.00005190,0.00049006,-0.000
 89496,-0.00002468,-0.00030958,-0.00002912,-0.00000239,0.00004591,0.000
 02581,0.00000278,0.00666861,-0.01856159,-0.00066885,-0.00222491,-0.005
 03382,-0.00014941,0.00019031,0.00022723,-0.00000886,-0.00008690,-0.000
 17407,-0.00000408,-0.00004296,-0.00002788,-0.00000118,-0.00004715,-0.0
 0002747,0.00000437,-0.00002425,0.00009298,-0.00000459,0.00012067,0.001
 15292,-0.00004159,-0.00509591,-0.00166020,0.00071070,-0.00002542,-0.00
 003539,-0.00000046,-0.00003387,0.00000220,0.00000119,-0.00001139,0.000
 00031,-0.00000092,-0.00000889,0.00002118,0.00000200,-0.00000289,0.0000
 0888,0.00000061,0.00000867,0.00000408,0.00000175,0.00000993,0.00000069
 ,0.00000051,0.00002364,-0.00009791,-0.00000039,-0.00001134,0.00004952,
 0.00000271,-0.00180293,-0.00057661,0.00000779,-0.00000063,0.00001380,0
 .00000878,-0.01514575,0.03054895,0.00113151,-0.09927210,0.10405093,0.0
 0529245,0.00034438,0.00039033,-0.00021768,0.11988497,-0.00002675,-0.00
 003679,0.00000860,0.00013047,0.00008964,0.00001439,-0.00008548,0.00006
 699,-0.00000408,0.00003933,-0.00000765,-0.00000412,0.00003576,0.000009
 63,-0.00000143,-0.00003031,0.00001586,0.00000282,-0.00015039,0.0001019
 3,0.00002547,-0.00035078,0.00031014,-0.00000923,0.00010750,-0.00008587
 ,0.00000715,-0.00006077,-0.00001884,0.00000132,-0.00372822,-0.00028206
 ,-0.00013100,0.00088506,-0.00112898,-0.00000837,-0.00044005,-0.0000201
 1,0.00000667,0.00003879,0.00001842,0.00000062,0.00909524,-0.02315475,-
 0.00085929,0.00304506,-0.00026813,0.00002219,-0.00053794,0.00074860,0.
 00002790,0.00008526,0.00022074,0.00000507,-0.00000075,0.00004292,0.000
 00136,0.00005448,-0.00001371,0.00000094,-0.00003375,-0.00006571,-0.000
 00208,0.00003211,-0.00010052,-0.00004355,-0.00036943,0.00174317,-0.000
 21725,-0.00000850,0.00000746,-0.00000145,0.00001115,0.00000025,-0.0000
 0083,0.00000632,-0.00000024,-0.00000033,0.00000513,-0.00000277,-0.0000
 0150,0.00000228,-0.00000632,0.00000013,0.00001233,-0.00001694,-0.00000
 067,0.00000966,-0.00001969,-0.00000146,-0.00000702,-0.00013724,-0.0000
 0358,-0.00005785,0.00008962,0.00000115,-0.00094278,0.00154211,0.000023
 99,-0.00006245,-0.00005977,-0.00000550,-0.00153608,0.00080633,-0.00002
 770,0.10270101,-0.28405454,-0.00990558,-0.00021628,0.00143272,0.000269
 90,-0.10759096,0.30225774,-0.00004424,-0.00004844,-0.00009814,0.000077
 42,0.00001339,-0.00029545,-0.00001555,-0.00002697,0.00001901,0.0000647
 4,0.00003914,-0.00006130,0.00001765,0.00002321,0.00001619,-0.00002630,
 -0.00001169,0.00000661,0.00003636,0.00007719,-0.00016401,-0.00006317,0
 .00002713,0.00000099,0.00001903,-0.00004411,-0.00019768,-0.00006391,0.
 00000796,0.00000179,-0.00002691,-0.00013381,0.00383335,0.00004345,-0.0
 0000862,-0.00002066,-0.00000364,-0.00000305,-0.00026851,-0.00001235,-0
 .00000658,0.00004898,0.00039245,-0.00038947,0.00328524,-0.00006742,0.0
 0011032,-0.00211490,0.00004871,0.00012188,0.00012058,0.00002380,-0.000
 05753,0.00015329,0.00000484,0.00004273,0.00000108,0.00003006,-0.000014
 12,-0.00000023,-0.00002102,-0.00000438,-0.00004468,-0.00002514,-0.0001
 4313,0.00029528,0.00030164,0.00022096,0.00620567,-0.00000093,0.0000026
 5,-0.00000169,-0.00000025,-0.00000242,0.00001551,-0.00000015,0.0000009
 8,-0.00000381,-0.00000142,-0.00000182,0.00002398,0.00000050,0.00000120
 ,0.00000335,-0.00000118,0.00000047,0.00001488,-0.00000041,0.00000062,0
 .00002919,0.00000174,-0.00000340,0.00000083,0.00000068,0.00000106,-0.0
 0001592,-0.00000460,0.00002049,0.00037820,0.00000146,-0.00000230,0.000
 03218,0.00176265,-0.00212795,0.00468676,0.00374115,-0.00880639,-0.0332
 0854,-0.00003167,0.00046618,-0.00408168,-0.00591255,0.01070279,0.02104
 481,-0.00047034,-0.00026245,-0.00001909,0.00038705,0.00009148,0.000096
 19,-0.00044938,-0.00000461,0.00002584,0.00034133,0.00015569,-0.0000136
 9,0.00010809,0.00000121,0.00000119,-0.00008048,0.00003093,0.00000022,-
 0.00009378,-0.00077365,0.00012210,0.00004057,0.00017460,0.00007012,0.0
 0010810,-0.00002922,0.00000444,-0.00023172,0.00021507,-0.00000130,-0.0
 0040616,-0.00009435,-0.00019172,0.00005742,0.00021201,0.00002331,0.000
 18126,-0.00004122,-0.00000716,-0.00017105,-0.00013803,0.00000501,0.000
 97615,0.00103568,0.00015375,-0.00033281,-0.00002903,-0.00019267,0.0003
 0408,0.00002704,0.00003998,-0.00029744,-0.00030646,-0.00000197,0.00008
 631,0.00036824,-0.00000450,0.00019939,-0.00008754,0.00002306,-0.000085
 40,0.00003324,0.00009136,0.00013497,0.00017527,-0.00032527,0.00039260,
 0.00067913,-0.00171330,-0.00001576,0.00000987,-0.00001627,-0.00001322,
 -0.00001089,0.00000027,-0.00000640,0.00000944,-0.00000492,-0.00001184,
 0.00000890,0.00000158,0.00000590,0.00000792,-0.00000200,0.00000180,-0.
 00000552,0.00000056,0.00000671,-0.00000402,-0.00000248,0.00000881,-0.0
 0000660,-0.00000025,0.00001136,-0.00000378,-0.00000315,0.00000694,-0.0
 0000953,-0.00000520,-0.00001826,0.00000395,0.00000142,-0.00083036,0.00
 104672,-0.00403072,-0.00449733,-0.00155908,0.00574406,0.00037497,-0.00
 006046,-0.00057337,0.00008323,-0.00006039,-0.00024554,0.00419468,0.000
 04207,0.00010201,0.00002589,-0.00009259,-0.00018716,-0.00011705,0.0002
 2722,-0.00007734,-0.00014515,-0.00009769,0.00009601,0.00000999,-0.0000
 2493,-0.00004269,-0.00000431,0.00006460,0.00001283,0.00001206,0.000165
 03,0.00081845,0.00013546,-0.00008077,-0.00005663,-0.00004506,0.0000374
 2,0.00000645,0.00002256,-0.00002733,-0.00010271,0.00000846,0.00022650,
 -0.00013431,-0.00009813,-0.00001286,-0.00003943,0.00001300,-0.00007127
 ,-0.00000911,0.00000189,0.00003610,0.00005315,-0.00000130,0.00035040,0
 .00016181,0.00013973,-0.00009391,0.00008116,-0.00004548,-0.00007687,0.
 00018877,0.00000562,0.00020151,0.00001897,0.00000944,-0.00003622,-0.00
 005402,0.00000944,-0.00000163,0.00000361,-0.00002116,-0.00006558,0.000
 02500,-0.00010940,-0.00055121,0.00008559,0.00024035,0.00228839,-0.0043
 0241,0.00498505,0.00002077,0.00001695,0.00000676,0.00000476,0.00000253
 ,-0.00000031,0.00000276,0.00000116,0.00000215,0.00000365,-0.00000031,-
 0.00000184,-0.00000037,-0.00000238,0.00000104,-0.00000135,0.00000256,-
 0.00000688,-0.00000458,0.00000182,-0.00000123,-0.00000354,0.00000205,-
 0.00000190,-0.00000518,0.00000112,-0.00000391,-0.00001508,0.00001044,-
 0.00000052,0.00001625,0.00000325,-0.00000195,0.00128350,-0.00002387,-0
 .00658902,-0.00295347,0.00000303,0.00163303,0.00000979,0.00039580,-0.0
 0131371,0.00003525,-0.00002365,-0.00004415,-0.00079953,0.00296151,0.00
 069455,0.00007300,0.00000377,-0.00049814,0.00023240,0.00017277,-0.0003
 1891,0.00071351,0.00011026,-0.00025509,-0.00063021,-0.00001390,-0.0000
 2133,0.00028746,-0.00001253,-0.00023115,-0.00007208,-0.00000289,-0.000
 07719,-0.00215122,-0.00037639,0.00067766,0.00020369,0.00009791,0.00025
 155,-0.00037587,-0.00000669,0.00006738,0.00005224,-0.00000173,0.000211
 08,0.00127661,0.00012113,-0.00079752,-0.00009840,-0.00000350,0.0000826
 3,-0.00019320,0.00000202,-0.00014582,0.00008720,0.00000019,-0.00379282
 ,-0.00279578,-0.00002736,0.00146380,-0.00024325,0.00006919,-0.00031195
 ,-0.00045224,-0.00003337,0.00055383,0.00027062,-0.00001588,-0.00000618
 ,-0.00054566,-0.00001215,-0.00041457,0.00033512,0.00000978,0.00062921,
 -0.00005782,0.00006808,0.00041121,-0.00024060,-0.00031099,-0.00633786,
 0.01096188,-0.00584402,-0.00000582,0.00001009,0.00002460,0.00001804,0.
 00001227,0.00000771,0.00000240,-0.00001330,-0.00000075,0.00001301,-0.0
 0000973,-0.00000022,-0.00000858,-0.00000702,0.00000216,-0.00000450,0.0
 0000920,0.00000114,-0.00000196,0.00000779,0.00000157,-0.00000206,0.000
 00645,0.00000294,-0.00000138,-0.00000205,0.00000257,0.00002539,-0.0000
 0544,0.00000245,-0.00001080,-0.00001509,0.00000924,-0.00970777,-0.0121
 6072,0.02411960,0.01686168,0.00322501,-0.00706493,0.00014775,0.0009081
 3,-0.00819295,-0.00010990,0.00010651,0.00035945,0.00095013,0.00129053,
 -0.00326826\\-0.00000077,-0.00000309,-0.00000073,0.00000023,-0.0000021
 5,-0.00000027,-0.00000050,-0.00000143,-0.00000073,-0.00000135,-0.00000
 065,-0.00000113,0.00000036,-0.00000192,-0.00000108,-0.00000357,-0.0000
 0355,-0.00000138,0.00000008,0.00000023,-0.00000010,-0.00000046,0.00000
 038,-0.00000004,-0.00000176,0.00000115,-0.00000047,-0.00000231,-0.0000
 0075,-0.00000120,-0.00000006,0.00000184,0.00000027,-0.00000053,0.00000
 267,-0.00000035,-0.00000318,0.00000317,-0.00000055,-0.00000090,0.00000
 065,-0.00000091,0.00000147,0.00000173,0.00000110,0.00000123,0.00000353
 ,0.00000110,0.00000008,0.00000468,0.00000091,-0.00000028,0.00000236,0.
 00000039,0.00000122,-0.00000506,-0.00000038,0.00000206,-0.00000226,0.0
 0000042,0.00000107,-0.00000153,0.00000079,0.00000051,-0.00000177,0.000
 00028,0.00000170,-0.00000082,0.00000058,0.00000253,-0.00000226,0.00000
 144,0.00000201,-0.00000404,0.00000075,0.00000023,-0.00000449,-0.000000
 55,-0.00000176,-0.00000381,-0.00000166,-0.00000286,-0.00000230,-0.0000
 0223,-0.00000297,-0.00000019,-0.00000214,-0.00000303,0.00000158,-0.000
 00186,-0.00000216,0.00000320,-0.00000082,-0.00000076,0.00000423,0.0000
 0009,0.00000227,0.00000297,0.00000196,0.00000115,0.00000444,0.00000138
 ,0.00000210,0.00000065,0.00000032,0.00000136,0.00000117,0.00000082,0.0
 0000307,-0.00000009,0.00000315,0.00000275,0.00000147,0.00000183,0.0000
 0171,0.00000004,0.00000100\\\@


 The impersonal hand of government can
 never replace the helping hand of a neighbor.
                        -- Hubert H. Humphrey
 Job cpu time:       3 days  9 hours 33 minutes 54.5 seconds.
 File lengths (MBytes):  RWF=   9033 Int=      0 D2E=      0 Chk=     42 Scr=      1
 Normal termination of Gaussian 09 at Sun Feb  2 11:43:18 2020.
