 Entering Gaussian System, Link 0=/share/apps/gaussian16/g16/g16
 Initial command:
 /share/apps/gaussian16/g16/l1.exe "/home/amen01//scratch/522/Gau-30491.inp" -scrdir="/home/amen01//scratch/522/"
 Entering Link 1 = /share/apps/gaussian16/g16/l1.exe PID=     30492.
  
 Copyright (c) 1988-2017, Gaussian, Inc.  All Rights Reserved.
  
 This is part of the Gaussian(R) 16 program.  It is based on
 the Gaussian(R) 09 system (copyright 2009, Gaussian, Inc.),
 the Gaussian(R) 03 system (copyright 2003, Gaussian, Inc.),
 the Gaussian(R) 98 system (copyright 1998, Gaussian, Inc.),
 the Gaussian(R) 94 system (copyright 1995, Gaussian, Inc.),
 the Gaussian 92(TM) system (copyright 1992, Gaussian, Inc.),
 the Gaussian 90(TM) system (copyright 1990, Gaussian, Inc.),
 the Gaussian 88(TM) system (copyright 1988, Gaussian, Inc.),
 the Gaussian 86(TM) system (copyright 1986, Carnegie Mellon
 University), and the Gaussian 82(TM) system (copyright 1983,
 Carnegie Mellon University). Gaussian is a federally registered
 trademark of Gaussian, Inc.
  
 This software contains proprietary and confidential information,
 including trade secrets, belonging to Gaussian, Inc.
  
 This software is provided under written license and may be
 used, copied, transmitted, or stored only in accord with that
 written license.
  
 The following legend is applicable only to US Government
 contracts under FAR:
  
                    RESTRICTED RIGHTS LEGEND
  
 Use, reproduction and disclosure by the US Government is
 subject to restrictions as set forth in subparagraphs (a)
 and (c) of the Commercial Computer Software - Restricted
 Rights clause in FAR 52.227-19.
  
 Gaussian, Inc.
 340 Quinnipiac St., Bldg. 40, Wallingford CT 06492
  
  
 ---------------------------------------------------------------
 Warning -- This program may not be used in any manner that
 competes with the business of Gaussian, Inc. or will provide
 assistance to any competitor of Gaussian, Inc.  The licensee
 of this program is prohibited from giving any competitor of
 Gaussian, Inc. access to this program.  By using this program,
 the user acknowledges that Gaussian, Inc. is engaged in the
 business of creating and licensing software in the field of
 computational chemistry and represents and warrants to the
 licensee that it is not a competitor of Gaussian, Inc. and that
 it will not use this program in any manner prohibited above.
 ---------------------------------------------------------------
  

 Cite this work as:
 Gaussian 16, Revision B.01,
 M. J. Frisch, G. W. Trucks, H. B. Schlegel, G. E. Scuseria, 
 M. A. Robb, J. R. Cheeseman, G. Scalmani, V. Barone, 
 G. A. Petersson, H. Nakatsuji, X. Li, M. Caricato, A. V. Marenich, 
 J. Bloino, B. G. Janesko, R. Gomperts, B. Mennucci, H. P. Hratchian, 
 J. V. Ortiz, A. F. Izmaylov, J. L. Sonnenberg, D. Williams-Young, 
 F. Ding, F. Lipparini, F. Egidi, J. Goings, B. Peng, A. Petrone, 
 T. Henderson, D. Ranasinghe, V. G. Zakrzewski, J. Gao, N. Rega, 
 G. Zheng, W. Liang, M. Hada, M. Ehara, K. Toyota, R. Fukuda, 
 J. Hasegawa, M. Ishida, T. Nakajima, Y. Honda, O. Kitao, H. Nakai, 
 T. Vreven, K. Throssell, J. A. Montgomery, Jr., J. E. Peralta, 
 F. Ogliaro, M. J. Bearpark, J. J. Heyd, E. N. Brothers, K. N. Kudin, 
 V. N. Staroverov, T. A. Keith, R. Kobayashi, J. Normand, 
 K. Raghavachari, A. P. Rendell, J. C. Burant, S. S. Iyengar, 
 J. Tomasi, M. Cossi, J. M. Millam, M. Klene, C. Adamo, R. Cammi, 
 J. W. Ochterski, R. L. Martin, K. Morokuma, O. Farkas, 
 J. B. Foresman, and D. J. Fox, Gaussian, Inc., Wallingford CT, 2016.
 
 ******************************************
 Gaussian 16:  ES64L-G16RevB.01 20-Dec-2017
                18-Jun-2019 
 ******************************************
 %nprocshared=20
 Will use up to   20 processors via shared memory.
 %mem=100GB
 %chk=7-HACAsite2-1.chk
 ---------------------------------------------------------
 # opt=tight freq b3lyp/6-311+g(d,p) scf=xqc int=grid=fine
 ---------------------------------------------------------
 1/7=10,18=20,19=15,26=3,38=1/1,3;
 2/9=110,12=2,17=6,18=5,40=1/2;
 3/5=4,6=6,7=111,11=2,25=1,30=1,71=1,74=-5,75=-4/1,2,3;
 4//1;
 5/5=2,8=3,13=1,38=5/2,8;
 6/7=2,8=2,9=2,10=2,28=1/1;
 7//1,2,3,16;
 1/7=10,18=20,19=15,26=3/3(2);
 2/9=110/2;
 99//99;
 2/9=110/2;
 3/5=4,6=6,7=111,11=2,25=1,30=1,71=1,74=-5,75=-4/1,2,3;
 4/5=5,16=3,69=1/1;
 5/5=2,8=3,13=1,38=5/2,8;
 7//1,2,3,16;
 1/7=10,18=20,19=15,26=3/3(-5);
 2/9=110/2;
 6/7=2,8=2,9=2,10=2,19=2,28=1/1;
 99/9=1/99;
 -------------
 7-HACAsite2-1
 -------------
 Symbolic Z-matrix:
 Charge =  0 Multiplicity = 2
 C                    -3.56095   1.18417   0.053 
 C                    -2.17387   1.19853   0.0212 
 C                    -1.38441   0.04339   0.053 
 C                    -1.95347  -1.22528   0.0954 
 C                    -4.16412  -0.12904   0.1166 
 C                    -3.39918  -1.27164   0.1272 
 C                     0.        0.39221  -0.0106 
 C                     0.93425  -0.69496   0.0106 
 C                     0.36305  -2.02887  -0.0106 
 C                    -1.02675  -2.28163   0.0424 
 C                     2.38421  -0.57269   0.0424 
 C                     3.19762  -1.74798  -0.106 
 C                     2.58501  -3.04202  -0.1908 
 C                     1.23739  -3.16974  -0.1166 
 C                     3.05783   0.67245   0.25441 
 C                     4.43602   0.76045   0.24381 
 C                     5.22348  -0.40189   0.0318 
 C                     4.60457  -1.6339   -0.1272 
 C                    -4.17442   2.46744  -0.0106 
 C                    -3.38094   3.61246  -0.106 
 C                    -1.96372   3.57755  -0.159 
 C                    -1.33272   2.33556  -0.0954 
 C                     0.02896   1.83246  -0.1272 
 H                    -1.40678   4.50835  -0.25441 
 H                    -3.86952   4.58062  -0.159 
 H                    -5.25505   2.56283   0.0106 
 H                    -5.24589  -0.2152    0.1378 
 H                    -3.89099  -2.23896   0.159 
 H                    -1.36117  -3.31417   0.0212 
 H                     0.78251  -4.15452  -0.1484 
 H                     3.22407  -3.91849  -0.29681 
 H                     5.19624  -2.54343  -0.25441 
 H                     2.49263   1.58824   0.48761 
 H                     4.90958   1.73575   0.41341 
 H                     6.30511  -0.33011   0.0106 
 H                     0.89238   2.47694  -0.30741 
 

 GradGradGradGradGradGradGradGradGradGradGradGradGradGradGradGradGradGrad
 Berny optimization.
 Initialization pass.
                           ----------------------------
                           !    Initial Parameters    !
                           ! (Angstroms and Degrees)  !
 --------------------------                            --------------------------
 ! Name  Definition              Value          Derivative Info.                !
 --------------------------------------------------------------------------------
 ! R1    R(1,2)                  1.3875         estimate D2E/DX2                !
 ! R2    R(1,5)                  1.4465         estimate D2E/DX2                !
 ! R3    R(1,19)                 1.4238         estimate D2E/DX2                !
 ! R4    R(2,3)                  1.3995         estimate D2E/DX2                !
 ! R5    R(2,22)                 1.4191         estimate D2E/DX2                !
 ! R6    R(3,4)                  1.3911         estimate D2E/DX2                !
 ! R7    R(3,7)                  1.4291         estimate D2E/DX2                !
 ! R8    R(4,6)                  1.4468         estimate D2E/DX2                !
 ! R9    R(4,10)                 1.4062         estimate D2E/DX2                !
 ! R10   R(5,6)                  1.3751         estimate D2E/DX2                !
 ! R11   R(5,27)                 1.0854         estimate D2E/DX2                !
 ! R12   R(6,28)                 1.0856         estimate D2E/DX2                !
 ! R13   R(7,8)                  1.4336         estimate D2E/DX2                !
 ! R14   R(7,23)                 1.4453         estimate D2E/DX2                !
 ! R15   R(8,9)                  1.4512         estimate D2E/DX2                !
 ! R16   R(8,11)                 1.4555         estimate D2E/DX2                !
 ! R17   R(9,10)                 1.4136         estimate D2E/DX2                !
 ! R18   R(9,14)                 1.4413         estimate D2E/DX2                !
 ! R19   R(10,29)                1.0856         estimate D2E/DX2                !
 ! R20   R(11,12)                1.437          estimate D2E/DX2                !
 ! R21   R(11,15)                1.4315         estimate D2E/DX2                !
 ! R22   R(12,13)                1.4342         estimate D2E/DX2                !
 ! R23   R(12,18)                1.4117         estimate D2E/DX2                !
 ! R24   R(13,14)                1.3557         estimate D2E/DX2                !
 ! R25   R(13,31)                1.0899         estimate D2E/DX2                !
 ! R26   R(14,30)                1.0852         estimate D2E/DX2                !
 ! R27   R(15,16)                1.381          estimate D2E/DX2                !
 ! R28   R(15,33)                1.1011         estimate D2E/DX2                !
 ! R29   R(16,17)                1.4199         estimate D2E/DX2                !
 ! R30   R(16,34)                1.0974         estimate D2E/DX2                !
 ! R31   R(17,18)                1.3879         estimate D2E/DX2                !
 ! R32   R(17,35)                1.0842         estimate D2E/DX2                !
 ! R33   R(18,32)                1.0925         estimate D2E/DX2                !
 ! R34   R(19,20)                1.3963         estimate D2E/DX2                !
 ! R35   R(19,26)                1.085          estimate D2E/DX2                !
 ! R36   R(20,21)                1.4186         estimate D2E/DX2                !
 ! R37   R(20,25)                1.0858         estimate D2E/DX2                !
 ! R38   R(21,22)                1.3945         estimate D2E/DX2                !
 ! R39   R(21,24)                1.0889         estimate D2E/DX2                !
 ! R40   R(22,23)                1.452          estimate D2E/DX2                !
 ! R41   R(23,36)                1.0924         estimate D2E/DX2                !
 ! A1    A(2,1,5)              115.2935         estimate D2E/DX2                !
 ! A2    A(2,1,19)             114.8588         estimate D2E/DX2                !
 ! A3    A(5,1,19)             129.8327         estimate D2E/DX2                !
 ! A4    A(1,2,3)              123.701          estimate D2E/DX2                !
 ! A5    A(1,2,22)             127.0638         estimate D2E/DX2                !
 ! A6    A(3,2,22)             109.1976         estimate D2E/DX2                !
 ! A7    A(2,3,4)              121.5127         estimate D2E/DX2                !
 ! A8    A(2,3,7)              110.1199         estimate D2E/DX2                !
 ! A9    A(4,3,7)              128.3338         estimate D2E/DX2                !
 ! A10   A(3,4,6)              116.0182         estimate D2E/DX2                !
 ! A11   A(3,4,10)             114.4783         estimate D2E/DX2                !
 ! A12   A(6,4,10)             129.4399         estimate D2E/DX2                !
 ! A13   A(1,5,6)              121.5167         estimate D2E/DX2                !
 ! A14   A(1,5,27)             119.2429         estimate D2E/DX2                !
 ! A15   A(6,5,27)             119.2304         estimate D2E/DX2                !
 ! A16   A(4,6,5)              121.9434         estimate D2E/DX2                !
 ! A17   A(4,6,28)             118.8076         estimate D2E/DX2                !
 ! A18   A(5,6,28)             119.2489         estimate D2E/DX2                !
 ! A19   A(3,7,8)              116.4582         estimate D2E/DX2                !
 ! A20   A(3,7,23)             105.4407         estimate D2E/DX2                !
 ! A21   A(8,7,23)             138.0612         estimate D2E/DX2                !
 ! A22   A(7,8,9)              116.125          estimate D2E/DX2                !
 ! A23   A(7,8,11)             125.8621         estimate D2E/DX2                !
 ! A24   A(9,8,11)             118.0117         estimate D2E/DX2                !
 ! A25   A(8,9,10)             123.4206         estimate D2E/DX2                !
 ! A26   A(8,9,14)             119.3328         estimate D2E/DX2                !
 ! A27   A(10,9,14)            117.2356         estimate D2E/DX2                !
 ! A28   A(4,10,9)             120.9982         estimate D2E/DX2                !
 ! A29   A(4,10,29)            120.8122         estimate D2E/DX2                !
 ! A30   A(9,10,29)            118.1786         estimate D2E/DX2                !
 ! A31   A(8,11,12)            119.5344         estimate D2E/DX2                !
 ! A32   A(8,11,15)            123.0325         estimate D2E/DX2                !
 ! A33   A(12,11,15)           117.4094         estimate D2E/DX2                !
 ! A34   A(11,12,13)           120.1497         estimate D2E/DX2                !
 ! A35   A(11,12,18)           119.973          estimate D2E/DX2                !
 ! A36   A(13,12,18)           119.8487         estimate D2E/DX2                !
 ! A37   A(12,13,14)           120.4215         estimate D2E/DX2                !
 ! A38   A(12,13,31)           118.7429         estimate D2E/DX2                !
 ! A39   A(14,13,31)           120.8257         estimate D2E/DX2                !
 ! A40   A(9,14,13)            122.1732         estimate D2E/DX2                !
 ! A41   A(9,14,30)            117.7865         estimate D2E/DX2                !
 ! A42   A(13,14,30)           120.0362         estimate D2E/DX2                !
 ! A43   A(11,15,16)           121.5943         estimate D2E/DX2                !
 ! A44   A(11,15,33)           120.8803         estimate D2E/DX2                !
 ! A45   A(16,15,33)           117.4426         estimate D2E/DX2                !
 ! A46   A(15,16,17)           120.1612         estimate D2E/DX2                !
 ! A47   A(15,16,34)           119.0842         estimate D2E/DX2                !
 ! A48   A(17,16,34)           120.7503         estimate D2E/DX2                !
 ! A49   A(16,17,18)           119.7669         estimate D2E/DX2                !
 ! A50   A(16,17,35)           120.132          estimate D2E/DX2                !
 ! A51   A(18,17,35)           120.0932         estimate D2E/DX2                !
 ! A52   A(12,18,17)           120.9605         estimate D2E/DX2                !
 ! A53   A(12,18,32)           118.309          estimate D2E/DX2                !
 ! A54   A(17,18,32)           120.7218         estimate D2E/DX2                !
 ! A55   A(1,19,20)            119.8208         estimate D2E/DX2                !
 ! A56   A(1,19,26)            120.4965         estimate D2E/DX2                !
 ! A57   A(20,19,26)           119.6823         estimate D2E/DX2                !
 ! A58   A(19,20,21)           123.3711         estimate D2E/DX2                !
 ! A59   A(19,20,25)           118.6088         estimate D2E/DX2                !
 ! A60   A(21,20,25)           118.0123         estimate D2E/DX2                !
 ! A61   A(20,21,22)           118.1797         estimate D2E/DX2                !
 ! A62   A(20,21,24)           119.5513         estimate D2E/DX2                !
 ! A63   A(22,21,24)           122.2675         estimate D2E/DX2                !
 ! A64   A(2,22,21)            116.6872         estimate D2E/DX2                !
 ! A65   A(2,22,23)            106.2625         estimate D2E/DX2                !
 ! A66   A(21,22,23)           137.0476         estimate D2E/DX2                !
 ! A67   A(7,23,22)            108.9493         estimate D2E/DX2                !
 ! A68   A(7,23,36)            128.1029         estimate D2E/DX2                !
 ! A69   A(22,23,36)           122.7125         estimate D2E/DX2                !
 ! D1    D(5,1,2,3)             -0.2752         estimate D2E/DX2                !
 ! D2    D(5,1,2,22)           177.2519         estimate D2E/DX2                !
 ! D3    D(19,1,2,3)          -179.01           estimate D2E/DX2                !
 ! D4    D(19,1,2,22)           -1.4829         estimate D2E/DX2                !
 ! D5    D(2,1,5,6)             -0.7655         estimate D2E/DX2                !
 ! D6    D(2,1,5,27)          -179.6099         estimate D2E/DX2                !
 ! D7    D(19,1,5,6)           177.7395         estimate D2E/DX2                !
 ! D8    D(19,1,5,27)           -1.1049         estimate D2E/DX2                !
 ! D9    D(2,1,19,20)            0.4129         estimate D2E/DX2                !
 ! D10   D(2,1,19,26)         -179.8261         estimate D2E/DX2                !
 ! D11   D(5,1,19,20)         -178.0974         estimate D2E/DX2                !
 ! D12   D(5,1,19,26)            1.6636         estimate D2E/DX2                !
 ! D13   D(1,2,3,4)              1.1974         estimate D2E/DX2                !
 ! D14   D(1,2,3,7)            179.2531         estimate D2E/DX2                !
 ! D15   D(22,2,3,4)          -176.7133         estimate D2E/DX2                !
 ! D16   D(22,2,3,7)             1.3423         estimate D2E/DX2                !
 ! D17   D(1,2,22,21)            1.3567         estimate D2E/DX2                !
 ! D18   D(1,2,22,23)         -178.1495         estimate D2E/DX2                !
 ! D19   D(3,2,22,21)          179.1784         estimate D2E/DX2                !
 ! D20   D(3,2,22,23)           -0.3278         estimate D2E/DX2                !
 ! D21   D(2,3,4,6)             -1.0058         estimate D2E/DX2                !
 ! D22   D(2,3,4,10)           176.3725         estimate D2E/DX2                !
 ! D23   D(7,3,4,6)           -178.6781         estimate D2E/DX2                !
 ! D24   D(7,3,4,10)            -1.2998         estimate D2E/DX2                !
 ! D25   D(2,3,7,8)           -179.8946         estimate D2E/DX2                !
 ! D26   D(2,3,7,23)            -1.7753         estimate D2E/DX2                !
 ! D27   D(4,3,7,8)             -2.0078         estimate D2E/DX2                !
 ! D28   D(4,3,7,23)           176.1115         estimate D2E/DX2                !
 ! D29   D(3,4,6,5)             -0.0229         estimate D2E/DX2                !
 ! D30   D(3,4,6,28)           179.8942         estimate D2E/DX2                !
 ! D31   D(10,4,6,5)          -176.9329         estimate D2E/DX2                !
 ! D32   D(10,4,6,28)            2.9841         estimate D2E/DX2                !
 ! D33   D(3,4,10,9)             1.6956         estimate D2E/DX2                !
 ! D34   D(3,4,10,29)         -177.0798         estimate D2E/DX2                !
 ! D35   D(6,4,10,9)           178.6446         estimate D2E/DX2                !
 ! D36   D(6,4,10,29)           -0.1308         estimate D2E/DX2                !
 ! D37   D(1,5,6,4)              0.9255         estimate D2E/DX2                !
 ! D38   D(1,5,6,28)          -178.9912         estimate D2E/DX2                !
 ! D39   D(27,5,6,4)           179.77           estimate D2E/DX2                !
 ! D40   D(27,5,6,28)           -0.1467         estimate D2E/DX2                !
 ! D41   D(3,7,8,9)              4.6201         estimate D2E/DX2                !
 ! D42   D(3,7,8,11)          -175.7957         estimate D2E/DX2                !
 ! D43   D(23,7,8,9)          -172.667          estimate D2E/DX2                !
 ! D44   D(23,7,8,11)            6.9173         estimate D2E/DX2                !
 ! D45   D(3,7,23,22)            1.5514         estimate D2E/DX2                !
 ! D46   D(3,7,23,36)         -172.9285         estimate D2E/DX2                !
 ! D47   D(8,7,23,22)          179.0318         estimate D2E/DX2                !
 ! D48   D(8,7,23,36)            4.5519         estimate D2E/DX2                !
 ! D49   D(7,8,9,10)            -4.4825         estimate D2E/DX2                !
 ! D50   D(7,8,9,14)           174.2776         estimate D2E/DX2                !
 ! D51   D(11,8,9,10)          175.8992         estimate D2E/DX2                !
 ! D52   D(11,8,9,14)           -5.3408         estimate D2E/DX2                !
 ! D53   D(7,8,11,12)         -172.326          estimate D2E/DX2                !
 ! D54   D(7,8,11,15)            9.4923         estimate D2E/DX2                !
 ! D55   D(9,8,11,12)            7.2512         estimate D2E/DX2                !
 ! D56   D(9,8,11,15)         -170.9304         estimate D2E/DX2                !
 ! D57   D(8,9,10,4)             1.1933         estimate D2E/DX2                !
 ! D58   D(8,9,10,29)         -179.9998         estimate D2E/DX2                !
 ! D59   D(14,9,10,4)         -177.5909         estimate D2E/DX2                !
 ! D60   D(14,9,10,29)           1.2159         estimate D2E/DX2                !
 ! D61   D(8,9,14,13)            0.3549         estimate D2E/DX2                !
 ! D62   D(8,9,14,30)         -178.9118         estimate D2E/DX2                !
 ! D63   D(10,9,14,13)         179.1909         estimate D2E/DX2                !
 ! D64   D(10,9,14,30)          -0.0758         estimate D2E/DX2                !
 ! D65   D(8,11,12,13)          -4.3392         estimate D2E/DX2                !
 ! D66   D(8,11,12,18)         177.6103         estimate D2E/DX2                !
 ! D67   D(15,11,12,13)        173.9436         estimate D2E/DX2                !
 ! D68   D(15,11,12,18)         -4.1069         estimate D2E/DX2                !
 ! D69   D(8,11,15,16)        -178.2632         estimate D2E/DX2                !
 ! D70   D(8,11,15,33)           5.1315         estimate D2E/DX2                !
 ! D71   D(12,11,15,16)          3.519          estimate D2E/DX2                !
 ! D72   D(12,11,15,33)       -173.0864         estimate D2E/DX2                !
 ! D73   D(11,12,13,14)         -0.7553         estimate D2E/DX2                !
 ! D74   D(11,12,13,31)       -179.6213         estimate D2E/DX2                !
 ! D75   D(18,12,13,14)        177.2976         estimate D2E/DX2                !
 ! D76   D(18,12,13,31)         -1.5684         estimate D2E/DX2                !
 ! D77   D(11,12,18,17)          1.8518         estimate D2E/DX2                !
 ! D78   D(11,12,18,32)       -179.2143         estimate D2E/DX2                !
 ! D79   D(13,12,18,17)       -176.2046         estimate D2E/DX2                !
 ! D80   D(13,12,18,32)          2.7293         estimate D2E/DX2                !
 ! D81   D(12,13,14,9)           2.777          estimate D2E/DX2                !
 ! D82   D(12,13,14,30)       -177.9724         estimate D2E/DX2                !
 ! D83   D(31,13,14,9)        -178.3809         estimate D2E/DX2                !
 ! D84   D(31,13,14,30)          0.8697         estimate D2E/DX2                !
 ! D85   D(11,15,16,17)         -0.6031         estimate D2E/DX2                !
 ! D86   D(11,15,16,34)       -179.8533         estimate D2E/DX2                !
 ! D87   D(33,15,16,17)        176.1142         estimate D2E/DX2                !
 ! D88   D(33,15,16,34)         -3.136          estimate D2E/DX2                !
 ! D89   D(15,16,17,18)         -1.818          estimate D2E/DX2                !
 ! D90   D(15,16,17,35)        179.1964         estimate D2E/DX2                !
 ! D91   D(34,16,17,18)        177.4195         estimate D2E/DX2                !
 ! D92   D(34,16,17,35)         -1.5661         estimate D2E/DX2                !
 ! D93   D(16,17,18,12)          1.1732         estimate D2E/DX2                !
 ! D94   D(16,17,18,32)       -177.735          estimate D2E/DX2                !
 ! D95   D(35,17,18,12)       -179.8408         estimate D2E/DX2                !
 ! D96   D(35,17,18,32)          1.251          estimate D2E/DX2                !
 ! D97   D(1,19,20,21)           0.6927         estimate D2E/DX2                !
 ! D98   D(1,19,20,25)         179.6546         estimate D2E/DX2                !
 ! D99   D(26,19,20,21)       -179.0703         estimate D2E/DX2                !
 ! D100  D(26,19,20,25)         -0.1084         estimate D2E/DX2                !
 ! D101  D(19,20,21,22)         -0.8361         estimate D2E/DX2                !
 ! D102  D(19,20,21,24)        178.716          estimate D2E/DX2                !
 ! D103  D(25,20,21,22)       -179.8038         estimate D2E/DX2                !
 ! D104  D(25,20,21,24)         -0.2517         estimate D2E/DX2                !
 ! D105  D(20,21,22,2)          -0.1275         estimate D2E/DX2                !
 ! D106  D(20,21,22,23)        179.1768         estimate D2E/DX2                !
 ! D107  D(24,21,22,2)        -179.6667         estimate D2E/DX2                !
 ! D108  D(24,21,22,23)         -0.3624         estimate D2E/DX2                !
 ! D109  D(2,22,23,7)           -0.7836         estimate D2E/DX2                !
 ! D110  D(2,22,23,36)         174.0548         estimate D2E/DX2                !
 ! D111  D(21,22,23,7)         179.864          estimate D2E/DX2                !
 ! D112  D(21,22,23,36)         -5.2976         estimate D2E/DX2                !
 --------------------------------------------------------------------------------
 Trust Radius=3.00D-01 FncErr=1.00D-07 GrdErr=1.00D-06 EigMax=2.50D+02 EigMin=1.00D-04
 Number of steps in this run=    216 maximum allowed number of steps=    216.
 GradGradGradGradGradGradGradGradGradGradGradGradGradGradGradGradGradGrad

                          Input orientation:                          
 ---------------------------------------------------------------------
 Center     Atomic      Atomic             Coordinates (Angstroms)
 Number     Number       Type             X           Y           Z
 ---------------------------------------------------------------------
      1          6           0       -3.560950    1.184170    0.053000
      2          6           0       -2.173870    1.198530    0.021200
      3          6           0       -1.384410    0.043390    0.053000
      4          6           0       -1.953470   -1.225280    0.095400
      5          6           0       -4.164120   -0.129040    0.116600
      6          6           0       -3.399180   -1.271640    0.127200
      7          6           0        0.000000    0.392210   -0.010600
      8          6           0        0.934250   -0.694960    0.010600
      9          6           0        0.363050   -2.028870   -0.010600
     10          6           0       -1.026750   -2.281630    0.042400
     11          6           0        2.384210   -0.572690    0.042400
     12          6           0        3.197620   -1.747980   -0.106000
     13          6           0        2.585010   -3.042020   -0.190800
     14          6           0        1.237390   -3.169740   -0.116600
     15          6           0        3.057830    0.672450    0.254410
     16          6           0        4.436020    0.760450    0.243810
     17          6           0        5.223480   -0.401890    0.031800
     18          6           0        4.604570   -1.633900   -0.127200
     19          6           0       -4.174420    2.467440   -0.010600
     20          6           0       -3.380940    3.612460   -0.106000
     21          6           0       -1.963720    3.577550   -0.159000
     22          6           0       -1.332720    2.335560   -0.095400
     23          6           0        0.028960    1.832460   -0.127200
     24          1           0       -1.406780    4.508350   -0.254410
     25          1           0       -3.869520    4.580620   -0.159000
     26          1           0       -5.255050    2.562830    0.010600
     27          1           0       -5.245890   -0.215200    0.137800
     28          1           0       -3.890990   -2.238960    0.159000
     29          1           0       -1.361170   -3.314170    0.021200
     30          1           0        0.782510   -4.154520   -0.148400
     31          1           0        3.224070   -3.918490   -0.296810
     32          1           0        5.196240   -2.543430   -0.254410
     33          1           0        2.492630    1.588240    0.487610
     34          1           0        4.909580    1.735750    0.413410
     35          1           0        6.305110   -0.330110    0.010600
     36          1           0        0.892380    2.476940   -0.307410
 ---------------------------------------------------------------------
                    Distance matrix (angstroms):
                    1          2          3          4          5
     1  C    0.000000
     2  C    1.387519   0.000000
     3  C    2.457378   1.399502   0.000000
     4  C    2.896764   2.434941   1.391097   0.000000
     5  C    1.446506   2.394293   2.785779   2.467623   0.000000
     6  C    2.462251   2.759413   2.407095   1.446803   1.375056
     7  C    3.648508   2.318809   1.429095   2.538416   4.198545
     8  C    4.872345   3.639482   2.433751   2.937236   5.130778
     9  C    5.072026   4.105251   2.711443   2.454233   4.911293
    10  C    4.293489   3.664403   2.352393   1.406234   3.805554
    11  C    6.199322   4.890170   3.818660   4.386816   6.563761
    12  C    7.368925   6.127888   4.922325   5.181458   7.540937
    13  C    7.462771   6.377629   5.033437   4.896964   7.357357
    14  C    6.481463   5.544138   4.150518   3.742654   6.202947
    15  C    6.641587   5.263253   4.491078   5.360951   7.267595
    16  C    8.010460   6.628131   5.867537   6.692588   8.646952
    17  C    8.926491   7.568503   6.622910   7.224308   9.391947
    18  C    8.640006   7.347920   6.222030   6.574527   8.900223
    19  C    1.423788   2.369250   3.696514   4.310457   2.599614
    20  C    2.440139   2.701899   4.092637   5.047966   3.829066
    21  C    2.885196   2.395072   3.587594   4.809574   4.319320
    22  C    2.512515   1.419143   2.297550   3.619574   3.759790
    23  C    3.652425   2.297031   2.287107   3.650939   4.635606
    24  H    3.973049   3.408709   4.475586   5.770247   5.407953
    25  H    3.417021   3.787642   5.177564   6.119186   4.726906
    26  H    2.184600   3.369732   4.618574   5.025674   2.906463
    27  H    2.191906   3.383716   3.871058   3.444138   1.085403
    28  H    3.440637   3.844974   3.391652   2.187596   2.127947
    29  H    5.007505   4.585296   3.357791   2.172507   4.243900
    30  H    6.885334   6.117523   4.728483   4.015653   6.383092
    31  H    8.496823   7.444648   6.087442   5.849285   8.313615
    32  H    9.522493   8.270233   7.077506   7.278615   9.673844
    33  H    6.082597   4.705915   4.196056   5.276128   6.884695
    34  H    8.496118   7.114612   6.527502   7.481329   9.268094
    35  H    9.981682   8.615681   7.698702   8.307386  10.471697
    36  H    4.651161   3.338294   3.351990   4.686955   5.704306
                    6          7          8          9         10
     6  C    0.000000
     7  C    3.787058   0.000000
     8  C    4.373188   1.433601   0.000000
     9  C    3.840151   2.448149   1.451218   0.000000
    10  C    2.579863   2.864689   2.522708   1.413591   0.000000
    11  C    5.826090   2.572605   1.455454   2.491657   3.815118
    12  C    6.618085   3.848933   2.499058   2.850050   4.260529
    13  C    6.248672   4.302172   2.876502   2.448684   3.698295
    14  C    5.015975   3.772248   2.496520   1.441281   2.437283
    15  C    6.744527   3.082059   2.537488   3.824814   5.045328
    16  C    8.095267   4.458542   3.799342   4.943088   6.255931
    17  C    8.666939   5.283667   4.299283   5.125684   6.526784
    18  C    8.015982   5.031976   3.791022   4.261466   5.670986
    19  C    3.821087   4.661798   6.008305   6.387913   5.697745
    20  C    4.889698   4.670103   6.098223   6.771349   6.348585
    21  C    5.065284   3.744945   5.165398   6.071888   5.937042
    22  C    4.163136   2.357953   3.786085   4.683063   4.629368
    23  C    4.631663   1.445252   2.688195   3.877510   4.250767
    24  H    6.125648   4.356728   5.711837   6.776945   6.807081
    25  H    5.878102   5.704208   7.136996   7.849970   7.430503
    26  H    4.261574   5.685736   6.994328   7.255839   6.430266
    27  H    2.127561   5.283023   6.200039   5.896747   4.698976
    28  H    1.085632   4.700173   5.068422   4.262600   2.866930
    29  H    2.887326   3.948550   3.482718   2.150800   1.085553
    30  H    5.086598   4.615633   3.466534   2.171019   2.611043
    31  H    7.145141   5.390610   3.965971   3.440642   4.567696
    32  H    8.697374   5.973134   4.653131   4.866615   6.235563
    33  H    6.559134   2.809254   2.805190   4.226915   5.249775
    34  H    8.840916   5.107726   4.676949   5.918030   7.177535
    35  H    9.750555   6.346385   5.383238   6.180155   7.587201
    36  H    5.714738   2.287037   3.188077   4.546494   5.142900
                   11         12         13         14         15
    11  C    0.000000
    12  C    1.436999   0.000000
    13  C    2.488432   1.434232   0.000000
    14  C    2.843439   2.421573   1.355691   0.000000
    15  C    1.431463   2.451105   3.770817   4.267795   0.000000
    16  C    2.455148   2.819259   4.251341   5.080110   1.381037
    17  C    2.844422   2.436197   3.739166   4.855093   2.427715
    18  C    2.466765   1.411727   2.462817   3.700921   2.803084
    19  C    7.229165   8.492693   8.722185   7.815160   7.456384
    20  C    7.125620   8.485975   8.937665   8.205323   7.087405
    21  C    6.014113   7.416435   8.031853   7.468255   5.816053
    22  C    4.721491   6.099130   6.654027   6.075709   4.707997
    23  C    3.370566   4.781256   5.504361   5.146107   3.265778
    24  H    6.346390   7.769439   8.540874   8.121804   5.908110
    25  H    8.105943   9.486752   9.988324   9.281724   7.964476
    26  H    8.257772   9.489168   9.639577   8.662004   8.528596
    27  H    7.639066   8.584970   8.331980   7.129302   8.351843
    28  H    6.493704   7.110533   6.534971   5.219443   7.534687
    29  H    4.641555   4.822001   3.961230   2.606216   5.956097
    30  H    3.928276   3.409690   2.118599   1.085227   5.351540
    31  H    3.466238   2.179041   1.089879   2.130727   4.626901
    32  H    3.446654   2.156212   2.659165   4.010455   3.895328
    33  H    2.208978   3.461177   4.680607   4.957728   1.101138
    34  H    3.441517   3.916244   5.347502   6.150587   2.141230
    35  H    3.928526   3.417667   4.608054   5.810462   3.407257
    36  H    3.412941   4.817120   5.773865   5.660427   2.874195
                   16         17         18         19         20
    16  C    0.000000
    17  C    1.419886   0.000000
    18  C    2.428779   1.387869   0.000000
    19  C    8.781698   9.826260   9.690472   0.000000
    20  C    8.328337   9.495791   9.554743   1.396346   0.000000
    21  C    7.003926   8.217554   8.384668   2.478217   1.418640
    22  C    5.989524   7.105883   7.142061   2.846022   2.413668
    23  C    4.550718   5.656911   5.740371   4.252670   3.846592
    24  H    6.959403   8.255466   8.595333   3.447403   2.173005
    25  H    9.150844  10.370364  10.508638   2.140214   1.085750
    26  H    9.860010  10.889885  10.716512   1.085039   2.151187
    27  H    9.731522  10.471571   9.955626   2.892512   4.264793
    28  H    8.851144   9.298633   8.521886   4.717976   5.879583
    29  H    7.089393   7.199938   6.199628   6.429806   7.216222
    30  H    6.136684   5.816951   4.578440   8.272877   8.812610
    31  H    4.863494   4.058584   2.674677   9.777508  10.018871
    32  H    3.426628   2.160753   1.092475  10.629089  10.558647
    33  H    2.126368   3.409681   3.901342   6.743201   6.240886
    34  H    1.097376   2.194006   3.426344   9.123279   8.516135
    35  H    2.176512   1.084216   2.147253  10.846533  10.458347
    36  H    3.975873   5.211636   5.541826   5.075495   4.426199
                   21         22         23         24         25
    21  C    0.000000
    22  C    1.394541   0.000000
    23  C    2.648985   1.451996   0.000000
    24  H    1.088887   2.179859   3.039395   0.000000
    25  H    2.153653   3.388170   4.769858   2.465647   0.000000
    26  H    3.448373   3.930338   5.336028   4.320238   2.453555
    27  H    5.024508   4.676928   5.664555   6.099551   4.998237
    28  H    6.135738   5.247447   5.659009   7.201972   6.827024
    29  H    6.920357   5.651005   5.333131   7.827507   8.285650
    30  H    8.205291   6.826283   6.034254   8.935857   9.896675
    31  H    9.117169   7.740675   6.581103   9.615519  11.071264
    32  H    9.420219   8.152125   6.772398   9.660615  11.530360
    33  H    4.922856   3.941027   2.550942   4.927782   7.060410
    34  H    7.138777   6.291659   4.911422   6.930346   9.246271
    35  H    9.147247   8.090332   6.639711   9.107918  11.298988
    36  H    3.064421   2.239644   1.092394   3.068480   5.207993
                   26         27         28         29         30
    26  H    0.000000
    27  H    2.780956   0.000000
    28  H    4.993983   2.435530   0.000000
    29  H    7.049932   4.970740   2.752282   0.000000
    30  H    9.033283   7.207063   5.060184   2.308748   0.000000
    31  H   10.676961   9.254375   7.324798   4.635813   2.457428
    32  H   11.635015  10.705726   9.101723   6.608300   4.699773
    33  H    7.823293   7.953581   7.450238   6.253234   6.025638
    34  H   10.206176  10.344841   9.659869   8.060882   7.214126
    35  H   11.916644  11.552272  10.374304   8.226577   6.719412
    36  H    6.156249   6.717454   6.733341   6.222815   6.634276
                   31         32         33         34         35
    31  H    0.000000
    32  H    2.404588   0.000000
    33  H    5.610204   4.993075   0.000000
    34  H    5.942709   4.340454   2.422584   0.000000
    35  H    4.739597   2.489700   4.294486   2.525379   0.000000
    36  H    6.807233   6.612876   1.995656   4.148113   6.105596
                   36
    36  H    0.000000
 Stoichiometry    C23H13(2)
 Framework group  C1[X(C23H13)]
 Deg. of freedom   102
 Full point group                 C1      NOp   1
 Largest Abelian subgroup         C1      NOp   1
 Largest concise Abelian subgroup C1      NOp   1
                         Standard orientation:                         
 ---------------------------------------------------------------------
 Center     Atomic      Atomic             Coordinates (Angstroms)
 Number     Number       Type             X           Y           Z
 ---------------------------------------------------------------------
      1          6           0        3.742624    0.274674    0.052492
      2          6           0        2.467497   -0.271434    0.020438
      3          6           0        1.294852    0.491745    0.053132
      4          6           0        1.332863    1.881638    0.096763
      5          6           0        3.795020    1.718774    0.117370
      6          6           0        2.649827    2.479814    0.128856
      7          6           0        0.150675   -0.362102   -0.011021
      8          6           0       -1.129539    0.282708    0.010987
      9          6           0       -1.114627    1.733713   -0.008923
     10          6           0        0.071428    2.500952    0.044545
     11          6           0       -2.421252   -0.387242    0.042425
     12          6           0       -3.623783    0.385500   -0.105067
     13          6           0       -3.555334    1.815660   -0.188606
     14          6           0       -2.360181    2.451231   -0.114057
     15          6           0       -2.564792   -1.795807    0.253206
     16          6           0       -3.803417   -2.406507    0.242288
     17          6           0       -4.977026   -1.635695    0.031178
     18          6           0       -4.878943   -0.260318   -0.126614
     19          6           0        4.802002   -0.674384   -0.012146
     20          6           0        4.509280   -2.036285   -0.108707
     21          6           0        3.187394   -2.548463   -0.161922
     22          6           0        2.127690   -1.644252   -0.097324
     23          6           0        0.677220   -1.702850   -0.128912
     24          1           0        3.030764   -3.621710   -0.258260
     25          1           0        5.332298   -2.742403   -0.162486
     26          1           0        5.836356   -0.347325    0.009157
     27          1           0        4.760680    2.213889    0.138835
     28          1           0        2.732284    3.561814    0.161605
     29          1           0       -0.016492    3.582749    0.024325
     30          1           0       -2.318539    3.535220   -0.144899
     31          1           0       -4.482088    2.379456   -0.293944
     32          1           0       -5.774649    0.352225   -0.253115
     33          1           0       -1.691102   -2.424393    0.485687
     34          1           0       -3.865922   -3.489043    0.410934
     35          1           0       -5.948081   -2.117480    0.009726
     36          1           0        0.127617   -2.629415   -0.309847
 ---------------------------------------------------------------------
 Rotational constants (GHZ):           0.6080946           0.1821428           0.1405174
 Standard basis: 6-311+G(d,p) (5D, 7F)
 There are   607 symmetry adapted cartesian basis functions of A   symmetry.
 There are   584 symmetry adapted basis functions of A   symmetry.
   584 basis functions,   932 primitive gaussians,   607 cartesian basis functions
    76 alpha electrons       75 beta electrons
       nuclear repulsion energy      1660.8090642996 Hartrees.
 NAtoms=   36 NActive=   36 NUniq=   36 SFac= 1.00D+00 NAtFMM=   60 NAOKFM=F Big=F
 Integral buffers will be    131072 words long.
 Raffenetti 2 integral format.
 Two-electron integral symmetry is turned on.
 One-electron integrals computed using PRISM.
 NBasis=   584 RedAO= T EigKep=  1.07D-06  NBF=   584
 NBsUse=   570 1.00D-06 EigRej=  8.42D-07 NBFU=   570
 ExpMin= 4.38D-02 ExpMax= 4.56D+03 ExpMxC= 6.82D+02 IAcc=2 IRadAn=         4 AccDes= 0.00D+00
 Harris functional with IExCor=  402 and IRadAn=       4 diagonalized for initial guess.
 HarFok:  IExCor=  402 AccDes= 0.00D+00 IRadAn=         4 IDoV= 1 UseB2=F ITyADJ=14
 ICtDFT=  3500011 ScaDFX=  1.000000  1.000000  1.000000  1.000000
 FoFCou: FMM=F IPFlag=           0 FMFlag=      100000 FMFlg1=           0
         NFxFlg=           0 DoJE=T BraDBF=F KetDBF=T FulRan=T
         wScrn=  0.000000 ICntrl=       500 IOpCl=  0 I1Cent=   200000004 NGrid=           0
         NMat0=    1 NMatS0=      1 NMatT0=    0 NMatD0=    1 NMtDS0=    0 NMtDT0=    0
 Petite list used in FoFCou.
 Initial guess <Sx>= 0.0000 <Sy>= 0.0000 <Sz>= 0.5000 <S**2>= 0.7500 S= 0.5000
 Requested convergence on RMS density matrix=1.00D-08 within  32 cycles.
 Requested convergence on MAX density matrix=1.00D-06.
 Requested convergence on             energy=1.00D-06.
 No special actions if energy rises.
 Restarting incremental Fock formation.
 SCF Done:  E(UB3LYP) =  -884.488280874     A.U. after   23 cycles
            NFock= 23  Conv=0.82D-08     -V/T= 2.0048
 <Sx>= 0.0000 <Sy>= 0.0000 <Sz>= 0.5000 <S**2>= 0.7834 S= 0.5165
 <L.S>=  0.00000000000    
 Annihilation of the first spin contaminant:
 S**2 before annihilation     0.7834,   after     0.7509
 QCSCF skips out because SCF is already converged.

 **********************************************************************

            Population analysis using the SCF Density.

 **********************************************************************

 Orbital symmetries:
 Alpha Orbitals:
       Occupied  (A) (A) (A) (A) (A) (A) (A) (A) (A) (A) (A) (A)
                 (A) (A) (A) (A) (A) (A) (A) (A) (A) (A) (A) (A)
                 (A) (A) (A) (A) (A) (A) (A) (A) (A) (A) (A) (A)
                 (A) (A) (A) (A) (A) (A) (A) (A) (A) (A) (A) (A)
                 (A) (A) (A) (A) (A) (A) (A) (A) (A) (A) (A) (A)
                 (A) (A) (A) (A) (A) (A) (A) (A) (A) (A) (A) (A)
                 (A) (A) (A) (A)
       Virtual   (A) (A) (A) (A) (A) (A) (A) (A) (A) (A) (A) (A)
                 (A) (A) (A) (A) (A) (A) (A) (A) (A) (A) (A) (A)
                 (A) (A) (A) (A) (A) (A) (A) (A) (A) (A) (A) (A)
                 (A) (A) (A) (A) (A) (A) (A) (A) (A) (A) (A) (A)
                 (A) (A) (A) (A) (A) (A) (A) (A) (A) (A) (A) (A)
                 (A) (A) (A) (A) (A) (A) (A) (A) (A) (A) (A) (A)
                 (A) (A) (A) (A) (A) (A) (A) (A) (A) (A) (A) (A)
                 (A) (A) (A) (A) (A) (A) (A) (A) (A) (A) (A) (A)
                 (A) (A) (A) (A) (A) (A) (A) (A) (A) (A) (A) (A)
                 (A) (A) (A) (A) (A) (A) (A) (A) (A) (A) (A) (A)
                 (A) (A) (A) (A) (A) (A) (A) (A) (A) (A) (A) (A)
                 (A) (A) (A) (A) (A) (A) (A) (A) (A) (A) (A) (A)
                 (A) (A) (A) (A) (A) (A) (A) (A) (A) (A) (A) (A)
                 (A) (A) (A) (A) (A) (A) (A) (A) (A) (A) (A) (A)
                 (A) (A) (A) (A) (A) (A) (A) (A) (A) (A) (A) (A)
                 (A) (A) (A) (A) (A) (A) (A) (A) (A) (A) (A) (A)
                 (A) (A) (A) (A) (A) (A) (A) (A) (A) (A) (A) (A)
                 (A) (A) (A) (A) (A) (A) (A) (A) (A) (A) (A) (A)
                 (A) (A) (A) (A) (A) (A) (A) (A) (A) (A) (A) (A)
                 (A) (A) (A) (A) (A) (A) (A) (A) (A) (A) (A) (A)
                 (A) (A) (A) (A) (A) (A) (A) (A) (A) (A) (A) (A)
                 (A) (A) (A) (A) (A) (A) (A) (A) (A) (A) (A) (A)
                 (A) (A) (A) (A) (A) (A) (A) (A) (A) (A) (A) (A)
                 (A) (A) (A) (A) (A) (A) (A) (A) (A) (A) (A) (A)
                 (A) (A) (A) (A) (A) (A) (A) (A) (A) (A) (A) (A)
                 (A) (A) (A) (A) (A) (A) (A) (A) (A) (A) (A) (A)
                 (A) (A) (A) (A) (A) (A) (A) (A) (A) (A) (A) (A)
                 (A) (A) (A) (A) (A) (A) (A) (A) (A) (A) (A) (A)
                 (A) (A) (A) (A) (A) (A) (A) (A) (A) (A) (A) (A)
                 (A) (A) (A) (A) (A) (A) (A) (A) (A) (A) (A) (A)
                 (A) (A) (A) (A) (A) (A) (A) (A) (A) (A) (A) (A)
                 (A) (A) (A) (A) (A) (A) (A) (A) (A) (A) (A) (A)
                 (A) (A) (A) (A) (A) (A) (A) (A) (A) (A) (A) (A)
                 (A) (A) (A) (A) (A) (A) (A) (A) (A) (A) (A) (A)
                 (A) (A) (A) (A) (A) (A) (A) (A) (A) (A) (A) (A)
                 (A) (A) (A) (A) (A) (A) (A) (A) (A) (A) (A) (A)
                 (A) (A) (A) (A) (A) (A) (A) (A) (A) (A) (A) (A)
                 (A) (A) (A) (A) (A) (A) (A) (A) (A) (A) (A) (A)
                 (A) (A) (A) (A) (A) (A) (A) (A) (A) (A) (A) (A)
                 (A) (A) (A) (A) (A) (A) (A) (A) (A) (A) (A) (A)
                 (A) (A) (A) (A) (A) (A) (A) (A) (A) (A) (A) (A)
                 (A) (A)
 Beta  Orbitals:
       Occupied  (A) (A) (A) (A) (A) (A) (A) (A) (A) (A) (A) (A)
                 (A) (A) (A) (A) (A) (A) (A) (A) (A) (A) (A) (A)
                 (A) (A) (A) (A) (A) (A) (A) (A) (A) (A) (A) (A)
                 (A) (A) (A) (A) (A) (A) (A) (A) (A) (A) (A) (A)
                 (A) (A) (A) (A) (A) (A) (A) (A) (A) (A) (A) (A)
                 (A) (A) (A) (A) (A) (A) (A) (A) (A) (A) (A) (A)
                 (A) (A) (A)
       Virtual   (A) (A) (A) (A) (A) (A) (A) (A) (A) (A) (A) (A)
                 (A) (A) (A) (A) (A) (A) (A) (A) (A) (A) (A) (A)
                 (A) (A) (A) (A) (A) (A) (A) (A) (A) (A) (A) (A)
                 (A) (A) (A) (A) (A) (A) (A) (A) (A) (A) (A) (A)
                 (A) (A) (A) (A) (A) (A) (A) (A) (A) (A) (A) (A)
                 (A) (A) (A) (A) (A) (A) (A) (A) (A) (A) (A) (A)
                 (A) (A) (A) (A) (A) (A) (A) (A) (A) (A) (A) (A)
                 (A) (A) (A) (A) (A) (A) (A) (A) (A) (A) (A) (A)
                 (A) (A) (A) (A) (A) (A) (A) (A) (A) (A) (A) (A)
                 (A) (A) (A) (A) (A) (A) (A) (A) (A) (A) (A) (A)
                 (A) (A) (A) (A) (A) (A) (A) (A) (A) (A) (A) (A)
                 (A) (A) (A) (A) (A) (A) (A) (A) (A) (A) (A) (A)
                 (A) (A) (A) (A) (A) (A) (A) (A) (A) (A) (A) (A)
                 (A) (A) (A) (A) (A) (A) (A) (A) (A) (A) (A) (A)
                 (A) (A) (A) (A) (A) (A) (A) (A) (A) (A) (A) (A)
                 (A) (A) (A) (A) (A) (A) (A) (A) (A) (A) (A) (A)
                 (A) (A) (A) (A) (A) (A) (A) (A) (A) (A) (A) (A)
                 (A) (A) (A) (A) (A) (A) (A) (A) (A) (A) (A) (A)
                 (A) (A) (A) (A) (A) (A) (A) (A) (A) (A) (A) (A)
                 (A) (A) (A) (A) (A) (A) (A) (A) (A) (A) (A) (A)
                 (A) (A) (A) (A) (A) (A) (A) (A) (A) (A) (A) (A)
                 (A) (A) (A) (A) (A) (A) (A) (A) (A) (A) (A) (A)
                 (A) (A) (A) (A) (A) (A) (A) (A) (A) (A) (A) (A)
                 (A) (A) (A) (A) (A) (A) (A) (A) (A) (A) (A) (A)
                 (A) (A) (A) (A) (A) (A) (A) (A) (A) (A) (A) (A)
                 (A) (A) (A) (A) (A) (A) (A) (A) (A) (A) (A) (A)
                 (A) (A) (A) (A) (A) (A) (A) (A) (A) (A) (A) (A)
                 (A) (A) (A) (A) (A) (A) (A) (A) (A) (A) (A) (A)
                 (A) (A) (A) (A) (A) (A) (A) (A) (A) (A) (A) (A)
                 (A) (A) (A) (A) (A) (A) (A) (A) (A) (A) (A) (A)
                 (A) (A) (A) (A) (A) (A) (A) (A) (A) (A) (A) (A)
                 (A) (A) (A) (A) (A) (A) (A) (A) (A) (A) (A) (A)
                 (A) (A) (A) (A) (A) (A) (A) (A) (A) (A) (A) (A)
                 (A) (A) (A) (A) (A) (A) (A) (A) (A) (A) (A) (A)
                 (A) (A) (A) (A) (A) (A) (A) (A) (A) (A) (A) (A)
                 (A) (A) (A) (A) (A) (A) (A) (A) (A) (A) (A) (A)
                 (A) (A) (A) (A) (A) (A) (A) (A) (A) (A) (A) (A)
                 (A) (A) (A) (A) (A) (A) (A) (A) (A) (A) (A) (A)
                 (A) (A) (A) (A) (A) (A) (A) (A) (A) (A) (A) (A)
                 (A) (A) (A) (A) (A) (A) (A) (A) (A) (A) (A) (A)
                 (A) (A) (A) (A) (A) (A) (A) (A) (A) (A) (A) (A)
                 (A) (A) (A)
 The electronic state is 2-A.
 Alpha  occ. eigenvalues --  -10.20779 -10.20153 -10.19845 -10.19677 -10.19460
 Alpha  occ. eigenvalues --  -10.19324 -10.19273 -10.19237 -10.19208 -10.19089
 Alpha  occ. eigenvalues --  -10.19017 -10.18954 -10.18938 -10.18610 -10.18567
 Alpha  occ. eigenvalues --  -10.18447 -10.18432 -10.18430 -10.18378 -10.18359
 Alpha  occ. eigenvalues --  -10.18096 -10.17398 -10.16758  -0.91379  -0.88334
 Alpha  occ. eigenvalues --   -0.85472  -0.83746  -0.82666  -0.79316  -0.78296
 Alpha  occ. eigenvalues --   -0.75270  -0.74883  -0.73047  -0.71443  -0.69860
 Alpha  occ. eigenvalues --   -0.64761  -0.64125  -0.62013  -0.60854  -0.59429
 Alpha  occ. eigenvalues --   -0.58830  -0.56636  -0.53010  -0.52003  -0.51783
 Alpha  occ. eigenvalues --   -0.50806  -0.48255  -0.47793  -0.46617  -0.46119
 Alpha  occ. eigenvalues --   -0.44346  -0.44128  -0.43193  -0.43032  -0.42690
 Alpha  occ. eigenvalues --   -0.41929  -0.41458  -0.40633  -0.40075  -0.39700
 Alpha  occ. eigenvalues --   -0.37682  -0.37393  -0.36845  -0.35581  -0.34889
 Alpha  occ. eigenvalues --   -0.34529  -0.33671  -0.33556  -0.33153  -0.29923
 Alpha  occ. eigenvalues --   -0.29462  -0.25857  -0.25241  -0.24221  -0.21398
 Alpha  occ. eigenvalues --   -0.19187
 Alpha virt. eigenvalues --   -0.07050  -0.05461  -0.02470  -0.01045   0.00074
 Alpha virt. eigenvalues --    0.00489   0.00606   0.00662   0.01696   0.01900
 Alpha virt. eigenvalues --    0.02002   0.03207   0.03327   0.03355   0.03549
 Alpha virt. eigenvalues --    0.04406   0.04992   0.05018   0.05584   0.05845
 Alpha virt. eigenvalues --    0.06468   0.07181   0.07348   0.07706   0.07855
 Alpha virt. eigenvalues --    0.07932   0.08219   0.09192   0.09496   0.09839
 Alpha virt. eigenvalues --    0.10167   0.10527   0.10815   0.11048   0.12489
 Alpha virt. eigenvalues --    0.12529   0.13023   0.13207   0.13572   0.13645
 Alpha virt. eigenvalues --    0.13965   0.14293   0.14765   0.14940   0.15469
 Alpha virt. eigenvalues --    0.15815   0.16006   0.16283   0.16692   0.16921
 Alpha virt. eigenvalues --    0.16965   0.17381   0.17662   0.17855   0.18457
 Alpha virt. eigenvalues --    0.18685   0.18886   0.19033   0.19305   0.19493
 Alpha virt. eigenvalues --    0.19733   0.20008   0.20201   0.20586   0.20736
 Alpha virt. eigenvalues --    0.21117   0.21277   0.21784   0.21959   0.22389
 Alpha virt. eigenvalues --    0.22470   0.22571   0.23134   0.23206   0.23700
 Alpha virt. eigenvalues --    0.24141   0.24192   0.24518   0.24731   0.24965
 Alpha virt. eigenvalues --    0.25121   0.25517   0.26016   0.26027   0.26525
 Alpha virt. eigenvalues --    0.26875   0.27053   0.27323   0.27960   0.28346
 Alpha virt. eigenvalues --    0.28501   0.28778   0.28927   0.29627   0.29856
 Alpha virt. eigenvalues --    0.29994   0.30535   0.30801   0.31364   0.31752
 Alpha virt. eigenvalues --    0.31954   0.32249   0.32685   0.33327   0.33787
 Alpha virt. eigenvalues --    0.34289   0.35144   0.35462   0.36284   0.36704
 Alpha virt. eigenvalues --    0.38382   0.38892   0.39432   0.40307   0.40963
 Alpha virt. eigenvalues --    0.41460   0.42801   0.43105   0.44071   0.44335
 Alpha virt. eigenvalues --    0.45562   0.45934   0.47417   0.48001   0.48146
 Alpha virt. eigenvalues --    0.49128   0.50051   0.51785   0.52619   0.53012
 Alpha virt. eigenvalues --    0.53292   0.53486   0.54038   0.54114   0.54391
 Alpha virt. eigenvalues --    0.54951   0.55120   0.55327   0.55878   0.56246
 Alpha virt. eigenvalues --    0.57065   0.57627   0.57758   0.58148   0.58646
 Alpha virt. eigenvalues --    0.58834   0.59446   0.60016   0.60492   0.60855
 Alpha virt. eigenvalues --    0.61432   0.61549   0.62255   0.63411   0.63752
 Alpha virt. eigenvalues --    0.63879   0.64638   0.65217   0.65616   0.65801
 Alpha virt. eigenvalues --    0.66464   0.66475   0.66958   0.67724   0.68527
 Alpha virt. eigenvalues --    0.69350   0.69639   0.70071   0.70275   0.70876
 Alpha virt. eigenvalues --    0.71252   0.71337   0.72175   0.72548   0.73072
 Alpha virt. eigenvalues --    0.73162   0.73568   0.74603   0.75341   0.75462
 Alpha virt. eigenvalues --    0.75928   0.76695   0.76986   0.78255   0.79543
 Alpha virt. eigenvalues --    0.80732   0.81386   0.82229   0.83141   0.83520
 Alpha virt. eigenvalues --    0.84155   0.85060   0.86202   0.87268   0.87742
 Alpha virt. eigenvalues --    0.88773   0.89289   0.90284   0.90761   0.91162
 Alpha virt. eigenvalues --    0.91710   0.91879   0.92377   0.92859   0.93342
 Alpha virt. eigenvalues --    0.93934   0.94352   0.95059   0.95830   0.96377
 Alpha virt. eigenvalues --    0.96511   0.97021   0.97307   0.98144   0.99001
 Alpha virt. eigenvalues --    0.99180   0.99874   1.00738   1.01766   1.01961
 Alpha virt. eigenvalues --    1.02342   1.03012   1.03406   1.04266   1.04942
 Alpha virt. eigenvalues --    1.05958   1.06201   1.08210   1.08569   1.09176
 Alpha virt. eigenvalues --    1.09591   1.10588   1.10957   1.11911   1.12695
 Alpha virt. eigenvalues --    1.13344   1.13909   1.15800   1.15831   1.16686
 Alpha virt. eigenvalues --    1.17540   1.19417   1.19827   1.21501   1.25037
 Alpha virt. eigenvalues --    1.26122   1.29753   1.31581   1.33274   1.33866
 Alpha virt. eigenvalues --    1.35388   1.38382   1.40075   1.40562   1.43043
 Alpha virt. eigenvalues --    1.44480   1.45392   1.46700   1.47137   1.47671
 Alpha virt. eigenvalues --    1.48148   1.49156   1.49286   1.50050   1.50226
 Alpha virt. eigenvalues --    1.51127   1.52021   1.53285   1.54020   1.54648
 Alpha virt. eigenvalues --    1.55360   1.55906   1.56228   1.57013   1.59116
 Alpha virt. eigenvalues --    1.59618   1.60279   1.60422   1.62258   1.63467
 Alpha virt. eigenvalues --    1.64917   1.65842   1.66608   1.67452   1.68534
 Alpha virt. eigenvalues --    1.69988   1.70530   1.72229   1.72947   1.73078
 Alpha virt. eigenvalues --    1.73513   1.73781   1.74936   1.75184   1.76079
 Alpha virt. eigenvalues --    1.76866   1.77912   1.78818   1.80511   1.81378
 Alpha virt. eigenvalues --    1.82432   1.83663   1.83937   1.85189   1.85328
 Alpha virt. eigenvalues --    1.86936   1.87494   1.87931   1.88674   1.89074
 Alpha virt. eigenvalues --    1.90264   1.90493   1.91041   1.91687   1.92038
 Alpha virt. eigenvalues --    1.93118   1.93494   1.94146   1.94822   1.95573
 Alpha virt. eigenvalues --    1.96707   1.98089   1.99269   1.99710   1.99932
 Alpha virt. eigenvalues --    2.02271   2.03087   2.03531   2.04685   2.05273
 Alpha virt. eigenvalues --    2.05855   2.07277   2.08216   2.10790   2.11908
 Alpha virt. eigenvalues --    2.11983   2.12310   2.13479   2.14955   2.16459
 Alpha virt. eigenvalues --    2.17951   2.19683   2.20801   2.21274   2.22466
 Alpha virt. eigenvalues --    2.23187   2.25948   2.27466   2.30300   2.31243
 Alpha virt. eigenvalues --    2.33942   2.34153   2.35794   2.36907   2.38210
 Alpha virt. eigenvalues --    2.39733   2.41303   2.42077   2.43057   2.44570
 Alpha virt. eigenvalues --    2.45069   2.45736   2.46832   2.48484   2.51351
 Alpha virt. eigenvalues --    2.54745   2.56311   2.58602   2.59254   2.62718
 Alpha virt. eigenvalues --    2.63643   2.64388   2.65989   2.66922   2.67570
 Alpha virt. eigenvalues --    2.69408   2.69730   2.70200   2.71343   2.71815
 Alpha virt. eigenvalues --    2.72034   2.72570   2.73035   2.73808   2.74203
 Alpha virt. eigenvalues --    2.75204   2.75852   2.75899   2.76615   2.76852
 Alpha virt. eigenvalues --    2.77491   2.77894   2.78582   2.79025   2.80018
 Alpha virt. eigenvalues --    2.81257   2.81743   2.82113   2.83804   2.83895
 Alpha virt. eigenvalues --    2.85229   2.85872   2.86411   2.87322   2.88245
 Alpha virt. eigenvalues --    2.89959   2.90573   2.91322   2.91976   2.92436
 Alpha virt. eigenvalues --    2.94941   2.97427   2.99690   3.01182   3.03987
 Alpha virt. eigenvalues --    3.04493   3.06903   3.09123   3.11356   3.12728
 Alpha virt. eigenvalues --    3.15929   3.18170   3.20891   3.21345   3.22211
 Alpha virt. eigenvalues --    3.23716   3.27145   3.31793   3.33333   3.34534
 Alpha virt. eigenvalues --    3.35434   3.37425   3.38488   3.38968   3.41736
 Alpha virt. eigenvalues --    3.43716   3.46054   3.47188   3.47763   3.50862
 Alpha virt. eigenvalues --    3.51523   3.53923   3.55305   3.56743   3.59398
 Alpha virt. eigenvalues --    3.61127   3.62624   3.67906   3.70797   3.74443
 Alpha virt. eigenvalues --    3.82576   3.87059   3.91871   4.01703   4.02559
 Alpha virt. eigenvalues --    4.05004   4.06962   4.08976   4.10833   4.16663
 Alpha virt. eigenvalues --    4.23382   4.24926   4.29704   4.37184   4.60883
 Alpha virt. eigenvalues --    4.71518   4.77704   4.80294   4.80539   4.82139
 Alpha virt. eigenvalues --    4.87223  23.41885  23.61211  23.76110  23.80952
 Alpha virt. eigenvalues --   23.83703  23.88644  23.89685  23.92083  23.93670
 Alpha virt. eigenvalues --   23.94395  23.95422  23.98722  23.99758  24.02577
 Alpha virt. eigenvalues --   24.05016  24.08025  24.08892  24.09898  24.13445
 Alpha virt. eigenvalues --   24.15058  24.15703  24.17592  24.21519
  Beta  occ. eigenvalues --  -10.20541 -10.19911 -10.19785 -10.19405 -10.19386
  Beta  occ. eigenvalues --  -10.19329 -10.19281 -10.19219 -10.19041 -10.19031
  Beta  occ. eigenvalues --  -10.18954 -10.18951 -10.18734 -10.18562 -10.18556
  Beta  occ. eigenvalues --  -10.18513 -10.18508 -10.18459 -10.18412 -10.18300
  Beta  occ. eigenvalues --  -10.18156 -10.17218 -10.16689  -0.91093  -0.88224
  Beta  occ. eigenvalues --   -0.85276  -0.83468  -0.82522  -0.79101  -0.78081
  Beta  occ. eigenvalues --   -0.75153  -0.74749  -0.72770  -0.71362  -0.68883
  Beta  occ. eigenvalues --   -0.64647  -0.64019  -0.61938  -0.60703  -0.59147
  Beta  occ. eigenvalues --   -0.58451  -0.56592  -0.52827  -0.51906  -0.51676
  Beta  occ. eigenvalues --   -0.50732  -0.48168  -0.47667  -0.46513  -0.46056
  Beta  occ. eigenvalues --   -0.44194  -0.44007  -0.42940  -0.42808  -0.42280
  Beta  occ. eigenvalues --   -0.41836  -0.41381  -0.40560  -0.39785  -0.39630
  Beta  occ. eigenvalues --   -0.37553  -0.37314  -0.36280  -0.35414  -0.34497
  Beta  occ. eigenvalues --   -0.34034  -0.33570  -0.33394  -0.32851  -0.29350
  Beta  occ. eigenvalues --   -0.28622  -0.25440  -0.24853  -0.23034  -0.21140
  Beta virt. eigenvalues --   -0.12646  -0.06209  -0.05066  -0.02257  -0.00549
  Beta virt. eigenvalues --    0.00093   0.00599   0.00682   0.01151   0.01709
  Beta virt. eigenvalues --    0.01920   0.02756   0.03229   0.03350   0.03465
  Beta virt. eigenvalues --    0.03603   0.04464   0.05006   0.05042   0.05617
  Beta virt. eigenvalues --    0.05877   0.06787   0.07236   0.07407   0.07811
  Beta virt. eigenvalues --    0.07918   0.08045   0.08542   0.09260   0.09656
  Beta virt. eigenvalues --    0.09864   0.10247   0.10587   0.10950   0.11265
  Beta virt. eigenvalues --    0.12520   0.12552   0.13082   0.13253   0.13662
  Beta virt. eigenvalues --    0.13706   0.14086   0.14531   0.14814   0.15075
  Beta virt. eigenvalues --    0.15524   0.15925   0.16039   0.16359   0.16733
  Beta virt. eigenvalues --    0.17001   0.17026   0.17554   0.17739   0.17960
  Beta virt. eigenvalues --    0.18525   0.18743   0.18982   0.19146   0.19450
  Beta virt. eigenvalues --    0.19536   0.19828   0.20070   0.20253   0.20671
  Beta virt. eigenvalues --    0.20786   0.21146   0.21376   0.21896   0.22029
  Beta virt. eigenvalues --    0.22458   0.22505   0.22910   0.23189   0.23275
  Beta virt. eigenvalues --    0.23765   0.24187   0.24284   0.24550   0.24818
  Beta virt. eigenvalues --    0.25062   0.25179   0.25587   0.26062   0.26110
  Beta virt. eigenvalues --    0.26654   0.26970   0.27118   0.27356   0.28067
  Beta virt. eigenvalues --    0.28411   0.28579   0.28850   0.28969   0.29660
  Beta virt. eigenvalues --    0.29908   0.30050   0.30578   0.30854   0.31453
  Beta virt. eigenvalues --    0.31780   0.32037   0.32305   0.32717   0.33367
  Beta virt. eigenvalues --    0.33897   0.34382   0.35233   0.35571   0.36338
  Beta virt. eigenvalues --    0.36779   0.38460   0.38998   0.39580   0.40391
  Beta virt. eigenvalues --    0.41028   0.41694   0.42955   0.43220   0.44171
  Beta virt. eigenvalues --    0.44469   0.45694   0.46026   0.47530   0.48107
  Beta virt. eigenvalues --    0.48351   0.49317   0.50201   0.51866   0.52916
  Beta virt. eigenvalues --    0.53065   0.53354   0.53621   0.54104   0.54243
  Beta virt. eigenvalues --    0.54647   0.55115   0.55300   0.55609   0.56016
  Beta virt. eigenvalues --    0.56344   0.57213   0.57830   0.57928   0.58574
  Beta virt. eigenvalues --    0.58794   0.59039   0.59599   0.60097   0.60563
  Beta virt. eigenvalues --    0.60993   0.61595   0.61741   0.62429   0.63548
  Beta virt. eigenvalues --    0.63897   0.64140   0.64828   0.65263   0.65750
  Beta virt. eigenvalues --    0.65954   0.66494   0.66595   0.67189   0.68091
  Beta virt. eigenvalues --    0.68587   0.69471   0.69827   0.70303   0.70383
  Beta virt. eigenvalues --    0.71026   0.71361   0.71486   0.72232   0.72715
  Beta virt. eigenvalues --    0.73116   0.73264   0.73653   0.74679   0.75476
  Beta virt. eigenvalues --    0.75552   0.76066   0.76830   0.77282   0.78484
  Beta virt. eigenvalues --    0.79694   0.80809   0.81466   0.82387   0.83181
  Beta virt. eigenvalues --    0.83697   0.84285   0.85254   0.86247   0.87412
  Beta virt. eigenvalues --    0.87834   0.88826   0.89412   0.90421   0.90861
  Beta virt. eigenvalues --    0.91265   0.91807   0.92214   0.92564   0.92979
  Beta virt. eigenvalues --    0.93540   0.94013   0.94596   0.95137   0.95923
  Beta virt. eigenvalues --    0.96522   0.96586   0.97169   0.97484   0.98329
  Beta virt. eigenvalues --    0.99143   0.99432   1.00082   1.00969   1.02030
  Beta virt. eigenvalues --    1.02178   1.02468   1.03102   1.03527   1.04435
  Beta virt. eigenvalues --    1.05098   1.06206   1.06541   1.08368   1.08888
  Beta virt. eigenvalues --    1.09352   1.09755   1.10799   1.11126   1.12198
  Beta virt. eigenvalues --    1.12919   1.13621   1.14105   1.15904   1.16198
  Beta virt. eigenvalues --    1.16808   1.17695   1.19642   1.20057   1.21642
  Beta virt. eigenvalues --    1.25446   1.26261   1.29970   1.31709   1.33425
  Beta virt. eigenvalues --    1.34064   1.35489   1.38524   1.40171   1.40813
  Beta virt. eigenvalues --    1.43273   1.44630   1.45489   1.46844   1.47365
  Beta virt. eigenvalues --    1.47885   1.48271   1.49322   1.49582   1.50134
  Beta virt. eigenvalues --    1.50412   1.51324   1.52163   1.53388   1.54122
  Beta virt. eigenvalues --    1.54735   1.55561   1.56015   1.56310   1.57209
  Beta virt. eigenvalues --    1.59233   1.59689   1.60438   1.60579   1.62518
  Beta virt. eigenvalues --    1.63607   1.64995   1.65934   1.66752   1.67560
  Beta virt. eigenvalues --    1.68678   1.70046   1.70634   1.72440   1.73094
  Beta virt. eigenvalues --    1.73236   1.73676   1.73873   1.75031   1.75448
  Beta virt. eigenvalues --    1.76198   1.76990   1.78648   1.79288   1.80750
  Beta virt. eigenvalues --    1.81786   1.82637   1.83876   1.84195   1.85429
  Beta virt. eigenvalues --    1.85482   1.87189   1.87674   1.88020   1.88907
  Beta virt. eigenvalues --    1.89206   1.90424   1.90689   1.91204   1.91860
  Beta virt. eigenvalues --    1.92176   1.93342   1.93645   1.94391   1.95129
  Beta virt. eigenvalues --    1.95726   1.96763   1.98242   1.99401   1.99859
  Beta virt. eigenvalues --    2.00138   2.02360   2.03474   2.03610   2.04932
  Beta virt. eigenvalues --    2.05298   2.06016   2.07343   2.08711   2.10856
  Beta virt. eigenvalues --    2.12008   2.12149   2.12465   2.13761   2.15067
  Beta virt. eigenvalues --    2.16528   2.18155   2.20004   2.20930   2.21363
  Beta virt. eigenvalues --    2.22673   2.23446   2.25994   2.27549   2.30419
  Beta virt. eigenvalues --    2.31520   2.34094   2.34255   2.36034   2.37024
  Beta virt. eigenvalues --    2.38348   2.40085   2.41440   2.42216   2.43133
  Beta virt. eigenvalues --    2.44783   2.45220   2.45850   2.47105   2.48864
  Beta virt. eigenvalues --    2.51419   2.54782   2.56383   2.58777   2.59379
  Beta virt. eigenvalues --    2.63106   2.63785   2.64555   2.66040   2.67254
  Beta virt. eigenvalues --    2.67664   2.69652   2.69808   2.70294   2.71390
  Beta virt. eigenvalues --    2.71908   2.72376   2.72637   2.73071   2.73856
  Beta virt. eigenvalues --    2.74272   2.75350   2.75885   2.76206   2.76691
  Beta virt. eigenvalues --    2.77010   2.77514   2.77944   2.78645   2.79084
  Beta virt. eigenvalues --    2.80312   2.81628   2.81888   2.82403   2.83861
  Beta virt. eigenvalues --    2.84149   2.85398   2.86025   2.86659   2.87566
  Beta virt. eigenvalues --    2.88691   2.90075   2.90657   2.91410   2.92047
  Beta virt. eigenvalues --    2.92522   2.95022   2.97783   3.00450   3.02232
  Beta virt. eigenvalues --    3.04235   3.04635   3.07107   3.09288   3.11627
  Beta virt. eigenvalues --    3.13042   3.16034   3.18209   3.20925   3.21397
  Beta virt. eigenvalues --    3.22299   3.23807   3.27225   3.31862   3.33382
  Beta virt. eigenvalues --    3.34619   3.35484   3.37446   3.38541   3.39048
  Beta virt. eigenvalues --    3.41807   3.43802   3.46117   3.47247   3.47891
  Beta virt. eigenvalues --    3.50889   3.51580   3.53948   3.55367   3.56802
  Beta virt. eigenvalues --    3.59480   3.61200   3.62767   3.68141   3.70971
  Beta virt. eigenvalues --    3.74608   3.82775   3.87115   3.92259   4.01741
  Beta virt. eigenvalues --    4.02684   4.05063   4.06998   4.08999   4.11076
  Beta virt. eigenvalues --    4.16776   4.23535   4.25318   4.29830   4.37389
  Beta virt. eigenvalues --    4.61134   4.71941   4.77850   4.80397   4.80740
  Beta virt. eigenvalues --    4.82186   4.87344  23.41949  23.61245  23.76164
  Beta virt. eigenvalues --   23.80995  23.83796  23.88810  23.89984  23.92124
  Beta virt. eigenvalues --   23.93672  23.94453  23.95611  23.98723  23.99794
  Beta virt. eigenvalues --   24.02674  24.05231  24.08121  24.08904  24.09995
  Beta virt. eigenvalues --   24.13530  24.15085  24.15716  24.17663  24.21519
          Condensed to atoms (all electrons):
               1          2          3          4          5          6
     1  C   12.235651   1.455544  -2.168058   0.728474  -3.621771   1.365784
     2  C    1.455544   7.167363   0.670500   0.345723   0.202750  -0.165348
     3  C   -2.168058   0.670500   8.301037   0.900481   2.298639  -1.387248
     4  C    0.728474   0.345723   0.900481   9.033512  -1.494751   0.225974
     5  C   -3.621771   0.202750   2.298639  -1.494751  10.744369  -0.570434
     6  C    1.365784  -0.165348  -1.387248   0.225974  -0.570434   9.568632
     7  C   -0.924457  -1.628111   0.673317  -0.103714   0.155528  -0.868830
     8  C   -1.243247  -0.457111   0.157586  -0.896679   0.578677  -1.088950
     9  C    0.015579   0.006013  -0.469002  -1.068555  -0.414229   0.203786
    10  C   -0.167683  -0.250675   0.396807   1.268423  -0.418172  -0.333285
    11  C    0.162940  -0.001680  -0.439426  -0.605786  -0.101602   0.011749
    12  C    0.072061   0.118030  -0.165859  -0.308864  -0.059915   0.078436
    13  C   -0.086078  -0.005155  -0.179973   0.224244   0.028736  -0.254274
    14  C   -0.167739   0.033185  -1.145783  -1.194551  -0.142897  -0.364126
    15  C   -0.225192  -0.474760  -0.512466  -0.386818   0.061384  -0.115678
    16  C    0.011332  -0.067300   0.166175   0.031215  -0.002681   0.003433
    17  C   -0.006091  -0.004620  -0.075357  -0.049401   0.001440  -0.010168
    18  C    0.003514   0.014526  -0.110646   0.005955  -0.001343   0.013772
    19  C   -0.945450  -1.680957  -1.000830   0.062289  -0.721867   0.551910
    20  C    0.345333   0.654383  -0.213518  -0.145132  -0.461183  -0.028351
    21  C    0.492629   0.240565  -0.213913   0.222052  -0.434452   0.126684
    22  C    1.056052   1.415275  -0.506338   0.092595  -0.662383  -0.007213
    23  C   -2.502766  -1.659485   1.135205  -1.254310   1.219592  -1.097080
    24  H   -0.015443   0.028394   0.000325   0.000477  -0.002941  -0.002161
    25  H    0.009368  -0.005906   0.006573   0.000874   0.014571  -0.001270
    26  H   -0.086620   0.020955  -0.014759   0.001333   0.032742   0.022004
    27  H   -0.069796   0.005865  -0.014395   0.024598   0.370122  -0.043461
    28  H   -0.052348   0.003037   0.030132  -0.076756   0.015276   0.325264
    29  H    0.008126  -0.002200   0.005657  -0.052544   0.003304   0.039238
    30  H    0.000673   0.001785   0.014947   0.071356   0.001135   0.010580
    31  H    0.000048   0.000055   0.001143   0.002303  -0.000014   0.000347
    32  H   -0.000007  -0.000010  -0.000470   0.000134   0.000002   0.000022
    33  H   -0.001254  -0.008389  -0.005805  -0.006063  -0.000008  -0.000840
    34  H   -0.000039  -0.000101  -0.001105  -0.000223   0.000006  -0.000019
    35  H    0.000002   0.000019   0.000086   0.000108   0.000000   0.000004
    36  H    0.005959   0.017118   0.011862   0.000795  -0.003233  -0.000418
               7          8          9         10         11         12
     1  C   -0.924457  -1.243247   0.015579  -0.167683   0.162940   0.072061
     2  C   -1.628111  -0.457111   0.006013  -0.250675  -0.001680   0.118030
     3  C    0.673317   0.157586  -0.469002   0.396807  -0.439426  -0.165859
     4  C   -0.103714  -0.896679  -1.068555   1.268423  -0.605786  -0.308864
     5  C    0.155528   0.578677  -0.414229  -0.418172  -0.101602  -0.059915
     6  C   -0.868830  -1.088950   0.203786  -0.333285   0.011749   0.078436
     7  C   10.245334   1.881052  -0.424377   0.234883  -0.180445  -0.513550
     8  C    1.881052   8.765547  -0.751210   0.230438   1.269564  -1.258906
     9  C   -0.424377  -0.751210  14.297003   1.120237  -0.294847   1.198988
    10  C    0.234883   0.230438   1.120237   8.466922  -0.720043  -1.402201
    11  C   -0.180445   1.269564  -0.294847  -0.720043   9.791659   0.760643
    12  C   -0.513550  -1.258906   1.198988  -1.402201   0.760643  12.526600
    13  C   -0.219267   0.963044  -2.864695  -0.029714  -0.858414  -2.465765
    14  C   -0.845370  -0.584583  -0.094633  -2.416935  -0.107275   0.142192
    15  C    0.771721  -0.136715  -2.282865  -0.124787  -1.066909  -1.835385
    16  C   -0.233845   0.038524   0.348856   0.158529  -1.505576   0.831601
    17  C    0.088541   0.060439  -0.481303  -0.115784   1.403472  -0.715482
    18  C   -0.264995  -0.923935  -0.996496  -0.129548  -2.074784  -1.052580
    19  C    0.086581  -0.133034   0.040393   0.040534   0.013708   0.006954
    20  C   -0.414453  -0.066913  -0.101512  -0.062014   0.001698  -0.002030
    21  C   -0.466229  -0.061356   0.175639  -0.009599   0.150505   0.031391
    22  C   -3.529343  -1.457829  -0.049202  -0.143858   0.593589   0.383770
    23  C    2.233042   1.104842  -1.734179  -0.045283  -0.498226  -0.499025
    24  H   -0.007894   0.001235  -0.001556  -0.000091  -0.001093  -0.000041
    25  H    0.005625   0.000153   0.000113   0.000247  -0.000059  -0.000007
    26  H    0.000428  -0.000757  -0.000459  -0.000169   0.000007  -0.000004
    27  H    0.000775   0.000555   0.003818   0.005385   0.000164   0.000032
    28  H   -0.006618   0.012755   0.027560   0.051526   0.000507   0.000138
    29  H   -0.018952  -0.038188  -0.051995   0.334283  -0.011364   0.017989
    30  H   -0.009032  -0.003297  -0.084827   0.157939  -0.037160  -0.056656
    31  H   -0.000272  -0.019606   0.032965   0.006091  -0.021301  -0.101668
    32  H    0.003881  -0.010702   0.008554   0.000087   0.006673  -0.128516
    33  H   -0.011240   0.005973  -0.016715   0.001238  -0.022022  -0.004648
    34  H    0.001684   0.005569   0.000304   0.000212   0.069992  -0.022053
    35  H    0.000457   0.003026   0.004510   0.000469   0.002999   0.035741
    36  H   -0.028509   0.008665   0.014368   0.002766   0.032712   0.007947
              13         14         15         16         17         18
     1  C   -0.086078  -0.167739  -0.225192   0.011332  -0.006091   0.003514
     2  C   -0.005155   0.033185  -0.474760  -0.067300  -0.004620   0.014526
     3  C   -0.179973  -1.145783  -0.512466   0.166175  -0.075357  -0.110646
     4  C    0.224244  -1.194551  -0.386818   0.031215  -0.049401   0.005955
     5  C    0.028736  -0.142897   0.061384  -0.002681   0.001440  -0.001343
     6  C   -0.254274  -0.364126  -0.115678   0.003433  -0.010168   0.013772
     7  C   -0.219267  -0.845370   0.771721  -0.233845   0.088541  -0.264995
     8  C    0.963044  -0.584583  -0.136715   0.038524   0.060439  -0.923935
     9  C   -2.864695  -0.094633  -2.282865   0.348856  -0.481303  -0.996496
    10  C   -0.029714  -2.416935  -0.124787   0.158529  -0.115784  -0.129548
    11  C   -0.858414  -0.107275  -1.066909  -1.505576   1.403472  -2.074784
    12  C   -2.465765   0.142192  -1.835385   0.831601  -0.715482  -1.052580
    13  C   11.459211   0.759790   0.025922   0.879415  -0.846328  -0.168038
    14  C    0.759790  11.488482   0.407597  -0.158463  -0.398021   0.764294
    15  C    0.025922   0.407597  11.828445  -2.665579   0.110988   2.391458
    16  C    0.879415  -0.158463  -2.665579  10.466957  -0.040187  -1.497073
    17  C   -0.846328  -0.398021   0.110988  -0.040187   7.109684  -0.077400
    18  C   -0.168038   0.764294   2.391458  -1.497073  -0.077400   9.551228
    19  C    0.003331   0.019019  -0.034590  -0.001816  -0.000488   0.002019
    20  C   -0.003087  -0.020075  -0.005122   0.001972   0.000086  -0.000907
    21  C   -0.008751   0.053962  -0.009056  -0.034988   0.001869   0.006080
    22  C   -0.271851  -0.030206  -0.857112  -0.111147  -0.020349   0.046014
    23  C   -0.073780  -0.130690   1.252678  -0.308067   0.062791   0.029233
    24  H   -0.000003  -0.000095   0.001631   0.000066   0.000013  -0.000004
    25  H    0.000002   0.000011   0.000062  -0.000001   0.000000   0.000000
    26  H   -0.000002  -0.000032  -0.000017   0.000001  -0.000000  -0.000000
    27  H   -0.000012   0.000266  -0.000009   0.000000  -0.000000   0.000001
    28  H    0.000733   0.008436   0.000031  -0.000017   0.000003   0.000014
    29  H    0.024784   0.070936  -0.002775  -0.000116   0.000128   0.000003
    30  H   -0.021833   0.292596  -0.006410   0.000553  -0.000651   0.002388
    31  H    0.366300  -0.023282   0.003056   0.001309   0.013950   0.072934
    32  H    0.047006   0.032512   0.007532  -0.016087  -0.030535   0.414437
    33  H    0.005078  -0.000651   0.426124  -0.080098   0.009242  -0.013863
    34  H   -0.001981  -0.001683  -0.058270   0.374030   0.005419  -0.032029
    35  H    0.016451   0.000783  -0.016378  -0.003549   0.359877  -0.059752
    36  H   -0.000808   0.001318  -0.024765  -0.018268  -0.003459  -0.000023
              19         20         21         22         23         24
     1  C   -0.945450   0.345333   0.492629   1.056052  -2.502766  -0.015443
     2  C   -1.680957   0.654383   0.240565   1.415275  -1.659485   0.028394
     3  C   -1.000830  -0.213518  -0.213913  -0.506338   1.135205   0.000325
     4  C    0.062289  -0.145132   0.222052   0.092595  -1.254310   0.000477
     5  C   -0.721867  -0.461183  -0.434452  -0.662383   1.219592  -0.002941
     6  C    0.551910  -0.028351   0.126684  -0.007213  -1.097080  -0.002161
     7  C    0.086581  -0.414453  -0.466229  -3.529343   2.233042  -0.007894
     8  C   -0.133034  -0.066913  -0.061356  -1.457829   1.104842   0.001235
     9  C    0.040393  -0.101512   0.175639  -0.049202  -1.734179  -0.001556
    10  C    0.040534  -0.062014  -0.009599  -0.143858  -0.045283  -0.000091
    11  C    0.013708   0.001698   0.150505   0.593589  -0.498226  -0.001093
    12  C    0.006954  -0.002030   0.031391   0.383770  -0.499025  -0.000041
    13  C    0.003331  -0.003087  -0.008751  -0.271851  -0.073780  -0.000003
    14  C    0.019019  -0.020075   0.053962  -0.030206  -0.130690  -0.000095
    15  C   -0.034590  -0.005122  -0.009056  -0.857112   1.252678   0.001631
    16  C   -0.001816   0.001972  -0.034988  -0.111147  -0.308067   0.000066
    17  C   -0.000488   0.000086   0.001869  -0.020349   0.062791   0.000013
    18  C    0.002019  -0.000907   0.006080   0.046014   0.029233  -0.000004
    19  C   10.113047   0.039605  -0.900093   0.933499  -0.776440  -0.034592
    20  C    0.039605   6.284624   0.689481  -0.026779  -0.559646   0.022478
    21  C   -0.900093   0.689481   7.584374  -0.457173  -1.239927   0.425014
    22  C    0.933499  -0.026779  -0.457173  11.609735  -2.121842  -0.137141
    23  C   -0.776440  -0.559646  -1.239927  -2.121842  13.591018   0.062976
    24  H   -0.034592   0.022478   0.425014  -0.137141   0.062976   0.542359
    25  H   -0.035380   0.366260  -0.077002   0.038982   0.020079  -0.007315
    26  H    0.396577  -0.000556  -0.011361  -0.015742  -0.004993  -0.000236
    27  H    0.042111   0.006753   0.004414   0.000758  -0.000808  -0.000001
    28  H   -0.002789  -0.001090  -0.000144  -0.000751   0.003278   0.000000
    29  H   -0.000240   0.000083   0.000354   0.003874  -0.005170   0.000000
    30  H    0.000047   0.000002  -0.000070  -0.000921  -0.001784   0.000000
    31  H    0.000001   0.000000  -0.000002   0.000150   0.000087   0.000000
    32  H   -0.000000   0.000000   0.000000   0.000054  -0.000275   0.000000
    33  H   -0.000114  -0.000214   0.000642  -0.009673   0.052543  -0.000001
    34  H   -0.000002   0.000021   0.000113  -0.000922   0.006870   0.000000
    35  H    0.000000  -0.000000  -0.000007  -0.000055  -0.000139   0.000000
    36  H    0.009438  -0.002158  -0.000909   0.000005   0.290841   0.002078
              25         26         27         28         29         30
     1  C    0.009368  -0.086620  -0.069796  -0.052348   0.008126   0.000673
     2  C   -0.005906   0.020955   0.005865   0.003037  -0.002200   0.001785
     3  C    0.006573  -0.014759  -0.014395   0.030132   0.005657   0.014947
     4  C    0.000874   0.001333   0.024598  -0.076756  -0.052544   0.071356
     5  C    0.014571   0.032742   0.370122   0.015276   0.003304   0.001135
     6  C   -0.001270   0.022004  -0.043461   0.325264   0.039238   0.010580
     7  C    0.005625   0.000428   0.000775  -0.006618  -0.018952  -0.009032
[...]
 162,-0.00006631,0.00002548,0.00004316,0.00004866,-0.00010705,-0.000018
 31,0.00000038,0.00000084,0.00000423,-0.00000058,-0.00000073,-0.0000057
 8,0.00000036,0.00000042,0.00000308,0.00000103,-0.00000171,0.00001650,0
 .00000018,0.00000085,-0.00000265,0.00000633,0.00000086,0.00021691,-0.0
 0029831,0.00037039,-0.00557250,-0.01551186,0.02145535,0.02651311,-0.00
 001439,0.00002390,0.00000169,-0.00005773,-0.00004350,0.00000655,-0.000
 06568,0.00014288,-0.00001394,-0.00002049,0.00002215,0.00000179,-0.0000
 1415,0.00000647,-0.00000132,0.00002161,-0.00000435,-0.00000108,-0.0004
 0284,-0.00026633,-0.00001868,-0.00017210,0.00168847,0.00010087,0.00005
 031,0.00013964,-0.00000456,0.00009007,-0.00012354,-0.00000558,-0.00480
 123,-0.00232183,-0.00006529,-0.01377072,0.02681219,0.00304486,0.001051
 18,0.00222120,0.00009926,0.00014522,-0.00046581,-0.00004112,-0.0006322
 4,-0.00083703,-0.00008623,-0.00034291,-0.00294511,-0.00026178,0.011461
 79,-0.01315231,-0.00149536,-0.14218166,0.12501829,0.01479423,-0.000016
 12,-0.00001955,0.00000213,0.00001545,0.00000491,-0.00000211,-0.0000188
 2,0.00000097,0.00000185,0.00002102,0.00001386,0.00000268,0.00000863,-0
 .00006084,0.00000293,0.00000121,0.00000304,-0.00000006,-0.00000309,0.0
 0000361,-0.00000018,-0.00000402,0.00000192,-0.00000042,-0.00000333,0.0
 0000005,0.00000062,-0.00000709,-0.00000475,0.00000035,-0.00003221,-0.0
 0001467,0.00000190,-0.00003665,-0.00001275,0.00000404,-0.00001874,-0.0
 0124252,-0.00009849,0.14850328,0.00000564,-0.00001801,0.00000131,0.000
 02176,0.00000467,0.00000183,-0.00002871,-0.00002167,0.00000014,-0.0000
 0327,0.00005483,0.00000234,0.00000843,0.00000783,-0.00000041,-0.000001
 00,-0.00001320,0.00000083,0.00001597,-0.00008651,-0.00000686,-0.000464
 50,0.00002514,-0.00003864,-0.00016612,0.00019488,0.00001881,0.00007010
 ,-0.00001076,-0.00000260,-0.00103606,0.00137129,-0.00042564,-0.0021628
 6,0.00346144,0.00005882,-0.00189518,0.00072819,0.00053122,0.00040279,0
 .00017067,-0.00000778,-0.00069190,0.00012176,0.00014000,-0.00408399,-0
 .00325446,-0.00112986,0.01810685,-0.01852873,-0.00257542,0.12536121,-0
 .24555449,-0.02358697,0.00000890,0.00001104,-0.00000144,-0.00000457,-0
 .00000156,0.00000054,0.00000735,0.00000869,0.00000063,0.00000022,-0.00
 000322,0.00000033,-0.00001277,0.00002871,0.00000811,-0.00000372,-0.000
 00174,-0.00000066,0.00000382,-0.00000530,-0.00000015,0.00000516,-0.000
 00008,-0.00000041,0.00000585,-0.00000068,-0.00000023,0.00000396,0.0000
 0589,-0.00000036,0.00000403,0.00000872,-0.00000183,0.00005585,0.000007
 18,-0.00002619,0.00026807,0.00030820,0.00000639,-0.13450800,0.26111080
 ,-0.00000246,-0.00000260,0.00000178,0.00001114,-0.00000301,-0.00003908
 ,-0.00000622,-0.00000921,-0.00001268,-0.00000214,0.00001039,-0.0000219
 5,-0.00000075,0.00000149,-0.00000521,0.00000067,-0.00000124,0.00000180
 ,0.00002405,0.00000682,0.00008065,-0.00001581,-0.00004369,0.00020094,-
 0.00003590,-0.00001072,0.00002711,0.00002426,-0.00000433,0.00002488,0.
 00013619,-0.00106571,0.00556641,-0.00094020,-0.00000761,0.00292123,-0.
 00021078,0.00019578,-0.00342938,0.00003266,0.00003639,-0.00010050,0.00
 034418,0.00040116,-0.00086755,-0.00051918,-0.00103800,0.00760821,0.001
 71295,-0.00284085,0.00343400,0.01529264,-0.02296979,-0.03833374,0.0000
 0107,-0.00000482,0.00000711,0.00000577,0.00000344,-0.00000421,-0.00000
 549,0.00000441,-0.00000389,0.00000399,-0.00000901,0.00000838,-0.000006
 32,0.00004412,0.00000704,-0.00000042,0.00000029,0.00000197,0.00000038,
 -0.00000038,0.00000220,0.00000059,-0.00000003,0.00000117,0.00000068,-0
 .00000013,0.00000158,0.00000073,0.00000075,0.00000031,0.00000245,0.000
 00137,0.00001307,0.00002149,-0.00000708,0.00018854,0.00005502,0.000020
 64,0.00028180,-0.01584199,0.02660145,0.02770999,-0.00004003,-0.0001710
 5,-0.00002313,0.00035665,-0.00002081,-0.00000124,-0.00023383,0.0001715
 5,0.00007759,-0.00013214,0.00026079,0.00000270,-0.00002328,0.00017567,
 -0.00001331,0.00015535,-0.00005090,0.00000132,-0.00005080,-0.00008523,
 -0.00029508,0.00052826,-0.00013597,-0.00012192,0.00009778,0.00021786,0
 .00001805,0.00019776,-0.00001782,-0.00001175,0.01215677,-0.01264382,-0
 .00207028,-0.00099855,-0.00321275,-0.00007971,0.00055520,-0.00060608,-
 0.00003944,0.00020353,-0.00012734,-0.00000691,-0.13918158,0.12895395,0
 .02438587,-0.01367765,0.02792191,0.00451150,-0.00529487,-0.00169720,-0
 .00006327,-0.00050399,-0.00094516,-0.00016415,0.00002859,0.00014553,0.
 00000582,-0.00014057,-0.00006995,-0.00001229,0.00012282,-0.00004912,0.
 00001805,-0.00062385,0.00033538,0.00014468,-0.00399425,0.00084614,-0.0
 0064555,-0.00000442,-0.00001300,0.00000735,0.00001308,-0.00001190,0.00
 000048,0.00001165,-0.00000051,0.00000199,0.00001229,0.00000561,0.00000
 103,0.00001407,0.00000823,-0.00000382,0.00001441,0.00001219,0.00000105
 ,-0.00001994,0.00001603,-0.00000006,-0.00010038,-0.00026270,-0.0000291
 7,0.00006304,0.00007734,0.00000469,0.15397255,-0.00003185,-0.00005105,
 -0.00001825,0.00022525,-0.00015836,-0.00003010,-0.00036603,0.00003718,
 0.00012091,-0.00010739,0.00018380,0.00000889,-0.00000866,0.00009900,0.
 00000480,0.00009290,-0.00002929,-0.00000575,-0.00117747,0.00049585,-0.
 00019606,0.00131278,0.00035943,0.00064667,0.00001174,-0.00010806,0.000
 06373,0.00014514,-0.00001574,-0.00002158,0.01660766,-0.01806344,-0.003
 47400,-0.00410289,-0.00284435,-0.00145638,0.00132952,-0.00063268,-0.00
 008214,0.00002529,-0.00003262,0.00000740,0.12746246,-0.25871135,-0.040
 58463,-0.00353809,0.00562716,0.00023573,-0.00098185,0.00159252,-0.0011
 5368,-0.00074399,0.00011091,0.00019573,-0.00000233,0.00006099,-0.00000
 514,-0.00005968,-0.00004739,0.00001015,0.00008846,0.00003915,-0.000000
 17,0.00025174,0.00020092,-0.00001681,0.00243579,-0.00167638,0.00058931
 ,-0.00000408,-0.00001724,-0.00000288,0.00001186,-0.00000435,-0.0000021
 2,0.00000387,-0.00000008,-0.00000084,0.00000472,0.00000643,0.00000513,
 0.00000493,0.00000128,-0.00000452,0.00000428,0.00000255,-0.00000715,-0
 .00005307,0.00000556,-0.00000347,-0.00018955,-0.00040286,0.00000049,0.
 00011507,-0.00003743,0.00016808,-0.14197681,0.27268799,0.00010836,-0.0
 0003234,0.00006379,0.00010167,-0.00002595,-0.00000371,0.00005513,0.000
 13459,-0.00003303,-0.00002016,0.00003248,-0.00001099,-0.00002817,0.000
 00478,0.00001143,0.00002160,0.00001927,-0.00000377,-0.00019445,-0.0000
 9341,-0.00003510,-0.00032967,0.00029010,-0.00262440,0.00024297,0.00033
 315,-0.00012579,-0.00008669,0.00004228,0.00011599,0.00338012,-0.002013
 44,0.00256478,-0.00055247,-0.00098917,0.00573493,0.00025836,-0.0001372
 6,0.00015699,0.00004700,-0.00006605,-0.00011051,0.02401584,-0.04133261
 ,-0.04334464,-0.00046217,-0.00020962,0.00450631,-0.00013453,-0.0007899
 6,0.00794402,-0.00026370,0.00007095,-0.00094820,0.00000952,0.00010586,
 -0.00000893,-0.00009174,-0.00004500,-0.00000992,0.00006414,-0.00003184
 ,-0.00002930,0.00004155,0.00039506,-0.00019295,-0.00083559,-0.00094764
 ,0.00022388,-0.00001004,0.00000174,0.00002499,0.00000832,-0.00000448,0
 .00000913,0.00000472,0.00000321,0.00000002,0.00000665,0.00000574,-0.00
 001411,0.00000382,0.00000309,0.00000244,0.00000015,0.00000085,0.000011
 58,-0.00001018,-0.00000029,0.00002189,-0.00004461,-0.00007926,0.000037
 38,0.00000490,0.00008840,-0.00100526,-0.02385555,0.04314155,0.03093750
 ,0.00000852,0.00001154,0.00000168,-0.00002151,-0.00001646,0.00000208,0
 .00001878,0.00009346,-0.00000373,-0.00000252,-0.00003132,-0.00000130,-
 0.00001783,0.00000212,-0.00000161,0.00001636,0.00001019,0.00000077,-0.
 00000798,0.00011784,0.00003002,0.00037596,-0.00149781,-0.00017340,-0.0
 0039432,-0.00000740,-0.00002146,-0.00004739,-0.00016184,0.00001138,-0.
 00539978,0.00109900,0.00016843,-0.00092510,0.00046786,0.00010928,0.000
 31910,0.00009522,-0.00000602,-0.00019338,0.00012965,0.00000355,-0.0097
 4475,-0.02961588,-0.00429850,-0.11027908,-0.10615532,-0.01464611,0.011
 54998,0.01711919,0.00243974,-0.00147530,0.00329892,0.00045891,-0.00000
 890,0.00000469,-0.00000004,-0.00001291,0.00001306,0.00000157,-0.000014
 80,-0.00002933,0.00000325,-0.00000257,0.00005539,-0.00000999,-0.000068
 10,-0.00015922,0.00001803,-0.00000322,0.00001566,-0.00000350,-0.000004
 60,0.00000343,-0.00000073,-0.00000230,0.00000232,-0.00000054,-0.000003
 04,0.00000180,-0.00000019,-0.00000191,-0.00000324,-0.00000046,-0.00005
 286,-0.00001625,0.00000383,0.00000278,-0.00001735,0.00000174,-0.000012
 55,-0.00007764,-0.00000588,0.00037428,0.00090497,0.00003725,0.00102690
 ,0.00025465,-0.00001279,0.11427382,-0.00002458,-0.00000397,-0.00000027
 ,-0.00000806,-0.00003709,-0.00000334,-0.00004290,0.00001011,0.00001069
 ,-0.00003384,0.00002446,-0.00000273,-0.00001714,0.00002007,0.00000015,
 0.00003386,0.00000927,0.00000036,0.00001126,-0.00004066,-0.00002775,0.
 00010948,-0.00003216,-0.00003587,-0.00017362,0.00005045,0.00006262,0.0
 0008106,-0.00001134,-0.00000041,0.00030971,0.00189288,-0.00088303,0.00
 069641,0.00040601,0.00011744,-0.00012659,-0.00003876,0.00014710,0.0000
 5441,-0.00001308,-0.00002919,0.00147737,0.00153970,-0.00027389,-0.1068
 5704,-0.27852227,-0.03472227,-0.01374752,-0.01785391,-0.00291596,0.004
 22824,-0.00238555,-0.00126123,-0.00000837,-0.00001070,0.00000262,0.000
 01026,0.00001017,-0.00000201,-0.00001897,0.00000065,0.00000290,0.00003
 162,0.00000159,0.00000760,-0.00000495,0.00000977,-0.00001775,0.0000027
 6,0.00000565,-0.00000082,-0.00000441,0.00000562,-0.00000115,-0.0000050
 4,0.00000050,-0.00000012,-0.00000556,0.00000156,-0.00000018,-0.0000031
 6,-0.00000556,-0.00000032,-0.00000562,-0.00000563,0.00000632,-0.000018
 97,-0.00001251,-0.00001099,0.00002320,0.00004327,-0.00000124,-0.000685
 87,-0.00099660,-0.00007757,-0.00026031,0.00078261,0.00084152,0.1147241
 2,0.29435308,0.00000077,-0.00002076,0.00000980,-0.00001408,-0.00000648
 ,0.00000869,0.00001580,-0.00001362,-0.00002085,-0.00001492,0.00003276,
 0.00000341,-0.00000223,0.00001383,-0.00000517,0.00001640,0.00000017,-0
 .00000317,0.00000314,-0.00014405,0.00012023,-0.00029874,0.00004760,0.0
 0030089,-0.00015125,0.00010331,-0.00044868,0.00010848,0.00001739,-0.00
 000754,0.00063958,-0.00041917,0.00799851,0.00045756,0.00024022,-0.0008
 0268,-0.00022948,-0.00007901,-0.00092168,0.00021640,-0.00011798,0.0001
 3935,-0.00064663,-0.00040556,0.00339300,-0.01389879,-0.03535373,-0.041
 02908,-0.00235377,-0.00240868,0.00256794,0.00049468,-0.00138797,0.0057
 4742,0.00000216,0.00000778,-0.00000463,0.00000461,0.00001100,0.0000008
 1,-0.00001491,0.00000950,-0.00001295,0.00002636,-0.00002325,-0.0000546
 5,-0.00010678,0.00013964,0.00003408,-0.00000073,0.00000361,0.00000387,
 -0.00000066,0.00000062,0.00000587,-0.00000018,0.00000033,0.00000015,-0
 .00000024,0.00000078,0.00000283,0.00000017,-0.00000011,0.00000097,0.00
 000413,0.00000136,-0.00002753,0.00000313,-0.00000293,0.00007191,0.0000
 0723,0.00000472,0.00004107,-0.00013384,-0.00022283,0.00019914,-0.00009
 079,0.00095868,-0.00475507,0.01601412,0.03847100,0.03048583,-0.0000025
 7,0.00000400,0.00000191,-0.00005014,0.00000180,0.00000219,0.00000543,0
 .00001177,0.00000096,-0.00000251,-0.00000169,-0.00000232,-0.00000612,0
 .00000609,0.00000085,0.00001444,0.00001302,-0.00000227,-0.00000845,0.0
 0001889,-0.00000029,0.00002939,-0.00002590,-0.00001993,-0.00001342,-0.
 00001088,-0.00000869,0.00002550,0.00000946,0.00000758,0.00057791,0.000
 11783,0.00000880,0.00141698,-0.00238410,-0.00015450,-0.00063101,0.0003
 8858,0.00004099,-0.00001131,-0.00035078,-0.00002398,0.00029867,0.00345
 239,0.00063905,-0.01281631,-0.00428558,-0.00039374,-0.33421816,-0.0201
 3851,0.00180896,-0.00984488,0.00163942,0.00034460,-0.00000209,0.000007
 05,-0.00000106,-0.00001464,0.00000337,0.00000047,0.00000562,-0.0000263
 2,0.00000081,-0.00001765,0.00001124,-0.00000423,-0.00000099,0.00004472
 ,-0.00002345,0.00000477,0.00000415,0.00000006,-0.00000552,0.00000605,0
 .,-0.00000633,0.00000098,0.00000012,-0.00000741,0.00000090,-0.00000016
 ,-0.00000294,-0.00000621,0.00000017,-0.00000143,-0.00000615,0.00000081
 ,-0.00007750,-0.00000552,0.00000670,0.00001305,-0.00003407,-0.00000437
 ,0.00081142,-0.00027540,-0.00010541,-0.00070982,-0.00026323,-0.0000450
 2,0.00076712,0.00027420,-0.00002984,0.35449504,0.00001150,0.00000993,-
 0.00000374,0.00001612,0.00000527,-0.00000423,0.00000851,0.00005437,0.0
 0000246,0.00001991,-0.00004402,0.00000194,0.00000147,-0.00000621,0.000
 00030,-0.00000652,0.00000455,-0.00000114,-0.00010049,0.00013587,-0.000
 00335,0.00026160,0.00009523,0.00013367,0.00026615,-0.00015400,-0.00004
 508,-0.00011634,0.00003395,-0.00000188,-0.00024765,-0.00109526,-0.0000
 5113,-0.00163127,-0.00486953,-0.00139138,-0.00104064,0.00068585,0.0000
 1776,-0.00033375,-0.00038704,0.00005915,0.00261303,-0.00399182,-0.0014
 7930,0.02650318,0.00662283,0.00021006,-0.01964348,-0.06038869,-0.00270
 182,-0.02944380,0.00265310,0.00022353,-0.00000128,0.00001205,-0.000000
 19,-0.00001764,-0.00000717,0.00000233,0.00001399,-0.00001147,0.0000000
 9,-0.00002169,0.00004635,0.00000259,0.00003223,-0.00016909,0.00004110,
 -0.00000086,0.00000060,-0.00000082,0.00000087,-0.00000005,-0.00000031,
 -0.00000012,0.00000035,-0.00000005,-0.00000048,0.00000067,0.00000076,0
 .00000066,-0.00000050,-0.00000037,0.00000737,0.00000234,0.00000010,-0.
 00014532,-0.00001975,0.00001891,0.00002393,-0.00003651,-0.00001932,0.0
 0048082,0.00088763,0.00060253,0.00124337,0.00013288,0.00000047,-0.0006
 2784,0.00082105,0.00056734,0.02185424,0.05890829,0.00002088,-0.0000117
 4,0.00000699,-0.00001530,0.00001304,-0.00000282,0.00001068,0.00000084,
 0.00003037,-0.00000351,0.00000651,-0.00000831,-0.00000956,-0.00000761,
 0.00000149,-0.00000468,0.00000592,0.00000706,-0.00005784,-0.00001209,0
 .00002896,-0.00004195,0.00010756,-0.00092549,0.00006369,0.00003402,0.0
 0013370,-0.00003009,0.00000968,0.00003748,0.00002360,-0.00017226,-0.00
 085296,-0.00024827,-0.00124312,0.00815656,-0.00019656,0.00001767,0.000
 16327,-0.00002005,-0.00001553,-0.00046508,0.00038437,-0.00141320,0.005
 84651,0.00361772,0.00040983,0.00304919,0.00166499,-0.00278739,-0.03710
 951,-0.00316629,0.00009621,0.00370493,0.00000661,0.00001963,-0.0000010
 8,-0.00002287,-0.00000631,-0.00000265,0.00002080,-0.00001477,-0.000001
 91,-0.00003654,0.00001926,-0.00003883,0.00002159,-0.00007574,0.0000020
 7,-0.00000006,0.00000089,0.00000353,0.00000022,-0.00000036,0.00000194,
 0.00000020,0.00000072,0.00000129,0.00000048,0.00000006,-0.00000448,-0.
 00000055,0.00000035,0.00000108,-0.00000021,0.00000149,-0.00000257,-0.0
 0001335,-0.00000136,-0.00000056,0.00001271,-0.00000868,0.00008536,0.00
 000869,0.00057539,-0.00447032,0.00018017,-0.00001545,0.00007013,-0.000
 10705,0.00059997,-0.00311505,-0.00206585,0.00384484,0.02561553,0.00035
 966,-0.00157637,0.00010060,-0.00468681,0.00171831,0.00027346,-0.000057
 11,0.00138848,0.00035070,0.00016118,0.00003597,0.00009645,-0.00036907,
 0.00025074,-0.00000985,0.00007335,-0.00007438,-0.00003884,0.00535395,0
 .00321933,-0.00070989,-0.00061544,-0.00002490,-0.00020496,-0.00010617,
 -0.00022241,0.00004759,0.00018899,0.00000388,0.00000498,0.00062499,0.0
 0029751,0.00009139,-0.00007570,0.00002315,0.00007905,-0.00000834,-0.00
 005837,-0.00000678,0.00001256,-0.00001342,-0.00000492,-0.00228436,0.00
 019103,-0.00080196,-0.00012090,0.00035762,0.00006821,-0.00013078,-0.00
 006282,0.00004076,0.00001986,-0.00001141,0.00000028,0.00007061,0.00037
 680,-0.00000548,-0.00038443,0.00014885,-0.00006639,0.00099611,-0.00035
 549,-0.00016893,-0.01123062,-0.01753938,0.00243675,-0.24790930,-0.1397
 9073,0.02857294,-0.00020692,0.00073748,0.00003009,-0.00007342,0.000030
 65,0.00000723,-0.00002601,0.00005526,0.00000636,-0.00007121,-0.0001358
 1,-0.00001485,0.00002976,-0.00000964,-0.00001151,0.00001045,-0.0000233
 3,-0.00000382,0.00000071,-0.00000476,-0.00000169,-0.00000174,-0.000002
 30,-0.00000056,-0.00000228,-0.00000021,-0.00001976,-0.00380075,0.00321
 887,-0.00139728,-0.00003691,-0.00001546,-0.00002684,-0.00001414,0.0000
 2021,0.00000321,0.26431024,0.00011787,0.00079352,0.00007004,0.00305382
 ,-0.00123407,0.00027847,0.00012585,-0.00593873,0.00051031,-0.00141683,
 0.00084340,0.00003931,0.00018768,-0.00005960,-0.00001392,-0.00001354,-
 0.00047779,-0.00001508,-0.02240184,-0.00352767,0.00226306,0.00000297,0
 .00045820,-0.00023651,0.00024944,-0.00009513,-0.00008716,0.00003653,-0
 .00004318,0.00002317,-0.00042740,-0.00035096,0.00009076,0.00021943,0.0
 0002579,0.00009114,0.00005693,-0.00002149,-0.00000974,-0.00013161,0.00
 009548,0.00001195,0.00036929,-0.00105636,-0.00063184,0.00003440,0.0006
 7567,0.00002316,-0.00006751,-0.00002711,0.00005020,-0.00006957,0.00010
 736,0.00000239,0.00002945,0.00020786,-0.00000524,-0.00036279,-0.000184
 73,0.00000885,-0.00046504,0.00049122,-0.00011374,0.00933771,0.01118960
 ,-0.00142125,-0.13784214,-0.15747267,0.02154822,-0.00028778,-0.0003513
 1,0.00005205,0.00000048,-0.00000952,0.00000021,-0.00000955,-0.00000965
 ,0.00000360,0.00002815,0.00008670,-0.00001868,-0.00017334,-0.00000542,
 -0.00000956,0.00001959,-0.00004879,0.00000636,0.00002189,-0.00002925,-
 0.00000007,0.00001822,0.00002841,-0.00000565,0.00000931,0.00001691,-0.
 00000331,0.00196688,0.00040647,0.00128322,-0.00000820,-0.00001869,-0.0
 0002552,-0.00005581,0.00006795,0.00002173,0.14784705,0.15546756,-0.000
 20310,0.00030906,0.00076217,0.00022426,0.00054209,0.00284309,0.0005895
 1,0.00054890,0.00402235,0.00028451,-0.00046412,0.00069942,0.00004734,-
 0.00013706,-0.00018561,-0.00010811,0.00011945,-0.00025667,0.00101707,-
 0.00171933,0.00163039,-0.00046535,0.00043762,-0.00180187,-0.00035864,-
 0.00019682,-0.00020004,0.00004929,0.00018041,0.00008819,0.00022974,0.0
 0023364,0.00018306,0.00007330,-0.00010729,0.00021520,-0.00007544,-0.00
 003736,-0.00001244,0.00008499,-0.00003928,0.00000652,-0.00025403,0.000
 32993,-0.00003306,0.00023077,-0.00020022,-0.00024665,0.00000585,0.0001
 8085,-0.00005444,-0.00012470,-0.00007506,-0.00003877,0.00006135,-0.000
 18168,0.00013390,0.00007690,-0.00003260,-0.00030466,0.00001334,-0.0002
 6553,-0.00140259,-0.00107980,0.00058585,0.00237691,0.03015191,0.022876
 71,-0.02856211,0.00005867,-0.00000101,0.00036010,0.00000472,0.00000291
 ,0.00002670,0.00000405,-0.00000697,0.00004566,0.00000173,-0.00000102,-
 0.00016475,0.00001835,-0.00000069,-0.00015054,0.00000085,0.00001109,0.
 00005043,-0.00000458,0.00000684,0.00000574,-0.00000456,-0.00000606,-0.
 00001813,-0.00000731,-0.00000823,0.00000445,-0.00183493,0.00092388,0.0
 0081849,-0.00001233,-0.00000219,0.00007296,0.00002008,-0.00002581,0.00
 005418,-0.02871571,-0.02378093,0.01903242\\0.00000024,0.00000078,0.000
 00115,0.00000049,0.00000067,0.00000245,-0.00000006,0.00000025,0.000001
 91,-0.00000012,0.00000051,0.00000271,0.00000008,0.00000099,0.00000245,
 -0.00000028,0.00000087,0.00000311,0.00000009,0.00000019,0.00000008,-0.
 00000030,-0.00000026,-0.00000015,-0.00000041,-0.00000003,0.00000165,-0
 .00000055,0.00000029,0.00000261,0.00000003,-0.00000041,-0.00000087,-0.
 00000039,-0.00000088,0.00000004,-0.00000073,-0.00000068,0.00000130,-0.
 00000084,-0.00000040,0.00000267,0.00000026,-0.00000050,-0.00000299,0.0
 0000041,-0.00000076,-0.00000366,-0.00000011,-0.00000100,-0.00000311,-0
 .00000042,-0.00000105,-0.00000145,0.00000051,0.00000083,-0.00000026,0.
 00000069,0.00000064,-0.00000171,0.00000069,0.00000020,-0.00000344,0.00
 000044,0.00000029,-0.00000001,0.00000012,-0.00000027,-0.00000396,0.000
 00083,0.00000012,-0.00000365,0.00000089,0.00000073,-0.00000209,0.00000
 054,0.00000115,0.00000103,0.00000004,0.00000129,0.00000401,-0.00000037
 ,0.00000103,0.00000519,-0.00000069,0.00000036,0.00000452,-0.00000098,-
 0.00000028,0.00000391,-0.00000100,-0.00000097,0.00000215,-0.00000067,-
 0.00000131,-0.00000075,0.00000057,-0.00000007,-0.00000342,0.00000060,-
 0.00000067,-0.00000516,-0.00000005,-0.00000132,-0.00000384,0.00000046,
 -0.00000035,-0.00000240\\\@


 WORK FAITHFULLY FOR EIGHT HOURS A DAY AND DON'T WORRY.
 IN TIME YOU MAY BECOME BOSS AND WORK TWELVE HOURS A DAY
 AND HAVE ALL THE WORRY.
 Job cpu time:       0 days 22 hours 54 minutes 46.2 seconds.
 Elapsed time:       0 days  1 hours  8 minutes 56.3 seconds.
 File lengths (MBytes):  RWF=   2091 Int=      0 D2E=      0 Chk=     44 Scr=      1
 Normal termination of Gaussian 16 at Tue Jun 18 16:04:49 2019.
