 Entering Gaussian System, Link 0=/share/apps/gaussian16/g16/g16
 Initial command:
 /share/apps/gaussian16/g16/l1.exe "/home/amen01//scratch/603/Gau-33878.inp" -scrdir="/home/amen01//scratch/603/"
 Entering Link 1 = /share/apps/gaussian16/g16/l1.exe PID=     33879.
  
 Copyright (c) 1988-2017, Gaussian, Inc.  All Rights Reserved.
  
 This is part of the Gaussian(R) 16 program.  It is based on
 the Gaussian(R) 09 system (copyright 2009, Gaussian, Inc.),
 the Gaussian(R) 03 system (copyright 2003, Gaussian, Inc.),
 the Gaussian(R) 98 system (copyright 1998, Gaussian, Inc.),
 the Gaussian(R) 94 system (copyright 1995, Gaussian, Inc.),
 the Gaussian 92(TM) system (copyright 1992, Gaussian, Inc.),
 the Gaussian 90(TM) system (copyright 1990, Gaussian, Inc.),
 the Gaussian 88(TM) system (copyright 1988, Gaussian, Inc.),
 the Gaussian 86(TM) system (copyright 1986, Carnegie Mellon
 University), and the Gaussian 82(TM) system (copyright 1983,
 Carnegie Mellon University). Gaussian is a federally registered
 trademark of Gaussian, Inc.
  
 This software contains proprietary and confidential information,
 including trade secrets, belonging to Gaussian, Inc.
  
 This software is provided under written license and may be
 used, copied, transmitted, or stored only in accord with that
 written license.
  
 The following legend is applicable only to US Government
 contracts under FAR:
  
                    RESTRICTED RIGHTS LEGEND
  
 Use, reproduction and disclosure by the US Government is
 subject to restrictions as set forth in subparagraphs (a)
 and (c) of the Commercial Computer Software - Restricted
 Rights clause in FAR 52.227-19.
  
 Gaussian, Inc.
 340 Quinnipiac St., Bldg. 40, Wallingford CT 06492
  
  
 ---------------------------------------------------------------
 Warning -- This program may not be used in any manner that
 competes with the business of Gaussian, Inc. or will provide
 assistance to any competitor of Gaussian, Inc.  The licensee
 of this program is prohibited from giving any competitor of
 Gaussian, Inc. access to this program.  By using this program,
 the user acknowledges that Gaussian, Inc. is engaged in the
 business of creating and licensing software in the field of
 computational chemistry and represents and warrants to the
 licensee that it is not a competitor of Gaussian, Inc. and that
 it will not use this program in any manner prohibited above.
 ---------------------------------------------------------------
  

 Cite this work as:
 Gaussian 16, Revision B.01,
 M. J. Frisch, G. W. Trucks, H. B. Schlegel, G. E. Scuseria, 
 M. A. Robb, J. R. Cheeseman, G. Scalmani, V. Barone, 
 G. A. Petersson, H. Nakatsuji, X. Li, M. Caricato, A. V. Marenich, 
 J. Bloino, B. G. Janesko, R. Gomperts, B. Mennucci, H. P. Hratchian, 
 J. V. Ortiz, A. F. Izmaylov, J. L. Sonnenberg, D. Williams-Young, 
 F. Ding, F. Lipparini, F. Egidi, J. Goings, B. Peng, A. Petrone, 
 T. Henderson, D. Ranasinghe, V. G. Zakrzewski, J. Gao, N. Rega, 
 G. Zheng, W. Liang, M. Hada, M. Ehara, K. Toyota, R. Fukuda, 
 J. Hasegawa, M. Ishida, T. Nakajima, Y. Honda, O. Kitao, H. Nakai, 
 T. Vreven, K. Throssell, J. A. Montgomery, Jr., J. E. Peralta, 
 F. Ogliaro, M. J. Bearpark, J. J. Heyd, E. N. Brothers, K. N. Kudin, 
 V. N. Staroverov, T. A. Keith, R. Kobayashi, J. Normand, 
 K. Raghavachari, A. P. Rendell, J. C. Burant, S. S. Iyengar, 
 J. Tomasi, M. Cossi, J. M. Millam, M. Klene, C. Adamo, R. Cammi, 
 J. W. Ochterski, R. L. Martin, K. Morokuma, O. Farkas, 
 J. B. Foresman, and D. J. Fox, Gaussian, Inc., Wallingford CT, 2016.
 
 ******************************************
 Gaussian 16:  ES64L-G16RevB.01 20-Dec-2017
                24-Jun-2019 
 ******************************************
 %nprocshared=20
 Will use up to   20 processors via shared memory.
 %mem=100GB
 %chk=7-HACAsite2-2b.chk
 ------------------------------------------------------------------
 # opt=(modredundant) freq b3lyp/6-311+g(d,p) scf=xqc int=grid=fine
 ------------------------------------------------------------------
 1/18=120,19=15,26=3,38=1/1,3;
 2/9=110,12=2,17=6,18=5,40=1/2;
 3/5=4,6=6,7=111,11=2,25=1,30=1,71=1,74=-5,75=-4/1,2,3;
 4//1;
 5/5=2,8=3,13=1,38=5/2,8;
 6/7=2,8=2,9=2,10=2,28=1/1;
 7//1,2,3,16;
 1/18=20,19=15,26=3/3(2);
 2/9=110/2;
 99//99;
 2/9=110/2;
 3/5=4,6=6,7=111,11=2,25=1,30=1,71=1,74=-5,75=-4/1,2,3;
 4/5=5,16=3,69=1/1;
 5/5=2,8=3,13=1,38=5/2,8;
 7//1,2,3,16;
 1/18=20,19=15,26=3/3(-5);
 2/9=110/2;
 6/7=2,8=2,9=2,10=2,19=2,28=1/1;
 99/9=1/99;
 --------------
 7-HACAsite2-2b
 --------------
 Symbolic Z-matrix:
 Charge =  0 Multiplicity = 3
 C                    -8.90069  -0.3697    0. 
 C                    -7.63369   0.3371    0. 
 C                    -6.35939  -0.31858   0. 
 C                    -6.21797  -1.75722   0. 
 C                    -8.80017  -1.8405    0. 
 C                    -7.48085  -2.52234   0. 
 C                    -5.29289   0.68364   0. 
 C                    -3.90423   0.21312   0. 
 C                    -3.6828   -1.31034   0. 
 C                    -4.84288  -2.24177   0. 
 C                    -2.71527   1.06535   0. 
 C                    -1.31937   0.52561   0. 
 C                    -1.15566  -0.92408   0. 
 C                    -2.30242  -1.81129   0. 
 C                    -2.70833   2.48488   0. 
 C                    -1.72795   3.50537   0. 
 C                    -0.38885   2.93694   0. 
 C                    -0.18529   1.48146   0. 
 C                    -10.08645   0.49093   0. 
 C                    -9.9432    1.95957   0. 
 C                    -8.62282   2.61233   0. 
 C                    -7.43621   1.78422   0. 
 C                    -5.97626   2.00483   0. 
 H                    -8.54618   3.6911    0. 
 H                    -10.83507   2.57517   0. 
 H                    -11.07558   0.05121   0. 
 H                    -9.70268  -2.43888   0. 
 H                    -7.45017  -3.60493   0. 
 H                    -4.66193  -3.30962   0. 
 H                    -2.12823  -2.88119   0. 
 H                    -0.16004  -1.35096   0. 
 H                     0.82838   1.09832   0. 
 H                    -1.93847   4.56363   0. 
 H                     0.472     3.5943    0. 
 H                    -5.49274   2.96523   0. 
 
 The following ModRedundant input section has been read:
 

 GradGradGradGradGradGradGradGradGradGradGradGradGradGradGradGradGradGrad
 Berny optimization.
 Initialization pass.
                           ----------------------------
                           !    Initial Parameters    !
                           ! (Angstroms and Degrees)  !
 --------------------------                            --------------------------
 ! Name  Definition              Value          Derivative Info.                !
 --------------------------------------------------------------------------------
 ! R1    R(1,2)                  1.4508         estimate D2E/DX2                !
 ! R2    R(1,5)                  1.4742         estimate D2E/DX2                !
 ! R3    R(1,19)                 1.4652         estimate D2E/DX2                !
 ! R4    R(2,3)                  1.4331         estimate D2E/DX2                !
 ! R5    R(2,22)                 1.4605         estimate D2E/DX2                !
 ! R6    R(3,4)                  1.4456         estimate D2E/DX2                !
 ! R7    R(3,7)                  1.4635         estimate D2E/DX2                !
 ! R8    R(4,6)                  1.4766         estimate D2E/DX2                !
 ! R9    R(4,10)                 1.458          estimate D2E/DX2                !
 ! R10   R(5,6)                  1.4851         estimate D2E/DX2                !
 ! R11   R(5,27)                 1.0829         estimate D2E/DX2                !
 ! R12   R(6,28)                 1.083          estimate D2E/DX2                !
 ! R13   R(7,8)                  1.4662         estimate D2E/DX2                !
 ! R14   R(7,23)                 1.4875         estimate D2E/DX2                !
 ! R15   R(8,9)                  1.5395         estimate D2E/DX2                !
 ! R16   R(8,11)                 1.4628         estimate D2E/DX2                !
 ! R17   R(9,10)                 1.4877         estimate D2E/DX2                !
 ! R18   R(9,14)                 1.4685         estimate D2E/DX2                !
 ! R19   R(10,29)                1.0831         estimate D2E/DX2                !
 ! R20   R(11,12)                1.4966         estimate D2E/DX2                !
 ! R21   R(11,15)                1.4195         estimate D2E/DX2                !
 ! R22   R(12,13)                1.4589         estimate D2E/DX2                !
 ! R23   R(12,18)                1.4832         estimate D2E/DX2                !
 ! R24   R(13,14)                1.4499         estimate D2E/DX2                !
 ! R25   R(13,31)                1.0833         estimate D2E/DX2                !
 ! R26   R(14,30)                1.084          estimate D2E/DX2                !
 ! R27   R(15,16)                1.4151         estimate D2E/DX2                !
 ! R28   R(16,17)                1.4548         estimate D2E/DX2                !
 ! R29   R(16,33)                1.079          estimate D2E/DX2                !
 ! R30   R(17,18)                1.4696         estimate D2E/DX2                !
 ! R31   R(17,34)                1.0831         estimate D2E/DX2                !
 ! R32   R(18,32)                1.0837         estimate D2E/DX2                !
 ! R33   R(19,20)                1.4756         estimate D2E/DX2                !
 ! R34   R(19,26)                1.0825         estimate D2E/DX2                !
 ! R35   R(20,21)                1.4729         estimate D2E/DX2                !
 ! R36   R(20,25)                1.0837         estimate D2E/DX2                !
 ! R37   R(21,22)                1.447          estimate D2E/DX2                !
 ! R38   R(21,24)                1.0815         estimate D2E/DX2                !
 ! R39   R(22,23)                1.4765         estimate D2E/DX2                !
 ! R40   R(23,35)                1.0752         estimate D2E/DX2                !
 ! A1    A(2,1,5)              115.2454         estimate D2E/DX2                !
 ! A2    A(2,1,19)             114.8726         estimate D2E/DX2                !
 ! A3    A(5,1,19)             129.882          estimate D2E/DX2                !
 ! A4    A(1,2,3)              123.6172         estimate D2E/DX2                !
 ! A5    A(1,2,22)             126.9259         estimate D2E/DX2                !
 ! A6    A(3,2,22)             109.4569         estimate D2E/DX2                !
 ! A7    A(2,3,4)              122.8419         estimate D2E/DX2                !
 ! A8    A(2,3,7)              109.5521         estimate D2E/DX2                !
 ! A9    A(4,3,7)              127.6061         estimate D2E/DX2                !
 ! A10   A(3,4,6)              115.5955         estimate D2E/DX2                !
 ! A11   A(3,4,10)             115.0255         estimate D2E/DX2                !
 ! A12   A(6,4,10)             129.379          estimate D2E/DX2                !
 ! A13   A(1,5,6)              121.2402         estimate D2E/DX2                !
 ! A14   A(1,5,27)             119.6353         estimate D2E/DX2                !
 ! A15   A(6,5,27)             119.1245         estimate D2E/DX2                !
 ! A16   A(4,6,5)              121.4598         estimate D2E/DX2                !
 ! A17   A(4,6,28)             119.5864         estimate D2E/DX2                !
 ! A18   A(5,6,28)             118.9537         estimate D2E/DX2                !
 ! A19   A(3,7,8)              118.0618         estimate D2E/DX2                !
 ! A20   A(3,7,23)             105.8705         estimate D2E/DX2                !
 ! A21   A(8,7,23)             136.0677         estimate D2E/DX2                !
 ! A22   A(7,8,9)              116.9878         estimate D2E/DX2                !
 ! A23   A(7,8,11)             125.6496         estimate D2E/DX2                !
 ! A24   A(9,8,11)             117.3626         estimate D2E/DX2                !
 ! A25   A(8,9,10)             120.4912         estimate D2E/DX2                !
 ! A26   A(8,9,14)             118.2161         estimate D2E/DX2                !
 ! A27   A(10,9,14)            121.2928         estimate D2E/DX2                !
 ! A28   A(4,10,9)             121.8277         estimate D2E/DX2                !
 ! A29   A(4,10,29)            119.0288         estimate D2E/DX2                !
 ! A30   A(9,10,29)            119.1435         estimate D2E/DX2                !
 ! A31   A(8,11,12)            123.228          estimate D2E/DX2                !
 ! A32   A(8,11,15)            125.9125         estimate D2E/DX2                !
 ! A33   A(12,11,15)           110.8594         estimate D2E/DX2                !
 ! A34   A(11,12,13)           117.5825         estimate D2E/DX2                !
 ! A35   A(11,12,18)           118.7349         estimate D2E/DX2                !
 ! A36   A(13,12,18)           123.6826         estimate D2E/DX2                !
 ! A37   A(12,13,14)           121.2849         estimate D2E/DX2                !
 ! A38   A(12,13,31)           119.6506         estimate D2E/DX2                !
 ! A39   A(14,13,31)           119.0645         estimate D2E/DX2                !
 ! A40   A(9,14,13)            122.3259         estimate D2E/DX2                !
 ! A41   A(9,14,30)            119.1934         estimate D2E/DX2                !
 ! A42   A(13,14,30)           118.4808         estimate D2E/DX2                !
 ! A43   A(11,15,16)           136.4285         estimate D2E/DX2                !
 ! A44   A(15,16,17)           110.851          estimate D2E/DX2                !
 ! A45   A(15,16,33)           124.8974         estimate D2E/DX2                !
 ! A46   A(17,16,33)           124.2516         estimate D2E/DX2                !
 ! A47   A(16,17,18)           120.9622         estimate D2E/DX2                !
 ! A48   A(16,17,34)           119.6334         estimate D2E/DX2                !
 ! A49   A(18,17,34)           119.4044         estimate D2E/DX2                !
 ! A50   A(12,18,17)           122.164          estimate D2E/DX2                !
 ! A51   A(12,18,32)           119.1692         estimate D2E/DX2                !
 ! A52   A(17,18,32)           118.6669         estimate D2E/DX2                !
 ! A53   A(1,19,20)            120.4014         estimate D2E/DX2                !
 ! A54   A(1,19,26)            120.06           estimate D2E/DX2                !
 ! A55   A(20,19,26)           119.5386         estimate D2E/DX2                !
 ! A56   A(19,20,21)           121.8775         estimate D2E/DX2                !
 ! A57   A(19,20,25)           119.0438         estimate D2E/DX2                !
 ! A58   A(21,20,25)           119.0787         estimate D2E/DX2                !
 ! A59   A(20,21,22)           118.7831         estimate D2E/DX2                !
 ! A60   A(20,21,24)           120.3702         estimate D2E/DX2                !
 ! A61   A(22,21,24)           120.8467         estimate D2E/DX2                !
 ! A62   A(2,22,21)            117.1396         estimate D2E/DX2                !
 ! A63   A(2,22,23)            106.3637         estimate D2E/DX2                !
 ! A64   A(21,22,23)           136.4968         estimate D2E/DX2                !
 ! A65   A(7,23,22)            108.7569         estimate D2E/DX2                !
 ! A66   A(7,23,35)            125.927          estimate D2E/DX2                !
 ! A67   A(22,23,35)           125.3161         estimate D2E/DX2                !
 ! D1    D(5,1,2,3)              0.0            estimate D2E/DX2                !
 ! D2    D(5,1,2,22)           180.0            estimate D2E/DX2                !
 ! D3    D(19,1,2,3)           180.0            estimate D2E/DX2                !
 ! D4    D(19,1,2,22)            0.0            estimate D2E/DX2                !
 ! D5    D(2,1,5,6)              0.0            estimate D2E/DX2                !
 ! D6    D(2,1,5,27)           180.0            estimate D2E/DX2                !
 ! D7    D(19,1,5,6)           180.0            estimate D2E/DX2                !
 ! D8    D(19,1,5,27)            0.0            estimate D2E/DX2                !
 ! D9    D(2,1,19,20)            0.0            estimate D2E/DX2                !
 ! D10   D(2,1,19,26)          180.0            estimate D2E/DX2                !
 ! D11   D(5,1,19,20)          180.0            estimate D2E/DX2                !
 ! D12   D(5,1,19,26)            0.0            estimate D2E/DX2                !
 ! D13   D(1,2,3,4)              0.0            estimate D2E/DX2                !
 ! D14   D(1,2,3,7)            180.0            estimate D2E/DX2                !
 ! D15   D(22,2,3,4)           180.0            estimate D2E/DX2                !
 ! D16   D(22,2,3,7)             0.0            estimate D2E/DX2                !
 ! D17   D(1,2,22,21)            0.0            estimate D2E/DX2                !
 ! D18   D(1,2,22,23)          180.0            estimate D2E/DX2                !
 ! D19   D(3,2,22,21)          180.0            estimate D2E/DX2                !
 ! D20   D(3,2,22,23)            0.0            estimate D2E/DX2                !
 ! D21   D(2,3,4,6)              0.0            estimate D2E/DX2                !
 ! D22   D(2,3,4,10)           180.0            estimate D2E/DX2                !
 ! D23   D(7,3,4,6)            180.0            estimate D2E/DX2                !
 ! D24   D(7,3,4,10)             0.0            estimate D2E/DX2                !
 ! D25   D(2,3,7,8)            180.0            estimate D2E/DX2                !
 ! D26   D(2,3,7,23)             0.0            estimate D2E/DX2                !
 ! D27   D(4,3,7,8)              0.0            estimate D2E/DX2                !
 ! D28   D(4,3,7,23)           180.0            estimate D2E/DX2                !
 ! D29   D(3,4,6,5)              0.0            estimate D2E/DX2                !
 ! D30   D(3,4,6,28)           180.0            estimate D2E/DX2                !
 ! D31   D(10,4,6,5)           180.0            estimate D2E/DX2                !
 ! D32   D(10,4,6,28)            0.0            estimate D2E/DX2                !
 ! D33   D(3,4,10,9)             0.0            estimate D2E/DX2                !
 ! D34   D(3,4,10,29)          180.0            estimate D2E/DX2                !
 ! D35   D(6,4,10,9)           180.0            estimate D2E/DX2                !
 ! D36   D(6,4,10,29)            0.0            estimate D2E/DX2                !
 ! D37   D(1,5,6,4)              0.0            estimate D2E/DX2                !
 ! D38   D(1,5,6,28)           180.0            estimate D2E/DX2                !
 ! D39   D(27,5,6,4)           180.0            estimate D2E/DX2                !
 ! D40   D(27,5,6,28)            0.0            estimate D2E/DX2                !
 ! D41   D(3,7,8,9)              0.0            estimate D2E/DX2                !
 ! D42   D(3,7,8,11)           180.0            estimate D2E/DX2                !
 ! D43   D(23,7,8,9)           180.0            estimate D2E/DX2                !
 ! D44   D(23,7,8,11)            0.0            estimate D2E/DX2                !
 ! D45   D(3,7,23,22)            0.0            estimate D2E/DX2                !
 ! D46   D(3,7,23,35)          180.0            estimate D2E/DX2                !
 ! D47   D(8,7,23,22)          180.0            estimate D2E/DX2                !
 ! D48   D(8,7,23,35)            0.0            estimate D2E/DX2                !
 ! D49   D(7,8,9,10)             0.0            estimate D2E/DX2                !
 ! D50   D(7,8,9,14)           180.0            estimate D2E/DX2                !
 ! D51   D(11,8,9,10)          180.0            estimate D2E/DX2                !
 ! D52   D(11,8,9,14)            0.0            estimate D2E/DX2                !
 ! D53   D(7,8,11,12)          180.0            estimate D2E/DX2                !
 ! D54   D(7,8,11,15)            0.0            estimate D2E/DX2                !
 ! D55   D(9,8,11,12)            0.0            estimate D2E/DX2                !
 ! D56   D(9,8,11,15)          180.0            estimate D2E/DX2                !
 ! D57   D(8,9,10,4)             0.0            estimate D2E/DX2                !
 ! D58   D(8,9,10,29)          180.0            estimate D2E/DX2                !
 ! D59   D(14,9,10,4)          180.0            estimate D2E/DX2                !
 ! D60   D(14,9,10,29)           0.0            estimate D2E/DX2                !
 ! D61   D(8,9,14,13)            0.0            estimate D2E/DX2                !
 ! D62   D(8,9,14,30)          180.0            estimate D2E/DX2                !
 ! D63   D(10,9,14,13)         180.0            estimate D2E/DX2                !
 ! D64   D(10,9,14,30)           0.0            estimate D2E/DX2                !
 ! D65   D(8,11,12,13)           0.0            estimate D2E/DX2                !
 ! D66   D(8,11,12,18)         180.0            estimate D2E/DX2                !
 ! D67   D(15,11,12,13)        180.0            estimate D2E/DX2                !
 ! D68   D(15,11,12,18)          0.0            estimate D2E/DX2                !
 ! D69   D(8,11,15,16)         180.0            estimate D2E/DX2                !
 ! D70   D(12,11,15,16)          0.0            estimate D2E/DX2                !
 ! D71   D(11,12,13,14)          0.0            estimate D2E/DX2                !
 ! D72   D(11,12,13,31)        180.0            estimate D2E/DX2                !
 ! D73   D(18,12,13,14)        180.0            estimate D2E/DX2                !
 ! D74   D(18,12,13,31)          0.0            estimate D2E/DX2                !
 ! D75   D(11,12,18,17)          0.0            estimate D2E/DX2                !
 ! D76   D(11,12,18,32)        180.0            estimate D2E/DX2                !
 ! D77   D(13,12,18,17)        180.0            estimate D2E/DX2                !
 ! D78   D(13,12,18,32)          0.0            estimate D2E/DX2                !
 ! D79   D(12,13,14,9)           0.0            estimate D2E/DX2                !
 ! D80   D(12,13,14,30)        180.0            estimate D2E/DX2                !
 ! D81   D(31,13,14,9)         180.0            estimate D2E/DX2                !
 ! D82   D(31,13,14,30)          0.0            estimate D2E/DX2                !
 ! D83   D(11,15,16,17)          0.0            estimate D2E/DX2                !
 ! D84   D(11,15,16,33)        180.0            estimate D2E/DX2                !
 ! D85   D(15,16,17,18)          0.0            estimate D2E/DX2                !
 ! D86   D(15,16,17,34)        180.0            estimate D2E/DX2                !
 ! D87   D(33,16,17,18)        180.0            estimate D2E/DX2                !
 ! D88   D(33,16,17,34)          0.0            estimate D2E/DX2                !
 ! D89   D(16,17,18,12)          0.0            estimate D2E/DX2                !
 ! D90   D(16,17,18,32)        180.0            estimate D2E/DX2                !
 ! D91   D(34,17,18,12)        180.0            estimate D2E/DX2                !
 ! D92   D(34,17,18,32)          0.0            estimate D2E/DX2                !
 ! D93   D(1,19,20,21)           0.0            estimate D2E/DX2                !
 ! D94   D(1,19,20,25)         180.0            estimate D2E/DX2                !
 ! D95   D(26,19,20,21)        180.0            estimate D2E/DX2                !
 ! D96   D(26,19,20,25)          0.0            estimate D2E/DX2                !
 ! D97   D(19,20,21,22)          0.0            estimate D2E/DX2                !
 ! D98   D(19,20,21,24)        180.0            estimate D2E/DX2                !
 ! D99   D(25,20,21,22)        180.0            estimate D2E/DX2                !
 ! D100  D(25,20,21,24)          0.0            estimate D2E/DX2                !
 ! D101  D(20,21,22,2)           0.0            estimate D2E/DX2                !
 ! D102  D(20,21,22,23)        180.0            estimate D2E/DX2                !
 ! D103  D(24,21,22,2)         180.0            estimate D2E/DX2                !
 ! D104  D(24,21,22,23)          0.0            estimate D2E/DX2                !
 ! D105  D(2,22,23,7)            0.0            estimate D2E/DX2                !
 ! D106  D(2,22,23,35)         180.0            estimate D2E/DX2                !
 ! D107  D(21,22,23,7)         180.0            estimate D2E/DX2                !
 ! D108  D(21,22,23,35)          0.0            estimate D2E/DX2                !
 --------------------------------------------------------------------------------
 Trust Radius=3.00D-01 FncErr=1.00D-07 GrdErr=1.00D-06 EigMax=2.50D+02 EigMin=1.00D-04
 Number of steps in this run=    210 maximum allowed number of steps=    210.
 GradGradGradGradGradGradGradGradGradGradGradGradGradGradGradGradGradGrad

                          Input orientation:                          
 ---------------------------------------------------------------------
 Center     Atomic      Atomic             Coordinates (Angstroms)
 Number     Number       Type             X           Y           Z
 ---------------------------------------------------------------------
      1          6           0       -8.900690   -0.369700    0.000000
      2          6           0       -7.633690    0.337100    0.000000
      3          6           0       -6.359390   -0.318580    0.000000
      4          6           0       -6.217970   -1.757220    0.000000
      5          6           0       -8.800170   -1.840500    0.000000
      6          6           0       -7.480850   -2.522340    0.000000
      7          6           0       -5.292890    0.683640    0.000000
      8          6           0       -3.904230    0.213120    0.000000
      9          6           0       -3.682800   -1.310340    0.000000
     10          6           0       -4.842880   -2.241770    0.000000
     11          6           0       -2.715270    1.065350    0.000000
     12          6           0       -1.319370    0.525610    0.000000
     13          6           0       -1.155660   -0.924080    0.000000
     14          6           0       -2.302420   -1.811290    0.000000
     15          6           0       -2.708330    2.484880    0.000000
     16          6           0       -1.727950    3.505370    0.000000
     17          6           0       -0.388850    2.936940    0.000000
     18          6           0       -0.185290    1.481460    0.000000
     19          6           0      -10.086450    0.490930    0.000000
     20          6           0       -9.943200    1.959570    0.000000
     21          6           0       -8.622820    2.612330    0.000000
     22          6           0       -7.436210    1.784220    0.000000
     23          6           0       -5.976260    2.004830    0.000000
     24          1           0       -8.546180    3.691100    0.000000
     25          1           0      -10.835070    2.575170    0.000000
     26          1           0      -11.075580    0.051210    0.000000
     27          1           0       -9.702680   -2.438880    0.000000
     28          1           0       -7.450170   -3.604930    0.000000
     29          1           0       -4.661930   -3.309620    0.000000
     30          1           0       -2.128230   -2.881190    0.000000
     31          1           0       -0.160040   -1.350960    0.000000
     32          1           0        0.828380    1.098320    0.000000
     33          1           0       -1.938470    4.563630    0.000000
     34          1           0        0.472000    3.594300    0.000000
     35          1           0       -5.492740    2.965230    0.000000
 ---------------------------------------------------------------------
                    Distance matrix (angstroms):
                    1          2          3          4          5
     1  C    0.000000
     2  C    1.450812   0.000000
     3  C    2.541814   1.433093   0.000000
     4  C    3.020298   2.527932   1.445574   0.000000
     5  C    1.474231   2.470348   2.876395   2.583543   0.000000
     6  C    2.578722   2.863522   2.472697   1.476575   1.485096
     7  C    3.758423   2.366312   1.463512   2.610282   4.321145
     8  C    5.030337   3.731520   2.512074   3.039018   5.309198
     9  C    5.301998   4.280606   2.854421   2.574255   5.144759
    10  C    4.468833   3.799894   2.449176   1.457965   3.977582
    11  C    6.349708   4.972042   3.898060   4.498423   6.743143
    12  C    7.634002   6.317133   5.110231   5.404405   7.846072
    13  C    7.764846   6.599655   5.238839   5.130410   7.699244
    14  C    6.753914   5.747871   4.322868   3.915923   6.497816
    15  C    6.818647   5.373279   4.603219   5.505723   7.471240
    16  C    8.152568   6.701918   6.006066   6.917740   8.865361
    17  C    9.131555   7.697199   6.800423   7.484235   9.673378
    18  C    8.909826   7.535796   6.431147   6.847063   9.233178
    19  C    1.465166   2.457579   3.813959   4.474295   2.662721
    20  C    2.551926   2.822454   4.246606   5.262306   3.968255
    21  C    2.994948   2.480937   3.703154   4.987612   4.456360
    22  C    2.604625   1.460532   2.362479   3.745118   3.872852
    23  C    3.767052   2.351254   2.354787   3.769807   4.770852
    24  H    4.076245   3.475911   4.567229   5.924926   5.537428
    25  H    3.523363   3.906122   5.329681   6.331447   4.861991
    26  H    2.215245   3.453743   4.730665   5.183319   2.959064
    27  H    2.219165   3.462194   3.958947   3.550755   1.082859
    28  H    3.545521   3.946300   3.462643   2.220889   2.221647
    29  H    5.158509   4.704245   3.439141   2.198001   4.391280
    30  H    7.223143   6.377106   4.946684   4.241377   6.752616
    31  H    8.795558   7.661918   6.284723   6.071537   8.653987
    32  H    9.839201   8.496239   7.326093   7.602970  10.067057
    33  H    8.532892   7.092185   6.586388   7.633300   9.385937
    34  H   10.176474   8.735649   7.872644   8.567057  10.747567
    35  H    4.768216   3.389799   3.396247   4.777813   5.833878
                    6          7          8          9         10
     6  C    0.000000
     7  C    3.881427   0.000000
     8  C    4.502772   1.466208   0.000000
     9  C    3.986744   2.562878   1.539468   0.000000
    10  C    2.652849   2.959820   2.628222   1.487732   0.000000
    11  C    5.965088   2.605730   1.462847   2.565154   3.932400
    12  C    6.874142   3.976661   2.603680   2.992744   4.480348
    13  C    6.523991   4.438630   2.974535   2.556488   3.915597
    14  C    5.227019   3.894559   2.581478   1.468469   2.576674
    15  C    6.917312   3.150304   2.567308   3.918327   5.186282
    16  C    8.332415   4.546532   3.946531   5.197355   6.537003
    17  C    8.949872   5.396941   4.447144   5.374895   6.830624
    18  C    8.321996   5.169535   3.929275   4.475123   5.962851
    19  C    3.983585   4.797432   6.188459   6.652166   5.912924
    20  C    5.113774   4.822176   6.286434   7.062926   6.607914
    21  C    5.260127   3.848153   5.293515   6.308022   6.152254
    22  C    4.306791   2.409377   3.865648   4.864606   4.788941
    23  C    4.770646   1.487460   2.739258   4.031167   4.395243
    24  H    6.304107   4.430430   5.800349   6.976164   6.993810
    25  H    6.102082   5.856078   7.322283   8.139543   7.688254
    26  H    4.421000   5.817170   7.173178   7.517115   6.641107
    27  H    2.223397   5.403367   6.376137   6.124750   4.863796
    28  H    1.083025   4.800593   5.210681   4.411147   2.942136
    29  H    2.926793   4.042801   3.603305   2.226166   1.083073
    30  H    5.364636   4.766874   3.567763   2.210036   2.788939
    31  H    7.413932   5.521390   4.057746   3.522994   4.766816
    32  H    9.063801   6.135300   4.814683   5.113941   6.581747
    33  H    8.996052   5.128982   4.774008   6.127496   7.399261
    34  H   10.033001   6.458010   5.530259   6.427897   7.893520
    35  H    5.836609   2.290326   3.177652   4.642885   5.247396
                   11         12         13         14         15
    11  C    0.000000
    12  C    1.496615   0.000000
    13  C    2.527887   1.458904   0.000000
    14  C    2.906115   2.535249   1.449897   0.000000
    15  C    1.419547   2.401655   3.745903   4.315303   0.000000
    16  C    2.632204   3.007641   4.466267   5.347606   1.415113
    17  C    2.985813   2.584643   3.936429   5.119320   2.363122
    18  C    2.563971   1.483168   2.593885   3.914645   2.715250
    19  C    7.393528   8.767149   9.042194   8.117348   7.642807
    20  C    7.283035   8.742236   9.248583   8.520616   7.253916
    21  C    6.106742   7.595708   8.262244   7.714653   5.915863
    22  C    4.775358   6.244984   6.839605   6.267654   4.779516
    23  C    3.393623   4.886176   5.640629   5.297157   3.303001
    24  H    6.394847   7.889684   8.713190   8.322309   5.961163
    25  H    8.258977   9.733922  10.292508   9.594120   8.127242
    26  H    8.421595   9.767737   9.967748   8.968681   8.713990
    27  H    7.816874   8.892024   8.680217   7.426824   8.553616
    28  H    6.650624   7.392433   6.841624   5.451282   7.718214
    29  H    4.788512   5.087406   4.240841   2.795046   6.114964
    30  H    3.989962   3.501505   2.185445   1.083987   5.397335
    31  H    3.516782   2.205802   1.083275   2.191277   4.605155
    32  H    3.543803   2.222797   2.833111   4.274078   3.798798
    33  H    3.583487   4.085204   5.543262   6.385301   2.216729
    34  H    4.068695   3.553289   4.802607   6.076003   3.368280
    35  H    3.365098   4.834125   5.825547   5.743978   2.825540
                   16         17         18         19         20
    16  C    0.000000
    17  C    1.454751   0.000000
    18  C    2.544801   1.469646   0.000000
    19  C    8.885458  10.001320   9.950584   0.000000
    20  C    8.359416   9.604210   9.769616   1.475610   0.000000
    21  C    6.952464   8.240366   8.512977   2.577315   1.472922
    22  C    5.962096   7.141012   7.257238   2.948961   2.513115
    23  C    4.505525   5.664625   5.814572   4.380132   3.967198
    24  H    6.820759   8.192118   8.647947   3.551552   2.224828
    25  H    9.154502  10.452482  10.705794   2.214608   1.083695
    26  H    9.965411  11.069491  10.983808   1.082466   2.219036
    27  H    9.946378  10.753923  10.293191   2.954838   4.405021
    28  H    9.126893   9.625918   8.868475   4.870938   6.097447
    29  H    7.419726   7.568271   6.557038   6.623413   7.460307
    30  H    6.399092   6.072568   4.775744   8.643174   9.192753
    31  H    5.103164   4.294001   2.832533  10.095849  10.328109
    32  H    3.511227   2.205033   1.083662  10.931717  10.805956
    33  H    1.078996   2.246651   3.545901   9.109142   8.417650
    34  H    2.201747   1.083137   2.212718  11.005079  10.542710
    35  H    3.803340   5.103968   5.510953   5.217694   4.562669
                   21         22         23         24         25
    21  C    0.000000
    22  C    1.447000   0.000000
    23  C    2.715389   1.476524   0.000000
    24  H    1.081489   2.206405   3.073759   0.000000
    25  H    2.212562   3.489678   4.892169   2.546432   0.000000
    26  H    3.546176   4.030923   5.460741   4.432456   2.535393
    27  H    5.165348   4.792855   5.799376   6.238120   5.140331
    28  H    6.326882   5.389168   5.800157   7.377892   7.046360
    29  H    7.124475   5.800331   5.474563   8.006090   8.528682
    30  H    8.506378   7.066874   6.219367   9.186135  10.275258
    31  H    9.344855   7.922878   6.714890   9.785178  11.374127
    32  H    9.571698   8.293003   6.864757   9.726504  11.756579
    33  H    6.963340   6.160379   4.780293   6.665069   9.116110
    34  H    9.147678   8.112717   6.641270   9.018700  11.352905
    35  H    3.149911   2.274172   1.075249   3.138532   5.356551
                   26         27         28         29         30
    26  H    0.000000
    27  H    2.843484   0.000000
    28  H    5.148879   2.536429   0.000000
    29  H    7.240862   5.115403   2.803835   0.000000
    30  H    9.415628   7.587353   5.370926   2.569667   0.000000
    31  H   11.005230   9.604455   7.630621   4.909518   2.493066
    32  H   11.949925  11.109231   9.521289   7.040841   4.957625
    33  H   10.190619  10.455530   9.854147   8.330984   7.447238
    34  H   12.078911  11.828921  10.704657   8.603566   6.978049
    35  H    6.297588   6.850401   6.855548   6.329612   6.745410
                   31         32         33         34         35
    31  H    0.000000
    32  H    2.641202   0.000000
    33  H    6.176179   4.434392   0.000000
    34  H    4.985486   2.521294   2.598070   0.000000
    35  H    6.860553   6.591048   3.897142   5.997821   0.000000
 Stoichiometry    C23H12(3)
 Framework group  CS[SG(C23H12)]
 Deg. of freedom    67
 Full point group                 CS      NOp   2
 Largest Abelian subgroup         CS      NOp   2
 Largest concise Abelian subgroup C1      NOp   1
                         Standard orientation:                         
 ---------------------------------------------------------------------
 Center     Atomic      Atomic             Coordinates (Angstroms)
 Number     Number       Type             X           Y           Z
 ---------------------------------------------------------------------
      1          6           0       -3.620083    1.353018    0.000000
      2          6           0       -2.170899    1.284310    0.000000
      3          6           0       -1.434887    0.054658    0.000000
      4          6           0       -2.074369   -1.241779    0.000000
      5          6           0       -4.311279    0.050864    0.000000
      6          6           0       -3.550847   -1.224774    0.000000
      7          6           0       -0.000000    0.342697   -0.000000
      8          6           0        0.930894   -0.790088   -0.000000
      9          6           0        0.314577   -2.200802    0.000000
     10          6           0       -1.162407   -2.379314    0.000000
     11          6           0        2.390588   -0.694085   -0.000000
     12          6           0        3.291083   -1.889478   -0.000000
     13          6           0        2.664697   -3.207067   -0.000000
     14          6           0        1.222372   -3.355058    0.000000
     15          6           0        3.145975    0.507790   -0.000000
     16          6           0        4.517371    0.856815   -0.000000
     17          6           0        5.354481   -0.332953   -0.000000
     18          6           0        4.758880   -1.676500   -0.000000
     19          6           0       -4.172690    2.709976    0.000000
     20          6           0       -3.275612    3.881588    0.000000
     21          6           0       -1.809627    3.738802    0.000000
     22          6           0       -1.239127    2.409013    0.000000
     23          6           0        0.117218    1.825531   -0.000000
     24          1           0       -1.174964    4.614485   -0.000000
     25          1           0       -3.708006    4.875284    0.000000
     26          1           0       -5.244878    2.858791    0.000000
     27          1           0       -5.393675    0.019203    0.000000
     28          1           0       -4.096385   -2.160365    0.000000
     29          1           0       -1.572546   -3.381727    0.000000
     30          1           0        0.805410   -4.355643    0.000000
     31          1           0        3.284842   -4.095271   -0.000000
     32          1           0        5.417448   -2.537087   -0.000000
     33          1           0        4.897334    1.866697   -0.000000
     34          1           0        6.432637   -0.229206   -0.000000
     35          1           0        1.034927    2.385861   -0.000000
 ---------------------------------------------------------------------
 Rotational constants (GHZ):           0.5589511           0.1742688           0.1328493
 Standard basis: 6-311+G(d,p) (5D, 7F)
 There are   451 symmetry adapted cartesian basis functions of A'  symmetry.
 There are   150 symmetry adapted cartesian basis functions of A"  symmetry.
 There are   428 symmetry adapted basis functions of A'  symmetry.
 There are   150 symmetry adapted basis functions of A"  symmetry.
   578 basis functions,   924 primitive gaussians,   601 cartesian basis functions
    76 alpha electrons       74 beta electrons
       nuclear repulsion energy      1589.2551623213 Hartrees.
 NAtoms=   35 NActive=   35 NUniq=   35 SFac= 1.00D+00 NAtFMM=   60 NAOKFM=F Big=F
 Integral buffers will be    131072 words long.
 Raffenetti 2 integral format.
 Two-electron integral symmetry is turned on.
 One-electron integrals computed using PRISM.
 NBasis=   578 RedAO= T EigKep=  1.39D-06  NBF=   428   150
 NBsUse=   564 1.00D-06 EigRej=  9.08D-07 NBFU=   414   150
 ExpMin= 4.38D-02 ExpMax= 4.56D+03 ExpMxC= 6.82D+02 IAcc=2 IRadAn=         4 AccDes= 0.00D+00
 Harris functional with IExCor=  402 and IRadAn=       4 diagonalized for initial guess.
 HarFok:  IExCor=  402 AccDes= 0.00D+00 IRadAn=         4 IDoV= 1 UseB2=F ITyADJ=14
 ICtDFT=  3500011 ScaDFX=  1.000000  1.000000  1.000000  1.000000
 FoFCou: FMM=F IPFlag=           0 FMFlag=      100000 FMFlg1=           0
         NFxFlg=           0 DoJE=T BraDBF=F KetDBF=T FulRan=T
         wScrn=  0.000000 ICntrl=       500 IOpCl=  0 I1Cent=   200000004 NGrid=           0
         NMat0=    1 NMatS0=      1 NMatT0=    0 NMatD0=    1 NMtDS0=    0 NMtDT0=    0
 Petite list used in FoFCou.
 Initial guess orbital symmetries:
 Alpha Orbitals:
       Occupied  (A') (A') (A') (A') (A') (A') (A') (A') (A') (A')
                 (A') (A') (A') (A') (A') (A') (A') (A') (A') (A')
                 (A') (A') (A') (A') (A') (A') (A') (A') (A') (A')
                 (A') (A') (A') (A') (A') (A') (A') (A') (A') (A')
                 (A') (A') (A') (A') (A') (A') (A') (A') (A') (A')
                 (A') (A') (A') (A') (A') (A') (A') (A') (A") (A')
                 (A') (A") (A') (A') (A') (A") (A") (A") (A") (A")
                 (A") (A") (A") (A") (A") (A')
       Virtual   (A") (A") (A") (A") (A") (A") (A") (A") (A') (A')
                 (A") (A') (A') (A') (A') (A') (A') (A') (A') (A")
                 (A') (A') (A") (A') (A') (A") (A") (A') (A') (A")
                 (A') (A') (A') (A") (A") (A') (A') (A') (A') (A")
                 (A") (A') (A') (A') (A') (A") (A') (A') (A") (A')
                 (A') (A') (A") (A") (A') (A') (A') (A') (A") (A')
                 (A') (A') (A") (A') (A') (A') (A") (A') (A') (A')
                 (A') (A") (A') (A') (A') (A') (A") (A') (A') (A")
                 (A') (A') (A") (A') (A') (A") (A') (A') (A') (A')
                 (A') (A') (A') (A") (A') (A') (A') (A') (A") (A")
                 (A') (A') (A') (A") (A') (A') (A') (A') (A') (A')
                 (A') (A') (A') (A') (A') (A') (A') (A') (A') (A')
                 (A') (A') (A') (A') (A') (A') (A') (A') (A') (A')
                 (A') (A') (A") (A') (A') (A") (A') (A') (A") (A')
                 (A") (A") (A') (A') (A') (A") (A') (A") (A") (A')
                 (A") (A') (A") (A') (A") (A') (A") (A') (A') (A")
                 (A') (A") (A') (A') (A') (A") (A') (A') (A") (A')
                 (A') (A") (A") (A') (A") (A') (A") (A') (A') (A")
                 (A") (A') (A') (A") (A') (A') (A') (A') (A') (A')
                 (A') (A') (A') (A') (A') (A") (A') (A') (A') (A')
                 (A') (A") (A') (A') (A') (A') (A') (A") (A") (A')
                 (A') (A') (A') (A") (A') (A") (A") (A') (A") (A")
                 (A') (A") (A') (A") (A") (A') (A") (A') (A') (A")
                 (A") (A") (A') (A") (A') (A') (A') (A') (A') (A')
                 (A') (A') (A") (A') (A') (A') (A') (A') (A') (A')
                 (A") (A') (A') (A') (A') (A') (A") (A') (A") (A")
                 (A') (A") (A") (A') (A') (A') (A') (A") (A') (A')
                 (A") (A') (A') (A") (A') (A") (A') (A") (A') (A')
                 (A') (A') (A') (A") (A') (A') (A") (A') (A") (A')
                 (A") (A') (A") (A') (A") (A") (A') (A") (A") (A')
                 (A') (A") (A") (A') (A') (A") (A') (A') (A') (A")
                 (A") (A') (A') (A") (A') (A') (A") (A') (A') (A')
                 (A') (A') (A") (A') (A') (A') (A") (A') (A") (A')
                 (A") (A') (A') (A") (A') (A') (A") (A') (A") (A')
                 (A") (A') (A') (A") (A') (A') (A') (A") (A') (A')
                 (A") (A') (A") (A') (A') (A') (A") (A') (A') (A')
                 (A') (A') (A') (A') (A') (A") (A') (A") (A') (A")
                 (A') (A") (A") (A') (A') (A') (A') (A') (A") (A')
                 (A') (A") (A') (A') (A') (A') (A") (A') (A') (A")
                 (A') (A') (A") (A') (A') (A') (A") (A') (A") (A')
                 (A') (A") (A') (A") (A") (A") (A") (A") (A') (A")
                 (A") (A') (A') (A") (A') (A') (A") (A') (A') (A")
                 (A') (A') (A') (A') (A') (A') (A') (A') (A') (A')
                 (A') (A') (A') (A') (A') (A') (A') (A') (A') (A')
                 (A') (A') (A') (A') (A') (A') (A') (A') (A') (A')
                 (A') (A') (A') (A') (A') (A') (A') (A') (A') (A')
                 (A') (A') (A') (A') (A') (A') (A') (A') (A') (A')
                 (A') (A') (A') (A') (A') (A') (A') (A') (A') (A')
                 (A') (A') (A') (A') (A') (A') (A') (A')
 Beta  Orbitals:
       Occupied  (A') (A') (A') (A') (A') (A') (A') (A') (A') (A')
                 (A') (A') (A') (A') (A') (A') (A') (A') (A') (A')
                 (A') (A') (A') (A') (A') (A') (A') (A') (A') (A')
                 (A') (A') (A') (A') (A') (A') (A') (A') (A') (A')
                 (A') (A') (A') (A') (A') (A') (A') (A') (A') (A')
                 (A') (A') (A') (A') (A') (A') (A') (A') (A") (A')
                 (A') (A") (A') (A') (A') (A") (A") (A") (A") (A")
                 (A") (A") (A") (A")
       Virtual   (A") (A') (A") (A") (A") (A") (A") (A") (A") (A")
                 (A') (A') (A") (A') (A') (A') (A') (A') (A') (A')
                 (A') (A") (A') (A') (A") (A') (A') (A") (A") (A')
                 (A') (A") (A') (A') (A') (A") (A") (A') (A') (A')
                 (A') (A") (A") (A') (A') (A') (A') (A") (A') (A')
                 (A") (A') (A') (A') (A") (A") (A') (A') (A') (A')
                 (A") (A') (A') (A') (A") (A') (A') (A') (A") (A')
                 (A') (A') (A') (A") (A') (A') (A') (A') (A") (A')
                 (A') (A") (A') (A') (A") (A') (A') (A") (A') (A')
                 (A') (A') (A') (A') (A') (A") (A') (A') (A') (A')
                 (A") (A") (A') (A') (A') (A") (A') (A') (A') (A')
                 (A') (A') (A') (A') (A') (A') (A') (A') (A') (A')
                 (A') (A') (A') (A') (A') (A') (A') (A') (A') (A')
                 (A') (A') (A') (A') (A") (A') (A') (A") (A') (A')
                 (A") (A') (A") (A") (A') (A') (A') (A") (A') (A")
                 (A") (A') (A") (A') (A") (A') (A") (A') (A") (A')
                 (A') (A") (A') (A") (A') (A') (A') (A") (A') (A')
                 (A") (A') (A') (A") (A") (A') (A") (A') (A") (A')
                 (A') (A") (A") (A') (A') (A") (A') (A') (A') (A')
                 (A') (A') (A') (A') (A') (A') (A') (A") (A') (A')
                 (A') (A') (A') (A") (A') (A') (A') (A') (A') (A")
                 (A") (A') (A') (A') (A') (A") (A') (A") (A") (A')
                 (A") (A") (A') (A") (A') (A") (A") (A') (A") (A')
                 (A') (A") (A") (A") (A') (A") (A') (A') (A') (A')
                 (A') (A') (A') (A') (A") (A') (A') (A') (A') (A')
                 (A') (A') (A") (A') (A') (A') (A') (A') (A") (A')
                 (A") (A") (A') (A") (A") (A') (A') (A') (A') (A")
                 (A') (A') (A") (A') (A') (A") (A') (A") (A') (A")
                 (A') (A') (A') (A') (A') (A") (A') (A') (A") (A')
                 (A") (A') (A") (A') (A") (A') (A") (A") (A') (A")
                 (A") (A') (A') (A") (A") (A') (A') (A") (A') (A')
                 (A') (A") (A") (A') (A') (A") (A') (A') (A") (A')
                 (A') (A') (A') (A') (A") (A') (A') (A') (A") (A')
                 (A") (A') (A") (A') (A') (A") (A') (A') (A") (A')
                 (A") (A') (A") (A') (A') (A") (A') (A') (A') (A")
                 (A') (A') (A") (A') (A") (A') (A') (A') (A") (A')
                 (A') (A') (A') (A') (A') (A') (A') (A") (A') (A")
                 (A') (A") (A') (A") (A") (A') (A') (A') (A') (A')
                 (A") (A') (A') (A") (A') (A') (A') (A') (A") (A')
                 (A') (A") (A') (A') (A") (A') (A') (A') (A") (A')
                 (A") (A') (A') (A") (A') (A") (A") (A") (A") (A")
                 (A') (A") (A") (A') (A') (A") (A') (A') (A") (A')
                 (A') (A") (A') (A') (A') (A') (A') (A') (A') (A')
                 (A') (A') (A') (A') (A') (A') (A') (A') (A') (A')
                 (A') (A') (A') (A') (A') (A') (A') (A') (A') (A')
                 (A') (A') (A') (A') (A') (A') (A') (A') (A') (A')
                 (A') (A') (A') (A') (A') (A') (A') (A') (A') (A')
                 (A') (A') (A') (A') (A') (A') (A') (A') (A') (A')
                 (A') (A') (A') (A') (A') (A') (A') (A') (A') (A')
 The electronic state of the initial guess is 3-A".
 Initial guess <Sx>= 0.0000 <Sy>= 0.0000 <Sz>= 1.0000 <S**2>= 2.0000 S= 1.0000
 Requested convergence on RMS density matrix=1.00D-08 within  32 cycles.
 Requested convergence on MAX density matrix=1.00D-06.
 Requested convergence on             energy=1.00D-06.
 No special actions if energy rises.
 Restarting incremental Fock formation.
 SCF Done:  E(UB3LYP) =  -883.730343147     A.U. after   25 cycles
            NFock= 25  Conv=0.44D-08     -V/T= 2.0080
 <Sx>= 0.0000 <Sy>= 0.0000 <Sz>= 1.0000 <S**2>= 2.0756 S= 1.0250
 <L.S>=  0.00000000000    
 Annihilation of the first spin contaminant:
 S**2 before annihilation     2.0756,   after     2.0034
 QCSCF skips out because SCF is already converged.

 **********************************************************************

            Population analysis using the SCF Density.

 **********************************************************************

 Orbital symmetries:
 Alpha Orbitals:
       Occupied  (A') (A') (A') (A') (A') (A') (A') (A') (A') (A')
                 (A') (A') (A') (A') (A') (A') (A') (A') (A') (A')
                 (A') (A') (A') (A') (A') (A') (A') (A') (A') (A')
                 (A') (A') (A') (A') (A') (A') (A') (A') (A') (A')
                 (A') (A') (A') (A') (A') (A') (A') (A') (A') (A')
                 (A') (A') (A') (A') (A') (A") (A') (A') (A') (A")
                 (A') (A') (A") (A') (A') (A') (A") (A") (A") (A")
                 (A") (A") (A") (A') (A") (A")
       Virtual   (A") (A") (A") (A") (A") (A') (A') (A') (A") (A')
                 (A') (A") (A') (A') (A') (A") (A') (A") (A') (A')
                 (A") (A') (A") (A') (A") (A') (A") (A") (A') (A')
                 (A') (A") (A') (A") (A') (A') (A") (A") (A") (A')
                 (A') (A") (A') (A') (A') (A') (A") (A') (A') (A')
                 (A") (A') (A") (A') (A") (A') (A') (A') (A') (A")
                 (A') (A') (A') (A') (A') (A") (A') (A') (A") (A')
                 (A") (A") (A') (A') (A') (A') (A") (A') (A') (A')
                 (A') (A') (A') (A") (A') (A') (A') (A') (A') (A')
                 (A') (A") (A') (A") (A') (A") (A') (A') (A') (A')
                 (A') (A') (A') (A') (A') (A') (A') (A') (A') (A')
                 (A') (A') (A') (A') (A') (A') (A') (A') (A') (A')
                 (A') (A') (A') (A') (A') (A') (A') (A') (A') (A")
                 (A') (A') (A') (A") (A') (A') (A") (A') (A") (A')
                 (A") (A') (A') (A") (A') (A') (A") (A") (A') (A")
                 (A") (A') (A") (A") (A') (A') (A") (A") (A') (A")
                 (A') (A') (A') (A") (A') (A') (A") (A') (A') (A")
                 (A') (A') (A") (A') (A') (A") (A') (A') (A') (A")
                 (A") (A') (A') (A") (A') (A') (A') (A') (A') (A')
                 (A') (A') (A') (A') (A') (A') (A') (A') (A') (A')
                 (A') (A") (A') (A') (A') (A") (A') (A') (A') (A')
                 (A') (A") (A') (A") (A') (A') (A") (A") (A') (A")
                 (A") (A") (A') (A") (A') (A') (A") (A") (A") (A')
                 (A") (A') (A") (A') (A") (A") (A') (A') (A') (A')
                 (A') (A') (A") (A') (A') (A') (A') (A') (A') (A')
                 (A") (A') (A') (A') (A') (A") (A') (A') (A") (A")
                 (A') (A") (A") (A') (A') (A') (A") (A') (A') (A")
                 (A') (A") (A') (A') (A") (A') (A") (A') (A') (A')
                 (A') (A') (A") (A') (A') (A") (A') (A') (A") (A")
                 (A') (A") (A') (A') (A") (A") (A') (A") (A") (A')
                 (A') (A") (A") (A') (A') (A') (A") (A') (A') (A")
                 (A") (A') (A') (A') (A") (A') (A') (A") (A') (A')
                 (A') (A') (A") (A') (A') (A') (A") (A") (A') (A')
                 (A") (A') (A') (A") (A') (A") (A') (A") (A') (A")
                 (A') (A') (A') (A") (A') (A') (A") (A') (A') (A")
                 (A') (A') (A") (A') (A") (A') (A') (A') (A') (A')
                 (A') (A') (A') (A') (A') (A') (A') (A") (A") (A')
                 (A") (A') (A') (A') (A") (A') (A") (A') (A') (A')
                 (A') (A') (A') (A') (A') (A") (A') (A") (A') (A')
                 (A') (A') (A') (A") (A") (A') (A") (A') (A') (A")
                 (A') (A") (A") (A") (A") (A") (A") (A') (A") (A")
                 (A") (A') (A') (A") (A') (A") (A") (A') (A') (A')
                 (A') (A') (A') (A') (A') (A') (A') (A') (A') (A')
                 (A') (A') (A') (A') (A') (A') (A') (A') (A') (A')
                 (A') (A') (A') (A') (A') (A') (A') (A') (A') (A')
                 (A') (A') (A') (A') (A') (A') (A') (A') (A') (A')
                 (A') (A') (A') (A') (A') (A') (A') (A') (A') (A')
                 (A') (A') (A') (A') (A') (A') (A') (A') (A') (A')
                 (A') (A') (A') (A') (A') (A') (A') (A')
 Beta  Orbitals:
       Occupied  (A') (A') (A') (A') (A') (A') (A') (A') (A') (A')
                 (A') (A') (A') (A') (A') (A') (A') (A') (A') (A')
                 (A') (A') (A') (A') (A') (A') (A') (A') (A') (A')
                 (A') (A') (A') (A') (A') (A') (A') (A') (A') (A')
                 (A') (A') (A') (A') (A') (A') (A') (A') (A') (A')
                 (A') (A') (A') (A') (A') (A') (A") (A') (A') (A")
                 (A') (A') (A') (A") (A') (A') (A") (A") (A") (A")
                 (A") (A") (A") (A")
       Virtual   (A") (A') (A") (A") (A") (A") (A") (A') (A') (A')
                 (A') (A") (A') (A") (A') (A') (A') (A") (A') (A')
                 (A") (A') (A") (A') (A') (A") (A") (A') (A") (A')
                 (A") (A') (A') (A') (A") (A") (A') (A') (A") (A")
                 (A') (A") (A') (A") (A') (A') (A') (A') (A") (A')
                 (A') (A') (A") (A') (A") (A') (A") (A') (A') (A')
                 (A') (A") (A') (A') (A') (A') (A') (A') (A") (A')
                 (A") (A') (A") (A") (A') (A') (A') (A') (A") (A')
                 (A') (A') (A') (A') (A') (A") (A') (A') (A') (A')
                 (A') (A') (A') (A") (A') (A") (A') (A") (A') (A')
                 (A') (A') (A') (A') (A') (A') (A') (A') (A') (A')
                 (A') (A') (A') (A') (A') (A') (A') (A') (A') (A')
                 (A') (A') (A') (A') (A') (A') (A') (A') (A') (A')
                 (A') (A') (A") (A') (A') (A") (A') (A') (A") (A')
                 (A') (A") (A") (A') (A') (A") (A') (A') (A") (A")
                 (A') (A") (A") (A') (A") (A") (A') (A') (A") (A')
                 (A") (A") (A') (A') (A') (A') (A") (A') (A') (A")
                 (A') (A") (A') (A') (A") (A') (A') (A") (A') (A')
                 (A') (A") (A') (A") (A') (A") (A') (A') (A') (A')
                 (A') (A') (A') (A') (A') (A') (A') (A') (A') (A')
                 (A') (A') (A') (A") (A') (A') (A') (A') (A") (A')
                 (A') (A') (A') (A") (A') (A") (A') (A') (A") (A")
                 (A') (A") (A") (A") (A') (A") (A') (A") (A') (A")
                 (A") (A') (A") (A') (A") (A') (A") (A') (A") (A')
                 (A') (A') (A') (A') (A') (A") (A') (A') (A') (A')
                 (A') (A') (A") (A') (A') (A') (A') (A') (A") (A')
                 (A") (A") (A') (A") (A") (A') (A') (A') (A") (A')
                 (A') (A") (A') (A") (A') (A') (A") (A') (A") (A')
                 (A') (A') (A') (A') (A") (A') (A') (A") (A') (A')
                 (A") (A") (A') (A") (A') (A') (A") (A") (A') (A")
                 (A") (A') (A') (A") (A") (A') (A') (A") (A') (A')
                 (A') (A") (A") (A') (A') (A') (A") (A') (A') (A")
                 (A') (A') (A') (A') (A") (A') (A') (A') (A") (A')
                 (A") (A') (A") (A') (A') (A") (A') (A") (A') (A")
                 (A') (A") (A') (A') (A') (A") (A') (A') (A") (A')
                 (A') (A') (A") (A') (A") (A') (A') (A") (A') (A')
                 (A') (A') (A') (A') (A') (A') (A') (A') (A') (A")
                 (A") (A') (A') (A") (A') (A') (A") (A') (A") (A')
                 (A') (A') (A') (A') (A') (A') (A') (A") (A') (A')
                 (A") (A') (A') (A') (A') (A") (A") (A') (A') (A")
                 (A') (A") (A') (A") (A") (A") (A") (A") (A") (A')
                 (A") (A") (A") (A') (A") (A') (A') (A") (A") (A')
                 (A') (A') (A') (A') (A') (A') (A') (A') (A') (A')
                 (A') (A') (A') (A') (A') (A') (A') (A') (A') (A')
                 (A') (A') (A') (A') (A') (A') (A') (A') (A') (A')
                 (A') (A') (A') (A') (A') (A') (A') (A') (A') (A')
                 (A') (A') (A') (A') (A') (A') (A') (A') (A') (A')
                 (A') (A') (A') (A') (A') (A') (A') (A') (A') (A')
                 (A') (A') (A') (A') (A') (A') (A') (A') (A') (A')
 The electronic state is 3-A".
 Alpha  occ. eigenvalues --  -10.22842 -10.22287 -10.22171 -10.21733 -10.21502
 Alpha  occ. eigenvalues --  -10.21324 -10.21181 -10.21165 -10.20987 -10.20956
 Alpha  occ. eigenvalues --  -10.20938 -10.20860 -10.20816 -10.20755 -10.20703
 Alpha  occ. eigenvalues --  -10.20516 -10.20494 -10.20376 -10.20275 -10.20179
 Alpha  occ. eigenvalues --  -10.20091 -10.19192 -10.18725  -0.89114  -0.86772
 Alpha  occ. eigenvalues --   -0.83549  -0.81916  -0.81072  -0.77803  -0.77374
 Alpha  occ. eigenvalues --   -0.74859  -0.73404  -0.71876  -0.70471  -0.69212
 Alpha  occ. eigenvalues --   -0.64577  -0.63875  -0.61559  -0.59906  -0.59314
 Alpha  occ. eigenvalues --   -0.58311  -0.55930  -0.53150  -0.52430  -0.50678
 Alpha  occ. eigenvalues --   -0.49841  -0.48007  -0.47768  -0.46582  -0.45472
 Alpha  occ. eigenvalues --   -0.44224  -0.43521  -0.43239  -0.41941  -0.41801
 Alpha  occ. eigenvalues --   -0.41485  -0.41051  -0.40060  -0.39779  -0.39001
 Alpha  occ. eigenvalues --   -0.37935  -0.37190  -0.35642  -0.35637  -0.34462
 Alpha  occ. eigenvalues --   -0.33994  -0.33843  -0.32594  -0.29492  -0.29105
 Alpha  occ. eigenvalues --   -0.25855  -0.24780  -0.23815  -0.23769  -0.21055
 Alpha  occ. eigenvalues --   -0.19603
 Alpha virt. eigenvalues --   -0.08652  -0.07280  -0.03878  -0.02167  -0.00782
 Alpha virt. eigenvalues --    0.00195   0.00607   0.00791   0.00992   0.01698
 Alpha virt. eigenvalues --    0.01874   0.02360   0.02983   0.03089   0.03795
 Alpha virt. eigenvalues --    0.04567   0.04704   0.04773   0.04820   0.05671
 Alpha virt. eigenvalues --    0.05994   0.07021   0.07113   0.07116   0.07965
 Alpha virt. eigenvalues --    0.08042   0.08275   0.09111   0.09215   0.09516
 Alpha virt. eigenvalues --    0.09938   0.10250   0.10337   0.10609   0.12043
 Alpha virt. eigenvalues --    0.12441   0.12569   0.12761   0.13127   0.13195
 Alpha virt. eigenvalues --    0.13633   0.13811   0.14210   0.14776   0.15021
 Alpha virt. eigenvalues --    0.15214   0.15564   0.15740   0.16135   0.16401
 Alpha virt. eigenvalues --    0.16407   0.16565   0.16844   0.17186   0.17280
 Alpha virt. eigenvalues --    0.17684   0.18056   0.18207   0.18541   0.18749
 Alpha virt. eigenvalues --    0.18939   0.19191   0.19449   0.19681   0.19895
 Alpha virt. eigenvalues --    0.20067   0.20201   0.20433   0.20599   0.21028
 Alpha virt. eigenvalues --    0.21077   0.21754   0.21780   0.22372   0.22531
 Alpha virt. eigenvalues --    0.22779   0.23068   0.23325   0.23712   0.24072
 Alpha virt. eigenvalues --    0.24255   0.24491   0.25175   0.25229   0.25348
 Alpha virt. eigenvalues --    0.25601   0.25995   0.26245   0.26480   0.27011
 Alpha virt. eigenvalues --    0.27443   0.27622   0.28032   0.28123   0.28406
 Alpha virt. eigenvalues --    0.29010   0.29196   0.29721   0.29986   0.30738
 Alpha virt. eigenvalues --    0.30971   0.31403   0.31877   0.32776   0.33126
 Alpha virt. eigenvalues --    0.33530   0.34318   0.34982   0.36024   0.37041
 Alpha virt. eigenvalues --    0.37864   0.37949   0.38814   0.39365   0.39725
 Alpha virt. eigenvalues --    0.40643   0.41459   0.42517   0.42984   0.43472
 Alpha virt. eigenvalues --    0.43712   0.44246   0.45144   0.45610   0.46579
 Alpha virt. eigenvalues --    0.48679   0.50189   0.50370   0.51415   0.52136
 Alpha virt. eigenvalues --    0.52266   0.52405   0.52904   0.53553   0.53719
 Alpha virt. eigenvalues --    0.54296   0.54301   0.55266   0.55662   0.55812
 Alpha virt. eigenvalues --    0.56159   0.57079   0.57112   0.57485   0.57585
 Alpha virt. eigenvalues --    0.58080   0.58620   0.59318   0.59996   0.60490
 Alpha virt. eigenvalues --    0.61112   0.61672   0.61677   0.62958   0.63102
 Alpha virt. eigenvalues --    0.63340   0.64168   0.64541   0.64582   0.65591
 Alpha virt. eigenvalues --    0.65763   0.66068   0.66827   0.67052   0.67362
 Alpha virt. eigenvalues --    0.68297   0.68443   0.68551   0.68936   0.69185
 Alpha virt. eigenvalues --    0.69390   0.69824   0.70092   0.70467   0.71463
 Alpha virt. eigenvalues --    0.72490   0.72609   0.73074   0.73906   0.74511
 Alpha virt. eigenvalues --    0.76330   0.76468   0.76914   0.78243   0.80235
 Alpha virt. eigenvalues --    0.81037   0.81691   0.81871   0.82857   0.83698
 Alpha virt. eigenvalues --    0.84170   0.85275   0.86208   0.87394   0.87839
 Alpha virt. eigenvalues --    0.89195   0.90008   0.90098   0.91318   0.91521
 Alpha virt. eigenvalues --    0.92246   0.92330   0.92530   0.93364   0.93662
 Alpha virt. eigenvalues --    0.94687   0.94703   0.95071   0.95726   0.96070
 Alpha virt. eigenvalues --    0.96942   0.97178   0.97495   0.97925   0.99529
 Alpha virt. eigenvalues --    1.00298   1.00426   1.01072   1.01302   1.01915
 Alpha virt. eigenvalues --    1.03300   1.03324   1.03638   1.04123   1.04463
 Alpha virt. eigenvalues --    1.05297   1.05443   1.06105   1.07312   1.08509
 Alpha virt. eigenvalues --    1.09600   1.10008   1.10339   1.10506   1.11990
 Alpha virt. eigenvalues --    1.12534   1.12802   1.13608   1.14633   1.16252
 Alpha virt. eigenvalues --    1.17900   1.21886   1.22586   1.24525   1.26388
 Alpha virt. eigenvalues --    1.26975   1.30162   1.32617   1.34730   1.36988
 Alpha virt. eigenvalues --    1.38700   1.39223   1.39957   1.42106   1.42979
 Alpha virt. eigenvalues --    1.44082   1.44130   1.45608   1.45694   1.45805
 Alpha virt. eigenvalues --    1.46334   1.46711   1.47071   1.48150   1.48550
 Alpha virt. eigenvalues --    1.49869   1.50187   1.51209   1.51931   1.52426
 Alpha virt. eigenvalues --    1.52703   1.53691   1.54618   1.54831   1.56588
 Alpha virt. eigenvalues --    1.57026   1.57908   1.58893   1.60095   1.61108
 Alpha virt. eigenvalues --    1.63565   1.64741   1.65227   1.65479   1.66818
 Alpha virt. eigenvalues --    1.70159   1.70230   1.71237   1.72742   1.73034
 Alpha virt. eigenvalues --    1.73123   1.74316   1.74854   1.75817   1.75898
 Alpha virt. eigenvalues --    1.76495   1.77103   1.79067   1.79877   1.80219
 Alpha virt. eigenvalues --    1.81719   1.82231   1.82986   1.84107   1.84424
 Alpha virt. eigenvalues --    1.84537   1.85149   1.86259   1.86318   1.87243
 Alpha virt. eigenvalues --    1.87950   1.88225   1.89904   1.90517   1.91033
 Alpha virt. eigenvalues --    1.91820   1.93488   1.94291   1.95397   1.96648
 Alpha virt. eigenvalues --    1.96915   1.97780   1.97916   1.99124   2.00162
 Alpha virt. eigenvalues --    2.00535   2.01934   2.02956   2.02968   2.04152
 Alpha virt. eigenvalues --    2.05289   2.07255   2.08617   2.09235   2.11126
 Alpha virt. eigenvalues --    2.12209   2.13030   2.15049   2.16077   2.17261
 Alpha virt. eigenvalues --    2.18345   2.18922   2.20258   2.23128   2.23673
 Alpha virt. eigenvalues --    2.25826   2.26659   2.27345   2.29357   2.32228
 Alpha virt. eigenvalues --    2.32432   2.33737   2.34037   2.35850   2.37207
 Alpha virt. eigenvalues --    2.37210   2.38477   2.40044   2.41434   2.42096
 Alpha virt. eigenvalues --    2.46622   2.48676   2.49667   2.51962   2.53539
 Alpha virt. eigenvalues --    2.56862   2.57428   2.59429   2.61585   2.62568
 Alpha virt. eigenvalues --    2.64697   2.64845   2.66719   2.67294   2.67610
 Alpha virt. eigenvalues --    2.67999   2.68178   2.69713   2.70033   2.70744
 Alpha virt. eigenvalues --    2.71398   2.71727   2.72463   2.72921   2.73673
 Alpha virt. eigenvalues --    2.73790   2.75046   2.75465   2.75643   2.76042
 Alpha virt. eigenvalues --    2.76355   2.76882   2.77736   2.78424   2.79785
 Alpha virt. eigenvalues --    2.79911   2.81192   2.81299   2.81955   2.83184
 Alpha virt. eigenvalues --    2.83873   2.84800   2.87077   2.87980   2.88913
 Alpha virt. eigenvalues --    2.93413   2.94979   2.96287   2.96434   2.98804
 Alpha virt. eigenvalues --    3.00910   3.01948   3.02617   3.03906   3.05549
 Alpha virt. eigenvalues --    3.06453   3.08051   3.08811   3.09599   3.10335
 Alpha virt. eigenvalues --    3.11507   3.14252   3.17262   3.21936   3.23277
 Alpha virt. eigenvalues --    3.24558   3.27206   3.28895   3.30002   3.30703
 Alpha virt. eigenvalues --    3.33028   3.33702   3.34686   3.37152   3.38370
 Alpha virt. eigenvalues --    3.39162   3.42846   3.46688   3.48605   3.51932
 Alpha virt. eigenvalues --    3.55689   3.59500   3.60709   3.62916   3.71787
 Alpha virt. eigenvalues --    3.72697   3.84238   3.91376   3.99920   4.00540
 Alpha virt. eigenvalues --    4.03349   4.05701   4.08082   4.10278   4.17314
 Alpha virt. eigenvalues --    4.21607   4.25407   4.31991   4.54831   4.61170
 Alpha virt. eigenvalues --    4.63847   4.66414   4.67981   4.70286   4.74821
 Alpha virt. eigenvalues --   23.40617  23.55664  23.69847  23.73422  23.76632
 Alpha virt. eigenvalues --   23.78602  23.81153  23.84267  23.84590  23.85180
 Alpha virt. eigenvalues --   23.85830  23.87383  23.88627  23.89600  23.89868
 Alpha virt. eigenvalues --   23.91009  23.91557  23.92464  23.93763  23.96611
 Alpha virt. eigenvalues --   23.97630  23.98793  24.03272
  Beta  occ. eigenvalues --  -10.22534 -10.22432 -10.21949 -10.21838 -10.21420
  Beta  occ. eigenvalues --  -10.21186 -10.21020 -10.20940 -10.20782 -10.20720
  Beta  occ. eigenvalues --  -10.20705 -10.20624 -10.20588 -10.20565 -10.20513
  Beta  occ. eigenvalues --  -10.20463 -10.20412 -10.20272 -10.20244 -10.20074
  Beta  occ. eigenvalues --  -10.19869 -10.19011 -10.18640  -0.88788  -0.86179
  Beta  occ. eigenvalues --   -0.83102  -0.81616  -0.80692  -0.77389  -0.76971
  Beta  occ. eigenvalues --   -0.74654  -0.72934  -0.71229  -0.70372  -0.67975
  Beta  occ. eigenvalues --   -0.64385  -0.63469  -0.61258  -0.59255  -0.58985
  Beta  occ. eigenvalues --   -0.57857  -0.55498  -0.52769  -0.52098  -0.50424
  Beta  occ. eigenvalues --   -0.49403  -0.47698  -0.47513  -0.46346  -0.45195
  Beta  occ. eigenvalues --   -0.43949  -0.43224  -0.42836  -0.41777  -0.41600
  Beta  occ. eigenvalues --   -0.40887  -0.40773  -0.39675  -0.39406  -0.38542
  Beta  occ. eigenvalues --   -0.37717  -0.36792  -0.35324  -0.34954  -0.34243
  Beta  occ. eigenvalues --   -0.33868  -0.32976  -0.32123  -0.28776  -0.28328
  Beta  occ. eigenvalues --   -0.25544  -0.24142  -0.22366  -0.20942
  Beta virt. eigenvalues --   -0.12893  -0.08382  -0.07737  -0.06509  -0.03660
  Beta virt. eigenvalues --   -0.01402  -0.00015   0.00226   0.00618   0.00827
  Beta virt. eigenvalues --    0.01708   0.01906   0.01953   0.02697   0.03094
  Beta virt. eigenvalues --    0.03126   0.03854   0.04685   0.04767   0.04884
  Beta virt. eigenvalues --    0.04978   0.05727   0.06068   0.07122   0.07142
  Beta virt. eigenvalues --    0.07521   0.08084   0.08124   0.08432   0.09278
  Beta virt. eigenvalues --    0.09461   0.09702   0.09986   0.10368   0.10534
  Beta virt. eigenvalues --    0.10872   0.12225   0.12499   0.12706   0.12813
  Beta virt. eigenvalues --    0.13313   0.13423   0.13706   0.14059   0.14382
  Beta virt. eigenvalues --    0.14962   0.15064   0.15330   0.15779   0.15907
  Beta virt. eigenvalues --    0.16380   0.16467   0.16487   0.16671   0.17266
  Beta virt. eigenvalues --    0.17377   0.17378   0.17878   0.18214   0.18340
  Beta virt. eigenvalues --    0.18617   0.18935   0.19030   0.19246   0.19605
  Beta virt. eigenvalues --    0.19809   0.20053   0.20318   0.20460   0.20607
  Beta virt. eigenvalues --    0.20716   0.21167   0.21196   0.21755   0.21864
  Beta virt. eigenvalues --    0.22518   0.22625   0.22894   0.23162   0.23460
  Beta virt. eigenvalues --    0.24027   0.24103   0.24399   0.24639   0.25283
  Beta virt. eigenvalues --    0.25288   0.25437   0.25679   0.26084   0.26364
  Beta virt. eigenvalues --    0.26620   0.27223   0.27529   0.27720   0.28080
  Beta virt. eigenvalues --    0.28154   0.28569   0.29166   0.29381   0.29835
  Beta virt. eigenvalues --    0.30271   0.30902   0.31099   0.31506   0.32028
  Beta virt. eigenvalues --    0.32945   0.33291   0.33788   0.34546   0.35087
  Beta virt. eigenvalues --    0.36230   0.37229   0.38061   0.38286   0.39116
  Beta virt. eigenvalues --    0.39701   0.40120   0.40824   0.41571   0.42542
  Beta virt. eigenvalues --    0.43071   0.43691   0.43815   0.44532   0.45261
  Beta virt. eigenvalues --    0.46121   0.46869   0.48795   0.50387   0.50652
  Beta virt. eigenvalues --    0.51606   0.52338   0.52596   0.53093   0.53166
  Beta virt. eigenvalues --    0.53720   0.53968   0.54625   0.54921   0.55546
  Beta virt. eigenvalues --    0.55928   0.56121   0.56660   0.57191   0.57539
  Beta virt. eigenvalues --    0.57753   0.57821   0.58230   0.59019   0.59305
  Beta virt. eigenvalues --    0.60380   0.60818   0.61290   0.61879   0.62137
  Beta virt. eigenvalues --    0.63223   0.63377   0.63629   0.64633   0.64719
  Beta virt. eigenvalues --    0.64900   0.65575   0.65855   0.66494   0.67225
  Beta virt. eigenvalues --    0.67498   0.67661   0.68533   0.68707   0.68899
  Beta virt. eigenvalues --    0.69271   0.69465   0.69895   0.70163   0.70650
  Beta virt. eigenvalues --    0.71019   0.71696   0.72440   0.72971   0.73338
  Beta virt. eigenvalues --    0.74296   0.74586   0.76624   0.76641   0.77137
  Beta virt. eigenvalues --    0.78631   0.80407   0.81272   0.81754   0.81984
  Beta virt. eigenvalues --    0.82890   0.83930   0.84363   0.86142   0.86425
  Beta virt. eigenvalues --    0.87734   0.88116   0.89428   0.90149   0.90533
  Beta virt. eigenvalues --    0.91585   0.91682   0.92596   0.92768   0.92889
  Beta virt. eigenvalues --    0.93580   0.93923   0.94748   0.95015   0.95259
  Beta virt. eigenvalues --    0.96136   0.96465   0.97067   0.97482   0.97762
  Beta virt. eigenvalues --    0.98164   0.99735   1.00380   1.00782   1.01343
  Beta virt. eigenvalues --    1.01652   1.02375   1.03538   1.03641   1.04073
  Beta virt. eigenvalues --    1.04610   1.04861   1.05614   1.05959   1.06511
  Beta virt. eigenvalues --    1.07566   1.08700   1.09915   1.10189   1.10729
  Beta virt. eigenvalues --    1.10785   1.12322   1.12940   1.12980   1.13983
  Beta virt. eigenvalues --    1.14903   1.16636   1.18277   1.22084   1.25062
  Beta virt. eigenvalues --    1.25469   1.26677   1.27467   1.30507   1.32919
  Beta virt. eigenvalues --    1.34990   1.37269   1.39451   1.39805   1.40289
  Beta virt. eigenvalues --    1.42319   1.43181   1.44272   1.44475   1.45824
  Beta virt. eigenvalues --    1.45971   1.46261   1.46497   1.47150   1.47413
  Beta virt. eigenvalues --    1.48384   1.48802   1.50123   1.50754   1.51335
  Beta virt. eigenvalues --    1.52193   1.52882   1.53139   1.53978   1.55028
  Beta virt. eigenvalues --    1.55078   1.57199   1.57317   1.58419   1.59064
  Beta virt. eigenvalues --    1.60288   1.61544   1.63670   1.65048   1.65467
  Beta virt. eigenvalues --    1.65665   1.67429   1.70417   1.70545   1.71413
  Beta virt. eigenvalues --    1.72896   1.73187   1.73819   1.74754   1.75318
  Beta virt. eigenvalues --    1.76346   1.76349   1.77019   1.77808   1.79323
  Beta virt. eigenvalues --    1.80260   1.81122   1.82176   1.82591   1.83358
  Beta virt. eigenvalues --    1.84234   1.84732   1.85295   1.85313   1.86428
  Beta virt. eigenvalues --    1.86758   1.87522   1.88277   1.88449   1.90091
  Beta virt. eigenvalues --    1.91061   1.91505   1.92394   1.93688   1.94686
  Beta virt. eigenvalues --    1.96016   1.96978   1.97230   1.97980   1.98319
  Beta virt. eigenvalues --    1.99198   2.00518   2.00572   2.02238   2.03143
  Beta virt. eigenvalues --    2.03585   2.04632   2.05531   2.07294   2.08890
  Beta virt. eigenvalues --    2.09636   2.11319   2.12547   2.13164   2.15452
  Beta virt. eigenvalues --    2.16255   2.17630   2.18616   2.19033   2.20563
  Beta virt. eigenvalues --    2.23657   2.23962   2.25987   2.26988   2.27674
  Beta virt. eigenvalues --    2.29506   2.32578   2.32858   2.34033   2.34420
  Beta virt. eigenvalues --    2.36296   2.37615   2.37640   2.38724   2.40168
  Beta virt. eigenvalues --    2.41881   2.42459   2.46901   2.48761   2.49797
  Beta virt. eigenvalues --    2.52209   2.53888   2.57027   2.58019   2.59874
  Beta virt. eigenvalues --    2.61810   2.62804   2.65156   2.65170   2.66847
  Beta virt. eigenvalues --    2.67475   2.67868   2.68130   2.68989   2.70113
  Beta virt. eigenvalues --    2.70146   2.70891   2.71489   2.71877   2.72579
  Beta virt. eigenvalues --    2.73125   2.74011   2.74332   2.75210   2.75757
  Beta virt. eigenvalues --    2.76039   2.76105   2.76429   2.77065   2.77950
  Beta virt. eigenvalues --    2.79217   2.79823   2.79980   2.81419   2.81883
  Beta virt. eigenvalues --    2.82163   2.83705   2.84397   2.85365   2.87516
  Beta virt. eigenvalues --    2.88112   2.88973   2.93698   2.95838   2.96769
  Beta virt. eigenvalues --    2.97574   2.98898   3.01215   3.02082   3.04169
  Beta virt. eigenvalues --    3.05665   3.06031   3.06745   3.08379   3.08882
  Beta virt. eigenvalues --    3.09991   3.10452   3.11958   3.14382   3.17602
  Beta virt. eigenvalues --    3.22136   3.23503   3.24849   3.27559   3.28979
  Beta virt. eigenvalues --    3.30300   3.30881   3.33536   3.33911   3.35034
  Beta virt. eigenvalues --    3.37219   3.38424   3.39291   3.43242   3.46802
  Beta virt. eigenvalues --    3.48975   3.52143   3.55859   3.59921   3.60866
  Beta virt. eigenvalues --    3.63146   3.72096   3.72933   3.84650   3.91810
  Beta virt. eigenvalues --    4.00048   4.00718   4.03374   4.05745   4.08342
  Beta virt. eigenvalues --    4.10417   4.17602   4.22018   4.25605   4.32285
  Beta virt. eigenvalues --    4.55255   4.61510   4.64115   4.66559   4.68208
  Beta virt. eigenvalues --    4.70466   4.74929  23.40811  23.56001  23.69921
  Beta virt. eigenvalues --   23.73548  23.76724  23.78788  23.81271  23.84316
  Beta virt. eigenvalues --   23.84687  23.85286  23.85933  23.87509  23.88781
  Beta virt. eigenvalues --   23.89654  23.90001  23.91055  23.91849  23.92664
  Beta virt. eigenvalues --   23.94007  23.96790  23.97662  23.98912  24.04014
          Condensed to atoms (all electrons):
               1          2          3          4          5          6
     1  C    8.734328   1.630268  -0.527592  -0.057138  -1.803872   0.267991
     2  C    1.630268   6.673379   0.503809   0.108113  -0.630277   0.367779
     3  C   -0.527592   0.503809   7.038294   1.257738   1.144092  -1.111420
     4  C   -0.057138   0.108113   1.257738   8.755278  -0.124659  -0.616006
     5  C   -1.803872  -0.630277   1.144092  -0.124659   9.719873   0.117254
     6  C    0.267991   0.367779  -1.111420  -0.616006   0.117254   9.214047
     7  C   -0.292274  -0.602316   0.952565   0.443545  -0.042909  -0.846567
     8  C   -0.275250  -0.199924  -0.094398  -0.655214   0.010226  -0.595549
     9  C   -0.423153  -0.349211  -0.253522  -0.690849   0.036711  -0.609862
    10  C   -0.448245  -0.203791   0.459576   0.975418  -0.053880  -0.801771
    11  C   -0.103364  -0.274043  -0.067349  -0.737794  -0.051989  -0.098788
    12  C   -0.034999  -0.014667  -0.096742  -0.200192  -0.020351   0.059165
    13  C   -0.026408  -0.068960  -0.115337  -0.082689   0.008834  -0.191485
    14  C   -0.064744  -0.050353  -0.577169  -0.950062  -0.086278  -0.092754
    15  C   -0.031363  -0.106269  -0.073569  -0.345258  -0.037296  -0.032229
    16  C    0.001490  -0.031718   0.152464  -0.079161  -0.012144   0.006652
    17  C    0.000639   0.007074  -0.040876   0.002382   0.001016  -0.004094
    18  C   -0.007061  -0.029678  -0.004309  -0.124381  -0.003882   0.009501
    19  C   -1.085520  -1.697511  -1.128387  -0.289468  -0.746391   0.682416
    20  C    0.042705   0.385517   0.037119  -0.100219  -0.224566  -0.073347
    21  C    0.551184  -0.604913  -0.979502   0.029343  -0.023963   0.435290
    22  C    0.344867   1.183598  -0.820073  -0.334862  -1.058822   0.293077
    23  C   -0.485886  -0.095730   0.380725  -0.552640   0.030117  -0.458068
    24  H   -0.018786   0.040915   0.007800   0.001063  -0.003855  -0.002034
    25  H    0.010075   0.010620   0.005592   0.002076   0.010276  -0.000767
    26  H   -0.059515   0.042317   0.006178   0.002979   0.046946   0.000085
    27  H   -0.036724   0.008105  -0.024517   0.031099   0.294362  -0.013677
    28  H   -0.034799  -0.014165   0.009394  -0.030827  -0.016814   0.298733
    29  H    0.005486   0.002364   0.002063  -0.047544   0.003047   0.050874
    30  H    0.000634   0.000722   0.009218   0.050917   0.000665   0.007125
    31  H    0.000023   0.000172   0.001123   0.002858  -0.000009   0.000340
    32  H   -0.000003   0.000006  -0.000306   0.000264   0.000001   0.000007
    33  H    0.000019   0.000307  -0.000472  -0.000009   0.000003  -0.000007
    34  H    0.000000   0.000021   0.000054   0.000039  -0.000000   0.000002
    35  H    0.000670  -0.009805   0.016413   0.006904   0.000657  -0.001153
               7          8          9         10         11         12
     1  C   -0.292274  -0.275250  -0.423153  -0.448245  -0.103364  -0.034999
     2  C   -0.602316  -0.199924  -0.349211  -0.203791  -0.274043  -0.014667
     3  C    0.952565  -0.094398  -0.253522   0.459576  -0.067349  -0.096742
     4  C    0.443545  -0.655214  -0.690849   0.975418  -0.737794  -0.200192
     5  C   -0.042909   0.010226   0.036711  -0.053880  -0.051989  -0.020351
     6  C   -0.846567  -0.595549  -0.609862  -0.801771  -0.098788   0.059165
     7  C    8.013209   0.949103   0.362443   0.215745   0.284041   0.112848
     8  C    0.949103   7.010359   1.137031   0.004856   1.183885  -0.164648
     9  C    0.362443   1.137031  10.093531   1.152564  -0.135622   0.472037
    10  C    0.215745   0.004856   1.152564   7.573453  -0.485177  -0.492572
    11  C    0.284041   1.183885  -0.135622  -0.485177   7.061463   1.505557
    12  C    0.112848  -0.164648   0.472037  -0.492572   1.505557   9.349411
    13  C   -0.408524   0.600143  -0.900580  -0.236449  -0.616210  -1.558269
    14  C   -0.439636  -0.350725  -0.405315  -1.503440   0.025411  -0.597252
    15  C    0.127406  -0.186565  -0.913542  -0.192447   0.738400  -0.533773
    16  C   -0.546857  -0.765826  -0.039699  -0.009586  -1.178067   0.416146
    17  C    0.070537   0.181659  -0.026508  -0.033855   0.760072   0.078434
    18  C   -0.165041  -1.245711  -1.038472  -0.173427  -1.882377  -2.146714
    19  C   -0.194418  -0.065748  -0.066871  -0.020181  -0.027889  -0.003301
[...]
 1,-0.00001031,0.00003560,0.00000002,0.00000976,0.00002928,0.,0.0002107
 7,0.00141093,0.00000002,-0.00508191,0.00039322,0.00000003,-0.00088271,
 0.02826636,-0.00000004,0.00107610,0.00210791,-0.00000006,-0.00055612,-
 0.00025130,0.00000006,-0.00412342,-0.00230446,-0.00000007,0.00678441,-
 0.02705699,0.00000002,-0.06201966,0.03531262,0.00000006,0.00020080,0.0
 0008556,-0.00000004,-0.00014719,0.00004974,0.,-0.00026359,-0.00028740,
 0.,0.00077224,-0.00084500,0.,-0.00001135,0.00001374,0.00000001,-0.0000
 3392,-0.00000175,-0.00000002,0.00000037,-0.00004072,0.00000002,-0.0000
 7876,0.00017593,-0.00000004,-0.00035880,-0.00007086,0.,0.00000238,0.00
 000118,0.,-0.00000424,-0.00000316,0.,-0.00000401,0.00000187,0.,0.00000
 335,-0.00000507,0.,-0.00002604,-0.00001104,0.,-0.00050358,-0.00093084,
 0.,0.06397748,0.00001098,0.00004572,0.00000004,0.00002507,0.00011260,0
 .00000002,-0.00016251,0.00019618,0.,0.00044639,0.00023372,0.,0.0000675
 2,-0.00006032,-0.00000001,-0.00008321,-0.00008726,0.,-0.00041316,-0.00
 050091,-0.00000001,0.00197076,0.00113705,-0.00000005,-0.00045014,-0.00
 911965,0.,-0.00222734,0.00054642,0.,0.00000063,0.00041304,-0.00000006,
 -0.00349438,0.00048697,0.00000002,0.00471352,-0.01547147,0.00000002,0.
 03479489,-0.32792107,0.00000001,0.00005063,0.00002141,0.00000007,-0.00
 006993,0.00004858,-0.00000006,-0.00035175,-0.00018176,0.00000005,0.000
 61449,-0.00069652,0.00000002,0.00001777,-0.00002428,-0.00000003,0.0000
 2845,-0.00000158,0.00000002,0.00000972,0.00003120,0.,-0.00002212,-0.00
 011589,-0.00000003,0.00019846,-0.00000233,-0.00000001,-0.00000296,-0.0
 0000524,0.,0.00000888,-0.00000207,0.,0.00000909,0.00000134,0.,0.000012
 71,0.00000154,-0.00000001,0.00001094,0.00002365,0.,0.00040892,0.000686
 49,0.,-0.03583222,0.34940097,0.,0.00000002,-0.00002322,0.00000003,0.00
 000003,0.00003207,0.00000002,0.,-0.00005200,0.00000003,0.,-0.00006385,
 0.00000002,-0.00000003,0.00001343,0.,0.,0.00004281,0.00000002,-0.00000
 006,0.00028598,-0.00000003,0.,0.00385124,-0.00000006,-0.00000003,0.002
 62076,0.00000002,0.00000003,-0.00197577,-0.00000006,0.00000010,-0.0006
 6472,0.00000002,0.00000007,0.00948920,0.,-0.00000005,0.00476592,-0.000
 00002,-0.00000002,-0.03670598,0.00000005,-0.00000009,-0.00070234,0.,0.
 00000005,0.00016705,-0.00000006,0.00000005,-0.00070357,0.,-0.00000004,
 0.00012939,-0.00000002,-0.00000001,0.00000606,0.00000004,0.00000005,0.
 00000054,-0.00000005,0.00000003,-0.00000028,0.00000004,0.,-0.00003394,
 -0.00000005,0.00000002,-0.00001337,0.,-0.00000001,0.00000238,0.,0.,-0.
 00000040,-0.00000002,-0.00000001,0.00000237,-0.00000003,-0.00000002,-0
 .00000902,0.,0.,0.00001634,0.,0.,0.00026791,0.,0.,0.02470988,-0.000034
 65,-0.00002197,0.00000005,0.00003587,-0.00004008,0.00000013,-0.0000151
 4,-0.00006864,0.,-0.00029927,-0.00033832,0.00000013,-0.00006057,-0.000
 02617,0.00000008,-0.00002407,0.00012786,-0.00000003,0.00005036,0.00008
 409,0.00000005,0.00020456,-0.00023749,0.,-0.00083304,-0.00414730,-0.00
 000028,-0.00072955,0.00091460,-0.00000038,0.00158989,0.00001520,0.0000
 0013,-0.00134019,-0.00035471,-0.00000041,-0.29084123,0.09788798,0.0000
 0025,-0.01967187,0.01203514,0.00000051,-0.00030524,-0.00007002,0.00000
 005,0.00023839,-0.00009183,-0.00000029,0.00012789,0.00038000,0.0000002
 3,0.00065001,-0.00144570,0.00000010,0.00000208,-0.00002924,-0.00000007
 ,0.00001723,0.00002534,-0.00000004,-0.00003227,-0.00000480,0.00000019,
 0.00004027,0.00004361,-0.00000040,-0.00002279,-0.00000166,-0.00000006,
 0.00000002,0.00000606,0.00000003,-0.00000821,0.00000456,-0.00000002,-0
 .00000669,-0.00000330,0.,-0.00002053,0.00000484,0.,-0.00000050,-0.0000
 1628,0.,0.00000343,-0.00005420,0.00000004,0.00089918,-0.00026033,0.000
 00003,0.30989251,0.00002319,-0.00005349,-0.00000002,0.00004762,0.00001
 012,-0.00000005,0.00002905,-0.00012207,0.,-0.00031725,-0.00013124,-0.0
 0000005,-0.00004960,0.00002873,-0.00000003,0.00000677,0.00008710,0.,0.
 00014305,0.00008653,-0.00000002,-0.00074483,-0.00049437,0.00000001,-0.
 00287719,-0.00232137,0.00000010,-0.00038718,0.00075404,0.00000014,-0.0
 0069213,-0.00508779,-0.00000004,0.02875233,-0.00848951,0.00000014,0.09
 913492,-0.09881955,-0.00000009,-0.01966077,0.01100694,-0.00000018,0.00
 166206,-0.00052754,-0.00000003,-0.00041953,0.00033471,0.00000011,-0.00
 039636,-0.00016974,-0.00000009,0.00172534,0.00141754,-0.00000004,-0.00
 001048,0.00004455,0.00000003,-0.00002634,-0.00001612,0.00000001,0.0000
 1796,0.00000442,-0.00000007,-0.00003525,0.00005920,0.00000015,-0.00004
 563,-0.00000888,0.00000002,-0.00000253,0.00000231,0.,0.00000084,0.0000
 0040,0.,-0.00000059,0.00000064,0.,-0.00001141,0.00000572,0.,0.00000260
 ,-0.00000349,0.,0.00001241,-0.00003583,-0.00000001,0.00023082,0.000916
 54,0.,-0.10482001,0.10166395,0.,-0.00000002,0.00000338,-0.00000004,-0.
 00000004,-0.00003526,-0.00000002,0.,0.00017137,-0.00000004,0.,-0.00075
 423,-0.00000002,0.00000003,0.00004411,-0.00000001,0.,-0.00009275,-0.00
 000003,0.00000007,-0.00060876,0.00000003,-0.00000001,-0.00069776,0.000
 00008,0.00000003,0.00927227,-0.00000002,-0.00000004,0.00029589,0.00000
 007,-0.00000011,0.00379518,-0.00000002,-0.00000008,0.00273067,0.,0.000
 00005,-0.03504896,0.00000001,0.00000003,0.00417905,-0.00000006,0.00000
 011,-0.00006856,-0.00000001,-0.00000005,0.00007542,0.00000007,-0.00000
 007,-0.00051259,-0.00000001,0.00000005,-0.00196297,0.00000002,0.000000
 02,-0.00000084,-0.00000004,-0.00000006,-0.00000657,0.00000006,-0.00000
 003,0.00001811,-0.00000005,0.,-0.00000261,0.00000006,-0.00000003,0.000
 00021,0.,0.00000002,0.00000169,0.,0.,-0.00000150,0.00000002,0.00000001
 ,0.00000243,0.00000004,0.00000003,0.00001821,0.,0.,-0.00000186,0.,0.,0
 .00023057,0.,0.,-0.00567179,-0.00000003,0.00000001,0.02393682,-0.00002
 429,0.00002023,0.00000001,-0.00004143,-0.00006390,0.00000012,-0.000093
 86,0.00009695,0.,0.00000108,-0.00001980,0.00000012,-0.00001152,-0.0000
 0997,0.00000009,0.00000852,0.00000996,-0.00000003,-0.00021297,-0.00032
 354,0.00000007,-0.00062731,0.00116781,0.00000003,0.00012441,0.00009316
 ,-0.00000028,0.00005781,-0.00007120,-0.00000039,-0.00186423,-0.0037187
 2,0.00000018,-0.01954124,0.01196215,-0.00000044,0.00085082,0.00205864,
 0.00000023,0.00012205,-0.00044198,0.00000050,0.00039658,-0.00098544,0.
 ,0.00207397,0.00033614,-0.00000024,0.00025575,-0.00089137,0.00000019,-
 0.28877008,0.10080151,0.00000008,-0.00000583,-0.00002574,-0.00000005,0
 .00000988,0.00000932,-0.00000005,-0.00001315,-0.00001167,0.00000019,0.
 00001114,0.00001651,-0.00000037,0.00005095,-0.00006275,-0.00000005,0.0
 0000094,0.00000417,0.00000002,-0.00000670,0.00000264,-0.00000003,-0.00
 000595,-0.00000146,0.,-0.00000490,-0.00000259,0.00000001,-0.00000353,-
 0.00000978,0.00000001,-0.00001663,-0.00002783,0.00000004,-0.00004217,-
 0.00004095,0.00000003,0.00045432,-0.00114534,-0.00000003,0.30618477,-0
 .00000212,-0.00000567,0.,0.00000297,-0.00002689,-0.00000004,-0.0000880
 4,0.00001466,0.,-0.00005253,0.00004895,-0.00000004,-0.00000863,0.00001
 151,-0.00000003,0.00001980,-0.00000605,0.,-0.00007619,-0.00026227,-0.0
 0000003,-0.00084269,0.00054792,-0.00000002,-0.00020922,0.00012859,0.00
 000010,0.00014365,-0.00000685,0.00000014,-0.00308805,-0.00168326,-0.00
 000008,-0.01718090,0.00994706,0.00000016,-0.00147936,0.00101147,-0.000
 00008,0.00039430,0.00011783,-0.00000018,-0.00097961,-0.00117975,0.0000
 0001,0.00007119,-0.00523900,0.00000007,0.02999593,-0.00798540,-0.00000
 006,0.10094014,-0.10201743,-0.00000002,-0.00000146,-0.00000148,0.,0.00
 000215,0.00000178,0.00000002,-0.00000383,0.00000242,-0.00000007,0.0000
 0461,0.00001384,0.00000013,0.00000582,-0.00004056,0.00000001,-0.000002
 56,-0.00000077,0.,0.00000241,-0.00000139,0.00000001,0.00000133,0.00000
 192,0.,0.00000283,0.00000111,0.,-0.00000155,0.00000158,0.,-0.00001067,
 -0.00000756,-0.00000001,0.00002323,0.00001255,0.,0.00041192,-0.0002052
 7,0.00000001,-0.10894510,0.10640736,0.00000003,0.,0.00000990,0.0000001
 1,0.00000006,-0.00003158,0.00000006,0.,-0.00003938,0.00000009,0.000000
 03,-0.00001442,0.,-0.00000002,-0.00000352,0.00000005,-0.00000002,0.000
 00011,0.,-0.00000010,0.00008976,-0.00000007,0.00000001,0.00007276,-0.0
 0000013,-0.00000007,0.00002160,0.00000003,0.00000010,0.00004256,-0.000
 00012,0.00000010,0.00497849,0.00000003,0.00000005,0.00280835,-0.000000
 06,0.00000003,-0.00330718,0.00000004,-0.00000010,-0.00016842,0.0000000
 4,-0.00000007,-0.00085215,0.00000006,0.00000003,0.00683839,-0.00000010
 ,0.00000013,0.00367942,0.00000004,-0.00000008,-0.03453341,-0.00000005,
 -0.00000002,0.00000650,0.,0.00000004,-0.00000323,-0.00000006,-0.000000
 01,-0.00000728,0.00000009,0.00000002,-0.00000307,-0.00000009,0.0000000
 7,-0.00000220,0.,0.,0.00000404,0.,0.,0.00000161,-0.00000002,-0.0000000
 1,0.00000094,-0.00000005,-0.00000004,-0.00000047,0.,0.,0.00000034,0.,0
 .,0.00001003,0.00000002,-0.00000002,0.00019172,0.00000003,0.,0.0003678
 5,0.00000005,-0.00000002,0.02426458,0.00001708,0.00002070,0.00000003,0
 .00000341,-0.00000076,0.00000006,-0.00000932,0.00010428,0.,0.00003572,
 -0.00003363,0.00000006,-0.00000367,-0.00000989,0.00000003,-0.00000262,
 0.00000521,-0.00000001,-0.00008549,0.00010938,0.00000002,0.00098722,-0
 .00058119,0.,-0.00009803,-0.00011237,-0.00000013,-0.00003247,-0.000134
 53,-0.00000017,-0.00370177,-0.00378695,0.00000005,-0.00125790,-0.00016
 592,-0.00000019,0.00014567,0.00028511,0.00000012,-0.00022497,-0.000034
 18,0.00000023,0.00536661,-0.02373881,0.00000003,-0.05664410,0.03146103
 ,-0.00000014,0.00094275,0.02969599,0.00000011,-0.00475414,0.00152621,0
 .00000005,-0.00001068,0.00001331,-0.00000004,-0.00002245,-0.00000346,-
 0.00000002,0.00001107,-0.00002729,0.00000009,-0.00005351,0.00005601,-0
 .00000018,0.00001908,-0.00021213,-0.00000003,-0.00001330,0.00000937,0.
 00000001,-0.00000080,-0.00000097,-0.00000001,0.00000015,0.00000271,0.,
 0.00000033,0.00000176,0.,0.00000017,0.00000088,0.,-0.00002730,-0.00002
 331,0.00000002,0.00001101,0.00000029,0.00000001,0.00003173,-0.00005942
 ,-0.00000001,-0.00010189,0.00134914,0.00000001,0.05839405,-0.00000806,
 -0.00000229,-0.00000004,-0.00000390,-0.00003059,-0.00000022,-0.0000266
 1,0.00003419,-0.00000001,-0.00001344,-0.00001204,-0.00000023,-0.000019
 21,-0.00000040,-0.00000015,0.00001441,0.00001918,0.00000005,0.00000225
 ,0.00001659,-0.00000011,0.00051554,-0.00024565,-0.00000004,-0.00025128
 ,-0.00008824,0.00000050,0.00006356,-0.00003857,0.00000070,-0.00154183,
 -0.00020093,-0.00000030,-0.00040663,0.00038835,0.00000077,0.00005312,0
 .00002488,-0.00000043,-0.00004987,0.00003235,-0.00000090,-0.00182732,-
 0.01639254,-0.00000002,0.03724078,-0.32724721,0.00000046,-0.00122906,-
 0.00830559,-0.00000036,0.00245587,0.00135491,-0.00000015,-0.00000532,-
 0.00000897,0.00000010,-0.00000391,0.00001315,0.00000009,-0.00001424,-0
 .00001977,-0.00000034,0.00000339,0.00002203,0.00000068,-0.00008504,-0.
 00006438,0.00000009,-0.00000560,0.00000891,-0.00000004,-0.00000594,0.0
 0000158,0.00000005,-0.00000361,-0.00000062,0.,-0.00000435,-0.00000079,
 -0.00000002,-0.00000031,-0.00000503,-0.00000002,-0.00001642,-0.0000198
 3,-0.00000007,-0.00000006,-0.00001798,-0.00000005,0.00002850,0.0000062
 2,0.00000006,-0.00010345,-0.00051062,-0.00000008,-0.03485981,0.3506177
 1,0.00000007,-0.00000005,0.00000797,0.00000011,0.,0.00002728,0.0000000
 7,0.,-0.00001161,0.00000009,0.00000010,-0.00001255,-0.00000009,0.00000
 006,0.00000741,0.00000007,-0.00000004,-0.00000676,-0.00000010,0.,0.000
 03260,-0.00000005,-0.00000001,0.00029362,-0.00000005,-0.00000005,-0.00
 038723,-0.00000001,0.00000011,0.00004969,-0.00000005,-0.00000014,0.005
 92933,0.,-0.00000013,-0.00071473,-0.00000013,0.00000025,-0.00054490,0.
 00000014,-0.00000014,-0.00000927,-0.00000010,0.00000019,-0.00091795,0.
 00000011,-0.00000010,-0.03298094,-0.00000002,0.00000009,0.00573556,0.0
 0000005,-0.00000003,0.00533783,-0.00000005,0.,-0.00001331,-0.00000014,
 -0.00000009,-0.00000336,0.00000004,-0.00000013,-0.00001672,0.00000007,
 0.00000007,0.00002676,-0.00000002,0.00000007,-0.00003928,0.,0.00000003
 ,0.00001723,0.,-0.00000002,0.00000285,0.00000003,0.00000001,0.00000266
 ,0.,0.,-0.00000020,0.,0.,0.00000184,-0.00000002,-0.00000002,-0.0000302
 6,0.00000003,-0.00000004,0.00003914,-0.00000003,0.00000002,0.00025299,
 0.00000001,-0.00000001,-0.00006792,-0.00000002,0.,0.02112941,-0.000006
 35,-0.00000819,0.00000003,-0.00005304,-0.00002408,0.00000003,0.0000053
 3,-0.00001887,0.,-0.00002544,0.00001697,0.00000003,-0.00001017,0.00000
 575,0.,0.00001132,0.00001533,0.,0.00007938,-0.00002229,0.,-0.00007412,
 -0.00006277,-0.00000002,-0.00018092,-0.00002431,-0.00000005,0.00009080
 ,0.00003387,-0.00000007,0.00105634,0.00109802,0.,0.00117622,0.00125623
 ,-0.00000007,0.00022305,0.00008266,0.00000006,0.00018956,0.00002411,0.
 00000010,-0.00540934,0.00225997,0.00000004,-0.01795494,-0.01760265,-0.
 00000008,-0.23666052,-0.13315181,0.00000007,0.00627176,0.00424347,0.00
 000003,-0.00000177,-0.00000034,-0.00000003,-0.00000708,0.00000313,0.,0
 .00000690,-0.00001929,0.00000004,0.00000307,-0.00002440,-0.00000009,-0
 .00009886,0.00014631,-0.00000002,0.00000275,0.00000540,0.,-0.00000797,
 0.00000182,0.,-0.00000540,-0.00000226,0.,-0.00000581,-0.00000318,0.,-0
 .00000017,-0.00000632,0.,-0.00000164,-0.00000982,0.,0.00000860,0.00000
 982,0.,0.00000680,-0.00006387,0.,0.00077804,-0.00039169,0.,0.00114297,
 0.00009259,-0.00000002,0.24940516,0.00000501,0.00001158,0.00000003,-0.
 00000409,-0.00000242,0.00000002,-0.00001740,0.00005044,0.,0.00002799,-
 0.00002138,0.,-0.00000267,-0.00000154,0.,-0.00000197,0.00001179,0.,-0.
 00014590,0.00005433,0.,0.00017529,0.00014222,-0.00000004,0.00024994,0.
 00000180,-0.00000001,-0.00008711,-0.00000878,0.,-0.00001845,-0.0007789
 0,-0.00000004,0.00227875,-0.00471379,0.,-0.00155491,0.00011031,0.00000
 002,0.00004201,-0.00059091,0.00000003,0.00289908,0.00067770,0.00000005
 ,0.01273119,0.00941553,-0.00000005,-0.13159724,-0.15518010,0.00000004,
 -0.02666093,-0.01300320,0.00000002,-0.00000789,0.00001331,-0.00000003,
 -0.00001863,-0.00001372,0.00000001,0.00002307,-0.00001069,0.00000001,-
 0.00004809,0.00003448,-0.00000003,0.00008875,-0.00012698,0.,-0.0000008
 0,0.00000317,0.,-0.00000242,0.00000151,0.,-0.00000302,-0.00000059,0.,-
 0.00000386,-0.00000078,0.,0.00000092,-0.00000296,0.,0.00000548,0.00000
 291,0.,-0.00012973,-0.00009698,0.,0.00006051,0.00000584,0.,0.00032577,
 0.00089334,-0.00000001,-0.00082673,0.00071984,-0.00000003,0.14223886,0
 .16236107,-0.00000003,0.00000004,-0.00001673,-0.00000002,0.00000003,-0
 .00000938,-0.00000001,0.,0.00001362,-0.00000001,-0.00000005,0.00000068
 ,0.00000006,-0.00000005,-0.00000679,-0.00000002,0.00000001,0.00000872,
 0.00000006,-0.00000005,-0.00002430,0.,0.00000001,-0.00050749,-0.000000
 04,0.,0.00008726,0.00000002,-0.00000002,0.00001971,-0.00000003,0.00000
 015,-0.00086934,0.00000002,0.00000012,0.00764444,0.00000005,-0.0000001
 4,0.00024838,-0.00000007,0.00000003,-0.00040985,0.00000009,-0.00000016
 ,0.00560177,-0.00000004,0.00000008,0.00367920,-0.00000004,0.00000001,-
 0.03579310,-0.00000001,-0.00000002,0.00349298,0.,-0.00000002,0.0000062
 5,0.00000009,0.00000008,-0.00002031,-0.00000006,0.00000008,-0.00000416
 ,0.,-0.00000004,0.00014647,-0.00000003,0.,-0.00003850,0.,-0.00000002,0
 .00001205,0.,0.,0.00000231,-0.00000003,-0.00000002,0.00000205,-0.00000
 003,-0.00000002,0.00000113,0.,0.,0.00000128,0.,0.00000001,0.00000227,0
 .,0.00000002,-0.00001025,0.00000003,-0.00000001,0.00004277,0.00000002,
 0.,-0.00438985,0.00000002,-0.00000004,-0.00315974,0.00000001,0.0000000
 1,0.02439057,0.00110336,-0.00138253,-0.00000002,-0.00562932,-0.0007354
 6,0.,-0.00218489,0.00350946,0.,0.00081860,0.00014425,0.00000002,-0.000
 49329,0.00005900,0.00000002,0.00002258,0.00018246,0.,0.01174215,0.0119
 9842,0.00000002,0.00016834,-0.00045975,0.00000003,-0.00011335,-0.00020
 481,-0.00000004,0.00016660,0.00006069,-0.00000007,0.00019070,-0.000008
 39,0.00000005,-0.00015550,0.00003900,-0.00000008,0.00000453,-0.0000740
 0,0.00000003,0.00009942,-0.00002210,0.00000007,-0.00126583,0.00003457,
 -0.00000003,-0.00005216,-0.00026890,-0.00000001,-0.00009292,0.00008969
 ,0.,0.00010037,-0.00013462,0.,-0.00009902,0.00024200,0.,-0.00026566,0.
 00009214,-0.00000002,0.00109760,0.00008373,0.00000003,-0.00161558,-0.0
 2369763,-0.00000005,-0.11452427,-0.11629281,0.,-0.00042362,0.00061688,
 0.,-0.00007795,-0.00000834,0.,-0.00004068,0.00003335,0.,0.00001460,-0.
 00017108,0.,0.00010111,0.00005022,0.,-0.00000629,-0.00000140,0.,-0.000
 01006,0.00000106,0.,0.00000130,-0.00002324,0.,0.00000666,-0.00000724,0
 .00000002,-0.00006464,0.00001526,0.00000002,0.00004550,-0.00002078,0.,
 0.11143161,0.00028191,0.00008406,-0.00000003,0.00071079,-0.00002441,-0
 .00000004,0.00214950,-0.00390512,0.,-0.00142836,0.00010122,-0.00000003
 ,-0.00005198,0.00006843,-0.00000001,0.00025692,-0.00037489,0.,-0.01437
 594,-0.01071276,0.,-0.00037650,0.00031794,0.00000002,0.00022613,-0.000
 08070,0.00000006,0.00015194,0.00001944,0.00000008,-0.00024778,-0.00044
 591,0.,0.00037417,0.00021703,0.00000008,-0.00002599,-0.00001106,-0.000
 00006,-0.00014455,0.00000561,-0.00000012,0.00087653,-0.00031008,-0.000
 00004,-0.00049115,0.00052238,0.00000009,0.00004689,-0.00021427,-0.0000
 0007,-0.00010548,0.00005756,-0.00000003,-0.00013321,0.00033336,0.00000
 003,-0.00036163,-0.00030631,0.,-0.00015049,0.00027319,-0.00000005,0.00
 234989,0.00330985,0.00000010,-0.11526154,-0.29066481,0.00000002,-0.000
 30132,-0.00014533,0.,-0.00002615,-0.00001147,0.,-0.00002470,0.00000516
 ,0.,-0.00001115,0.00001001,0.,-0.00011374,-0.00007462,0.,0.00004504,-0
 .00003174,0.,0.00002976,-0.00001065,0.,0.00000184,0.00005077,0.,-0.000
 00235,0.00001633,0.,-0.00003002,-0.00004785,0.00000002,-0.00009819,0.0
 0004259,-0.00000001,0.12626091,0.30193702,-0.00000003,0.,0.00078948,-0
 .00000011,-0.00000006,0.00288459,-0.00000006,0.,0.00401575,-0.00000009
 ,-0.00000004,0.00060429,0.,0.00000002,-0.00017205,-0.00000005,0.000000
 02,-0.00025363,0.,0.00000010,0.00280807,0.00000007,-0.00000001,-0.0016
 9890,0.00000013,0.00000007,-0.00018854,-0.00000003,-0.00000011,0.00010
 642,0.00000013,-0.00000010,0.00018947,-0.00000003,-0.00000005,-0.00026
 084,0.00000006,-0.00000004,0.00011739,-0.00000004,0.00000011,0.0000070
 4,-0.00000004,0.00000007,-0.00050621,-0.00000006,-0.00000003,0.0005119
 2,0.00000011,-0.00000014,0.00004941,-0.00000004,0.00000008,-0.00002696
 ,0.00000005,0.00000002,0.00010556,0.,-0.00000004,-0.00025514,0.0000000
 6,0.00000001,-0.00135318,-0.00000009,-0.00000002,0.00166637,0.00000009
 ,-0.00000008,-0.02548668,0.,0.,0.00031419,0.,0.,0.00001934,0.00000002,
 0.00000002,0.00004390,0.00000005,0.00000004,-0.00016084,0.,0.,-0.00014
 482,0.,0.,0.00002882,-0.00000002,0.00000002,-0.00000366,-0.00000003,0.
 ,0.00002801,-0.00000005,0.00000002,0.00003513,-0.00000001,0.00000008,0
 .00002257,0.,0.00000001,-0.00014413,-0.00000002,0.,0.01630785\\-0.0000
 4514,-0.00009451,0.,0.00003055,0.00000446,0.,-0.00006544,0.00014965,0.
 ,-0.00007095,-0.00008914,0.,0.00017353,0.00004660,0.,-0.00005501,0.000
 16880,0.,-0.00006338,-0.00022289,0.,0.00011150,0.00017053,0.,0.0000310
 9,-0.00014830,0.,-0.00002982,0.00001734,0.,0.00017590,0.00021632,0.,0.
 00000843,-0.00024934,0.,-0.00006702,0.00015509,0.,0.00001150,0.0001570
 8,0.,-0.00023873,-0.00006867,0.,0.00017788,-0.00032342,0.,-0.00005200,
 0.00031463,0.,-0.00014155,-0.00003033,0.,-0.00001932,-0.00012935,0.,0.
 00013485,0.00010950,0.,-0.00011336,0.00000516,0.,0.00031137,-0.0000869
 3,0.,-0.00033255,0.00007031,0.,0.00001642,0.00002075,0.,-0.00003058,-0
 .00000057,0.,-0.00002930,-0.00000929,0.,-0.00000074,-0.00001617,0.,-0.
 00002173,-0.00000761,0.,-0.00000665,-0.00004340,0.,0.00002498,-0.00000
 996,0.,-0.00000752,-0.00005519,0.,0.00005230,0.00000497,0.,0.00001290,
 0.00001789,0.,0.00004335,-0.00005007,0.,0.00007426,0.00000606,0.\\\@


 LENDING MONEY TO FRIENDS CAUSES THEM TO LOSE THEIR MEMORIES.

    --  PETER'S THEORY OF RECIPROCAL INHIBITION OF FISCAL RECALL
 Job cpu time:       0 days 12 hours 40 minutes 38.8 seconds.
 Elapsed time:       0 days  0 hours 38 minutes  9.4 seconds.
 File lengths (MBytes):  RWF=   1990 Int=      0 D2E=      0 Chk=     38 Scr=      1
 Normal termination of Gaussian 16 at Mon Jun 24 18:40:45 2019.
