 Entering Gaussian System, Link 0=/share/apps/gaussian16/g16/g16
 Initial command:
 /share/apps/gaussian16/g16/l1.exe "/home/amen01//scratch/602/Gau-10170.inp" -scrdir="/home/amen01//scratch/602/"
 Entering Link 1 = /share/apps/gaussian16/g16/l1.exe PID=     10171.
  
 Copyright (c) 1988-2017, Gaussian, Inc.  All Rights Reserved.
  
 This is part of the Gaussian(R) 16 program.  It is based on
 the Gaussian(R) 09 system (copyright 2009, Gaussian, Inc.),
 the Gaussian(R) 03 system (copyright 2003, Gaussian, Inc.),
 the Gaussian(R) 98 system (copyright 1998, Gaussian, Inc.),
 the Gaussian(R) 94 system (copyright 1995, Gaussian, Inc.),
 the Gaussian 92(TM) system (copyright 1992, Gaussian, Inc.),
 the Gaussian 90(TM) system (copyright 1990, Gaussian, Inc.),
 the Gaussian 88(TM) system (copyright 1988, Gaussian, Inc.),
 the Gaussian 86(TM) system (copyright 1986, Carnegie Mellon
 University), and the Gaussian 82(TM) system (copyright 1983,
 Carnegie Mellon University). Gaussian is a federally registered
 trademark of Gaussian, Inc.
  
 This software contains proprietary and confidential information,
 including trade secrets, belonging to Gaussian, Inc.
  
 This software is provided under written license and may be
 used, copied, transmitted, or stored only in accord with that
 written license.
  
 The following legend is applicable only to US Government
 contracts under FAR:
  
                    RESTRICTED RIGHTS LEGEND
  
 Use, reproduction and disclosure by the US Government is
 subject to restrictions as set forth in subparagraphs (a)
 and (c) of the Commercial Computer Software - Restricted
 Rights clause in FAR 52.227-19.
  
 Gaussian, Inc.
 340 Quinnipiac St., Bldg. 40, Wallingford CT 06492
  
  
 ---------------------------------------------------------------
 Warning -- This program may not be used in any manner that
 competes with the business of Gaussian, Inc. or will provide
 assistance to any competitor of Gaussian, Inc.  The licensee
 of this program is prohibited from giving any competitor of
 Gaussian, Inc. access to this program.  By using this program,
 the user acknowledges that Gaussian, Inc. is engaged in the
 business of creating and licensing software in the field of
 computational chemistry and represents and warrants to the
 licensee that it is not a competitor of Gaussian, Inc. and that
 it will not use this program in any manner prohibited above.
 ---------------------------------------------------------------
  

 Cite this work as:
 Gaussian 16, Revision B.01,
 M. J. Frisch, G. W. Trucks, H. B. Schlegel, G. E. Scuseria, 
 M. A. Robb, J. R. Cheeseman, G. Scalmani, V. Barone, 
 G. A. Petersson, H. Nakatsuji, X. Li, M. Caricato, A. V. Marenich, 
 J. Bloino, B. G. Janesko, R. Gomperts, B. Mennucci, H. P. Hratchian, 
 J. V. Ortiz, A. F. Izmaylov, J. L. Sonnenberg, D. Williams-Young, 
 F. Ding, F. Lipparini, F. Egidi, J. Goings, B. Peng, A. Petrone, 
 T. Henderson, D. Ranasinghe, V. G. Zakrzewski, J. Gao, N. Rega, 
 G. Zheng, W. Liang, M. Hada, M. Ehara, K. Toyota, R. Fukuda, 
 J. Hasegawa, M. Ishida, T. Nakajima, Y. Honda, O. Kitao, H. Nakai, 
 T. Vreven, K. Throssell, J. A. Montgomery, Jr., J. E. Peralta, 
 F. Ogliaro, M. J. Bearpark, J. J. Heyd, E. N. Brothers, K. N. Kudin, 
 V. N. Staroverov, T. A. Keith, R. Kobayashi, J. Normand, 
 K. Raghavachari, A. P. Rendell, J. C. Burant, S. S. Iyengar, 
 J. Tomasi, M. Cossi, J. M. Millam, M. Klene, C. Adamo, R. Cammi, 
 J. W. Ochterski, R. L. Martin, K. Morokuma, O. Farkas, 
 J. B. Foresman, and D. J. Fox, Gaussian, Inc., Wallingford CT, 2016.
 
 ******************************************
 Gaussian 16:  ES64L-G16RevB.01 20-Dec-2017
                24-Jun-2019 
 ******************************************
 %nprocshared=20
 Will use up to   20 processors via shared memory.
 %mem=100GB
 %chk=7-HACAsite2-2a.chk
 -------------------------------------------
 # opt freq b3lyp/6-311+g(d,p) int=grid=fine
 -------------------------------------------
 1/18=20,19=15,26=3,38=1/1,3;
 2/9=110,12=2,17=6,18=5,40=1/2;
 3/5=4,6=6,7=111,11=2,25=1,30=1,71=1,74=-5,75=-4/1,2,3;
 4//1;
 5/5=2,38=5/2;
 6/7=2,8=2,9=2,10=2,28=1/1;
 7//1,2,3,16;
 1/18=20,19=15,26=3/3(2);
 2/9=110/2;
 99//99;
 2/9=110/2;
 3/5=4,6=6,7=111,11=2,25=1,30=1,71=1,74=-5,75=-4/1,2,3;
 4/5=5,16=3,69=1/1;
 5/5=2,38=5/2;
 7//1,2,3,16;
 1/18=20,19=15,26=3/3(-5);
 2/9=110/2;
 6/7=2,8=2,9=2,10=2,19=2,28=1/1;
 99/9=1/99;
 --------------
 7-HACAsite2-2a
 --------------
 Symbolic Z-matrix:
 Charge =  0 Multiplicity = 3
 C                    -8.91948  -0.39555   0. 
 C                    -7.65352   0.30766   0. 
 C                    -6.37886  -0.33932   0. 
 C                    -6.22685  -1.77284   0. 
 C                    -8.81299  -1.86694   0. 
 C                    -7.48708  -2.5444    0. 
 C                    -5.32168   0.65761   0. 
 C                    -3.92207   0.24743   0. 
 C                    -3.69144  -1.28092   0. 
 C                    -4.84313  -2.23255   0. 
 C                    -2.73806   1.16186   0. 
 C                    -1.34492   0.56639   0. 
 C                    -1.1865   -0.88299   0. 
 C                    -2.31802  -1.77539   0. 
 C                    -2.83168   2.63492   0. 
 C                    -1.65641   3.48605   0. 
 C                    -0.33498   2.90354   0. 
 C                    -0.18243   1.46436   0. 
 C                    -10.10023   0.47699   0. 
 C                    -9.94728   1.9506    0. 
 C                    -8.61912   2.59687   0. 
 C                    -7.46627   1.743     0. 
 C                    -6.04301   1.90745   0. 
 H                    -8.52635   3.67372   0. 
 H                    -10.83563   2.57154   0. 
 H                    -11.09299   0.04495   0. 
 H                    -9.71263  -2.46981   0. 
 H                    -7.45162  -3.62697   0. 
 H                    -4.6444   -3.29753   0. 
 H                    -2.13566  -2.84369   0. 
 H                    -0.1897   -1.30841   0. 
 H                     0.81662   1.04521   0. 
 H                    -3.7944    3.12585   0. 
 H                    -1.77372   4.5627    0. 
 H                     0.53974   3.5416    0. 
 

 GradGradGradGradGradGradGradGradGradGradGradGradGradGradGradGradGradGrad
 Berny optimization.
 Initialization pass.
                           ----------------------------
                           !    Initial Parameters    !
                           ! (Angstroms and Degrees)  !
 --------------------------                            --------------------------
 ! Name  Definition              Value          Derivative Info.                !
 --------------------------------------------------------------------------------
 ! R1    R(1,2)                  1.4482         estimate D2E/DX2                !
 ! R2    R(1,5)                  1.4752         estimate D2E/DX2                !
 ! R3    R(1,19)                 1.4682         estimate D2E/DX2                !
 ! R4    R(2,3)                  1.4295         estimate D2E/DX2                !
 ! R5    R(2,22)                 1.4475         estimate D2E/DX2                !
 ! R6    R(3,4)                  1.4416         estimate D2E/DX2                !
 ! R7    R(3,7)                  1.4531         estimate D2E/DX2                !
 ! R8    R(4,6)                  1.4777         estimate D2E/DX2                !
 ! R9    R(4,10)                 1.4581         estimate D2E/DX2                !
 ! R10   R(5,6)                  1.489          estimate D2E/DX2                !
 ! R11   R(5,27)                 1.083          estimate D2E/DX2                !
 ! R12   R(6,28)                 1.0832         estimate D2E/DX2                !
 ! R13   R(7,8)                  1.4585         estimate D2E/DX2                !
 ! R14   R(7,23)                 1.4431         estimate D2E/DX2                !
 ! R15   R(8,9)                  1.5457         estimate D2E/DX2                !
 ! R16   R(8,11)                 1.496          estimate D2E/DX2                !
 ! R17   R(9,10)                 1.494          estimate D2E/DX2                !
 ! R18   R(9,14)                 1.4597         estimate D2E/DX2                !
 ! R19   R(10,29)                1.0834         estimate D2E/DX2                !
 ! R20   R(11,12)                1.5151         estimate D2E/DX2                !
 ! R21   R(11,15)                1.476          estimate D2E/DX2                !
 ! R22   R(12,13)                1.458          estimate D2E/DX2                !
 ! R23   R(12,18)                1.4689         estimate D2E/DX2                !
 ! R24   R(13,14)                1.4411         estimate D2E/DX2                !
 ! R25   R(13,31)                1.0838         estimate D2E/DX2                !
 ! R26   R(14,30)                1.0838         estimate D2E/DX2                !
 ! R27   R(15,16)                1.4511         estimate D2E/DX2                !
 ! R28   R(15,33)                1.0807         estimate D2E/DX2                !
 ! R29   R(16,17)                1.4441         estimate D2E/DX2                !
 ! R30   R(16,34)                1.083          estimate D2E/DX2                !
 ! R31   R(17,18)                1.4472         estimate D2E/DX2                !
 ! R32   R(17,35)                1.0827         estimate D2E/DX2                !
 ! R33   R(18,32)                1.0834         estimate D2E/DX2                !
 ! R34   R(19,20)                1.4815         estimate D2E/DX2                !
 ! R35   R(19,26)                1.0827         estimate D2E/DX2                !
 ! R36   R(20,21)                1.477          estimate D2E/DX2                !
 ! R37   R(20,25)                1.0839         estimate D2E/DX2                !
 ! R38   R(21,22)                1.4346         estimate D2E/DX2                !
 ! R39   R(21,24)                1.0808         estimate D2E/DX2                !
 ! R40   R(22,23)                1.4327         estimate D2E/DX2                !
 ! A1    A(2,1,5)              114.9116         estimate D2E/DX2                !
 ! A2    A(2,1,19)             114.4856         estimate D2E/DX2                !
 ! A3    A(5,1,19)             130.6028         estimate D2E/DX2                !
 ! A4    A(1,2,3)              124.0379         estimate D2E/DX2                !
 ! A5    A(1,2,22)             126.4838         estimate D2E/DX2                !
 ! A6    A(3,2,22)             109.4784         estimate D2E/DX2                !
 ! A7    A(2,3,4)              122.964          estimate D2E/DX2                !
 ! A8    A(2,3,7)              109.7691         estimate D2E/DX2                !
 ! A9    A(4,3,7)              127.2669         estimate D2E/DX2                !
 ! A10   A(3,4,6)              115.4235         estimate D2E/DX2                !
 ! A11   A(3,4,10)             114.4309         estimate D2E/DX2                !
 ! A12   A(6,4,10)             130.1456         estimate D2E/DX2                !
 ! A13   A(1,5,6)              121.2038         estimate D2E/DX2                !
 ! A14   A(1,5,27)             119.6875         estimate D2E/DX2                !
 ! A15   A(6,5,27)             119.1087         estimate D2E/DX2                !
 ! A16   A(4,6,5)              121.4592         estimate D2E/DX2                !
 ! A17   A(4,6,28)             119.6005         estimate D2E/DX2                !
 ! A18   A(5,6,28)             118.9404         estimate D2E/DX2                !
 ! A19   A(3,7,8)              120.3459         estimate D2E/DX2                !
 ! A20   A(3,7,23)             103.329          estimate D2E/DX2                !
 ! A21   A(8,7,23)             136.325          estimate D2E/DX2                !
 ! A22   A(7,8,9)              114.9154         estimate D2E/DX2                !
 ! A23   A(7,8,11)             125.9864         estimate D2E/DX2                !
 ! A24   A(9,8,11)             119.0982         estimate D2E/DX2                !
 ! A25   A(8,9,10)             120.9853         estimate D2E/DX2                !
 ! A26   A(8,9,14)             118.3816         estimate D2E/DX2                !
 ! A27   A(10,9,14)            120.6331         estimate D2E/DX2                !
 ! A28   A(4,10,9)             122.0555         estimate D2E/DX2                !
 ! A29   A(4,10,29)            118.948          estimate D2E/DX2                !
 ! A30   A(9,10,29)            118.9965         estimate D2E/DX2                !
 ! A31   A(8,11,12)            119.1772         estimate D2E/DX2                !
 ! A32   A(8,11,15)            124.043          estimate D2E/DX2                !
 ! A33   A(12,11,15)           116.7799         estimate D2E/DX2                !
 ! A34   A(11,12,13)           119.3811         estimate D2E/DX2                !
 ! A35   A(11,12,18)           119.1722         estimate D2E/DX2                !
 ! A36   A(13,12,18)           121.4467         estimate D2E/DX2                !
 ! A37   A(12,13,14)           122.0241         estimate D2E/DX2                !
 ! A38   A(12,13,31)           119.3499         estimate D2E/DX2                !
 ! A39   A(14,13,31)           118.626          estimate D2E/DX2                !
 ! A40   A(9,14,13)            121.9378         estimate D2E/DX2                !
 ! A41   A(9,14,30)            119.4874         estimate D2E/DX2                !
 ! A42   A(13,14,30)           118.5748         estimate D2E/DX2                !
 ! A43   A(11,15,16)           122.2755         estimate D2E/DX2                !
 ! A44   A(11,15,33)           120.6554         estimate D2E/DX2                !
 ! A45   A(16,15,33)           117.0691         estimate D2E/DX2                !
 ! A46   A(15,16,17)           120.2992         estimate D2E/DX2                !
 ! A47   A(15,16,34)           119.6937         estimate D2E/DX2                !
 ! A48   A(17,16,34)           120.0071         estimate D2E/DX2                !
 ! A49   A(16,17,18)           119.8394         estimate D2E/DX2                !
 ! A50   A(16,17,35)           120.1026         estimate D2E/DX2                !
 ! A51   A(18,17,35)           120.0581         estimate D2E/DX2                !
 ! A52   A(12,18,17)           121.6338         estimate D2E/DX2                !
 ! A53   A(12,18,32)           119.5552         estimate D2E/DX2                !
 ! A54   A(17,18,32)           118.8111         estimate D2E/DX2                !
 ! A55   A(1,19,20)            120.5377         estimate D2E/DX2                !
 ! A56   A(1,19,26)            120.0184         estimate D2E/DX2                !
 ! A57   A(20,19,26)           119.4439         estimate D2E/DX2                !
 ! A58   A(19,20,21)           121.8728         estimate D2E/DX2                !
 ! A59   A(19,20,25)           119.0272         estimate D2E/DX2                !
 ! A60   A(21,20,25)           119.1001         estimate D2E/DX2                !
 ! A61   A(20,21,22)           117.527          estimate D2E/DX2                !
 ! A62   A(20,21,24)           120.871          estimate D2E/DX2                !
 ! A63   A(22,21,24)           121.602          estimate D2E/DX2                !
 ! A64   A(2,22,21)            119.0932         estimate D2E/DX2                !
 ! A65   A(2,22,23)            104.0236         estimate D2E/DX2                !
 ! A66   A(21,22,23)           136.8831         estimate D2E/DX2                !
 ! A67   A(7,23,22)            113.3999         estimate D2E/DX2                !
 ! D1    D(5,1,2,3)              0.0            estimate D2E/DX2                !
 ! D2    D(5,1,2,22)           180.0            estimate D2E/DX2                !
 ! D3    D(19,1,2,3)           180.0            estimate D2E/DX2                !
 ! D4    D(19,1,2,22)            0.0            estimate D2E/DX2                !
 ! D5    D(2,1,5,6)              0.0            estimate D2E/DX2                !
 ! D6    D(2,1,5,27)           180.0            estimate D2E/DX2                !
 ! D7    D(19,1,5,6)           180.0            estimate D2E/DX2                !
 ! D8    D(19,1,5,27)            0.0            estimate D2E/DX2                !
 ! D9    D(2,1,19,20)            0.0            estimate D2E/DX2                !
 ! D10   D(2,1,19,26)          180.0            estimate D2E/DX2                !
 ! D11   D(5,1,19,20)          180.0            estimate D2E/DX2                !
 ! D12   D(5,1,19,26)            0.0            estimate D2E/DX2                !
 ! D13   D(1,2,3,4)              0.0            estimate D2E/DX2                !
 ! D14   D(1,2,3,7)            180.0            estimate D2E/DX2                !
 ! D15   D(22,2,3,4)           180.0            estimate D2E/DX2                !
 ! D16   D(22,2,3,7)             0.0            estimate D2E/DX2                !
 ! D17   D(1,2,22,21)            0.0            estimate D2E/DX2                !
 ! D18   D(1,2,22,23)          180.0            estimate D2E/DX2                !
 ! D19   D(3,2,22,21)          180.0            estimate D2E/DX2                !
 ! D20   D(3,2,22,23)            0.0            estimate D2E/DX2                !
 ! D21   D(2,3,4,6)              0.0            estimate D2E/DX2                !
 ! D22   D(2,3,4,10)           180.0            estimate D2E/DX2                !
 ! D23   D(7,3,4,6)            180.0            estimate D2E/DX2                !
 ! D24   D(7,3,4,10)             0.0            estimate D2E/DX2                !
 ! D25   D(2,3,7,8)            180.0            estimate D2E/DX2                !
 ! D26   D(2,3,7,23)             0.0            estimate D2E/DX2                !
 ! D27   D(4,3,7,8)              0.0            estimate D2E/DX2                !
 ! D28   D(4,3,7,23)           180.0            estimate D2E/DX2                !
 ! D29   D(3,4,6,5)              0.0            estimate D2E/DX2                !
 ! D30   D(3,4,6,28)           180.0            estimate D2E/DX2                !
 ! D31   D(10,4,6,5)           180.0            estimate D2E/DX2                !
 ! D32   D(10,4,6,28)            0.0            estimate D2E/DX2                !
 ! D33   D(3,4,10,9)             0.0            estimate D2E/DX2                !
 ! D34   D(3,4,10,29)          180.0            estimate D2E/DX2                !
 ! D35   D(6,4,10,9)           180.0            estimate D2E/DX2                !
 ! D36   D(6,4,10,29)            0.0            estimate D2E/DX2                !
 ! D37   D(1,5,6,4)              0.0            estimate D2E/DX2                !
 ! D38   D(1,5,6,28)           180.0            estimate D2E/DX2                !
 ! D39   D(27,5,6,4)           180.0            estimate D2E/DX2                !
 ! D40   D(27,5,6,28)            0.0            estimate D2E/DX2                !
 ! D41   D(3,7,8,9)              0.0            estimate D2E/DX2                !
 ! D42   D(3,7,8,11)           180.0            estimate D2E/DX2                !
 ! D43   D(23,7,8,9)           180.0            estimate D2E/DX2                !
 ! D44   D(23,7,8,11)            0.0            estimate D2E/DX2                !
 ! D45   D(3,7,23,22)            0.0            estimate D2E/DX2                !
 ! D46   D(8,7,23,22)          180.0            estimate D2E/DX2                !
 ! D47   D(7,8,9,10)             0.0            estimate D2E/DX2                !
 ! D48   D(7,8,9,14)           180.0            estimate D2E/DX2                !
 ! D49   D(11,8,9,10)          180.0            estimate D2E/DX2                !
 ! D50   D(11,8,9,14)            0.0            estimate D2E/DX2                !
 ! D51   D(7,8,11,12)          180.0            estimate D2E/DX2                !
 ! D52   D(7,8,11,15)            0.0            estimate D2E/DX2                !
 ! D53   D(9,8,11,12)            0.0            estimate D2E/DX2                !
 ! D54   D(9,8,11,15)          180.0            estimate D2E/DX2                !
 ! D55   D(8,9,10,4)             0.0            estimate D2E/DX2                !
 ! D56   D(8,9,10,29)          180.0            estimate D2E/DX2                !
 ! D57   D(14,9,10,4)          180.0            estimate D2E/DX2                !
 ! D58   D(14,9,10,29)           0.0            estimate D2E/DX2                !
 ! D59   D(8,9,14,13)            0.0            estimate D2E/DX2                !
 ! D60   D(8,9,14,30)          180.0            estimate D2E/DX2                !
 ! D61   D(10,9,14,13)         180.0            estimate D2E/DX2                !
 ! D62   D(10,9,14,30)           0.0            estimate D2E/DX2                !
 ! D63   D(8,11,12,13)           0.0            estimate D2E/DX2                !
 ! D64   D(8,11,12,18)         180.0            estimate D2E/DX2                !
 ! D65   D(15,11,12,13)        180.0            estimate D2E/DX2                !
 ! D66   D(15,11,12,18)          0.0            estimate D2E/DX2                !
 ! D67   D(8,11,15,16)         180.0            estimate D2E/DX2                !
 ! D68   D(8,11,15,33)           0.0            estimate D2E/DX2                !
 ! D69   D(12,11,15,16)          0.0            estimate D2E/DX2                !
 ! D70   D(12,11,15,33)        180.0            estimate D2E/DX2                !
 ! D71   D(11,12,13,14)          0.0            estimate D2E/DX2                !
 ! D72   D(11,12,13,31)        180.0            estimate D2E/DX2                !
 ! D73   D(18,12,13,14)        180.0            estimate D2E/DX2                !
 ! D74   D(18,12,13,31)          0.0            estimate D2E/DX2                !
 ! D75   D(11,12,18,17)          0.0            estimate D2E/DX2                !
 ! D76   D(11,12,18,32)        180.0            estimate D2E/DX2                !
 ! D77   D(13,12,18,17)        180.0            estimate D2E/DX2                !
 ! D78   D(13,12,18,32)          0.0            estimate D2E/DX2                !
 ! D79   D(12,13,14,9)           0.0            estimate D2E/DX2                !
 ! D80   D(12,13,14,30)        180.0            estimate D2E/DX2                !
 ! D81   D(31,13,14,9)         180.0            estimate D2E/DX2                !
 ! D82   D(31,13,14,30)          0.0            estimate D2E/DX2                !
 ! D83   D(11,15,16,17)          0.0            estimate D2E/DX2                !
 ! D84   D(11,15,16,34)        180.0            estimate D2E/DX2                !
 ! D85   D(33,15,16,17)        180.0            estimate D2E/DX2                !
 ! D86   D(33,15,16,34)          0.0            estimate D2E/DX2                !
 ! D87   D(15,16,17,18)          0.0            estimate D2E/DX2                !
 ! D88   D(15,16,17,35)        180.0            estimate D2E/DX2                !
 ! D89   D(34,16,17,18)        180.0            estimate D2E/DX2                !
 ! D90   D(34,16,17,35)          0.0            estimate D2E/DX2                !
 ! D91   D(16,17,18,12)          0.0            estimate D2E/DX2                !
 ! D92   D(16,17,18,32)        180.0            estimate D2E/DX2                !
 ! D93   D(35,17,18,12)        180.0            estimate D2E/DX2                !
 ! D94   D(35,17,18,32)          0.0            estimate D2E/DX2                !
 ! D95   D(1,19,20,21)           0.0            estimate D2E/DX2                !
 ! D96   D(1,19,20,25)         180.0            estimate D2E/DX2                !
 ! D97   D(26,19,20,21)        180.0            estimate D2E/DX2                !
 ! D98   D(26,19,20,25)          0.0            estimate D2E/DX2                !
 ! D99   D(19,20,21,22)          0.0            estimate D2E/DX2                !
 ! D100  D(19,20,21,24)        180.0            estimate D2E/DX2                !
 ! D101  D(25,20,21,22)        180.0            estimate D2E/DX2                !
 ! D102  D(25,20,21,24)          0.0            estimate D2E/DX2                !
 ! D103  D(20,21,22,2)           0.0            estimate D2E/DX2                !
 ! D104  D(20,21,22,23)        180.0            estimate D2E/DX2                !
 ! D105  D(24,21,22,2)         180.0            estimate D2E/DX2                !
 ! D106  D(24,21,22,23)          0.0            estimate D2E/DX2                !
 ! D107  D(2,22,23,7)            0.0            estimate D2E/DX2                !
 ! D108  D(21,22,23,7)         180.0            estimate D2E/DX2                !
 --------------------------------------------------------------------------------
 Trust Radius=3.00D-01 FncErr=1.00D-07 GrdErr=1.00D-06 EigMax=2.50D+02 EigMin=1.00D-04
 Number of steps in this run=    210 maximum allowed number of steps=    210.
 GradGradGradGradGradGradGradGradGradGradGradGradGradGradGradGradGradGrad

                          Input orientation:                          
 ---------------------------------------------------------------------
 Center     Atomic      Atomic             Coordinates (Angstroms)
 Number     Number       Type             X           Y           Z
 ---------------------------------------------------------------------
      1          6           0       -8.919480   -0.395550    0.000000
      2          6           0       -7.653520    0.307660    0.000000
      3          6           0       -6.378860   -0.339320    0.000000
      4          6           0       -6.226850   -1.772840    0.000000
      5          6           0       -8.812990   -1.866940    0.000000
      6          6           0       -7.487080   -2.544400    0.000000
      7          6           0       -5.321680    0.657610    0.000000
      8          6           0       -3.922070    0.247430    0.000000
      9          6           0       -3.691440   -1.280920    0.000000
     10          6           0       -4.843130   -2.232550    0.000000
     11          6           0       -2.738060    1.161860    0.000000
     12          6           0       -1.344920    0.566390    0.000000
     13          6           0       -1.186500   -0.882990    0.000000
     14          6           0       -2.318020   -1.775390    0.000000
     15          6           0       -2.831680    2.634920    0.000000
     16          6           0       -1.656410    3.486050    0.000000
     17          6           0       -0.334980    2.903540    0.000000
     18          6           0       -0.182430    1.464360    0.000000
     19          6           0      -10.100230    0.476990    0.000000
     20          6           0       -9.947280    1.950600    0.000000
     21          6           0       -8.619120    2.596870    0.000000
     22          6           0       -7.466270    1.743000    0.000000
     23          6           0       -6.043010    1.907450    0.000000
     24          1           0       -8.526350    3.673720    0.000000
     25          1           0      -10.835630    2.571540    0.000000
     26          1           0      -11.092990    0.044950    0.000000
     27          1           0       -9.712630   -2.469810    0.000000
     28          1           0       -7.451620   -3.626970    0.000000
     29          1           0       -4.644400   -3.297530    0.000000
     30          1           0       -2.135660   -2.843690    0.000000
     31          1           0       -0.189700   -1.308410    0.000000
     32          1           0        0.816620    1.045210    0.000000
     33          1           0       -3.794400    3.125850    0.000000
     34          1           0       -1.773720    4.562700    0.000000
     35          1           0        0.539740    3.541600    0.000000
 ---------------------------------------------------------------------
                    Distance matrix (angstroms):
                    1          2          3          4          5
     1  C    0.000000
     2  C    1.448157   0.000000
     3  C    2.541242   1.429455   0.000000
     4  C    3.024431   2.522671   1.441557   0.000000
     5  C    1.475239   2.464398   2.873780   2.587851   0.000000
     6  C    2.582504   2.856912   2.467900   1.477662   1.488956
     7  C    3.748775   2.357953   1.453100   2.593534   4.308433
     8  C    5.038604   3.731936   2.525885   3.064882   5.328382
     9  C    5.302479   4.268684   2.847602   2.582690   5.154968
    10  C    4.471152   3.788266   2.437783   1.458086   3.986660
    11  C    6.374596   4.989129   3.938142   4.558960   6.788108
    12  C    7.635397   6.313903   5.114769   5.413431   7.854500
    13  C    7.748327   6.575713   5.220745   5.118297   7.689701
    14  C    6.744126   5.727710   4.307287   3.908831   6.495615
    15  C    6.800372   5.354090   4.629102   5.563769   7.486175
    16  C    8.235229   6.787304   6.077416   6.967413   8.937065
    17  C    9.196610   7.765283   6.858909   7.522145   9.728008
    18  C    8.932822   7.560102   6.453604   6.856710   9.251169
    19  C    1.468161   2.452562   3.809850   4.479376   2.674134
    20  C    2.561404   2.821451   4.239971   5.263611   3.982490
    21  C    3.007456   2.484525   3.693234   4.981699   4.468018
    22  C    2.585578   1.447502   2.349152   3.727907   3.852963
    23  C    3.684819   2.270038   2.271733   3.684879   4.681753
    24  H    4.088216   3.477383   4.551506   5.912082   5.548070
    25  H    3.532033   3.905250   5.323148   6.333600   4.877620
    26  H    2.217698   3.449488   4.729766   5.194582   2.975521
    27  H    2.220730   3.457495   3.956389   3.554776   1.082961
    28  H    3.549181   3.939807   3.458245   2.222130   2.225092
    29  H    5.166991   4.695977   3.429192   2.197459   4.407236
    30  H    7.212046   6.354352   4.927131   4.229014   6.748391
    31  H    8.777378   7.636772   6.264570   6.054988   8.641359
    32  H    9.842125   8.502191   7.327473   7.586295  10.060318
    33  H    6.218256   4.778598   4.322827   5.469367   7.079138
    34  H    8.697478   7.257921   6.725854   7.743993   9.533708
    35  H   10.245877   8.808398   7.932753   8.604070  10.803974
                    6          7          8          9         10
     6  C    0.000000
     7  C    3.865466   0.000000
     8  C    4.528091   1.458477   0.000000
     9  C    4.000408   2.532900   1.545653   0.000000
    10  C    2.662278   2.929511   2.645497   1.493984   0.000000
    11  C    6.024081   2.632368   1.496015   2.622233   3.994163
    12  C    6.884994   3.977806   2.596813   2.986421   4.480127
    13  C    6.515949   4.412841   2.959931   2.536350   3.897724
    14  C    5.225950   3.865419   2.581623   1.459720   2.566160
    15  C    6.964058   3.179600   2.624702   4.009113   5.266706
    16  C    8.388268   4.629717   3.952452   5.183180   6.546569
    17  C    8.990694   5.469130   4.463422   5.364283   6.833947
    18  C    8.332351   5.202186   3.932661   4.455302   5.948888
    19  C    3.994665   4.781962   6.182423   6.645513   5.914280
    20  C    5.124218   4.802916   6.261305   7.041183   6.599325
    21  C    5.264425   3.825420   5.251871   6.270509   6.130367
    22  C    4.287451   2.403609   3.846828   4.836676   4.762968
    23  C    4.680204   1.443058   2.693335   3.961765   4.310373
    24  H    6.304371   4.400776   5.739238   6.922775   6.960613
    25  H    6.114379   5.836675   7.293751   8.116705   7.680452
    26  H    4.439293   5.803738   7.173778   7.519367   6.651899
    27  H    2.226800   5.390844   6.396404   6.137442   4.875277
    28  H    1.083151   4.784796   5.241059   4.432032   2.957808
    29  H    2.940754   4.012710   3.617803   2.230437   1.083363
    30  H    5.359783   4.733902   3.570194   2.205153   2.775587
    31  H    7.401312   5.495676   4.043665   3.501848   4.744307
    32  H    9.046366   6.150525   4.805376   5.072818   6.540373
    33  H    6.766655   2.902549   2.881250   4.407973   5.460063
    34  H    9.118846   5.276149   4.820473   6.150248   7.456319
    35  H   10.073194   6.532507   5.546107   6.415574   7.894055
                   11         12         13         14         15
    11  C    0.000000
    12  C    1.515066   0.000000
    13  C    2.566856   1.458012   0.000000
    14  C    2.967132   2.535913   1.441081   0.000000
    15  C    1.476032   2.547405   3.883595   4.440122   0.000000
    16  C    2.563557   2.936229   4.394238   5.302875   1.451097
    17  C    2.967868   2.546026   3.881095   5.081814   2.511109
    18  C    2.573471   1.468922   2.553078   3.880300   2.896332
    19  C    7.393957   8.755766   9.016880   8.101605   7.582116
    20  C    7.252239   8.713015   9.207633   8.490501   7.148430
    21  C    6.053604   7.552273   8.206904   7.669454   5.787565
    22  C    4.763790   6.233405   6.806712   6.235667   4.719634
    23  C    3.388008   4.885744   5.601093   5.238212   3.292697
    24  H    6.309813   7.824860   8.639271   8.260518   5.788642
    25  H    8.219357   9.700217  10.248877   9.562713   8.004201
    26  H    8.429255   9.762006   9.949855   8.961793   8.657782
    27  H    7.863438   8.901521   8.672537   7.427145   8.567715
    28  H    6.719415   7.407837   6.839675   5.457307   7.781717
    29  H    4.849772   5.080989   4.217473   2.780100   6.203218
    30  H    4.050595   3.500559   2.178359   1.083753   5.522645
    31  H    3.549137   2.202137   1.083786   2.178948   4.746568
    32  H    3.556593   2.213939   2.780368   4.216842   3.979607
    33  H    2.230047   3.542709   4.782462   5.118774   1.080667
    34  H    3.534921   4.019249   5.477259   6.361419   2.199003
    35  H    4.050572   3.521905   4.749411   6.036321   3.491209
                   16         17         18         19         20
    16  C    0.000000
    17  C    1.444124   0.000000
    18  C    2.501969   1.447242   0.000000
    19  C    8.963958  10.062219   9.966828   0.000000
    20  C    8.431852   9.659421   9.776949   1.481526   0.000000
    21  C    7.019257   8.289814   8.512363   2.586035   1.477049
    22  C    6.065698   7.225106   7.289168   2.922418   2.489680
    23  C    4.661999   5.794290   5.877306   4.302005   3.904508
    24  H    6.872503   8.227498   8.631470   3.563170   2.233424
    25  H    9.224663  10.505897  10.710580   2.219899   1.083851
    26  H   10.044412  11.131321  11.002502   1.082696   2.223545
    27  H   10.018730  10.808016  10.310306   2.972182   4.426634
    28  H    9.174939   9.658888   8.874839   4.884427   6.110451
    29  H    7.412492   7.551448   6.525701   6.634236   7.460791
    30  H    6.347857   6.022715   4.730159   8.629096   9.165513
    31  H    5.013789   4.214455   2.772780  10.070067  10.287444
    32  H    3.474705   2.186223   1.083415  10.931628  10.801911
    33  H    2.168120   3.466556   3.975786   6.839587   6.264116
    34  H    1.083022   2.196084   3.483090   9.274901   8.580801
    35  H    2.196852   1.082708   2.199194  11.072524  10.607020
                   21         22         23         24         25
    21  C    0.000000
    22  C    1.434628   0.000000
    23  C    2.666766   1.432729   0.000000
    24  H    1.080839   2.202601   3.047407   0.000000
    25  H    2.216655   3.469736   4.838411   2.558823   0.000000
    26  H    3.554199   4.004556   5.382491   4.444729   2.539664
    27  H    5.183340   4.774296   5.711963   6.257014   5.164914
    28  H    6.332396   5.369990   5.710866   7.379371   7.062085
    29  H    7.109314   5.776668   5.389613   7.979214   8.530962
    30  H    8.463743   7.032292   6.151481   9.127845  10.247643
    31  H    9.290120   7.890474   6.678547   9.711918  11.330924
    32  H    9.562470   8.312231   6.913608   9.705676  11.751792
    33  H    4.853632   3.923634   2.557488   4.763561   7.063015
    34  H    7.122078   6.352624   5.027643   6.810895   9.278089
    35  H    9.207455   8.205557   6.782554   9.067053  11.416657
                   26         27         28         29         30
    26  H    0.000000
    27  H    2.868695   0.000000
    28  H    5.171322   2.539918   0.000000
    29  H    7.263366   5.135375   2.826485   0.000000
    30  H    9.411589   7.586189   5.373356   2.549460   0.000000
    31  H   10.986961   9.593490   7.623070   4.878622   2.478678
    32  H   11.951541  11.100472   9.497003   6.977258   4.882571
    33  H    7.922207   8.144744   7.679573   6.479376   6.195710
    34  H   10.356585  10.605776   9.965402   8.368036   7.415228
    35  H   12.146891  11.884786  10.735466   8.581900   6.923127
                   31         32         33         34         35
    31  H    0.000000
    32  H    2.559728   0.000000
    33  H    5.714589   5.058712   0.000000
    34  H    6.081040   4.368363   2.479453   0.000000
    35  H    4.904557   2.511698   4.354035   2.528783   0.000000
 Stoichiometry    C23H12(3)
 Framework group  CS[SG(C23H12)]
 Deg. of freedom    67
 Full point group                 CS      NOp   2
 Largest Abelian subgroup         CS      NOp   2
 Largest concise Abelian subgroup C1      NOp   1
                         Standard orientation:                         
 ---------------------------------------------------------------------
 Center     Atomic      Atomic             Coordinates (Angstroms)
 Number     Number       Type             X           Y           Z
 ---------------------------------------------------------------------
      1          6           0       -3.474688    1.743244   -0.000000
      2          6           0       -2.045608    1.508958   -0.000000
      3          6           0       -1.447662    0.210574   -0.000000
      4          6           0       -2.218140   -1.007806   -0.000000
      5          6           0       -4.304362    0.523420   -0.000000
      6          6           0       -3.685147   -0.830670   -0.000000
      7          6           0        0.000000    0.336171   -0.000000
      8          6           0        0.842884   -0.854082    0.000000
      9          6           0        0.075199   -2.195612    0.000000
     10          6           0       -1.418455   -2.227034    0.000000
     11          6           0        2.338794   -0.871887    0.000000
     12          6           0        3.061610   -2.203413    0.000000
     13          6           0        2.286314   -3.438207    0.000000
     14          6           0        0.845235   -3.435704    0.000000
     15          6           0        3.179596    0.341258    0.000000
     16          6           0        4.629367    0.279243    0.000000
     17          6           0        5.303998   -0.997616    0.000000
     18          6           0        4.530430   -2.220769    0.000000
     19          6           0       -3.859012    3.160209   -0.000000
     20          6           0       -2.824530    4.220760   -0.000000
     21          6           0       -1.382016    3.903225   -0.000000
     22          6           0       -1.007983    2.518214   -0.000000
     23          6           0        0.210073    1.763857   -0.000000
     24          1           0       -0.640960    4.690020   -0.000000
     25          1           0       -3.135727    5.258974   -0.000000
     26          1           0       -4.905579    3.437569   -0.000000
     27          1           0       -5.383934    0.609038   -0.000000
     28          1           0       -4.329207   -1.701533   -0.000000
     29          1           0       -1.923577   -3.185433    0.000000
     30          1           0        0.325217   -4.386546    0.000000
     31          1           0        2.803892   -4.390417    0.000000
     32          1           0        5.053663   -3.169460    0.000000
     33          1           0        2.729397    1.323686    0.000000
     34          1           0        5.205573    1.196261    0.000000
     35          1           0        6.385868   -1.040175    0.000000
 ---------------------------------------------------------------------
 Rotational constants (GHZ):           0.5637110           0.1732395           0.1325150
 Standard basis: 6-311+G(d,p) (5D, 7F)
 There are   451 symmetry adapted cartesian basis functions of A'  symmetry.
 There are   150 symmetry adapted cartesian basis functions of A"  symmetry.
 There are   428 symmetry adapted basis functions of A'  symmetry.
 There are   150 symmetry adapted basis functions of A"  symmetry.
   578 basis functions,   924 primitive gaussians,   601 cartesian basis functions
    76 alpha electrons       74 beta electrons
       nuclear repulsion energy      1589.5119679195 Hartrees.
 NAtoms=   35 NActive=   35 NUniq=   35 SFac= 1.00D+00 NAtFMM=   60 NAOKFM=F Big=F
 Integral buffers will be    131072 words long.
 Raffenetti 2 integral format.
 Two-electron integral symmetry is turned on.
 One-electron integrals computed using PRISM.
 NBasis=   578 RedAO= T EigKep=  1.13D-06  NBF=   428   150
 NBsUse=   565 1.00D-06 EigRej=  6.54D-07 NBFU=   415   150
 ExpMin= 4.38D-02 ExpMax= 4.56D+03 ExpMxC= 6.82D+02 IAcc=2 IRadAn=         4 AccDes= 0.00D+00
 Harris functional with IExCor=  402 and IRadAn=       4 diagonalized for initial guess.
 HarFok:  IExCor=  402 AccDes= 0.00D+00 IRadAn=         4 IDoV= 1 UseB2=F ITyADJ=14
 ICtDFT=  3500011 ScaDFX=  1.000000  1.000000  1.000000  1.000000
 FoFCou: FMM=F IPFlag=           0 FMFlag=      100000 FMFlg1=           0
         NFxFlg=           0 DoJE=T BraDBF=F KetDBF=T FulRan=T
         wScrn=  0.000000 ICntrl=       500 IOpCl=  0 I1Cent=   200000004 NGrid=           0
         NMat0=    1 NMatS0=      1 NMatT0=    0 NMatD0=    1 NMtDS0=    0 NMtDT0=    0
 Petite list used in FoFCou.
 Initial guess orbital symmetries:
 Alpha Orbitals:
       Occupied  (A') (A') (A') (A') (A') (A') (A') (A') (A') (A')
                 (A') (A') (A') (A') (A') (A') (A') (A') (A') (A')
                 (A') (A') (A') (A') (A') (A') (A') (A') (A') (A')
                 (A') (A') (A') (A') (A') (A') (A') (A') (A') (A')
                 (A') (A') (A') (A') (A') (A') (A') (A') (A') (A')
                 (A') (A') (A') (A') (A') (A') (A') (A") (A') (A')
                 (A') (A') (A") (A') (A') (A") (A") (A") (A") (A")
                 (A") (A") (A") (A") (A') (A")
       Virtual   (A") (A") (A") (A") (A") (A") (A") (A") (A') (A')
                 (A') (A") (A') (A') (A') (A') (A') (A') (A") (A')
                 (A') (A") (A') (A') (A') (A") (A") (A') (A') (A")
                 (A') (A') (A") (A') (A") (A') (A') (A') (A') (A")
                 (A") (A') (A') (A') (A") (A') (A') (A") (A') (A')
                 (A') (A') (A") (A") (A') (A') (A') (A') (A') (A")
                 (A') (A') (A") (A') (A') (A') (A") (A') (A') (A')
                 (A') (A") (A') (A') (A') (A') (A") (A') (A') (A")
                 (A') (A") (A') (A') (A') (A') (A") (A') (A') (A')
                 (A') (A') (A") (A') (A') (A') (A') (A') (A") (A")
                 (A") (A') (A') (A') (A') (A') (A') (A') (A') (A')
                 (A') (A') (A') (A') (A') (A') (A') (A') (A') (A')
                 (A') (A') (A') (A') (A') (A') (A') (A') (A') (A')
                 (A') (A') (A') (A") (A') (A') (A") (A') (A") (A')
                 (A') (A") (A') (A") (A') (A') (A") (A') (A") (A")
                 (A') (A') (A") (A') (A") (A') (A") (A') (A") (A')
                 (A") (A') (A") (A') (A') (A') (A") (A') (A') (A')
                 (A") (A') (A") (A") (A") (A') (A') (A') (A") (A')
                 (A") (A") (A') (A") (A') (A') (A') (A') (A') (A')
                 (A') (A') (A') (A') (A') (A') (A") (A') (A') (A')
                 (A') (A') (A') (A') (A") (A') (A') (A") (A') (A')
                 (A") (A') (A') (A") (A') (A") (A') (A") (A') (A")
                 (A') (A") (A') (A") (A") (A") (A') (A") (A') (A")
                 (A") (A') (A') (A") (A") (A') (A') (A') (A') (A")
                 (A') (A') (A') (A') (A') (A') (A') (A') (A') (A')
                 (A') (A") (A') (A') (A') (A') (A") (A') (A') (A")
                 (A') (A') (A") (A") (A') (A') (A') (A') (A") (A")
                 (A') (A') (A") (A") (A') (A') (A") (A') (A") (A')
                 (A') (A') (A') (A') (A') (A') (A") (A') (A") (A')
                 (A") (A") (A") (A') (A') (A") (A") (A') (A") (A')
                 (A") (A') (A") (A') (A") (A') (A") (A') (A') (A")
                 (A') (A") (A') (A") (A') (A') (A') (A") (A') (A')
                 (A') (A') (A') (A") (A') (A') (A') (A") (A') (A")
                 (A') (A") (A') (A') (A') (A") (A') (A") (A') (A")
                 (A') (A") (A') (A') (A') (A") (A') (A") (A') (A')
                 (A") (A') (A') (A") (A') (A') (A') (A") (A') (A')
                 (A') (A') (A') (A') (A') (A') (A") (A') (A") (A')
                 (A") (A') (A") (A') (A") (A') (A') (A') (A") (A')
                 (A') (A') (A") (A') (A') (A') (A') (A") (A") (A')
                 (A') (A') (A") (A') (A') (A') (A') (A") (A') (A')
                 (A") (A') (A') (A") (A") (A') (A") (A") (A") (A")
                 (A") (A") (A') (A') (A") (A') (A') (A") (A') (A")
                 (A') (A') (A') (A') (A') (A') (A') (A') (A') (A')
                 (A') (A') (A') (A') (A') (A') (A') (A') (A') (A')
                 (A') (A') (A') (A') (A') (A') (A') (A') (A') (A')
                 (A') (A') (A') (A') (A') (A') (A') (A') (A') (A')
                 (A') (A') (A') (A') (A') (A') (A') (A') (A') (A')
                 (A') (A') (A') (A') (A') (A') (A') (A') (A') (A')
                 (A') (A') (A') (A') (A') (A') (A') (A') (A')
 Beta  Orbitals:
       Occupied  (A') (A') (A') (A') (A') (A') (A') (A') (A') (A')
                 (A') (A') (A') (A') (A') (A') (A') (A') (A') (A')
                 (A') (A') (A') (A') (A') (A') (A') (A') (A') (A')
                 (A') (A') (A') (A') (A') (A') (A') (A') (A') (A')
                 (A') (A') (A') (A') (A') (A') (A') (A') (A') (A')
                 (A') (A') (A') (A') (A') (A') (A') (A") (A') (A')
                 (A') (A') (A") (A') (A') (A") (A") (A") (A") (A")
                 (A") (A") (A") (A")
       Virtual   (A') (A") (A") (A") (A") (A") (A") (A") (A") (A")
                 (A') (A') (A') (A") (A') (A') (A') (A') (A') (A')
                 (A") (A') (A') (A") (A') (A') (A') (A") (A") (A')
                 (A') (A") (A') (A') (A") (A') (A") (A') (A') (A')
                 (A') (A") (A") (A') (A') (A') (A") (A') (A') (A")
                 (A') (A') (A') (A') (A") (A") (A') (A') (A') (A')
                 (A') (A") (A') (A') (A") (A') (A') (A') (A") (A')
                 (A') (A') (A') (A") (A') (A') (A') (A') (A") (A')
                 (A') (A") (A') (A") (A') (A') (A') (A') (A") (A')
                 (A') (A') (A') (A') (A") (A') (A') (A') (A') (A')
                 (A") (A") (A") (A') (A') (A') (A') (A') (A') (A')
                 (A') (A') (A') (A') (A') (A') (A') (A') (A') (A')
                 (A') (A') (A') (A') (A') (A') (A') (A') (A') (A')
                 (A') (A') (A') (A') (A') (A") (A') (A') (A") (A')
                 (A") (A') (A') (A") (A') (A") (A') (A') (A") (A')
                 (A") (A") (A') (A') (A") (A') (A") (A') (A") (A')
                 (A") (A') (A") (A') (A") (A') (A') (A') (A") (A')
                 (A') (A') (A") (A') (A") (A") (A") (A') (A') (A')
                 (A") (A') (A") (A") (A') (A") (A') (A') (A') (A')
                 (A') (A') (A') (A') (A') (A') (A') (A') (A") (A')
                 (A') (A') (A') (A') (A') (A') (A") (A') (A') (A")
                 (A') (A') (A") (A') (A') (A") (A') (A") (A') (A")
                 (A') (A") (A') (A") (A') (A") (A") (A") (A') (A")
                 (A') (A") (A") (A') (A') (A") (A") (A') (A') (A')
                 (A') (A") (A') (A') (A') (A') (A') (A') (A') (A')
                 (A') (A') (A') (A") (A') (A') (A') (A') (A") (A')
                 (A') (A") (A') (A') (A") (A") (A') (A') (A') (A')
                 (A") (A") (A') (A') (A") (A") (A') (A') (A") (A')
                 (A") (A') (A') (A') (A') (A') (A') (A') (A") (A')
                 (A") (A') (A") (A") (A") (A') (A') (A") (A") (A')
                 (A") (A') (A") (A') (A") (A') (A") (A') (A") (A')
                 (A') (A") (A') (A") (A') (A") (A') (A') (A') (A")
                 (A') (A') (A') (A') (A') (A") (A') (A') (A') (A")
                 (A') (A") (A') (A") (A') (A') (A') (A") (A') (A")
                 (A') (A") (A') (A") (A') (A') (A') (A") (A') (A")
                 (A') (A') (A") (A') (A') (A") (A') (A') (A') (A")
                 (A') (A') (A') (A') (A') (A') (A') (A') (A") (A')
                 (A") (A') (A") (A') (A") (A') (A") (A') (A') (A')
                 (A") (A') (A') (A') (A") (A') (A') (A') (A') (A")
                 (A") (A') (A') (A') (A") (A') (A') (A') (A') (A")
                 (A') (A') (A") (A') (A') (A") (A") (A') (A") (A")
                 (A") (A") (A") (A") (A') (A') (A") (A') (A') (A")
                 (A') (A") (A') (A') (A') (A') (A') (A') (A') (A')
                 (A') (A') (A') (A') (A') (A') (A') (A') (A') (A')
                 (A') (A') (A') (A') (A') (A') (A') (A') (A') (A')
                 (A') (A') (A') (A') (A') (A') (A') (A') (A') (A')
                 (A') (A') (A') (A') (A') (A') (A') (A') (A') (A')
                 (A') (A') (A') (A') (A') (A') (A') (A') (A') (A')
                 (A') (A') (A') (A') (A') (A') (A') (A') (A') (A')
                 (A')
 The electronic state of the initial guess is 3-A".
 Initial guess <Sx>= 0.0000 <Sy>= 0.0000 <Sz>= 1.0000 <S**2>= 2.0000 S= 1.0000
 Requested convergence on RMS density matrix=1.00D-08 within 128 cycles.
 Requested convergence on MAX density matrix=1.00D-06.
 Requested convergence on             energy=1.00D-06.
 No special actions if energy rises.
 Restarting incremental Fock formation.
 SCF Done:  E(UB3LYP) =  -883.730174549     A.U. after   25 cycles
            NFock= 25  Conv=0.77D-08     -V/T= 2.0079
 <Sx>= 0.0000 <Sy>= 0.0000 <Sz>= 1.0000 <S**2>= 2.0568 S= 1.0188
 <L.S>=  0.00000000000    
 Annihilation of the first spin contaminant:
 S**2 before annihilation     2.0568,   after     2.0018

 **********************************************************************

            Population analysis using the SCF Density.

 **********************************************************************

 Orbital symmetries:
 Alpha Orbitals:
       Occupied  (A') (A') (A') (A') (A') (A') (A') (A') (A') (A')
                 (A') (A') (A') (A') (A') (A') (A') (A') (A') (A')
                 (A') (A') (A') (A') (A') (A') (A') (A') (A') (A')
                 (A') (A') (A') (A') (A') (A') (A') (A') (A') (A')
                 (A') (A') (A') (A') (A') (A') (A') (A') (A') (A')
                 (A') (A') (A') (A") (A') (A') (A') (A') (A') (A")
                 (A') (A') (A") (A') (A") (A') (A') (A") (A") (A")
                 (A') (A") (A") (A") (A") (A")
       Virtual   (A") (A") (A") (A") (A") (A') (A') (A') (A") (A')
                 (A') (A") (A') (A') (A') (A') (A") (A") (A') (A')
                 (A") (A') (A') (A") (A") (A') (A") (A') (A") (A')
                 (A') (A") (A') (A") (A') (A') (A") (A") (A") (A')
                 (A') (A") (A') (A') (A') (A') (A') (A") (A') (A')
                 (A") (A') (A") (A') (A") (A') (A') (A') (A') (A")
                 (A') (A') (A') (A') (A") (A') (A') (A') (A") (A")
                 (A') (A") (A') (A') (A') (A') (A") (A') (A') (A')
                 (A') (A') (A") (A') (A') (A') (A') (A') (A') (A')
                 (A') (A") (A") (A') (A") (A') (A') (A') (A') (A')
                 (A') (A') (A') (A') (A') (A') (A') (A') (A') (A')
                 (A') (A') (A') (A') (A') (A') (A') (A') (A') (A')
                 (A') (A') (A') (A') (A') (A') (A') (A') (A') (A')
                 (A') (A") (A') (A') (A") (A') (A") (A') (A') (A")
                 (A') (A") (A') (A') (A') (A") (A') (A") (A") (A")
                 (A") (A') (A") (A') (A') (A") (A') (A') (A") (A")
                 (A') (A") (A') (A') (A') (A') (A") (A') (A") (A')
                 (A") (A') (A") (A') (A') (A') (A') (A") (A') (A')
                 (A") (A") (A') (A") (A') (A') (A') (A') (A') (A')
                 (A') (A') (A') (A') (A') (A') (A') (A') (A') (A')
                 (A') (A") (A') (A') (A') (A') (A') (A') (A") (A')
                 (A') (A") (A') (A') (A") (A') (A') (A") (A') (A")
                 (A") (A") (A") (A') (A") (A') (A") (A") (A") (A')
                 (A') (A') (A") (A') (A") (A") (A') (A") (A') (A')
                 (A') (A") (A') (A') (A') (A') (A') (A') (A') (A')
                 (A') (A") (A') (A') (A') (A') (A") (A') (A") (A')
                 (A") (A') (A") (A') (A') (A") (A') (A") (A') (A')
                 (A') (A") (A") (A') (A') (A") (A') (A") (A') (A')
                 (A') (A') (A') (A') (A") (A') (A') (A') (A") (A")
                 (A') (A") (A") (A") (A') (A') (A") (A') (A') (A")
                 (A") (A') (A") (A') (A") (A') (A') (A") (A') (A')
                 (A") (A") (A') (A') (A") (A') (A') (A") (A') (A')
                 (A') (A') (A') (A") (A') (A') (A') (A") (A') (A")
                 (A') (A") (A') (A') (A") (A') (A') (A") (A") (A')
                 (A') (A") (A') (A') (A') (A") (A') (A") (A') (A")
                 (A') (A') (A') (A") (A') (A") (A') (A') (A') (A')
                 (A') (A') (A') (A') (A') (A') (A') (A") (A') (A")
                 (A') (A') (A") (A') (A') (A") (A") (A') (A') (A')
                 (A') (A') (A') (A') (A') (A') (A") (A') (A') (A')
                 (A') (A") (A') (A") (A') (A') (A") (A") (A') (A')
                 (A') (A") (A") (A') (A") (A") (A") (A") (A") (A")
                 (A") (A") (A') (A") (A') (A") (A') (A") (A') (A')
                 (A') (A') (A') (A') (A') (A') (A') (A') (A') (A')
                 (A') (A') (A') (A') (A') (A') (A') (A') (A') (A')
                 (A') (A') (A') (A') (A') (A') (A') (A') (A') (A')
                 (A') (A') (A') (A') (A') (A') (A') (A') (A') (A')
                 (A') (A') (A') (A') (A') (A') (A') (A') (A') (A')
                 (A') (A') (A') (A') (A') (A') (A') (A') (A') (A')
                 (A') (A') (A') (A') (A') (A') (A') (A') (A')
 Beta  Orbitals:
       Occupied  (A') (A') (A') (A') (A') (A') (A') (A') (A') (A')
                 (A') (A') (A') (A') (A') (A') (A') (A') (A') (A')
                 (A') (A') (A') (A') (A') (A') (A') (A') (A') (A')
                 (A') (A') (A') (A') (A') (A') (A') (A') (A') (A')
                 (A') (A') (A') (A') (A') (A') (A') (A') (A') (A')
                 (A') (A') (A') (A') (A') (A") (A') (A') (A') (A")
                 (A') (A') (A') (A") (A') (A') (A") (A") (A") (A")
                 (A") (A") (A") (A")
       Virtual   (A") (A') (A") (A") (A") (A") (A") (A') (A') (A')
                 (A') (A") (A') (A") (A') (A') (A') (A') (A") (A")
                 (A') (A') (A") (A') (A') (A") (A") (A') (A") (A')
                 (A') (A") (A') (A') (A") (A") (A') (A") (A') (A")
                 (A') (A') (A") (A") (A') (A') (A') (A') (A') (A")
                 (A') (A') (A") (A') (A") (A') (A") (A') (A') (A')
                 (A') (A") (A') (A') (A') (A') (A") (A') (A') (A")
                 (A') (A") (A') (A") (A') (A') (A') (A') (A") (A')
                 (A') (A') (A') (A') (A") (A') (A') (A') (A') (A')
                 (A') (A') (A') (A") (A") (A') (A") (A') (A') (A')
                 (A') (A') (A') (A') (A') (A') (A') (A') (A') (A')
                 (A') (A') (A') (A') (A') (A') (A') (A') (A') (A')
                 (A') (A') (A') (A') (A') (A') (A') (A') (A') (A')
                 (A') (A') (A') (A") (A') (A') (A") (A') (A") (A')
                 (A') (A') (A") (A") (A') (A') (A") (A') (A') (A")
                 (A") (A") (A') (A") (A") (A') (A') (A") (A') (A')
                 (A") (A") (A") (A') (A') (A') (A') (A') (A") (A")
                 (A') (A') (A") (A') (A') (A") (A') (A") (A') (A')
                 (A') (A') (A") (A") (A') (A") (A') (A') (A') (A')
                 (A') (A') (A') (A') (A') (A') (A') (A') (A') (A')
                 (A') (A') (A') (A') (A") (A') (A') (A') (A') (A')
                 (A") (A') (A') (A") (A') (A") (A') (A') (A') (A")
                 (A') (A") (A") (A") (A") (A') (A") (A") (A') (A")
                 (A") (A') (A') (A') (A") (A') (A") (A") (A') (A")
                 (A') (A') (A') (A") (A') (A') (A') (A') (A') (A')
                 (A') (A') (A') (A') (A") (A') (A') (A') (A") (A')
                 (A") (A') (A") (A') (A') (A") (A') (A") (A') (A')
                 (A") (A') (A') (A") (A') (A") (A') (A") (A') (A")
                 (A') (A') (A') (A') (A') (A') (A') (A") (A') (A')
                 (A") (A") (A') (A") (A") (A") (A') (A') (A") (A')
                 (A") (A') (A") (A') (A") (A') (A") (A') (A') (A")
                 (A') (A') (A") (A") (A') (A') (A") (A') (A') (A")
                 (A') (A') (A') (A') (A') (A") (A') (A') (A') (A")
                 (A') (A") (A') (A") (A') (A') (A") (A') (A') (A")
                 (A") (A') (A') (A") (A') (A') (A') (A") (A') (A")
                 (A') (A") (A') (A') (A') (A") (A') (A') (A") (A')
                 (A') (A') (A') (A') (A') (A') (A') (A') (A') (A")
                 (A') (A") (A') (A') (A") (A') (A') (A") (A") (A')
                 (A') (A') (A') (A') (A') (A') (A') (A') (A") (A')
                 (A') (A') (A') (A") (A') (A') (A") (A') (A") (A")
                 (A') (A') (A') (A") (A") (A') (A") (A") (A") (A")
                 (A") (A") (A") (A") (A') (A") (A') (A") (A') (A")
                 (A') (A') (A') (A') (A') (A') (A') (A') (A') (A')
                 (A') (A') (A') (A') (A') (A') (A') (A') (A') (A')
                 (A') (A') (A') (A') (A') (A') (A') (A') (A') (A')
                 (A') (A') (A') (A') (A') (A') (A') (A') (A') (A')
                 (A') (A') (A') (A') (A') (A') (A') (A') (A') (A')
                 (A') (A') (A') (A') (A') (A') (A') (A') (A') (A')
                 (A') (A') (A') (A') (A') (A') (A') (A') (A') (A')
                 (A')
 The electronic state is 3-A".
 Alpha  occ. eigenvalues --  -10.22987 -10.22981 -10.22299 -10.21960 -10.21610
 Alpha  occ. eigenvalues --  -10.21550 -10.21526 -10.21317 -10.21282 -10.21280
 Alpha  occ. eigenvalues --  -10.21119 -10.21115 -10.20735 -10.20690 -10.20422
 Alpha  occ. eigenvalues --  -10.20197 -10.20050 -10.19953 -10.19893 -10.19851
 Alpha  occ. eigenvalues --  -10.19698 -10.19693 -10.19359  -0.90617  -0.85953
 Alpha  occ. eigenvalues --   -0.83496  -0.82821  -0.80881  -0.77835  -0.77311
 Alpha  occ. eigenvalues --   -0.74554  -0.73882  -0.72057  -0.70690  -0.69161
 Alpha  occ. eigenvalues --   -0.64686  -0.63876  -0.61439  -0.60371  -0.59550
 Alpha  occ. eigenvalues --   -0.57262  -0.56471  -0.53122  -0.52117  -0.50894
 Alpha  occ. eigenvalues --   -0.50097  -0.47864  -0.47019  -0.46544  -0.45705
 Alpha  occ. eigenvalues --   -0.44562  -0.43756  -0.42758  -0.42296  -0.42082
 Alpha  occ. eigenvalues --   -0.41748  -0.41243  -0.40688  -0.39398  -0.38535
 Alpha  occ. eigenvalues --   -0.38200  -0.36482  -0.35634  -0.35432  -0.34546
 Alpha  occ. eigenvalues --   -0.34412  -0.34084  -0.32479  -0.29406  -0.29065
 Alpha  occ. eigenvalues --   -0.27516  -0.25744  -0.24985  -0.24088  -0.21209
 Alpha  occ. eigenvalues --   -0.19718
 Alpha virt. eigenvalues --   -0.08847  -0.07183  -0.03805  -0.02374  -0.01054
 Alpha virt. eigenvalues --    0.00193   0.00561   0.00868   0.01122   0.01640
 Alpha virt. eigenvalues --    0.01928   0.02270   0.03055   0.03154   0.03755
 Alpha virt. eigenvalues --    0.04703   0.04736   0.04843   0.04920   0.05629
 Alpha virt. eigenvalues --    0.05954   0.07048   0.07216   0.07275   0.07763
 Alpha virt. eigenvalues --    0.07945   0.08192   0.09224   0.09346   0.09433
 Alpha virt. eigenvalues --    0.10152   0.10200   0.10310   0.10422   0.12177
 Alpha virt. eigenvalues --    0.12488   0.12503   0.12796   0.13251   0.13292
 Alpha virt. eigenvalues --    0.13547   0.13789   0.14063   0.14657   0.14964
 Alpha virt. eigenvalues --    0.15254   0.15693   0.15748   0.16184   0.16340
 Alpha virt. eigenvalues --    0.16346   0.16539   0.16706   0.17234   0.17250
 Alpha virt. eigenvalues --    0.17782   0.18084   0.18214   0.18485   0.18556
 Alpha virt. eigenvalues --    0.18766   0.19262   0.19329   0.19581   0.19928
 Alpha virt. eigenvalues --    0.19928   0.20289   0.20503   0.20681   0.21111
 Alpha virt. eigenvalues --    0.21188   0.21723   0.21970   0.22229   0.22307
 Alpha virt. eigenvalues --    0.22852   0.23161   0.23227   0.23500   0.23774
 Alpha virt. eigenvalues --    0.24245   0.24550   0.24738   0.24823   0.25047
 Alpha virt. eigenvalues --    0.25341   0.25919   0.26213   0.26535   0.27373
 Alpha virt. eigenvalues --    0.27605   0.27878   0.28021   0.28208   0.28281
 Alpha virt. eigenvalues --    0.28737   0.29050   0.29725   0.29964   0.30613
 Alpha virt. eigenvalues --    0.30698   0.31568   0.31971   0.32203   0.33013
 Alpha virt. eigenvalues --    0.33579   0.34264   0.35056   0.36003   0.36448
 Alpha virt. eigenvalues --    0.37173   0.37561   0.38029   0.39322   0.39938
 Alpha virt. eigenvalues --    0.40675   0.41297   0.42497   0.42762   0.43055
 Alpha virt. eigenvalues --    0.43325   0.43990   0.44851   0.45718   0.45946
 Alpha virt. eigenvalues --    0.47586   0.48947   0.50113   0.50481   0.51402
 Alpha virt. eigenvalues --    0.51828   0.52021   0.52413   0.53227   0.53488
 Alpha virt. eigenvalues --    0.53882   0.54208   0.54520   0.55119   0.55397
 Alpha virt. eigenvalues --    0.55480   0.56209   0.56790   0.57073   0.57420
 Alpha virt. eigenvalues --    0.57426   0.58296   0.58550   0.59350   0.60647
 Alpha virt. eigenvalues --    0.60987   0.61101   0.61740   0.62170   0.62340
 Alpha virt. eigenvalues --    0.62903   0.63222   0.63606   0.64203   0.64465
 Alpha virt. eigenvalues --    0.65431   0.65525   0.66203   0.66850   0.66940
 Alpha virt. eigenvalues --    0.67232   0.67425   0.68367   0.68382   0.68730
 Alpha virt. eigenvalues --    0.68948   0.69242   0.69559   0.69933   0.70374
 Alpha virt. eigenvalues --    0.71804   0.72310   0.72332   0.72599   0.73760
 Alpha virt. eigenvalues --    0.74413   0.76354   0.76746   0.77494   0.79337
 Alpha virt. eigenvalues --    0.81327   0.81377   0.81675   0.82032   0.82826
 Alpha virt. eigenvalues --    0.83910   0.84811   0.85610   0.86858   0.88211
 Alpha virt. eigenvalues --    0.88663   0.89240   0.89806   0.90206   0.90912
 Alpha virt. eigenvalues --    0.91430   0.91918   0.92243   0.92395   0.93393
 Alpha virt. eigenvalues --    0.93673   0.94643   0.94979   0.95273   0.95703
 Alpha virt. eigenvalues --    0.96873   0.96961   0.97516   0.98004   0.98088
 Alpha virt. eigenvalues --    0.99904   1.00170   1.00340   1.00616   1.01236
 Alpha virt. eigenvalues --    1.02400   1.02843   1.03431   1.03621   1.04332
 Alpha virt. eigenvalues --    1.05594   1.05719   1.06594   1.07482   1.07608
 Alpha virt. eigenvalues --    1.07869   1.08638   1.09757   1.10087   1.10505
 Alpha virt. eigenvalues --    1.12005   1.12145   1.12503   1.13069   1.14685
 Alpha virt. eigenvalues --    1.15531   1.16337   1.18898   1.22666   1.22881
 Alpha virt. eigenvalues --    1.26506   1.29487   1.31665   1.33362   1.34238
 Alpha virt. eigenvalues --    1.37412   1.39053   1.39151   1.40298   1.41629
 Alpha virt. eigenvalues --    1.42024   1.43875   1.44956   1.45275   1.45653
 Alpha virt. eigenvalues --    1.46042   1.46494   1.47059   1.47065   1.48158
 Alpha virt. eigenvalues --    1.49130   1.49733   1.50074   1.50390   1.50832
 Alpha virt. eigenvalues --    1.52847   1.53199   1.54255   1.54499   1.55905
 Alpha virt. eigenvalues --    1.56310   1.57612   1.58403   1.58849   1.60331
 Alpha virt. eigenvalues --    1.62336   1.62782   1.64413   1.65537   1.66916
 Alpha virt. eigenvalues --    1.66999   1.67471   1.70703   1.71080   1.72880
 Alpha virt. eigenvalues --    1.73101   1.73317   1.74459   1.75235   1.75315
 Alpha virt. eigenvalues --    1.75905   1.77349   1.77469   1.79145   1.79233
 Alpha virt. eigenvalues --    1.79759   1.81584   1.81957   1.82310   1.83298
 Alpha virt. eigenvalues --    1.84181   1.84978   1.85842   1.85850   1.87119
 Alpha virt. eigenvalues --    1.87201   1.87757   1.88477   1.89760   1.90105
 Alpha virt. eigenvalues --    1.91756   1.92381   1.93460   1.93779   1.95423
 Alpha virt. eigenvalues --    1.96159   1.97122   1.97726   1.98183   1.99509
 Alpha virt. eigenvalues --    2.00397   2.00893   2.00969   2.01911   2.02243
 Alpha virt. eigenvalues --    2.04967   2.06457   2.07141   2.07866   2.08897
 Alpha virt. eigenvalues --    2.09100   2.11133   2.13639   2.14751   2.16464
 Alpha virt. eigenvalues --    2.16760   2.17332   2.18758   2.19984   2.20660
 Alpha virt. eigenvalues --    2.21516   2.26587   2.27416   2.28425   2.30224
 Alpha virt. eigenvalues --    2.30903   2.32435   2.33390   2.34558   2.36410
 Alpha virt. eigenvalues --    2.37254   2.37606   2.39239   2.40202   2.40890
 Alpha virt. eigenvalues --    2.46186   2.46823   2.49092   2.50056   2.51869
 Alpha virt. eigenvalues --    2.54803   2.57466   2.59107   2.60658   2.61412
 Alpha virt. eigenvalues --    2.61516   2.63436   2.64402   2.65767   2.66351
 Alpha virt. eigenvalues --    2.66848   2.68187   2.69107   2.69172   2.69801
 Alpha virt. eigenvalues --    2.70599   2.71752   2.71965   2.72283   2.72888
 Alpha virt. eigenvalues --    2.73331   2.73683   2.75301   2.75744   2.75918
 Alpha virt. eigenvalues --    2.76344   2.76410   2.77521   2.78117   2.78547
 Alpha virt. eigenvalues --    2.79292   2.79534   2.81283   2.81693   2.82354
 Alpha virt. eigenvalues --    2.82509   2.83444   2.84689   2.85424   2.87156
 Alpha virt. eigenvalues --    2.87654   2.88850   2.92552   2.95371   2.96987
 Alpha virt. eigenvalues --    2.98899   3.00939   3.01681   3.03779   3.05606
 Alpha virt. eigenvalues --    3.05702   3.06665   3.07880   3.09507   3.09855
 Alpha virt. eigenvalues --    3.10961   3.13829   3.15896   3.19273   3.24389
 Alpha virt. eigenvalues --    3.24954   3.25791   3.27407   3.29199   3.29283
 Alpha virt. eigenvalues --    3.31835   3.33144   3.35153   3.35426   3.37661
 Alpha virt. eigenvalues --    3.39551   3.40084   3.43533   3.46006   3.49309
 Alpha virt. eigenvalues --    3.51051   3.54095   3.59491   3.61625   3.65189
 Alpha virt. eigenvalues --    3.70525   3.72704   3.78355   3.98582   4.01236
 Alpha virt. eigenvalues --    4.02800   4.03390   4.04905   4.06595   4.09244
 Alpha virt. eigenvalues --    4.15715   4.18230   4.25727   4.32949   4.55701
 Alpha virt. eigenvalues --    4.63131   4.65352   4.66912   4.68763   4.70448
 Alpha virt. eigenvalues --    4.74784  23.37648  23.59869  23.70174  23.73107
 Alpha virt. eigenvalues --   23.74114  23.77957  23.78743  23.82210  23.83755
 Alpha virt. eigenvalues --   23.85197  23.86552  23.87267  23.89223  23.89641
 Alpha virt. eigenvalues --   23.90311  23.90756  23.91542  23.91931  23.95778
 Alpha virt. eigenvalues --   23.98900  23.99394  24.00689  24.01464
  Beta  occ. eigenvalues --  -10.22722 -10.22430 -10.22044 -10.21602 -10.21565
  Beta  occ. eigenvalues --  -10.21525 -10.21332 -10.21280 -10.20895 -10.20874
  Beta  occ. eigenvalues --  -10.20856 -10.20826 -10.20824 -10.20738 -10.20489
  Beta  occ. eigenvalues --  -10.20108 -10.20014 -10.19986 -10.19938 -10.19782
  Beta  occ. eigenvalues --  -10.19738 -10.19417 -10.19162  -0.89692  -0.85814
  Beta  occ. eigenvalues --   -0.83237  -0.82073  -0.80743  -0.77592  -0.77045
  Beta  occ. eigenvalues --   -0.74437  -0.73677  -0.71542  -0.70487  -0.67423
  Beta  occ. eigenvalues --   -0.64472  -0.63739  -0.61310  -0.60137  -0.59167
  Beta  occ. eigenvalues --   -0.56777  -0.55255  -0.52936  -0.51864  -0.50688
  Beta  occ. eigenvalues --   -0.49868  -0.47691  -0.46734  -0.46268  -0.45136
  Beta  occ. eigenvalues --   -0.44009  -0.43671  -0.42594  -0.41915  -0.41500
  Beta  occ. eigenvalues --   -0.41279  -0.41026  -0.40467  -0.39028  -0.38240
  Beta  occ. eigenvalues --   -0.38042  -0.36199  -0.35217  -0.35044  -0.34160
  Beta  occ. eigenvalues --   -0.33790  -0.33407  -0.32145  -0.28825  -0.28269
  Beta  occ. eigenvalues --   -0.25452  -0.24557  -0.22615  -0.20905
  Beta virt. eigenvalues --   -0.12600  -0.11045  -0.07847  -0.06772  -0.03596
  Beta virt. eigenvalues --   -0.01783  -0.00374   0.00225   0.00568   0.00965
  Beta virt. eigenvalues --    0.01638   0.01899   0.02082   0.03060   0.03099
  Beta virt. eigenvalues --    0.03252   0.03835   0.04700   0.04824   0.04957
  Beta virt. eigenvalues --    0.05070   0.05641   0.06047   0.07082   0.07362
  Beta virt. eigenvalues --    0.07744   0.07864   0.07998   0.08375   0.09343
  Beta virt. eigenvalues --    0.09499   0.09776   0.10231   0.10323   0.10407
  Beta virt. eigenvalues --    0.10696   0.12190   0.12601   0.12630   0.12873
  Beta virt. eigenvalues --    0.13368   0.13596   0.13660   0.14071   0.14281
  Beta virt. eigenvalues --    0.14916   0.15010   0.15430   0.15754   0.16001
  Beta virt. eigenvalues --    0.16259   0.16401   0.16440   0.16640   0.17239
  Beta virt. eigenvalues --    0.17348   0.17384   0.18107   0.18155   0.18471
  Beta virt. eigenvalues --    0.18576   0.18834   0.18945   0.19313   0.19405
  Beta virt. eigenvalues --    0.19664   0.20167   0.20172   0.20343   0.20732
  Beta virt. eigenvalues --    0.20758   0.21227   0.21400   0.21752   0.22093
  Beta virt. eigenvalues --    0.22311   0.22363   0.22913   0.23265   0.23289
  Beta virt. eigenvalues --    0.23653   0.23853   0.24432   0.24723   0.24819
  Beta virt. eigenvalues --    0.24916   0.25167   0.25400   0.26078   0.26296
  Beta virt. eigenvalues --    0.26688   0.27437   0.27766   0.27984   0.28150
  Beta virt. eigenvalues --    0.28262   0.28363   0.28917   0.29159   0.29784
  Beta virt. eigenvalues --    0.30235   0.30783   0.30808   0.31668   0.32114
  Beta virt. eigenvalues --    0.32377   0.33121   0.33847   0.34531   0.35207
  Beta virt. eigenvalues --    0.36292   0.36706   0.37341   0.37840   0.38356
  Beta virt. eigenvalues --    0.39445   0.40119   0.40884   0.41445   0.42609
  Beta virt. eigenvalues --    0.43094   0.43167   0.43505   0.44221   0.45137
  Beta virt. eigenvalues --    0.46022   0.46199   0.47869   0.49062   0.50399
  Beta virt. eigenvalues --    0.50714   0.51533   0.52102   0.52523   0.52598
  Beta virt. eigenvalues --    0.53422   0.53630   0.54038   0.54822   0.54859
  Beta virt. eigenvalues --    0.55238   0.55650   0.56100   0.56531   0.56840
  Beta virt. eigenvalues --    0.57476   0.57643   0.57675   0.58376   0.59087
  Beta virt. eigenvalues --    0.59383   0.60718   0.61264   0.61283   0.62050
  Beta virt. eigenvalues --    0.62423   0.62891   0.63254   0.63548   0.63672
  Beta virt. eigenvalues --    0.64277   0.64952   0.65554   0.65561   0.66831
  Beta virt. eigenvalues --    0.67003   0.67505   0.67940   0.68066   0.68794
  Beta virt. eigenvalues --    0.68826   0.68929   0.69081   0.69357   0.70296
  Beta virt. eigenvalues --    0.70341   0.70471   0.72319   0.72507   0.72549
  Beta virt. eigenvalues --    0.72995   0.74205   0.74590   0.76725   0.76907
  Beta virt. eigenvalues --    0.77882   0.79586   0.81365   0.81519   0.81769
  Beta virt. eigenvalues --    0.82147   0.82863   0.83973   0.85107   0.86041
  Beta virt. eigenvalues --    0.87003   0.88352   0.89084   0.89399   0.90171
  Beta virt. eigenvalues --    0.90851   0.91443   0.91622   0.92390   0.92569
  Beta virt. eigenvalues --    0.92732   0.93496   0.93943   0.94900   0.95299
  Beta virt. eigenvalues --    0.95501   0.95822   0.97018   0.97169   0.97735
  Beta virt. eigenvalues --    0.98258   0.98401   1.00165   1.00268   1.00656
  Beta virt. eigenvalues --    1.00976   1.01499   1.02737   1.03079   1.03592
  Beta virt. eigenvalues --    1.03840   1.04925   1.05998   1.06034   1.06923
  Beta virt. eigenvalues --    1.07778   1.07810   1.08012   1.09342   1.10164
  Beta virt. eigenvalues --    1.10252   1.10821   1.12323   1.12447   1.12634
  Beta virt. eigenvalues --    1.13248   1.15040   1.15836   1.18951   1.19178
  Beta virt. eigenvalues --    1.22940   1.23911   1.27385   1.29863   1.32272
  Beta virt. eigenvalues --    1.33507   1.34538   1.37537   1.39341   1.39803
  Beta virt. eigenvalues --    1.40408   1.41739   1.42167   1.44225   1.45099
  Beta virt. eigenvalues --    1.45511   1.45763   1.46447   1.46592   1.47114
  Beta virt. eigenvalues --    1.47361   1.48280   1.49813   1.49880   1.50531
  Beta virt. eigenvalues --    1.50813   1.51015   1.53097   1.53661   1.54757
  Beta virt. eigenvalues --    1.54764   1.56154   1.56709   1.58022   1.58846
  Beta virt. eigenvalues --    1.59075   1.60482   1.62451   1.62997   1.64537
  Beta virt. eigenvalues --    1.65793   1.67180   1.67622   1.67841   1.70942
  Beta virt. eigenvalues --    1.71537   1.72989   1.73392   1.73583   1.74519
  Beta virt. eigenvalues --    1.75711   1.75882   1.76677   1.78290   1.79216
  Beta virt. eigenvalues --    1.79471   1.79687   1.80071   1.81758   1.82143
  Beta virt. eigenvalues --    1.82677   1.83756   1.84375   1.85493   1.85951
  Beta virt. eigenvalues --    1.86236   1.87418   1.87529   1.87984   1.88608
  Beta virt. eigenvalues --    1.90118   1.90361   1.92106   1.92538   1.93781
  Beta virt. eigenvalues --    1.94208   1.95862   1.96441   1.97323   1.98766
  Beta virt. eigenvalues --    1.99012   1.99532   2.00471   2.01182   2.01333
  Beta virt. eigenvalues --    2.02413   2.02573   2.05601   2.06601   2.07542
  Beta virt. eigenvalues --    2.08045   2.09283   2.09531   2.11355   2.13891
  Beta virt. eigenvalues --    2.15329   2.16627   2.17066   2.17750   2.18956
  Beta virt. eigenvalues --    2.20280   2.20832   2.22155   2.26968   2.27607
  Beta virt. eigenvalues --    2.28726   2.30854   2.31184   2.32904   2.33680
  Beta virt. eigenvalues --    2.34947   2.36685   2.37743   2.37777   2.39308
  Beta virt. eigenvalues --    2.40567   2.41156   2.46823   2.47037   2.49161
  Beta virt. eigenvalues --    2.50340   2.52075   2.55119   2.58025   2.59624
  Beta virt. eigenvalues --    2.61028   2.61626   2.61678   2.63786   2.64886
  Beta virt. eigenvalues --    2.66001   2.66450   2.67451   2.68790   2.69159
  Beta virt. eigenvalues --    2.69276   2.69890   2.70714   2.71956   2.72138
  Beta virt. eigenvalues --    2.72307   2.72934   2.73587   2.74196   2.75319
  Beta virt. eigenvalues --    2.75831   2.76001   2.76392   2.76742   2.77766
  Beta virt. eigenvalues --    2.78759   2.79003   2.79472   2.79543   2.81786
  Beta virt. eigenvalues --    2.81804   2.82507   2.82827   2.83832   2.85219
  Beta virt. eigenvalues --    2.85901   2.87344   2.87833   2.88863   2.92881
  Beta virt. eigenvalues --    2.96215   2.98408   2.99259   3.01073   3.01825
  Beta virt. eigenvalues --    3.04103   3.05725   3.05971   3.07110   3.08297
  Beta virt. eigenvalues --    3.09574   3.10039   3.11067   3.14477   3.16969
  Beta virt. eigenvalues --    3.19900   3.24986   3.25367   3.25961   3.28231
  Beta virt. eigenvalues --    3.29371   3.29592   3.32042   3.33617   3.35247
  Beta virt. eigenvalues --    3.35696   3.37772   3.39708   3.40186   3.43746
  Beta virt. eigenvalues --    3.46075   3.49662   3.51249   3.54283   3.59908
  Beta virt. eigenvalues --    3.61977   3.65545   3.71016   3.73096   3.78577
  Beta virt. eigenvalues --    3.98757   4.01268   4.02830   4.03463   4.05163
  Beta virt. eigenvalues --    4.06660   4.09559   4.15808   4.18393   4.25842
  Beta virt. eigenvalues --    4.33188   4.56093   4.63746   4.65484   4.67342
  Beta virt. eigenvalues --    4.68912   4.70529   4.74952  23.38041  23.59965
  Beta virt. eigenvalues --   23.70355  23.73234  23.74744  23.77942  23.79051
  Beta virt. eigenvalues --   23.82323  23.83783  23.85234  23.86863  23.87364
  Beta virt. eigenvalues --   23.89311  23.89854  23.90435  23.90852  23.91821
  Beta virt. eigenvalues --   23.91994  23.95948  23.98913  23.99677  24.00736
  Beta virt. eigenvalues --   24.01777
          Condensed to atoms (all electrons):
               1          2          3          4          5          6
     1  C    9.783268   1.071442  -1.191832   1.067627  -1.944739  -0.246463
     2  C    1.071442   8.369218   1.469089  -2.435989  -1.851589   2.166913
     3  C   -1.191832   1.469089   8.358749  -0.680865   0.909492   0.265539
     4  C    1.067627  -2.435989  -0.680865  12.413723   1.474047  -3.606661
     5  C   -1.944739  -1.851589   0.909492   1.474047  11.385101  -1.247547
     6  C   -0.246463   2.166913   0.265539  -3.606661  -1.247547  11.476872
     7  C   -0.041293  -0.790738   0.867615   0.890599   0.050296  -1.067373
     8  C   -0.097627  -0.482929  -0.474098   0.183842   0.233050  -1.045443
     9  C   -0.509177  -0.143371   0.244281  -1.356734  -0.178865  -0.071700
    10  C    0.021789  -0.892102  -0.628373   2.433006   0.300077  -1.801321
    11  C   -0.105681  -0.395415  -0.043016  -0.643475  -0.048270  -0.077759
    12  C   -0.012334   0.020234  -0.057907  -0.013273  -0.018460   0.096112
    13  C   -0.010994  -0.084154  -0.238085  -0.173242   0.016069  -0.240189
    14  C   -0.093052  -0.024531  -0.482939  -1.090463  -0.100706   0.010949
    15  C    0.122109  -0.155804  -0.436990   0.029801   0.025233  -0.164611
    16  C    0.037851   0.000456   0.146692   0.015354  -0.004883  -0.007201
    17  C    0.000293   0.007300  -0.049186  -0.014322   0.000981  -0.005581
    18  C   -0.010933  -0.020047  -0.008542  -0.055130  -0.004700   0.022145
    19  C   -0.968578  -1.975372  -1.311350   0.203632  -0.715682   0.397716
    20  C   -0.152696   0.420250   0.043044  -0.256504  -0.278012   0.013034
    21  C    1.326690  -0.603953  -1.182076   0.864579   0.569039   0.026024
    22  C   -0.903266   2.035015  -0.283152  -1.974961  -2.197815   1.128718
    23  C   -1.191740   0.318217   0.879971  -1.705259  -0.293273   0.114872
    24  H   -0.022641   0.024571   0.003676  -0.000520  -0.005384  -0.001153
    25  H    0.008124   0.005865   0.005518   0.002204   0.011565  -0.001133
    26  H   -0.046773   0.044012   0.007709   0.004448   0.054434  -0.001602
    27  H   -0.014797   0.024312  -0.021948   0.020362   0.258372   0.001237
    28  H   -0.029304  -0.036566  -0.007065   0.012827   0.010484   0.255597
    29  H    0.004107   0.006403   0.013060  -0.064385  -0.002587   0.058187
    30  H    0.000486   0.000719   0.008292   0.047955   0.000703   0.006969
    31  H    0.000026   0.000143   0.001050   0.003095  -0.000006   0.000377
    32  H   -0.000001   0.000009  -0.000307   0.000232   0.000002   0.000009
    33  H   -0.000666   0.000729  -0.005354   0.000791   0.000101   0.000081
    34  H    0.000018   0.000355  -0.000803  -0.000043   0.000004  -0.000009
    35  H    0.000001   0.000019   0.000061   0.000039  -0.000000   0.000001
               7          8          9         10         11         12
     1  C   -0.041293  -0.097627  -0.509177   0.021789  -0.105681  -0.012334
     2  C   -0.790738  -0.482929  -0.143371  -0.892102  -0.395415   0.020234
     3  C    0.867615  -0.474098   0.244281  -0.628373  -0.043016  -0.057907
     4  C    0.890599   0.183842  -1.356734   2.433006  -0.643475  -0.013273
     5  C    0.050296   0.233050  -0.178865   0.300077  -0.048270  -0.018460
     6  C   -1.067373  -1.045443  -0.071700  -1.801321  -0.077759   0.096112
     7  C    8.268835   1.107007   0.019226   0.287811   0.469451   0.000101
     8  C    1.107007   7.296127   0.289802   0.552144   1.443026  -0.606685
     9  C    0.019226   0.289802  10.946378   0.613459   0.042270   1.058335
    10  C    0.287811   0.552144   0.613459   8.818058  -0.664768  -0.591966
    11  C    0.469451   1.443026   0.042270  -0.664768  10.394248  -0.443392
    12  C    0.000101  -0.606685   1.058335  -0.591966  -0.443392  11.028293
    13  C   -0.525104   0.437091  -1.365170  -0.167944  -1.955216  -1.201080
    14  C   -0.565804  -0.632714  -0.222942  -1.736143   0.101347  -0.881015
    15  C    0.103192  -0.380208  -1.378480   0.159913  -0.812696  -0.778587
    16  C   -0.477634  -0.446662   0.207385   0.082080  -2.482698   1.678192
    17  C    0.076660   0.147061  -0.191221  -0.052253   0.903077  -0.331786
    18  C   -0.095819  -0.884087  -0.739069  -0.208261  -0.375316  -2.110691
    19  C   -0.180073  -0.034274  -0.074022   0.076594  -0.026794  -0.000773
    20  C   -0.187088  -0.051804  -0.030629  -0.057539   0.012412  -0.004288
[...]
 002998,0.00000037,0.00000042,0.00000559,0.00002870,-0.00000025,-0.0000
 2643,-0.00008844,0.00000041,0.00020776,-0.00004140,0.00000032,-0.00000
 225,-0.00000569,-0.00000009,0.00000775,-0.00000126,-0.00000002,0.00000
 883,0.00000135,-0.00000015,0.00001261,0.00000185,0.00000009,0.00001144
 ,0.00002400,-0.00000004,0.00041336,0.00070979,-0.00000022,-0.03496776,
 0.34968927,-0.00000005,0.00000001,-0.00001801,0.00000003,0.00000003,0.
 00004635,0.,0.00000007,-0.00006159,-0.00000006,0.,-0.00007952,0.000000
 04,0.00000001,0.00001517,0.00000001,-0.00000003,0.00004151,0.00000004,
 -0.00000004,0.00033489,0.00000003,0.00000003,0.00373146,-0.00000008,-0
 .00000006,0.00243257,0.00000009,0.,-0.00195285,0.,0.,-0.00064420,-0.00
 000011,-0.00000010,0.00955405,0.00000005,0.00000009,0.00465294,0.00000
 011,0.00000004,-0.03626980,-0.00000013,-0.00000009,-0.00076986,-0.0000
 0003,-0.00000004,0.00016128,0.00000013,0.00000005,-0.00076417,-0.00000
 001,0.,0.00015537,-0.00000001,-0.00000002,0.00000234,0.00000005,0.,0.0
 0000278,0.,0.,-0.00000533,-0.00000002,0.00000002,-0.00006181,-0.000000
 03,0.00000004,0.00003556,0.,-0.00000006,0.00000120,-0.00000004,0.00000
 002,0.00000112,0.00000003,0.00000002,0.00000244,-0.00000003,-0.0000000
 2,-0.00000991,0.,0.,0.00001625,0.,-0.00000001,0.00027297,0.,-0.0000000
 2,0.02457982,-0.00002549,-0.00002760,0.00000062,0.00002605,-0.00004301
 ,-0.00000040,-0.00001922,-0.00006977,0.00000005,-0.00029989,-0.0003369
 6,0.00000047,-0.00006665,-0.00002814,0.00000119,-0.00002168,0.00013069
 ,-0.00000106,0.00005912,0.00009421,0.00000254,0.00022633,-0.00024003,-
 0.00000143,-0.00093163,-0.00417418,-0.00000026,-0.00072098,0.00092704,
 0.00000031,0.00144555,0.00008944,0.00000183,-0.00128283,-0.00038214,-0
 .00000084,-0.29129802,0.09783691,-0.00000064,-0.01965658,0.01209312,-0
 .00000148,-0.00033049,-0.00031407,-0.00000077,0.00031709,-0.00004003,-
 0.00000135,0.00006562,0.00042675,0.00000022,0.00077216,-0.00161124,0.0
 0000152,0.00000015,-0.00002351,-0.00000040,0.00001406,0.00002289,-0.00
 000028,-0.00003144,0.00000012,-0.00000037,0.00004674,0.00002946,0.0000
 0098,-0.00002440,0.00001072,0.00000004,-0.00000027,0.00000641,0.000000
 04,-0.00000818,0.00000454,-0.00000012,-0.00000748,-0.00000365,-0.00000
 032,-0.00001978,0.00000522,0.00000001,-0.00000026,-0.00001601,-0.00000
 017,0.00000272,-0.00005580,-0.00000012,0.00090560,-0.00026865,-0.00000
 008,0.31033823,0.00001327,-0.00004976,-0.00000007,0.00004965,0.0000077
 5,0.00000010,0.00001160,-0.00012723,0.00000005,-0.00030326,-0.00013466
 ,-0.00000031,-0.00004511,0.00002562,-0.00000056,-0.00000111,0.00008520
 ,0.00000051,0.00022741,0.00007511,-0.00000080,-0.00069111,-0.00054591,
 0.00000046,-0.00294489,-0.00227959,0.,-0.00040625,0.00072626,-0.000000
 10,-0.00139125,-0.00530088,-0.00000064,0.02909506,-0.00808312,0.000000
 40,0.09861297,-0.09912745,0.00000018,-0.01964281,0.01105272,0.00000062
 ,0.00171570,0.00001006,0.00000028,-0.00000694,0.00008077,0.00000046,-0
 .00039584,0.00006178,-0.00000007,0.00190088,0.00141000,-0.00000058,-0.
 00000867,0.00003506,0.00000020,-0.00001914,-0.00001200,-0.00000004,0.0
 0001112,0.00000171,0.00000015,-0.00002194,0.00005329,-0.00000033,-0.00
 011855,0.00004277,-0.00000010,-0.00000211,0.00000137,0.00000001,0.0000
 0073,0.00000007,0.00000003,0.,0.00000044,0.00000011,-0.00001136,0.0000
 0547,-0.00000003,0.00000294,-0.00000324,0.00000005,0.00000999,-0.00003
 741,0.00000008,0.00025616,0.00091624,0.00000003,-0.10462996,0.10183574
 ,0.00000007,-0.00000004,0.00001166,-0.00000003,0.,-0.00004252,-0.00000
 005,0.00000005,0.00021178,-0.00000013,0.00000002,-0.00080242,0.0000000
 4,0.00000010,0.00004530,0.,0.00000003,-0.00008124,-0.00000014,0.000000
 08,-0.00061815,0.00000012,-0.00000005,-0.00058049,0.00000014,-0.000000
 06,0.00938660,-0.00000011,-0.00000009,0.00030490,0.00000005,-0.0000000
 9,0.00382333,0.,0.00000017,0.00251163,0.,-0.00000003,-0.03575999,0.000
 00012,-0.00000002,0.00429991,0.00000015,0.00000009,0.00011910,0.,0.000
 00002,-0.00000657,-0.00000012,-0.00000008,-0.00017077,0.,-0.00000004,-
 0.00205947,-0.00000010,0.00000003,-0.00000133,-0.00000002,0.,-0.000007
 03,0.,-0.00000007,0.00003398,0.00000002,-0.00000006,0.00000009,-0.0000
 0001,-0.00000002,-0.00004951,0.,0.00000003,0.00000310,0.00000005,-0.00
 000004,-0.00000528,0.00000002,0.,0.00000282,0.,0.,0.00001647,0.,0.,-0.
 00000604,0.00000001,0.,0.00022740,0.,0.00000007,-0.00569205,0.00000003
 ,-0.00000002,0.02441649,-0.00001524,0.00001572,0.00000006,-0.00005698,
 -0.00006628,0.00000019,-0.00009510,0.00010679,0.00000025,0.00000074,-0
 .00002421,-0.00000101,-0.00001487,-0.00000932,-0.00000167,0.00001204,0
 .00001401,0.00000154,-0.00023545,-0.00029871,-0.00000200,-0.00065904,0
 .00123669,0.00000114,0.00011888,0.00008271,-0.00000012,0.00006190,-0.0
 0007056,-0.00000027,-0.00166566,-0.00412761,-0.00000169,-0.01983705,0.
 01250042,0.00000130,0.00089534,0.00217999,0.00000040,0.00014589,-0.000
 45611,0.00000178,0.00027986,-0.00077806,0.00000074,0.00197099,0.000359
 13,0.00000119,0.00065896,-0.00100985,-0.00000022,-0.28571244,0.1020627
 7,-0.00000163,-0.00000890,-0.00002338,0.00000056,0.00000941,0.00001190
 ,-0.00000028,-0.00001671,-0.00000873,0.00000041,0.00002160,-0.00000444
 ,-0.00000086,0.00006399,-0.00004829,-0.00000033,0.00000029,0.00000467,
 0.00000007,-0.00000596,0.00000195,0.00000007,-0.00000561,-0.00000134,0
 .00000029,-0.00000552,-0.00000329,-0.00000009,-0.00000336,-0.00001035,
 0.00000012,-0.00001707,-0.00002947,0.00000027,-0.00004413,-0.00004308,
 0.00000006,0.00048124,-0.00120033,-0.00000008,0.30307994,-0.00000310,-
 0.00000282,-0.00000005,-0.00000921,-0.00002464,-0.00000007,-0.00008732
 ,0.00001832,-0.00000012,-0.00003848,0.00004339,0.00000046,-0.00000547,
 0.00000843,0.00000075,0.00001489,-0.00000631,-0.00000069,-0.00004559,-
 0.00024897,0.00000086,-0.00090684,0.00050445,-0.00000049,-0.00021849,0
 .00016673,0.00000006,0.00013056,-0.00001442,0.00000012,-0.00286353,-0.
 00190817,0.00000074,-0.01696689,0.01004758,-0.00000060,-0.00165439,0.0
 0106006,-0.00000016,0.00041150,0.00012331,-0.00000080,-0.00061014,-0.0
 0074817,-0.00000032,-0.00076885,-0.00563960,-0.00000052,0.03038302,-0.
 00805767,0.00000010,0.10232471,-0.10445478,0.00000072,0.00000003,-0.00
 000233,-0.00000025,0.00000300,0.00000189,0.00000014,-0.00000366,0.0000
 0238,-0.00000018,0.00000476,0.00000662,0.00000037,-0.00001755,-0.00001
 068,0.00000015,-0.00000236,-0.00000094,-0.00000003,0.00000192,-0.00000
 109,-0.00000003,0.00000117,0.00000183,-0.00000013,0.00000315,0.0000011
 5,0.00000004,-0.00000120,0.00000210,-0.00000005,-0.00001162,-0.0000070
 7,-0.00000012,0.00002511,0.00001286,-0.00000003,0.00045918,-0.00018117
 ,0.00000004,-0.11068439,0.10875599,0.00000004,-0.00000003,0.00000870,-
 0.00000003,-0.00000005,-0.00003609,0.00000002,-0.00000007,-0.00002557,
 0.00000008,0.00000002,-0.00001248,-0.00000005,0.,-0.00000487,-0.000000
 02,0.00000002,-0.00000051,-0.00000002,0.00000005,0.00007180,-0.0000000
 5,-0.00000004,0.00025815,0.00000004,0.00000006,0.00000064,-0.00000006,
 0.00000001,0.00002694,0.,0.,0.00570658,0.00000010,0.00000006,0.0029057
 1,-0.00000006,-0.00000005,-0.00343841,-0.00000012,-0.00000003,-0.00010
 025,0.00000009,0.00000010,-0.00092108,0.00000002,0.00000003,0.00768709
 ,-0.00000008,-0.00000003,0.00367741,0.00000004,0.,-0.03559190,0.000000
 04,0.00000002,0.00000694,-0.00000005,-0.00000002,-0.00000407,0.0000000
 2,0.,-0.00000991,-0.00000002,0.,0.00001039,0.00000005,-0.00000005,-0.0
 0000840,0.,0.00000004,0.00000319,0.00000003,-0.00000001,0.00000198,-0.
 00000003,-0.00000001,0.00000111,0.00000004,0.00000003,0.00000006,0.,0.
 ,0.00000121,0.,0.00000002,0.00001139,0.,0.00000001,0.00019453,0.000000
 08,-0.00000002,0.00030223,-0.00000005,0.00000002,0.02459694,0.00004276
 ,-0.00003777,-0.00000038,0.00015124,0.00005623,0.00000032,0.00034163,-
 0.00048009,0.00000003,-0.00023887,0.00009905,-0.00000061,-0.00001662,0
 .00003549,-0.00000126,0.00005570,-0.00005299,0.00000114,-0.00170234,-0
 .00076067,-0.00000212,-0.00048328,-0.00067877,0.00000121,0.00001041,0.
 00021488,0.00000012,0.00004852,0.00002088,-0.00000026,0.00041394,0.000
 99258,-0.00000159,0.00188393,-0.00027933,0.00000079,-0.00017331,-0.000
 27734,0.00000053,0.00013620,0.00004463,0.00000145,-0.28147476,0.105120
 91,0.00000071,-0.01899585,0.01274075,0.00000116,-0.00196030,-0.0041258
 1,-0.00000016,0.00033086,-0.00057959,-0.00000138,-0.00001769,0.0000645
 3,0.00000047,-0.00004544,-0.00006638,0.00000006,0.00012270,-0.00002944
 ,0.00000037,-0.00058401,0.00008331,-0.00000087,0.00062450,-0.00109352,
 -0.00000018,0.00000832,-0.00000219,0.,0.00000591,-0.00000273,0.0000000
 9,0.00000262,0.00000258,0.00000028,0.00000190,0.00000168,-0.00000005,-
 0.00001376,-0.00000266,0.00000014,0.00001564,0.00001019,0.00000017,0.0
 0001058,0.00001780,0.00000007,0.00001684,0.00003050,-0.00000005,-0.000
 06582,0.00006985,-0.00000005,0.30145832,0.00004669,-0.00007980,0.00000
 009,0.00037489,0.00005051,-0.00000012,-0.00062896,-0.00001798,-0.00000
 005,-0.00014423,0.00017319,0.00000034,-0.00007845,0.00010091,0.0000006
 4,0.00009848,0.00007529,-0.00000058,-0.00067682,-0.00045548,0.00000093
 ,0.00120651,0.00083941,-0.00000053,0.00001387,0.00006383,-0.00000001,0
 .00018128,0.00011772,0.00000012,0.02908296,-0.00793001,0.00000073,-0.0
 0116538,-0.00552047,-0.00000044,0.00162419,-0.00000532,-0.00000022,0.0
 0016300,-0.00001930,-0.00000071,0.10630354,-0.10828003,-0.00000032,-0.
 01876117,0.01116897,-0.00000053,-0.00325546,-0.00164246,0.00000008,-0.
 00055821,-0.00082650,0.00000067,-0.00004165,0.00012013,-0.00000023,-0.
 00005821,-0.00011994,0.00000003,0.00007280,0.00007980,-0.00000017,-0.0
 0017347,0.00046493,0.00000039,-0.00158548,-0.00150268,0.00000011,0.000
 01643,-0.00003246,-0.00000001,0.00002317,-0.00000006,-0.00000004,0.000
 01020,0.00000370,-0.00000013,0.00000720,0.00001810,0.00000003,0.000019
 80,0.00001713,-0.00000006,0.00000149,0.00001710,-0.00000009,-0.0000585
 1,-0.00001430,-0.00000003,0.00006441,-0.00051853,0.00000003,0.00009632
 ,0.00008355,0.00000002,-0.11163055,0.11235570,0.00000010,-0.00000003,-
 0.00007894,-0.00000007,-0.00000009,0.00002992,0.00000004,-0.00000019,-
 0.00046142,0.00000021,0.00000002,-0.00011135,-0.00000011,-0.00000006,-
 0.00000286,-0.00000004,0.00000006,0.00005138,-0.00000005,0.00000007,0.
 00040594,-0.00000012,-0.00000007,-0.00227109,0.00000013,0.00000016,-0.
 00018996,-0.00000016,0.00000004,0.00011294,-0.00000002,0.,0.00298992,0
 .00000026,0.00000017,0.00571364,-0.00000013,-0.00000018,0.00017569,-0.
 00000033,-0.00000008,-0.00009891,0.00000024,0.00000021,-0.03685015,0.0
 0000007,0.00000009,0.00462367,-0.00000024,-0.00000010,0.00789972,0.000
 00006,0.00000002,-0.00094734,0.00000008,0.00000005,-0.00001766,-0.0000
 0011,-0.00000001,0.00000181,0.,0.00000001,-0.00005771,0.00000002,-0.00
 000002,0.00030658,0.00000010,-0.00000010,0.00010146,0.00000001,0.00000
 012,0.00002822,0.00000008,-0.00000004,0.00000785,-0.00000009,-0.000000
 04,0.00000402,0.00000008,0.00000006,0.00001911,0.,0.00000001,0.0000179
 3,-0.00000002,0.00000004,0.00001363,0.,0.00000003,0.00002231,0.0000001
 9,-0.00000005,0.00003624,-0.00000012,0.00000005,-0.00097226,-0.0000001
 4,0.00000006,0.02421954,0.00001254,0.00002871,0.,-0.00001776,-0.000011
 11,-0.00000002,-0.00000592,0.00009866,-0.00000002,0.00005171,-0.000032
 73,0.00000009,0.00000235,-0.00001673,0.00000015,-0.00001255,0.00000531
 ,-0.00000014,-0.00002504,0.00010216,0.00000021,0.00090249,-0.00096711,
 -0.00000012,-0.00018869,-0.00016587,0.,-0.00000978,-0.00015450,0.00000
 003,-0.00405449,-0.00263400,0.00000017,-0.00111136,-0.00046911,-0.0000
 0012,0.00024078,0.00026537,-0.00000004,-0.00023538,0.00000085,-0.00000
 017,0.00629976,-0.02688163,-0.00000007,-0.06196122,0.02991229,-0.00000
 012,0.00169110,0.02962851,0.00000002,-0.00512098,0.00168729,0.00000016
 ,-0.00000530,0.00000399,-0.00000005,-0.00001430,0.00000453,0.00000002,
 0.00000106,-0.00002346,-0.00000004,-0.00004238,0.00003661,0.00000009,-
 0.00003359,-0.00013206,0.00000003,-0.00001160,0.00000660,0.,-0.0000011
 5,-0.00000071,0.,-0.00000026,0.00000196,-0.00000003,-0.00000006,0.0000
 0138,0.,0.00000063,0.00000066,-0.00000001,-0.00003207,-0.00003074,-0.0
 0000002,0.00001380,-0.00000072,0.,0.00002473,-0.00008736,0.,-0.0001093
 4,0.00145844,0.,0.00102619,0.00032434,0.00000001,0.06175619,-0.0000054
 0,-0.00000723,-0.00000094,-0.00000901,-0.00005020,0.00000060,-0.000038
 61,0.00004540,-0.00000010,-0.00002539,-0.00001612,-0.00000065,-0.00002
 761,0.00000142,-0.00000167,0.00002252,0.00003111,0.00000149,0.00000152
 ,-0.00000025,-0.00000360,0.00063145,-0.00058745,0.00000204,-0.00033780
 ,-0.00014646,0.00000039,0.00008414,-0.00005539,-0.00000043,-0.00326308
 ,0.00043700,-0.00000257,-0.00020662,0.00058382,0.00000107,0.00002876,0
 .00002884,0.00000094,-0.00004569,0.00002290,0.00000208,0.00414393,-0.0
 1438988,0.00000111,0.02943899,-0.33236067,0.00000190,-0.00156167,-0.00
 832752,-0.00000028,0.00257739,0.00116137,-0.00000211,-0.00001030,-0.00
 000733,0.00000060,-0.00000608,0.00001807,0.00000041,-0.00001745,-0.000
 02175,0.00000053,0.00000964,0.00001795,-0.00000141,-0.00000957,-0.0000
 5855,-0.00000008,-0.00000868,0.00001003,-0.00000006,-0.00000816,0.0000
 0210,0.00000017,-0.00000401,-0.00000049,0.00000045,-0.00000747,-0.0000
 0175,-0.00000002,-0.00000017,-0.00000750,0.00000025,-0.00002141,-0.000
 02808,0.00000017,-0.00000128,-0.00002318,0.00000012,0.00001359,0.00000
 171,-0.00000004,-0.00012874,-0.00052800,-0.00000010,-0.00014779,0.0008
 8136,-0.00000027,-0.03137283,0.35266479,0.,0.00000003,-0.00000743,-0.0
 0000002,-0.00000006,0.00002337,0.00000007,-0.00000018,-0.00006313,0.00
 000025,-0.00000001,0.00000929,-0.00000011,-0.00000014,0.00000391,-0.00
 000001,0.00000003,-0.00000329,0.00000009,-0.00000003,0.00011940,-0.000
 00018,0.,0.00030757,-0.00000002,0.00000017,-0.00049309,-0.00000002,0.0
 0000011,-0.00000471,-0.00000006,0.00000009,0.00817193,0.00000019,-0.00
 000002,-0.00085285,-0.00000008,-0.00000012,-0.00094658,-0.00000034,-0.
 00000004,0.00015277,0.00000004,0.00000006,0.00349419,0.00000006,0.0000
 0005,-0.03637090,-0.00000007,0.,0.00293874,0.00000003,0.00000005,0.006
 00442,0.00000013,0.,-0.00000744,-0.00000006,0.00000001,-0.00000210,0.,
 0.00000006,-0.00001780,0.,0.00000004,0.00000194,0.00000007,-0.00000005
 ,0.00004407,0.00000001,0.00000006,0.00000858,0.00000001,0.,0.00000600,
 -0.00000008,-0.00000003,0.00000105,0.00000006,0.00000004,0.00000356,0.
 ,0.00000001,0.00000384,-0.00000002,0.00000003,-0.00003196,0.,-0.000000
 04,0.00008184,0.00000010,-0.00000002,0.00004444,-0.00000001,0.,0.00019
 405,-0.00000006,0.00000002,-0.00475281,0.,-0.00000015,0.02515959,-0.00
 000785,-0.00001312,0.00000012,-0.00004214,-0.00002304,-0.00000017,0.00
 003226,-0.00003398,-0.00000009,-0.00003183,0.00001070,0.00000053,-0.00
 001380,0.00000581,0.00000096,0.00001620,0.00001076,-0.00000089,-0.0000
 1196,-0.00003552,0.00000132,-0.00007718,-0.00013171,-0.00000077,-0.000
 16162,-0.00001713,0.00000001,0.00007376,0.00003083,0.00000018,0.000155
 35,0.00096881,0.00000105,0.00142899,0.00159597,-0.00000064,0.00005373,
 0.00000603,-0.00000031,0.00017427,0.00000901,-0.00000105,-0.00373429,0
 .00371349,-0.00000047,-0.01756309,-0.01923367,-0.00000075,-0.23987621,
 -0.13166659,0.00000009,0.00620814,0.00393272,0.00000099,-0.00000004,-0
 .00000210,-0.00000036,-0.00000585,0.00000326,0.00000009,0.00000940,-0.
 00001104,-0.00000026,0.00000824,-0.00004164,0.00000057,0.00007775,0.00
 010179,0.00000019,0.00000212,0.00000511,-0.00000003,-0.00000766,0.0000
 0216,-0.00000005,-0.00000560,-0.00000238,-0.00000019,-0.00000533,-0.00
 000333,0.00000005,-0.00000156,-0.00000653,-0.00000008,-0.00000088,-0.0
 0000851,-0.00000015,0.00000848,0.00001029,-0.00000004,0.00000305,-0.00
 001000,0.00000005,0.00077317,-0.00039222,0.00000002,-0.00093665,-0.000
 91502,0.00000008,0.00096990,0.00031290,0.00000002,0.25248873,0.0000059
 1,0.00001519,0.00000005,-0.00001521,-0.00000486,-0.00000011,-0.0000257
 8,0.00007018,-0.00000008,0.00004758,-0.00002797,0.00000039,-0.00000088
 ,-0.00000701,0.00000068,-0.00000705,0.00001508,-0.00000063,-0.00008038
 ,0.00005555,0.00000089,0.00015330,0.00018813,-0.00000052,0.00025324,-0
 .00001849,0.00000003,-0.00008953,-0.00000603,0.00000012,0.00059248,-0.
 00069553,0.00000072,0.00232952,-0.00505885,-0.00000046,-0.00146212,0.0
 0002073,-0.00000020,0.00002357,-0.00058360,-0.00000074,0.00292161,-0.0
 0011550,-0.00000032,0.01180890,0.01118358,-0.00000051,-0.13119082,-0.1
 5481078,0.00000006,-0.02733358,-0.01349432,0.00000069,-0.00000597,0.00
 001113,-0.00000026,-0.00001615,-0.00000845,0.00000009,0.00001499,-0.00
 000910,-0.00000018,-0.00004030,0.00003198,0.00000039,-0.00003321,-0.00
 010116,0.00000014,-0.00000023,0.00000264,-0.00000003,-0.00000301,0.000
 00186,-0.00000004,-0.00000347,-0.00000100,-0.00000013,-0.00000399,-0.0
 0000077,0.00000004,0.00000151,-0.00000303,-0.00000006,0.00000473,0.000
 00193,-0.00000011,-0.00013180,-0.00010124,-0.00000003,0.00005005,-0.00
 002817,0.00000003,0.00035345,0.00099619,0.00000001,0.00064176,0.000334
 02,0.00000005,-0.00058700,0.00070993,0.00000001,0.14182788,0.16143773,
 0.00000003,-0.00000005,-0.00003200,0.00000001,0.00000007,0.00002041,-0
 .00000010,0.00000025,-0.00008189,-0.00000036,0.00000004,-0.00002991,0.
 00000015,0.00000022,-0.00000746,0.00000001,-0.00000002,0.00002211,-0.0
 0000018,0.00000007,0.00014343,0.00000026,-0.00000003,-0.00084438,0.000
 00009,-0.00000024,0.00012763,-0.00000004,-0.00000018,0.00003275,0.0000
 0010,-0.00000015,-0.00084885,-0.00000022,0.00000011,0.00825244,0.00000
 009,0.00000013,0.00017919,0.00000046,0.00000004,-0.00045703,0.00000004
 ,-0.00000002,0.00602816,-0.00000007,-0.00000005,0.00309614,0.00000002,
 -0.00000003,-0.03685013,-0.00000003,-0.00000009,0.00364276,-0.00000021
 ,0.,0.00000404,0.00000007,-0.00000002,-0.00001081,-0.00000002,-0.00000
 011,-0.00000451,0.00000001,-0.00000008,0.00010455,-0.00000010,0.000000
 05,-0.00009937,-0.00000002,-0.00000006,0.00000993,0.00000001,-0.000000
 03,0.00000182,0.00000010,0.00000004,0.00000222,-0.00000007,-0.00000005
 ,0.00000286,0.00000001,-0.00000002,0.00000309,0.00000003,-0.00000003,-
 0.00000125,0.,0.00000008,-0.00000965,-0.00000010,0.,0.00008536,-0.0000
 0003,0.00000002,-0.00454127,0.00000005,0.,0.00003092,0.,0.00000015,-0.
 00322049,0.,0.,0.02524921\\-0.00010151,-0.00018423,0.,0.00008908,-0.00
 000710,0.,-0.00001950,0.00030916,0.,-0.00006237,-0.00020696,0.,-0.0001
 0625,0.00023107,0.,0.00025718,0.00004580,0.,0.00006108,-0.00057344,0.,
 -0.00023374,0.00024184,0.,0.00005553,-0.00022450,0.,-0.00012197,-0.000
 00930,0.,-0.00001149,-0.00000845,0.,0.00021786,-0.00010928,0.,0.000092
 33,0.00012271,0.,-0.00013420,0.00000701,0.,-0.00007213,0.00007928,0.,0
 .00017214,0.00011078,0.,-0.00003683,0.00014004,0.,0.00000124,-0.000031
 92,0.,-0.00001456,-0.00026650,0.,0.00011144,0.00026247,0.,-0.00007772,
 0.00001575,0.,0.00023291,-0.00003175,0.,-0.00026489,0.00031121,0.,0.00
 004139,0.00001290,0.,-0.00003411,-0.00000518,0.,-0.00003034,-0.0000101
 9,0.,0.00000770,-0.00003816,0.,-0.00004998,-0.00001103,0.,-0.00000478,
 -0.00005192,0.,0.00004595,-0.00001557,0.,-0.00001409,-0.00004603,0.,0.
 00002714,-0.00002450,0.,-0.00001819,0.00000340,0.,-0.00002378,-0.00000
 556,0.,0.00001946,-0.00003185,0.\\\@


 THE VALUE OF PHILOSOPHY IS, IN FACT, TO BE SOUGHT LARGELY IN ITS
 VERY UNCERTAINTY.  THE MAN WHO HAS NO TINCTURE OF PHILOSOPHY GOES
 THROUGH LIFE IMPRISONED IN THE PREJUDICES DERIVED FROM COMMON SENSE,
 FROM THE HABITUAL BELIEFS OF HIS AGE OR HIS NATION, AND FROM
 CONVICTIONS WHICH HAVE GROWN UP IN HIS MIND WITHOUT THE CO-OPERATION
 OR CONSENT OF HIS DELIBERATE REASON.  TO SUCH A MAN THE WORLD TENDS
 TO BE DEFINITE, FINITE, OBVIOUS; COMMON OBJECTS ROUSE NO QUESTIONS,
 AND UNFAMILIAR POSSIBILITIES ARE CONTEMPTUOUSLY REJECTED.

                             -- BERTRAND RUSSELL
 Job cpu time:       0 days 12 hours  7 minutes 13.7 seconds.
 Elapsed time:       0 days  0 hours 36 minutes 28.8 seconds.
 File lengths (MBytes):  RWF=   2105 Int=      0 D2E=      0 Chk=     35 Scr=      1
 Normal termination of Gaussian 16 at Mon Jun 24 18:38:33 2019.
