 Entering Gaussian System, Link 0=/share/apps/gaussian16/g16/g16
 Initial command:
 /share/apps/gaussian16/g16/l1.exe "/home/amen01//scratch/578/Gau-34631.inp" -scrdir="/home/amen01//scratch/578/"
 Entering Link 1 = /share/apps/gaussian16/g16/l1.exe PID=     34632.
  
 Copyright (c) 1988-2017, Gaussian, Inc.  All Rights Reserved.
  
 This is part of the Gaussian(R) 16 program.  It is based on
 the Gaussian(R) 09 system (copyright 2009, Gaussian, Inc.),
 the Gaussian(R) 03 system (copyright 2003, Gaussian, Inc.),
 the Gaussian(R) 98 system (copyright 1998, Gaussian, Inc.),
 the Gaussian(R) 94 system (copyright 1995, Gaussian, Inc.),
 the Gaussian 92(TM) system (copyright 1992, Gaussian, Inc.),
 the Gaussian 90(TM) system (copyright 1990, Gaussian, Inc.),
 the Gaussian 88(TM) system (copyright 1988, Gaussian, Inc.),
 the Gaussian 86(TM) system (copyright 1986, Carnegie Mellon
 University), and the Gaussian 82(TM) system (copyright 1983,
 Carnegie Mellon University). Gaussian is a federally registered
 trademark of Gaussian, Inc.
  
 This software contains proprietary and confidential information,
 including trade secrets, belonging to Gaussian, Inc.
  
 This software is provided under written license and may be
 used, copied, transmitted, or stored only in accord with that
 written license.
  
 The following legend is applicable only to US Government
 contracts under FAR:
  
                    RESTRICTED RIGHTS LEGEND
  
 Use, reproduction and disclosure by the US Government is
 subject to restrictions as set forth in subparagraphs (a)
 and (c) of the Commercial Computer Software - Restricted
 Rights clause in FAR 52.227-19.
  
 Gaussian, Inc.
 340 Quinnipiac St., Bldg. 40, Wallingford CT 06492
  
  
 ---------------------------------------------------------------
 Warning -- This program may not be used in any manner that
 competes with the business of Gaussian, Inc. or will provide
 assistance to any competitor of Gaussian, Inc.  The licensee
 of this program is prohibited from giving any competitor of
 Gaussian, Inc. access to this program.  By using this program,
 the user acknowledges that Gaussian, Inc. is engaged in the
 business of creating and licensing software in the field of
 computational chemistry and represents and warrants to the
 licensee that it is not a competitor of Gaussian, Inc. and that
 it will not use this program in any manner prohibited above.
 ---------------------------------------------------------------
  

 Cite this work as:
 Gaussian 16, Revision B.01,
 M. J. Frisch, G. W. Trucks, H. B. Schlegel, G. E. Scuseria, 
 M. A. Robb, J. R. Cheeseman, G. Scalmani, V. Barone, 
 G. A. Petersson, H. Nakatsuji, X. Li, M. Caricato, A. V. Marenich, 
 J. Bloino, B. G. Janesko, R. Gomperts, B. Mennucci, H. P. Hratchian, 
 J. V. Ortiz, A. F. Izmaylov, J. L. Sonnenberg, D. Williams-Young, 
 F. Ding, F. Lipparini, F. Egidi, J. Goings, B. Peng, A. Petrone, 
 T. Henderson, D. Ranasinghe, V. G. Zakrzewski, J. Gao, N. Rega, 
 G. Zheng, W. Liang, M. Hada, M. Ehara, K. Toyota, R. Fukuda, 
 J. Hasegawa, M. Ishida, T. Nakajima, Y. Honda, O. Kitao, H. Nakai, 
 T. Vreven, K. Throssell, J. A. Montgomery, Jr., J. E. Peralta, 
 F. Ogliaro, M. J. Bearpark, J. J. Heyd, E. N. Brothers, K. N. Kudin, 
 V. N. Staroverov, T. A. Keith, R. Kobayashi, J. Normand, 
 K. Raghavachari, A. P. Rendell, J. C. Burant, S. S. Iyengar, 
 J. Tomasi, M. Cossi, J. M. Millam, M. Klene, C. Adamo, R. Cammi, 
 J. W. Ochterski, R. L. Martin, K. Morokuma, O. Farkas, 
 J. B. Foresman, and D. J. Fox, Gaussian, Inc., Wallingford CT, 2016.
 
 ******************************************
 Gaussian 16:  ES64L-G16RevB.01 20-Dec-2017
                20-Jun-2019 
 ******************************************
 %nprocshared=20
 Will use up to   20 processors via shared memory.
 %mem=100GB
 %chk=7-HACAsite2-3b.chk
 ----------------------------------------------------------------
 # opt=modredundant freq b3lyp/6-311+g(d,p) scf=xqc int=grid=fine
 ----------------------------------------------------------------
 1/18=120,19=15,26=3,38=1/1,3;
 2/9=110,12=2,17=6,18=5,40=1/2;
 3/5=4,6=6,7=111,11=2,25=1,30=1,71=1,74=-5,75=-4/1,2,3;
 4//1;
 5/5=2,8=3,13=1,38=5/2,8;
 6/7=2,8=2,9=2,10=2,28=1/1;
 7//1,2,3,16;
 1/18=20,19=15,26=3/3(2);
 2/9=110/2;
 99//99;
 2/9=110/2;
 3/5=4,6=6,7=111,11=2,25=1,30=1,71=1,74=-5,75=-4/1,2,3;
 4/5=5,16=3,69=1/1;
 5/5=2,8=3,13=1,38=5/2,8;
 7//1,2,3,16;
 1/18=20,19=15,26=3/3(-5);
 2/9=110/2;
 6/7=2,8=2,9=2,10=2,19=2,28=1/1;
 99/9=1/99;
 --------------
 7-HACAsite2-3b
 --------------
 Symbolic Z-matrix:
 Charge =  0 Multiplicity = 3
 C                    -8.82024  -0.44013   0.00767 
 C                    -7.62221   0.35155  -0.05676 
 C                    -6.41232  -0.15869   0.13437 
 C                    -6.22471  -1.55614   0.37655 
 C                    -8.66783  -1.8707    0.32439 
 C                    -7.42634  -2.40428   0.49961 
 C                    -5.38433   0.84329  -0.05572 
 C                    -3.9911    0.40496   0.0942 
 C                    -3.78826  -0.96011   0.24587 
 C                    -4.93046  -1.92791   0.42373 
 C                    -2.79374   1.29457   0.0378 
 C                    -1.49861   0.66242  -0.34583 
 C                    -1.34592  -0.76293  -0.12232 
 C                    -2.41694  -1.50145   0.20491 
 C                    -2.74402   2.74486   0.40378 
 C                    -1.66321   3.44675  -0.02217 
 C                    -0.56296   2.84841  -0.76232 
 C                    -0.4466    1.51657  -0.87872 
 C                    -9.94922   0.25691  -0.24548 
 C                    -9.84648   1.70178  -0.56396 
 C                    -8.56142   2.42522  -0.67106 
 C                    -7.44557   1.73194  -0.41131 
 C                    -6.00813   1.99853  -0.41967 
 H                    -8.55623   3.4676   -0.96241 
 H                    -10.76191   2.24895  -0.76269 
 H                    -10.93161  -0.20009  -0.23733 
 H                    -9.55906  -2.483     0.40422 
 H                    -7.29694  -3.45779   0.72177 
 H                    -4.66845  -2.96977   0.58073 
 H                    -2.29235  -2.56422   0.39132 
 H                    -0.35707  -1.20249  -0.18814 
 H                     0.40016   1.06231  -1.38016 
 H                    -1.52591   4.49236   0.24083 
 H                     0.20038   3.51083  -1.15786 
 H                    -5.55996   2.93511  -0.70296 
 C                    -3.69312   3.37049   1.32383 
 C                    -3.90622   4.65181   1.41025 
 H                    -4.08556   5.69963   1.48388 
 H                    -4.25102   2.70524   1.97768 
 
 The following ModRedundant input section has been read:
 

 GradGradGradGradGradGradGradGradGradGradGradGradGradGradGradGradGradGrad
 Berny optimization.
 Initialization pass.
                           ----------------------------
                           !    Initial Parameters    !
                           ! (Angstroms and Degrees)  !
 --------------------------                            --------------------------
 ! Name  Definition              Value          Derivative Info.                !
 --------------------------------------------------------------------------------
 ! R1    R(1,2)                  1.4374         estimate D2E/DX2                !
 ! R2    R(1,5)                  1.4731         estimate D2E/DX2                !
 ! R3    R(1,19)                 1.3508         estimate D2E/DX2                !
 ! R4    R(2,3)                  1.3269         estimate D2E/DX2                !
 ! R5    R(2,22)                 1.4361         estimate D2E/DX2                !
 ! R6    R(3,4)                  1.4306         estimate D2E/DX2                !
 ! R7    R(3,7)                  1.4481         estimate D2E/DX2                !
 ! R8    R(4,6)                  1.4759         estimate D2E/DX2                !
 ! R9    R(4,10)                 1.3474         estimate D2E/DX2                !
 ! R10   R(5,6)                  1.3626         estimate D2E/DX2                !
 ! R11   R(5,27)                 1.0842         estimate D2E/DX2                !
 ! R12   R(6,28)                 1.0844         estimate D2E/DX2                !
 ! R13   R(7,8)                  1.4682         estimate D2E/DX2                !
 ! R14   R(7,23)                 1.3624         estimate D2E/DX2                !
 ! R15   R(8,9)                  1.3884         estimate D2E/DX2                !
 ! R16   R(8,11)                 1.4927         estimate D2E/DX2                !
 ! R17   R(9,10)                 1.5076         estimate D2E/DX2                !
 ! R18   R(9,14)                 1.4749         estimate D2E/DX2                !
 ! R19   R(10,29)                1.0857         estimate D2E/DX2                !
 ! R20   R(11,12)                1.4914         estimate D2E/DX2                !
 ! R21   R(11,15)                1.4966         estimate D2E/DX2                !
 ! R22   R(12,13)                1.4508         estimate D2E/DX2                !
 ! R23   R(12,18)                1.4561         estimate D2E/DX2                !
 ! R24   R(13,14)                1.3415         estimate D2E/DX2                !
 ! R25   R(13,31)                1.0841         estimate D2E/DX2                !
 ! R26   R(14,30)                1.0862         estimate D2E/DX2                !
 ! R27   R(15,16)                1.3573         estimate D2E/DX2                !
 ! R28   R(15,36)                1.4624         estimate D2E/DX2                !
 ! R29   R(16,17)                1.4548         estimate D2E/DX2                !
 ! R30   R(16,33)                1.0869         estimate D2E/DX2                !
 ! R31   R(17,18)                1.342          estimate D2E/DX2                !
 ! R32   R(17,34)                1.0853         estimate D2E/DX2                !
 ! R33   R(18,32)                1.0839         estimate D2E/DX2                !
 ! R34   R(19,20)                1.4831         estimate D2E/DX2                !
 ! R35   R(19,26)                1.0835         estimate D2E/DX2                !
 ! R36   R(20,21)                1.4786         estimate D2E/DX2                !
 ! R37   R(20,25)                1.0849         estimate D2E/DX2                !
 ! R38   R(21,22)                1.3391         estimate D2E/DX2                !
 ! R39   R(21,24)                1.0823         estimate D2E/DX2                !
 ! R40   R(22,23)                1.462          estimate D2E/DX2                !
 ! R41   R(23,35)                1.0762         estimate D2E/DX2                !
 ! R42   R(36,37)                1.3018         estimate D2E/DX2                !
 ! R43   R(36,39)                1.0869         estimate D2E/DX2                !
 ! R44   R(37,38)                1.0656         estimate D2E/DX2                !
 ! A1    A(2,1,5)              117.2751         estimate D2E/DX2                !
 ! A2    A(2,1,19)             113.8284         estimate D2E/DX2                !
 ! A3    A(5,1,19)             128.8954         estimate D2E/DX2                !
 ! A4    A(1,2,3)              122.8            estimate D2E/DX2                !
 ! A5    A(1,2,22)             130.0143         estimate D2E/DX2                !
 ! A6    A(3,2,22)             107.039          estimate D2E/DX2                !
 ! A7    A(2,3,4)              121.3032         estimate D2E/DX2                !
 ! A8    A(2,3,7)              111.2425         estimate D2E/DX2                !
 ! A9    A(4,3,7)              127.2306         estimate D2E/DX2                !
 ! A10   A(3,4,6)              117.9476         estimate D2E/DX2                !
 ! A11   A(3,4,10)             113.666          estimate D2E/DX2                !
 ! A12   A(6,4,10)             128.3564         estimate D2E/DX2                !
 ! A13   A(1,5,6)              120.1449         estimate D2E/DX2                !
 ! A14   A(1,5,27)             118.6334         estimate D2E/DX2                !
 ! A15   A(6,5,27)             121.2192         estimate D2E/DX2                !
 ! A16   A(4,6,5)              120.3999         estimate D2E/DX2                !
 ! A17   A(4,6,28)             118.5675         estimate D2E/DX2                !
 ! A18   A(5,6,28)             121.0299         estimate D2E/DX2                !
 ! A19   A(3,7,8)              116.9792         estimate D2E/DX2                !
 ! A20   A(3,7,23)             107.2628         estimate D2E/DX2                !
 ! A21   A(8,7,23)             135.6349         estimate D2E/DX2                !
 ! A22   A(7,8,9)              116.3162         estimate D2E/DX2                !
 ! A23   A(7,8,11)             125.4065         estimate D2E/DX2                !
 ! A24   A(9,8,11)             118.2225         estimate D2E/DX2                !
 ! A25   A(8,9,10)             122.2334         estimate D2E/DX2                !
 ! A26   A(8,9,14)             119.5835         estimate D2E/DX2                !
 ! A27   A(10,9,14)            118.1698         estimate D2E/DX2                !
 ! A28   A(4,10,9)             123.1257         estimate D2E/DX2                !
 ! A29   A(4,10,29)            120.1084         estimate D2E/DX2                !
 ! A30   A(9,10,29)            116.7591         estimate D2E/DX2                !
 ! A31   A(8,11,12)            116.9807         estimate D2E/DX2                !
 ! A32   A(8,11,15)            126.508          estimate D2E/DX2                !
 ! A33   A(12,11,15)           116.4118         estimate D2E/DX2                !
 ! A34   A(11,12,13)           117.9175         estimate D2E/DX2                !
 ! A35   A(11,12,18)           118.2235         estimate D2E/DX2                !
 ! A36   A(13,12,18)           123.8237         estimate D2E/DX2                !
 ! A37   A(12,13,14)           119.6311         estimate D2E/DX2                !
 ! A38   A(12,13,31)           119.0102         estimate D2E/DX2                !
 ! A39   A(14,13,31)           121.3196         estimate D2E/DX2                !
 ! A40   A(9,14,13)            123.1641         estimate D2E/DX2                !
 ! A41   A(9,14,30)            117.4532         estimate D2E/DX2                !
 ! A42   A(13,14,30)           119.2717         estimate D2E/DX2                !
 ! A43   A(11,15,16)           116.7977         estimate D2E/DX2                !
 ! A44   A(11,15,36)           123.1517         estimate D2E/DX2                !
 ! A45   A(16,15,36)           119.5378         estimate D2E/DX2                !
 ! A46   A(15,16,17)           123.3133         estimate D2E/DX2                !
 ! A47   A(15,16,33)           121.4761         estimate D2E/DX2                !
 ! A48   A(17,16,33)           115.0396         estimate D2E/DX2                !
 ! A49   A(16,17,18)           121.1912         estimate D2E/DX2                !
 ! A50   A(16,17,34)           117.7953         estimate D2E/DX2                !
 ! A51   A(18,17,34)           120.873          estimate D2E/DX2                !
 ! A52   A(12,18,17)           119.1947         estimate D2E/DX2                !
 ! A53   A(12,18,32)           119.2017         estimate D2E/DX2                !
 ! A54   A(17,18,32)           121.5881         estimate D2E/DX2                !
 ! A55   A(1,19,20)            119.0173         estimate D2E/DX2                !
 ! A56   A(1,19,26)            122.5982         estimate D2E/DX2                !
 ! A57   A(20,19,26)           118.3803         estimate D2E/DX2                !
 ! A58   A(19,20,21)           123.5333         estimate D2E/DX2                !
 ! A59   A(19,20,25)           118.1804         estimate D2E/DX2                !
 ! A60   A(21,20,25)           118.2511         estimate D2E/DX2                !
 ! A61   A(20,21,22)           117.1843         estimate D2E/DX2                !
 ! A62   A(20,21,24)           119.6617         estimate D2E/DX2                !
 ! A63   A(22,21,24)           123.149          estimate D2E/DX2                !
 ! A64   A(2,22,21)            116.2972         estimate D2E/DX2                !
 ! A65   A(2,22,23)            107.3149         estimate D2E/DX2                !
 ! A66   A(21,22,23)           136.3671         estimate D2E/DX2                !
 ! A67   A(7,23,22)            107.0995         estimate D2E/DX2                !
 ! A68   A(7,23,35)            128.1378         estimate D2E/DX2                !
 ! A69   A(22,23,35)           124.7241         estimate D2E/DX2                !
 ! A70   A(15,36,37)           124.6859         estimate D2E/DX2                !
 ! A71   A(15,36,39)           116.7277         estimate D2E/DX2                !
 ! A72   A(37,36,39)           118.5862         estimate D2E/DX2                !
 ! A73   L(36,37,38,20,-1)     179.7848         estimate D2E/DX2                !
 ! A74   L(36,37,38,20,-2)     179.765          estimate D2E/DX2                !
 ! D1    D(5,1,2,3)              1.0873         estimate D2E/DX2                !
 ! D2    D(5,1,2,22)           176.0913         estimate D2E/DX2                !
 ! D3    D(19,1,2,3)          -178.5663         estimate D2E/DX2                !
 ! D4    D(19,1,2,22)           -3.5624         estimate D2E/DX2                !
 ! D5    D(2,1,5,6)             -2.1479         estimate D2E/DX2                !
 ! D6    D(2,1,5,27)           178.4186         estimate D2E/DX2                !
 ! D7    D(19,1,5,6)           177.445          estimate D2E/DX2                !
 ! D8    D(19,1,5,27)           -1.9885         estimate D2E/DX2                !
 ! D9    D(2,1,19,20)            0.5791         estimate D2E/DX2                !
 ! D10   D(2,1,19,26)          179.8238         estimate D2E/DX2                !
 ! D11   D(5,1,19,20)         -179.0253         estimate D2E/DX2                !
 ! D12   D(5,1,19,26)            0.2194         estimate D2E/DX2                !
 ! D13   D(1,2,3,4)              2.0801         estimate D2E/DX2                !
 ! D14   D(1,2,3,7)            177.0201         estimate D2E/DX2                !
 ! D15   D(22,2,3,4)          -173.9197         estimate D2E/DX2                !
 ! D16   D(22,2,3,7)             1.0203         estimate D2E/DX2                !
 ! D17   D(1,2,22,21)            3.2413         estimate D2E/DX2                !
 ! D18   D(1,2,22,23)         -175.371          estimate D2E/DX2                !
 ! D19   D(3,2,22,21)          178.8503         estimate D2E/DX2                !
 ! D20   D(3,2,22,23)            0.238          estimate D2E/DX2                !
 ! D21   D(2,3,4,6)             -4.0849         estimate D2E/DX2                !
 ! D22   D(2,3,4,10)           174.0901         estimate D2E/DX2                !
 ! D23   D(7,3,4,6)           -178.1588         estimate D2E/DX2                !
 ! D24   D(7,3,4,10)             0.0162         estimate D2E/DX2                !
 ! D25   D(2,3,7,8)           -178.5759         estimate D2E/DX2                !
 ! D26   D(2,3,7,23)            -1.9794         estimate D2E/DX2                !
 ! D27   D(4,3,7,8)             -4.007          estimate D2E/DX2                !
 ! D28   D(4,3,7,23)           172.5896         estimate D2E/DX2                !
 ! D29   D(3,4,6,5)              2.955          estimate D2E/DX2                !
 ! D30   D(3,4,6,28)          -177.6393         estimate D2E/DX2                !
 ! D31   D(10,4,6,5)          -174.9133         estimate D2E/DX2                !
 ! D32   D(10,4,6,28)            4.4924         estimate D2E/DX2                !
 ! D33   D(3,4,10,9)             0.335          estimate D2E/DX2                !
 ! D34   D(3,4,10,29)         -178.6863         estimate D2E/DX2                !
 ! D35   D(6,4,10,9)           178.279          estimate D2E/DX2                !
 ! D36   D(6,4,10,29)           -0.7423         estimate D2E/DX2                !
 ! D37   D(1,5,6,4)              0.1077         estimate D2E/DX2                !
 ! D38   D(1,5,6,28)          -179.2831         estimate D2E/DX2                !
 ! D39   D(27,5,6,4)           179.5263         estimate D2E/DX2                !
 ! D40   D(27,5,6,28)            0.1354         estimate D2E/DX2                !
 ! D41   D(3,7,8,9)              7.4419         estimate D2E/DX2                !
 ! D42   D(3,7,8,11)          -175.3106         estimate D2E/DX2                !
 ! D43   D(23,7,8,9)          -167.9075         estimate D2E/DX2                !
 ! D44   D(23,7,8,11)            9.34           estimate D2E/DX2                !
 ! D45   D(3,7,23,22)            2.0099         estimate D2E/DX2                !
 ! D46   D(3,7,23,35)         -175.7912         estimate D2E/DX2                !
 ! D47   D(8,7,23,22)          177.6706         estimate D2E/DX2                !
 ! D48   D(8,7,23,35)           -0.1305         estimate D2E/DX2                !
 ! D49   D(7,8,9,10)            -7.526          estimate D2E/DX2                !
 ! D50   D(7,8,9,14)           171.1225         estimate D2E/DX2                !
 ! D51   D(11,8,9,10)          175.02           estimate D2E/DX2                !
 ! D52   D(11,8,9,14)           -6.3315         estimate D2E/DX2                !
 ! D53   D(7,8,11,12)         -155.602          estimate D2E/DX2                !
 ! D54   D(7,8,11,15)           28.1744         estimate D2E/DX2                !
 ! D55   D(9,8,11,12)           21.5978         estimate D2E/DX2                !
 ! D56   D(9,8,11,15)         -154.6257         estimate D2E/DX2                !
 ! D57   D(8,9,10,4)             3.7095         estimate D2E/DX2                !
 ! D58   D(8,9,10,29)         -177.2387         estimate D2E/DX2                !
 ! D59   D(14,9,10,4)         -174.9572         estimate D2E/DX2                !
 ! D60   D(14,9,10,29)           4.0946         estimate D2E/DX2                !
 ! D61   D(8,9,14,13)           -7.7328         estimate D2E/DX2                !
 ! D62   D(8,9,14,30)          176.1313         estimate D2E/DX2                !
 ! D63   D(10,9,14,13)         170.9704         estimate D2E/DX2                !
 ! D64   D(10,9,14,30)          -5.1655         estimate D2E/DX2                !
 ! D65   D(8,11,12,13)         -24.0098         estimate D2E/DX2                !
 ! D66   D(8,11,12,18)         158.0669         estimate D2E/DX2                !
 ! D67   D(15,11,12,13)        152.6016         estimate D2E/DX2                !
 ! D68   D(15,11,12,18)        -25.3217         estimate D2E/DX2                !
 ! D69   D(8,11,15,16)        -164.2617         estimate D2E/DX2                !
 ! D70   D(8,11,15,36)          24.006          estimate D2E/DX2                !
 ! D71   D(12,11,15,16)         19.4959         estimate D2E/DX2                !
 ! D72   D(12,11,15,36)       -152.2364         estimate D2E/DX2                !
 ! D73   D(11,12,13,14)         10.899          estimate D2E/DX2                !
 ! D74   D(11,12,13,31)       -166.8535         estimate D2E/DX2                !
 ! D75   D(18,12,13,14)       -171.3037         estimate D2E/DX2                !
 ! D76   D(18,12,13,31)         10.9439         estimate D2E/DX2                !
 ! D77   D(11,12,18,17)         13.165          estimate D2E/DX2                !
 ! D78   D(11,12,18,32)       -165.422          estimate D2E/DX2                !
 ! D79   D(13,12,18,17)       -164.6261         estimate D2E/DX2                !
 ! D80   D(13,12,18,32)         16.7869         estimate D2E/DX2                !
 ! D81   D(12,13,14,9)           5.2045         estimate D2E/DX2                !
 ! D82   D(12,13,14,30)       -178.7265         estimate D2E/DX2                !
 ! D83   D(31,13,14,9)        -177.0963         estimate D2E/DX2                !
 ! D84   D(31,13,14,30)         -1.0273         estimate D2E/DX2                !
 ! D85   D(11,15,16,17)         -2.01           estimate D2E/DX2                !
 ! D86   D(11,15,16,33)       -177.0186         estimate D2E/DX2                !
 ! D87   D(36,15,16,17)        170.0361         estimate D2E/DX2                !
 ! D88   D(36,15,16,33)         -4.9725         estimate D2E/DX2                !
 ! D89   D(11,15,36,37)       -161.6474         estimate D2E/DX2                !
 ! D90   D(11,15,36,39)         18.5251         estimate D2E/DX2                !
 ! D91   D(16,15,36,37)         26.8364         estimate D2E/DX2                !
 ! D92   D(16,15,36,39)       -152.9911         estimate D2E/DX2                !
 ! D93   D(15,16,17,18)        -11.1463         estimate D2E/DX2                !
 ! D94   D(15,16,17,34)        173.1261         estimate D2E/DX2                !
 ! D95   D(33,16,17,18)        164.1558         estimate D2E/DX2                !
 ! D96   D(33,16,17,34)        -11.5717         estimate D2E/DX2                !
 ! D97   D(16,17,18,12)          4.9767         estimate D2E/DX2                !
 ! D98   D(16,17,18,32)       -176.4712         estimate D2E/DX2                !
 ! D99   D(34,17,18,12)       -179.4269         estimate D2E/DX2                !
 ! D100  D(34,17,18,32)         -0.8749         estimate D2E/DX2                !
 ! D101  D(1,19,20,21)           2.3412         estimate D2E/DX2                !
 ! D102  D(1,19,20,25)        -179.857          estimate D2E/DX2                !
 ! D103  D(26,19,20,21)       -176.9355         estimate D2E/DX2                !
 ! D104  D(26,19,20,25)          0.8663         estimate D2E/DX2                !
 ! D105  D(19,20,21,22)         -2.697          estimate D2E/DX2                !
 ! D106  D(19,20,21,24)        176.5132         estimate D2E/DX2                !
 ! D107  D(25,20,21,22)        179.5027         estimate D2E/DX2                !
 ! D108  D(25,20,21,24)         -1.2872         estimate D2E/DX2                !
 ! D109  D(20,21,22,2)           0.0903         estimate D2E/DX2                !
 ! D110  D(20,21,22,23)        178.1702         estimate D2E/DX2                !
 ! D111  D(24,21,22,2)        -179.0899         estimate D2E/DX2                !
 ! D112  D(24,21,22,23)         -1.01           estimate D2E/DX2                !
 ! D113  D(2,22,23,7)           -1.4534         estimate D2E/DX2                !
 ! D114  D(2,22,23,35)         176.4424         estimate D2E/DX2                !
 ! D115  D(21,22,23,7)        -179.6503         estimate D2E/DX2                !
 ! D116  D(21,22,23,35)         -1.7546         estimate D2E/DX2                !
 --------------------------------------------------------------------------------
 Trust Radius=3.00D-01 FncErr=1.00D-07 GrdErr=1.00D-06 EigMax=2.50D+02 EigMin=1.00D-04
 Number of steps in this run=    234 maximum allowed number of steps=    234.
 GradGradGradGradGradGradGradGradGradGradGradGradGradGradGradGradGradGrad

                          Input orientation:                          
 ---------------------------------------------------------------------
 Center     Atomic      Atomic             Coordinates (Angstroms)
 Number     Number       Type             X           Y           Z
 ---------------------------------------------------------------------
      1          6           0       -8.820240   -0.440130    0.007670
      2          6           0       -7.622210    0.351550   -0.056760
      3          6           0       -6.412320   -0.158690    0.134370
      4          6           0       -6.224710   -1.556140    0.376550
      5          6           0       -8.667830   -1.870700    0.324390
      6          6           0       -7.426340   -2.404280    0.499610
      7          6           0       -5.384330    0.843290   -0.055720
      8          6           0       -3.991100    0.404960    0.094200
      9          6           0       -3.788260   -0.960110    0.245870
     10          6           0       -4.930460   -1.927910    0.423730
     11          6           0       -2.793740    1.294570    0.037800
     12          6           0       -1.498610    0.662420   -0.345830
     13          6           0       -1.345920   -0.762930   -0.122320
     14          6           0       -2.416940   -1.501450    0.204910
     15          6           0       -2.744020    2.744860    0.403780
     16          6           0       -1.663210    3.446750   -0.022170
     17          6           0       -0.562960    2.848410   -0.762320
     18          6           0       -0.446600    1.516570   -0.878720
     19          6           0       -9.949220    0.256910   -0.245480
     20          6           0       -9.846480    1.701780   -0.563960
     21          6           0       -8.561420    2.425220   -0.671060
     22          6           0       -7.445570    1.731940   -0.411310
     23          6           0       -6.008130    1.998530   -0.419670
     24          1           0       -8.556230    3.467600   -0.962410
     25          1           0      -10.761910    2.248950   -0.762690
     26          1           0      -10.931610   -0.200090   -0.237330
     27          1           0       -9.559060   -2.483000    0.404220
     28          1           0       -7.296940   -3.457790    0.721770
     29          1           0       -4.668450   -2.969770    0.580730
     30          1           0       -2.292350   -2.564220    0.391320
     31          1           0       -0.357070   -1.202490   -0.188140
     32          1           0        0.400160    1.062310   -1.380160
     33          1           0       -1.525910    4.492360    0.240830
     34          1           0        0.200380    3.510830   -1.157860
     35          1           0       -5.559960    2.935110   -0.702960
     36          6           0       -3.693120    3.370490    1.323830
     37          6           0       -3.906220    4.651810    1.410250
     38          1           0       -4.085560    5.699630    1.483880
     39          1           0       -4.251020    2.705240    1.977680
 ---------------------------------------------------------------------
                    Distance matrix (angstroms):
                    1          2          3          4          5
     1  C    0.000000
     2  C    1.437423   0.000000
     3  C    2.427620   1.326917   0.000000
     4  C    2.849268   2.404172   1.430635   0.000000
     5  C    1.473116   2.485355   2.838029   2.463839   0.000000
     6  C    2.458220   2.818246   2.490845   1.475940   1.362610
     7  C    3.668332   2.291270   1.448054   2.578829   4.276868
     8  C    4.903290   3.634639   2.486287   2.985741   5.206094
     9  C    5.064380   4.063399   2.745978   2.511696   4.964428
    10  C    4.185330   3.559821   2.325893   1.347413   3.739128
    11  C    6.271267   4.920605   3.900694   4.473573   6.678772
    12  C    7.412614   6.138296   5.004934   5.270661   7.633060
    13  C    7.482417   6.374808   5.108758   4.967962   7.418697
    14  C    6.493655   5.531448   4.215571   3.812029   6.262926
    15  C    6.871791   5.453143   4.686108   5.533041   7.510075
    16  C    8.144434   6.714994   5.964709   6.781974   8.801141
    17  C    8.921326   7.520980   6.637900   7.263092   9.441391
    18  C    8.644779   7.315892   6.278747   6.663618   8.972719
    19  C    1.350757   2.336567   3.581434   4.188800   2.548222
    20  C    2.442889   2.650990   3.967678   4.961433   3.865358
    21  C    2.955993   2.357878   3.456000   4.733807   4.411029
    22  C    2.604448   1.436100   2.222578   3.594815   3.874815
    23  C    3.746684   2.334417   2.263610   3.649185   4.753795
    24  H    4.034986   3.376738   4.353074   5.697961   5.492336
    25  H    3.405097   3.735797   5.051770   6.030154   4.747466
    26  H    2.139048   3.359917   4.534739   4.936662   2.869001
    27  H    2.208263   3.463894   3.921378   3.460885   1.084239
    28  H    3.454946   3.901664   3.465783   2.210232   2.134503
    29  H    4.895389   4.490240   3.338037   2.112341   4.155563
    30  H    6.875485   6.091789   4.777735   4.059544   6.413439
    31  H    8.499693   7.430650   6.153014   5.905349   8.353318
    32  H    9.444531   8.161801   7.084810   7.336976   9.681760
    33  H    8.808579   7.375618   6.746896   7.660385   9.565696
    34  H    9.916659   8.508019   7.672225   8.325286  10.478696
    35  H    4.746226   3.368268   3.316510   4.666751   5.814646
    36  C    6.522305   5.143712   4.611288   5.619428   7.294977
    37  C    7.214061   5.869662   5.572191   6.706905   8.148322
    38  H    7.892594   6.594196   6.446309   7.645151   8.924770
    39  H    5.886600   4.587344   4.033746   4.961696   6.571210
                    6          7          8          9         10
     6  C    0.000000
     7  C    3.876198   0.000000
     8  C    4.456126   1.468230   0.000000
     9  C    3.922453   2.427066   1.388367   0.000000
    10  C    2.542067   2.848758   2.536389   1.507611   0.000000
    11  C    5.946070   2.631265   1.492735   2.473044   3.885729
    12  C    6.727362   3.900730   2.544095   2.867963   4.368023
    13  C    6.328691   4.346623   2.899625   2.477795   3.808448
    14  C    5.098631   3.790928   2.474800   1.474871   2.558815
    15  C    6.960384   3.286084   2.669491   3.852554   5.159040
    16  C    8.229245   4.541571   3.832114   4.899806   6.305610
    17  C    8.734369   5.269288   4.296070   5.091545   6.579894
    18  C    8.123400   5.050922   3.840017   4.308751   5.802225
    19  C    3.741927   4.606308   5.969631   6.299206   5.514457
    20  C    4.883440   4.572318   6.033274   6.666597   6.190108
    21  C    5.097347   3.602089   5.055185   5.923198   5.773403
    22  C    4.235382   2.272631   3.734940   4.588566   4.518581
    23  C    4.716050   1.362412   2.621438   3.758233   4.158080
    24  H    6.155739   4.215452   5.597910   6.618013   6.646738
    25  H    5.862762   5.603040   7.069542   7.742548   7.270458
    26  H    4.205764   5.647472   6.974717   7.199900   6.279822
    27  H    2.136303   5.357623   6.280016   5.970461   4.661807
    28  H    1.084427   4.770939   5.122818   4.333096   2.833653
    29  H    2.816437   3.931537   3.476250   2.219369   1.085712
    30  H    5.137622   4.622911   3.433666   2.198197   2.713957
    31  H    7.203602   5.429189   3.983690   3.467013   4.670815
    32  H    8.763840   5.938218   4.678569   4.927171   6.372672
    33  H    9.079961   5.318934   4.775511   5.903193   7.269407
    34  H    9.792987   6.286451   5.364941   6.153780   7.642437
    35  H    5.782615   2.196697   3.081955   4.383142   5.031368
    36  C    6.925622   3.339175   3.224151   4.463759   5.514910
    37  C    7.937816   4.340357   4.446901   5.732656   6.731642
    38  H    8.820598   5.257491   5.474821   6.780353   7.747073
    39  H    6.194719   2.980934   2.984350   4.080209   4.933810
                   11         12         13         14         15
    11  C    0.000000
    12  C    1.491358   0.000000
    13  C    2.520938   1.450825   0.000000
    14  C    2.826240   2.414328   1.341482   0.000000
    15  C    1.496581   2.539590   3.812618   4.263529   0.000000
    16  C    2.431784   2.807907   4.222808   5.010425   1.357289
    17  C    2.833900   2.414013   3.750254   4.826392   2.475386
    18  C    2.529498   1.456114   2.564574   3.763634   2.903729
    19  C    7.235875   8.460929   8.664411   7.747898   7.650251
    20  C    7.090069   8.415152   8.861679   8.127109   7.243582
    21  C    5.920049   7.286736   7.907519   7.344433   5.924491
    22  C    4.693881   6.042722   6.596486   6.010130   4.878007
    23  C    3.322219   4.703872   5.426811   5.053376   3.448114
    24  H    6.239292   7.619659   8.401887   7.984045   6.014201
    25  H    8.064946   9.407421   9.906683   9.200015   8.117459
    26  H    8.278565   9.472971   9.602889   8.624890   8.724700
    27  H    7.757181   8.684877   8.407827   7.212007   8.589254
    28  H    6.582670   7.192811   6.587063   5.282879   7.700848
    29  H    4.689766   4.909094   4.050139   2.714130   6.032557
    30  H    3.907253   3.403619   2.098619   1.086164   5.328273
    31  H    3.496243   2.192229   1.084145   2.118237   4.650750
    32  H    3.502221   2.198881   2.821783   4.125696   3.987391
    33  H    3.445936   3.874707   5.270896   6.059784   2.136376
    34  H    3.912310   3.414586   4.661374   5.816396   3.419784
    35  H    3.300314   4.667679   5.636557   5.512338   3.031598
    36  C    2.602345   3.864878   4.968487   5.159110   1.462428
    37  C    3.793717   4.979522   6.182501   6.444642   2.449520
    38  H    4.812951   5.950936   7.200707   7.501707   3.420089
    39  H    2.806562   4.140963   4.987766   4.919635   2.179399
                   16         17         18         19         20
    16  C    0.000000
    17  C    1.454779   0.000000
    18  C    2.437091   1.341971   0.000000
    19  C    8.881605   9.751147   9.606640   0.000000
    20  C    8.384770   9.356166   9.406972   1.483116   0.000000
    21  C    7.003562   8.010167   8.168174   2.609344   1.478585
    22  C    6.043814   6.981406   7.017866   2.910580   2.405947
    23  C    4.597138   5.521737   5.601217   4.312282   3.852507
    24  H    6.956882   8.019713   8.341440   3.572526   2.222977
    25  H    9.207032  10.216552  10.341927   2.212735   1.084851
    26  H    9.962378  10.820253  10.643953   1.083515   2.213889
    27  H    9.883734  10.522099  10.033914   2.842788   4.304924
    28  H    8.942317   9.344366   8.615857   4.665743   5.896984
    29  H    7.111026   7.246382   6.330976   6.243446   7.067226
    30  H    6.057933   5.798124   4.655388   8.184861   8.727898
    31  H    4.832078   4.096567   2.806814   9.702705   9.931008
    32  H    3.433247   2.121198   1.083880  10.442501  10.298968
    33  H    1.086886   2.153173   3.357622   9.440746   8.812883
    34  H    2.183315   1.085329   2.115083  10.697421  10.225692
    35  H    3.988723   4.998105   5.309388   5.162136   4.462586
    36  C    2.436815   3.797695   4.339140   7.162116   6.649224
    37  C    2.921488   4.376037   5.199816   7.653394   6.920034
    38  H    3.634754   5.058021   6.026765   8.185133   7.305111
    39  H    3.353505   4.596725   4.903628   6.588341   6.227041
                   21         22         23         24         25
    21  C    0.000000
    22  C    1.339115   0.000000
    23  C    2.600875   1.461976   0.000000
    24  H    1.082344   2.133024   2.990911   0.000000
    25  H    2.209440   3.374741   4.772714   2.527849   0.000000
    26  H    3.563450   3.989421   5.395168   4.429461   2.510498
    27  H    5.122708   4.785149   5.776851   6.187325   5.019948
    28  H    6.176463   5.314062   5.721481   7.237631   6.839336
    29  H    6.769646   5.550010   5.242094   7.676969   8.134499
    30  H    8.082351   6.756988   5.939984   8.800661   9.809780
    31  H    8.983588   7.675123   6.498816   9.467601  10.977397
    32  H    9.092319   7.933634   6.547154   9.283149  11.241939
    33  H    7.389385   6.564113   5.171629   7.205784   9.557387
    34  H    8.842209   7.885578   6.432540   8.758898  11.041753
    35  H    3.044629   2.255705   1.076240   3.054258   5.247349
    36  C    5.345415   4.447071   3.206453   5.374585   7.455147
    37  C    5.564211   4.936671   3.847925   5.352986   7.582604
    38  H    5.949693   5.533893   4.584530   5.563558   7.843973
    39  H    5.066930   4.106061   3.055186   5.268791   7.078808
                   26         27         28         29         30
    26  H    0.000000
    27  H    2.739919   0.000000
    28  H    4.974265   2.483594   0.000000
    29  H    6.896921   4.917943   2.677128   0.000000
    30  H    8.978927   7.267175   5.094466   2.417891   0.000000
    31  H   10.622058   9.309523   7.353646   4.722546   2.436266
    32  H   11.459002  10.720975   9.170320   6.767094   4.851749
    33  H   10.522116  10.640199   9.835699   8.103979   7.099676
    34  H   11.770281  11.559099  10.406944   8.290137   6.746843
    35  H    6.237060   6.824556   6.776144   6.108212   6.489788
    36  C    8.220827   8.337762   7.744379   6.457737   6.168672
    37  C    8.695491   9.158177   8.816836   7.704387   7.464173
    38  H    9.199873   9.903550   9.734070   8.735785   8.526459
    39  H    7.614295   7.587417   6.988410   5.859305   5.841244
                   31         32         33         34         35
    31  H    0.000000
    32  H    2.669013   0.000000
    33  H    5.829367   4.254715   0.000000
    34  H    4.844223   2.466694   2.428953   0.000000
    35  H    6.667446   6.284028   4.425983   5.806884   0.000000
    36  C    5.858961   5.421642   2.669884   4.619288   2.789718
    37  C    7.030231   6.262253   2.656848   4.976061   3.185525
    38  H    8.021007   7.058976   3.091033   5.489892   3.820824
    39  H    5.926548   5.967226   3.692786   5.504139   2.991988
                   36         37         38         39
    36  C    0.000000
    37  C    1.301791   0.000000
    38  H    2.367386   1.065604   0.000000
    39  H    1.086890   2.056696   3.039340   0.000000
 Stoichiometry    C25H14(3)
 Framework group  C1[X(C25H14)]
 Deg. of freedom   111
 Full point group                 C1      NOp   1
 Largest Abelian subgroup         C1      NOp   1
 Largest concise Abelian subgroup C1      NOp   1
                         Standard orientation:                         
 ---------------------------------------------------------------------
 Center     Atomic      Atomic             Coordinates (Angstroms)
 Number     Number       Type             X           Y           Z
 ---------------------------------------------------------------------
      1          6           0       -3.966065   -0.170275   -0.027897
      2          6           0       -2.602499    0.280551   -0.088122
      3          6           0       -1.568438   -0.531046    0.092812
      4          6           0       -1.753377   -1.931549    0.318877
      5          6           0       -4.193596   -1.594382    0.272470
      6          6           0       -3.135167   -2.436597    0.437119
      7          6           0       -0.313960    0.168730   -0.090107
      8          6           0        0.915846   -0.621032    0.049721
      9          6           0        0.754022   -1.993227    0.185581
     10          6           0       -0.601729   -2.629954    0.357077
     11          6           0        2.304432   -0.075620   -0.001394
     12          6           0        3.388377   -1.020517   -0.396845
     13          6           0        3.162414   -2.438577   -0.189624
     14          6           0        1.935548   -2.874435    0.133489
     15          6           0        2.732712    1.306626    0.380347
     16          6           0        3.959354    1.705718   -0.041920
     17          6           0        4.863818    0.848649   -0.792759
     18          6           0        4.627041   -0.465707   -0.924259
     19          6           0       -4.873142    0.801105   -0.269095
     20          6           0       -4.395631    2.172181   -0.572027
     21          6           0       -2.965989    2.534850   -0.675999
     22          6           0       -2.070593    1.570461   -0.428111
     23          6           0       -0.613530    1.451200   -0.438956
     24          1           0       -2.688064    3.542768   -0.955868
     25          1           0       -5.135849    2.942355   -0.761265
     26          1           0       -5.940948    0.617399   -0.262274
     27          1           0       -5.214067   -1.952670    0.348913
     28          1           0       -3.286173   -3.489715    0.647173
     29          1           0       -0.621755   -3.705817    0.501604
     30          1           0        1.777446   -3.934813    0.307711
     31          1           0        4.001484   -3.121070   -0.264011
     32          1           0        5.324806   -1.120096   -1.433862
     33          1           0        4.366037    2.675699    0.232061
     34          1           0        5.773763    1.292478   -1.183856
     35          1           0        0.064181    2.240865   -0.713602
     36          6           0        1.981403    2.148337    1.310805
     37          6           0        2.111560    3.439636    1.412135
     38          1           0        2.213103    4.496911    1.497977
     39          1           0        1.269173    1.644950    1.959388
 ---------------------------------------------------------------------
 Rotational constants (GHZ):           0.4408074           0.1702760           0.1291586
 Standard basis: 6-311+G(d,p) (5D, 7F)
 There are   659 symmetry adapted cartesian basis functions of A   symmetry.
 There are   634 symmetry adapted basis functions of A   symmetry.
   634 basis functions,  1012 primitive gaussians,   659 cartesian basis functions
    83 alpha electrons       81 beta electrons
       nuclear repulsion energy      1896.9672228061 Hartrees.
 NAtoms=   39 NActive=   39 NUniq=   39 SFac= 1.00D+00 NAtFMM=   60 NAOKFM=F Big=F
 Integral buffers will be    131072 words long.
 Raffenetti 2 integral format.
 Two-electron integral symmetry is turned on.
 One-electron integrals computed using PRISM.
 NBasis=   634 RedAO= T EigKep=  1.05D-06  NBF=   634
 NBsUse=   621 1.00D-06 EigRej=  9.00D-07 NBFU=   621
 ExpMin= 4.38D-02 ExpMax= 4.56D+03 ExpMxC= 6.82D+02 IAcc=2 IRadAn=         4 AccDes= 0.00D+00
 Harris functional with IExCor=  402 and IRadAn=       4 diagonalized for initial guess.
 HarFok:  IExCor=  402 AccDes= 0.00D+00 IRadAn=         4 IDoV= 1 UseB2=F ITyADJ=14
 ICtDFT=  3500011 ScaDFX=  1.000000  1.000000  1.000000  1.000000
 FoFCou: FMM=F IPFlag=           0 FMFlag=      100000 FMFlg1=           0
         NFxFlg=           0 DoJE=T BraDBF=F KetDBF=T FulRan=T
         wScrn=  0.000000 ICntrl=       500 IOpCl=  0 I1Cent=   200000004 NGrid=           0
         NMat0=    1 NMatS0=      1 NMatT0=    0 NMatD0=    1 NMtDS0=    0 NMtDT0=    0
 Petite list used in FoFCou.
 Initial guess <Sx>= 0.0000 <Sy>= 0.0000 <Sz>= 1.0000 <S**2>= 2.0000 S= 1.0000
 Requested convergence on RMS density matrix=1.00D-08 within  32 cycles.
 Requested convergence on MAX density matrix=1.00D-06.
 Requested convergence on             energy=1.00D-06.
 No special actions if energy rises.
 Restarting incremental Fock formation.
 SCF Done:  E(UB3LYP) =  -961.145044226     A.U. after   24 cycles
            NFock= 24  Conv=0.72D-08     -V/T= 2.0048
 <Sx>= 0.0000 <Sy>= 0.0000 <Sz>= 1.0000 <S**2>= 2.0488 S= 1.0162
 <L.S>=  0.00000000000    
 Annihilation of the first spin contaminant:
 S**2 before annihilation     2.0488,   after     2.0015
 QCSCF skips out because SCF is already converged.

 **********************************************************************

            Population analysis using the SCF Density.

 **********************************************************************

 Orbital symmetries:
 Alpha Orbitals:
       Occupied  (A) (A) (A) (A) (A) (A) (A) (A) (A) (A) (A) (A)
                 (A) (A) (A) (A) (A) (A) (A) (A) (A) (A) (A) (A)
                 (A) (A) (A) (A) (A) (A) (A) (A) (A) (A) (A) (A)
                 (A) (A) (A) (A) (A) (A) (A) (A) (A) (A) (A) (A)
                 (A) (A) (A) (A) (A) (A) (A) (A) (A) (A) (A) (A)
                 (A) (A) (A) (A) (A) (A) (A) (A) (A) (A) (A) (A)
                 (A) (A) (A) (A) (A) (A) (A) (A) (A) (A) (A)
       Virtual   (A) (A) (A) (A) (A) (A) (A) (A) (A) (A) (A) (A)
                 (A) (A) (A) (A) (A) (A) (A) (A) (A) (A) (A) (A)
                 (A) (A) (A) (A) (A) (A) (A) (A) (A) (A) (A) (A)
                 (A) (A) (A) (A) (A) (A) (A) (A) (A) (A) (A) (A)
                 (A) (A) (A) (A) (A) (A) (A) (A) (A) (A) (A) (A)
                 (A) (A) (A) (A) (A) (A) (A) (A) (A) (A) (A) (A)
                 (A) (A) (A) (A) (A) (A) (A) (A) (A) (A) (A) (A)
                 (A) (A) (A) (A) (A) (A) (A) (A) (A) (A) (A) (A)
                 (A) (A) (A) (A) (A) (A) (A) (A) (A) (A) (A) (A)
                 (A) (A) (A) (A) (A) (A) (A) (A) (A) (A) (A) (A)
                 (A) (A) (A) (A) (A) (A) (A) (A) (A) (A) (A) (A)
                 (A) (A) (A) (A) (A) (A) (A) (A) (A) (A) (A) (A)
                 (A) (A) (A) (A) (A) (A) (A) (A) (A) (A) (A) (A)
                 (A) (A) (A) (A) (A) (A) (A) (A) (A) (A) (A) (A)
                 (A) (A) (A) (A) (A) (A) (A) (A) (A) (A) (A) (A)
                 (A) (A) (A) (A) (A) (A) (A) (A) (A) (A) (A) (A)
                 (A) (A) (A) (A) (A) (A) (A) (A) (A) (A) (A) (A)
                 (A) (A) (A) (A) (A) (A) (A) (A) (A) (A) (A) (A)
                 (A) (A) (A) (A) (A) (A) (A) (A) (A) (A) (A) (A)
                 (A) (A) (A) (A) (A) (A) (A) (A) (A) (A) (A) (A)
                 (A) (A) (A) (A) (A) (A) (A) (A) (A) (A) (A) (A)
                 (A) (A) (A) (A) (A) (A) (A) (A) (A) (A) (A) (A)
                 (A) (A) (A) (A) (A) (A) (A) (A) (A) (A) (A) (A)
                 (A) (A) (A) (A) (A) (A) (A) (A) (A) (A) (A) (A)
                 (A) (A) (A) (A) (A) (A) (A) (A) (A) (A) (A) (A)
                 (A) (A) (A) (A) (A) (A) (A) (A) (A) (A) (A) (A)
                 (A) (A) (A) (A) (A) (A) (A) (A) (A) (A) (A) (A)
                 (A) (A) (A) (A) (A) (A) (A) (A) (A) (A) (A) (A)
                 (A) (A) (A) (A) (A) (A) (A) (A) (A) (A) (A) (A)
                 (A) (A) (A) (A) (A) (A) (A) (A) (A) (A) (A) (A)
                 (A) (A) (A) (A) (A) (A) (A) (A) (A) (A) (A) (A)
                 (A) (A) (A) (A) (A) (A) (A) (A) (A) (A) (A) (A)
                 (A) (A) (A) (A) (A) (A) (A) (A) (A) (A) (A) (A)
                 (A) (A) (A) (A) (A) (A) (A) (A) (A) (A) (A) (A)
                 (A) (A) (A) (A) (A) (A) (A) (A) (A) (A) (A) (A)
                 (A) (A) (A) (A) (A) (A) (A) (A) (A) (A) (A) (A)
                 (A) (A) (A) (A) (A) (A) (A) (A) (A) (A) (A) (A)
                 (A) (A) (A) (A) (A) (A) (A) (A) (A) (A) (A) (A)
                 (A) (A) (A) (A) (A) (A) (A) (A) (A) (A) (A) (A)
                 (A) (A) (A) (A) (A) (A) (A) (A) (A) (A) (A) (A)
                 (A) (A) (A) (A) (A) (A) (A) (A) (A) (A) (A) (A)
                 (A) (A) (A) (A) (A) (A) (A) (A) (A) (A) (A) (A)
                 (A) (A) (A) (A) (A) (A) (A) (A) (A) (A) (A) (A)
                 (A) (A) (A) (A) (A) (A) (A) (A) (A) (A) (A) (A)
                 (A) (A) (A) (A) (A) (A) (A) (A) (A) (A)
 Beta  Orbitals:
       Occupied  (A) (A) (A) (A) (A) (A) (A) (A) (A) (A) (A) (A)
                 (A) (A) (A) (A) (A) (A) (A) (A) (A) (A) (A) (A)
                 (A) (A) (A) (A) (A) (A) (A) (A) (A) (A) (A) (A)
                 (A) (A) (A) (A) (A) (A) (A) (A) (A) (A) (A) (A)
                 (A) (A) (A) (A) (A) (A) (A) (A) (A) (A) (A) (A)
                 (A) (A) (A) (A) (A) (A) (A) (A) (A) (A) (A) (A)
                 (A) (A) (A) (A) (A) (A) (A) (A) (A)
       Virtual   (A) (A) (A) (A) (A) (A) (A) (A) (A) (A) (A) (A)
                 (A) (A) (A) (A) (A) (A) (A) (A) (A) (A) (A) (A)
                 (A) (A) (A) (A) (A) (A) (A) (A) (A) (A) (A) (A)
                 (A) (A) (A) (A) (A) (A) (A) (A) (A) (A) (A) (A)
                 (A) (A) (A) (A) (A) (A) (A) (A) (A) (A) (A) (A)
                 (A) (A) (A) (A) (A) (A) (A) (A) (A) (A) (A) (A)
                 (A) (A) (A) (A) (A) (A) (A) (A) (A) (A) (A) (A)
                 (A) (A) (A) (A) (A) (A) (A) (A) (A) (A) (A) (A)
                 (A) (A) (A) (A) (A) (A) (A) (A) (A) (A) (A) (A)
                 (A) (A) (A) (A) (A) (A) (A) (A) (A) (A) (A) (A)
                 (A) (A) (A) (A) (A) (A) (A) (A) (A) (A) (A) (A)
                 (A) (A) (A) (A) (A) (A) (A) (A) (A) (A) (A) (A)
                 (A) (A) (A) (A) (A) (A) (A) (A) (A) (A) (A) (A)
                 (A) (A) (A) (A) (A) (A) (A) (A) (A) (A) (A) (A)
                 (A) (A) (A) (A) (A) (A) (A) (A) (A) (A) (A) (A)
                 (A) (A) (A) (A) (A) (A) (A) (A) (A) (A) (A) (A)
                 (A) (A) (A) (A) (A) (A) (A) (A) (A) (A) (A) (A)
                 (A) (A) (A) (A) (A) (A) (A) (A) (A) (A) (A) (A)
                 (A) (A) (A) (A) (A) (A) (A) (A) (A) (A) (A) (A)
                 (A) (A) (A) (A) (A) (A) (A) (A) (A) (A) (A) (A)
                 (A) (A) (A) (A) (A) (A) (A) (A) (A) (A) (A) (A)
                 (A) (A) (A) (A) (A) (A) (A) (A) (A) (A) (A) (A)
                 (A) (A) (A) (A) (A) (A) (A) (A) (A) (A) (A) (A)
                 (A) (A) (A) (A) (A) (A) (A) (A) (A) (A) (A) (A)
                 (A) (A) (A) (A) (A) (A) (A) (A) (A) (A) (A) (A)
                 (A) (A) (A) (A) (A) (A) (A) (A) (A) (A) (A) (A)
                 (A) (A) (A) (A) (A) (A) (A) (A) (A) (A) (A) (A)
                 (A) (A) (A) (A) (A) (A) (A) (A) (A) (A) (A) (A)
                 (A) (A) (A) (A) (A) (A) (A) (A) (A) (A) (A) (A)
                 (A) (A) (A) (A) (A) (A) (A) (A) (A) (A) (A) (A)
                 (A) (A) (A) (A) (A) (A) (A) (A) (A) (A) (A) (A)
                 (A) (A) (A) (A) (A) (A) (A) (A) (A) (A) (A) (A)
                 (A) (A) (A) (A) (A) (A) (A) (A) (A) (A) (A) (A)
                 (A) (A) (A) (A) (A) (A) (A) (A) (A) (A) (A) (A)
                 (A) (A) (A) (A) (A) (A) (A) (A) (A) (A) (A) (A)
                 (A) (A) (A) (A) (A) (A) (A) (A) (A) (A) (A) (A)
                 (A) (A) (A) (A) (A) (A) (A) (A) (A) (A) (A) (A)
                 (A) (A) (A) (A) (A) (A) (A) (A) (A) (A) (A) (A)
                 (A) (A) (A) (A) (A) (A) (A) (A) (A) (A) (A) (A)
                 (A) (A) (A) (A) (A) (A) (A) (A) (A) (A) (A) (A)
                 (A) (A) (A) (A) (A) (A) (A) (A) (A) (A) (A) (A)
                 (A) (A) (A) (A) (A) (A) (A) (A) (A) (A) (A) (A)
                 (A) (A) (A) (A) (A) (A) (A) (A) (A) (A) (A) (A)
                 (A) (A) (A) (A) (A) (A) (A) (A) (A) (A) (A) (A)
                 (A) (A) (A) (A) (A) (A) (A) (A) (A) (A) (A) (A)
 The electronic state is 3-A.
 Alpha  occ. eigenvalues --  -10.21198 -10.20638 -10.20602 -10.20149 -10.20027
 Alpha  occ. eigenvalues --  -10.19802 -10.19582 -10.19501 -10.19390 -10.19358
 Alpha  occ. eigenvalues --  -10.19334 -10.19259 -10.19171 -10.18871 -10.18554
 Alpha  occ. eigenvalues --  -10.18529 -10.18453 -10.18341 -10.18276 -10.18271
 Alpha  occ. eigenvalues --  -10.18236 -10.18037 -10.17958 -10.17387 -10.16071
 Alpha  occ. eigenvalues --   -0.91615  -0.87826  -0.85250  -0.84158  -0.82838
 Alpha  occ. eigenvalues --   -0.80679  -0.78445  -0.77386  -0.75272  -0.73523
 Alpha  occ. eigenvalues --   -0.73364  -0.71074  -0.69318  -0.64202  -0.63680
 Alpha  occ. eigenvalues --   -0.62749  -0.60908  -0.59236  -0.58721  -0.58045
 Alpha  occ. eigenvalues --   -0.55322  -0.52838  -0.52228  -0.51544  -0.50514
 Alpha  occ. eigenvalues --   -0.48903  -0.48479  -0.47193  -0.46420  -0.45608
 Alpha  occ. eigenvalues --   -0.44691  -0.44082  -0.43144  -0.42972  -0.42150
 Alpha  occ. eigenvalues --   -0.41912  -0.41734  -0.40439  -0.39662  -0.38586
 Alpha  occ. eigenvalues --   -0.38130  -0.36741  -0.36696  -0.36118  -0.35412
 Alpha  occ. eigenvalues --   -0.34832  -0.33798  -0.33274  -0.32795  -0.31318
 Alpha  occ. eigenvalues --   -0.29190  -0.28082  -0.26130  -0.24052  -0.23818
 Alpha  occ. eigenvalues --   -0.21237  -0.20750  -0.18915
 Alpha virt. eigenvalues --   -0.06477  -0.06404  -0.03440  -0.03139  -0.00134
 Alpha virt. eigenvalues --    0.00150   0.00727   0.00777   0.01575   0.01784
 Alpha virt. eigenvalues --    0.01999   0.02480   0.02625   0.02974   0.03304
 Alpha virt. eigenvalues --    0.03854   0.03871   0.04373   0.04828   0.05298
 Alpha virt. eigenvalues --    0.05929   0.06164   0.06228   0.06860   0.07001
 Alpha virt. eigenvalues --    0.07606   0.08009   0.08223   0.08397   0.08727
 Alpha virt. eigenvalues --    0.09023   0.09352   0.09914   0.10417   0.10514
 Alpha virt. eigenvalues --    0.10880   0.11377   0.11591   0.12324   0.12621
 Alpha virt. eigenvalues --    0.12925   0.13060   0.13485   0.13832   0.14193
 Alpha virt. eigenvalues --    0.14781   0.14886   0.14967   0.15346   0.15676
 Alpha virt. eigenvalues --    0.16023   0.16131   0.16331   0.16708   0.16939
 Alpha virt. eigenvalues --    0.17177   0.17480   0.17574   0.17824   0.17891
 Alpha virt. eigenvalues --    0.18089   0.18477   0.18860   0.18952   0.19249
 Alpha virt. eigenvalues --    0.19534   0.19651   0.19851   0.20269   0.20560
 Alpha virt. eigenvalues --    0.20631   0.20850   0.21180   0.21266   0.21544
 Alpha virt. eigenvalues --    0.21745   0.22035   0.22275   0.22942   0.23105
 Alpha virt. eigenvalues --    0.23217   0.23457   0.23562   0.24085   0.24259
 Alpha virt. eigenvalues --    0.24629   0.24744   0.25118   0.25451   0.25789
 Alpha virt. eigenvalues --    0.25840   0.26078   0.26281   0.26536   0.26926
 Alpha virt. eigenvalues --    0.27159   0.27566   0.27844   0.28024   0.28572
 Alpha virt. eigenvalues --    0.28964   0.29157   0.29333   0.29867   0.29976
 Alpha virt. eigenvalues --    0.30163   0.30448   0.31031   0.31113   0.31597
 Alpha virt. eigenvalues --    0.32082   0.32766   0.32789   0.32959   0.33558
 Alpha virt. eigenvalues --    0.33920   0.34332   0.34689   0.35325   0.35790
 Alpha virt. eigenvalues --    0.36663   0.36974   0.37746   0.38290   0.39163
 Alpha virt. eigenvalues --    0.39766   0.40108   0.40703   0.40946   0.42366
 Alpha virt. eigenvalues --    0.43178   0.44153   0.44745   0.45330   0.45758
 Alpha virt. eigenvalues --    0.46912   0.48117   0.48647   0.49228   0.49955
 Alpha virt. eigenvalues --    0.51162   0.51974   0.52647   0.53009   0.53058
 Alpha virt. eigenvalues --    0.53607   0.54101   0.54573   0.54765   0.55163
 Alpha virt. eigenvalues --    0.55349   0.56110   0.56490   0.56976   0.57591
 Alpha virt. eigenvalues --    0.57836   0.58130   0.58660   0.58922   0.59326
 Alpha virt. eigenvalues --    0.59740   0.60252   0.60754   0.61366   0.61647
 Alpha virt. eigenvalues --    0.61944   0.62977   0.63248   0.63942   0.64281
 Alpha virt. eigenvalues --    0.64930   0.65627   0.66023   0.66577   0.66872
 Alpha virt. eigenvalues --    0.67633   0.68053   0.68346   0.68743   0.69279
 Alpha virt. eigenvalues --    0.69684   0.70065   0.70525   0.70571   0.71219
 Alpha virt. eigenvalues --    0.71515   0.71618   0.72513   0.73017   0.73430
 Alpha virt. eigenvalues --    0.73631   0.73834   0.74133   0.74524   0.74869
 Alpha virt. eigenvalues --    0.75162   0.76262   0.76487   0.76942   0.77323
 Alpha virt. eigenvalues --    0.77862   0.78492   0.79328   0.79959   0.80639
 Alpha virt. eigenvalues --    0.81726   0.82402   0.82466   0.83216   0.83902
 Alpha virt. eigenvalues --    0.84623   0.85140   0.85501   0.86857   0.87505
 Alpha virt. eigenvalues --    0.88278   0.88797   0.89642   0.89997   0.90593
 Alpha virt. eigenvalues --    0.91147   0.91625   0.92236   0.92960   0.93350
 Alpha virt. eigenvalues --    0.93668   0.94247   0.94486   0.95118   0.95355
 Alpha virt. eigenvalues --    0.95606   0.96852   0.96945   0.97283   0.98076
 Alpha virt. eigenvalues --    0.98752   0.99235   0.99844   1.00628   1.01357
 Alpha virt. eigenvalues --    1.02032   1.02457   1.03451   1.03648   1.05026
 Alpha virt. eigenvalues --    1.05406   1.06358   1.06832   1.07620   1.08319
 Alpha virt. eigenvalues --    1.08770   1.09736   1.10565   1.10942   1.11329
 Alpha virt. eigenvalues --    1.12231   1.13566   1.13918   1.14507   1.15594
 Alpha virt. eigenvalues --    1.16340   1.16843   1.17410   1.19860   1.21579
 Alpha virt. eigenvalues --    1.22926   1.25078   1.26170   1.27446   1.29962
 Alpha virt. eigenvalues --    1.30450   1.31934   1.33021   1.33788   1.35005
 Alpha virt. eigenvalues --    1.36047   1.37427   1.38198   1.40863   1.43587
 Alpha virt. eigenvalues --    1.43686   1.44445   1.44989   1.46616   1.47231
 Alpha virt. eigenvalues --    1.47408   1.48565   1.49055   1.50137   1.50826
 Alpha virt. eigenvalues --    1.51270   1.51479   1.52340   1.52862   1.53302
 Alpha virt. eigenvalues --    1.53878   1.54520   1.55580   1.56602   1.58463
 Alpha virt. eigenvalues --    1.58890   1.59293   1.60570   1.60873   1.61656
 Alpha virt. eigenvalues --    1.62035   1.62797   1.63895   1.64912   1.66418
 Alpha virt. eigenvalues --    1.67309   1.68007   1.68940   1.70176   1.70941
 Alpha virt. eigenvalues --    1.71851   1.72575   1.73747   1.74056   1.74625
 Alpha virt. eigenvalues --    1.75905   1.76421   1.76572   1.78409   1.78520
 Alpha virt. eigenvalues --    1.79520   1.80592   1.80970   1.81492   1.82049
 Alpha virt. eigenvalues --    1.83141   1.84645   1.84991   1.85656   1.86532
 Alpha virt. eigenvalues --    1.87356   1.87780   1.88505   1.89334   1.89499
 Alpha virt. eigenvalues --    1.90151   1.90369   1.91040   1.91726   1.92478
 Alpha virt. eigenvalues --    1.92985   1.93765   1.93825   1.95338   1.96235
 Alpha virt. eigenvalues --    1.96858   1.97387   1.99027   1.99655   2.00961
 Alpha virt. eigenvalues --    2.01142   2.02591   2.03544   2.04473   2.05801
 Alpha virt. eigenvalues --    2.07177   2.08042   2.08847   2.09476   2.10389
 Alpha virt. eigenvalues --    2.11131   2.11292   2.13046   2.14082   2.15298
 Alpha virt. eigenvalues --    2.16203   2.17614   2.18115   2.19721   2.20830
 Alpha virt. eigenvalues --    2.21249   2.23588   2.24283   2.25639   2.26594
 Alpha virt. eigenvalues --    2.29966   2.30955   2.31898   2.32998   2.34110
 Alpha virt. eigenvalues --    2.36654   2.37073   2.37389   2.39204   2.39904
 Alpha virt. eigenvalues --    2.41892   2.42790   2.43379   2.44045   2.44996
 Alpha virt. eigenvalues --    2.45671   2.49134   2.52371   2.53928   2.54328
 Alpha virt. eigenvalues --    2.55783   2.57486   2.59217   2.60811   2.62639
 Alpha virt. eigenvalues --    2.63730   2.65204   2.66167   2.67111   2.68502
 Alpha virt. eigenvalues --    2.70022   2.70342   2.71371   2.71864   2.72060
 Alpha virt. eigenvalues --    2.72349   2.72728   2.73040   2.73167   2.73852
 Alpha virt. eigenvalues --    2.74372   2.74683   2.75005   2.75908   2.76778
 Alpha virt. eigenvalues --    2.76933   2.77570   2.78328   2.78646   2.79520
 Alpha virt. eigenvalues --    2.79834   2.80593   2.81572   2.82682   2.83356
 Alpha virt. eigenvalues --    2.84518   2.85123   2.85619   2.86045   2.87221
 Alpha virt. eigenvalues --    2.88920   2.89720   2.90579   2.91773   2.93623
 Alpha virt. eigenvalues --    2.94704   2.95338   2.97379   3.01055   3.02018
 Alpha virt. eigenvalues --    3.04468   3.04739   3.05677   3.06969   3.09253
 Alpha virt. eigenvalues --    3.10669   3.11938   3.12532   3.13348   3.14382
 Alpha virt. eigenvalues --    3.15249   3.16084   3.17956   3.19008   3.20695
 Alpha virt. eigenvalues --    3.21406   3.26462   3.28864   3.30009   3.30404
 Alpha virt. eigenvalues --    3.31815   3.35692   3.37651   3.39519   3.39857
 Alpha virt. eigenvalues --    3.40398   3.44835   3.47635   3.48474   3.50935
 Alpha virt. eigenvalues --    3.52327   3.52596   3.54337   3.57414   3.60248
 Alpha virt. eigenvalues --    3.60828   3.64409   3.65449   3.69909   3.72664
 Alpha virt. eigenvalues --    3.76258   3.79217   3.83719   3.89485   3.95075
 Alpha virt. eigenvalues --    4.01714   4.02541   4.05840   4.07522   4.09733
 Alpha virt. eigenvalues --    4.11956   4.18895   4.25842   4.28327   4.31940
 Alpha virt. eigenvalues --    4.35819   4.56163   4.66697   4.71622   4.71833
 Alpha virt. eigenvalues --    4.73521   4.77430   4.81832  23.44413  23.58583
 Alpha virt. eigenvalues --   23.69908  23.76030  23.76604  23.79820  23.80806
 Alpha virt. eigenvalues --   23.82133  23.82606  23.85150  23.86303  23.88520
 Alpha virt. eigenvalues --   23.89258  23.92079  24.04204  24.16135  24.16825
 Alpha virt. eigenvalues --   24.18697  24.19339  24.22021  24.23593  24.24480
 Alpha virt. eigenvalues --   24.26404  24.31240  24.56759
  Beta  occ. eigenvalues --  -10.21281 -10.20496 -10.20446 -10.20156 -10.19912
  Beta  occ. eigenvalues --  -10.19587 -10.19454 -10.19423 -10.19423 -10.19369
  Beta  occ. eigenvalues --  -10.19284 -10.19257 -10.18817 -10.18523 -10.18485
  Beta  occ. eigenvalues --  -10.18451 -10.18388 -10.18330 -10.18179 -10.18091
  Beta  occ. eigenvalues --  -10.17943 -10.17907 -10.17670 -10.17065 -10.16126
  Beta  occ. eigenvalues --   -0.91254  -0.87684  -0.84951  -0.83890  -0.82561
  Beta  occ. eigenvalues --   -0.80157  -0.78053  -0.76990  -0.74960  -0.73366
  Beta  occ. eigenvalues --   -0.72528  -0.70695  -0.68557  -0.64098  -0.63343
  Beta  occ. eigenvalues --   -0.62158  -0.60356  -0.58882  -0.58444  -0.57200
  Beta  occ. eigenvalues --   -0.54740  -0.52632  -0.52008  -0.51375  -0.50283
  Beta  occ. eigenvalues --   -0.48697  -0.48112  -0.46909  -0.46199  -0.45118
  Beta  occ. eigenvalues --   -0.44410  -0.43793  -0.42989  -0.42209  -0.41913
  Beta  occ. eigenvalues --   -0.41784  -0.41439  -0.40342  -0.39392  -0.38451
  Beta  occ. eigenvalues --   -0.37999  -0.36540  -0.36201  -0.35863  -0.34834
  Beta  occ. eigenvalues --   -0.34469  -0.33533  -0.33035  -0.32564  -0.30875
  Beta  occ. eigenvalues --   -0.28130  -0.27281  -0.25237  -0.23494  -0.23103
  Beta  occ. eigenvalues --   -0.20474
  Beta virt. eigenvalues --   -0.12853  -0.06707  -0.05881  -0.05794  -0.03169
  Beta virt. eigenvalues --   -0.02279   0.00176   0.00502   0.00822   0.00944
  Beta virt. eigenvalues --    0.01753   0.01862   0.02202   0.02700   0.03037
  Beta virt. eigenvalues --    0.03187   0.03424   0.03979   0.04031   0.04453
  Beta virt. eigenvalues --    0.04867   0.05416   0.06007   0.06236   0.06529
  Beta virt. eigenvalues --    0.06935   0.07305   0.07682   0.08233   0.08364
  Beta virt. eigenvalues --    0.08672   0.08804   0.09077   0.09648   0.10141
  Beta virt. eigenvalues --    0.10504   0.10789   0.11068   0.11552   0.11616
  Beta virt. eigenvalues --    0.12428   0.12713   0.13000   0.13182   0.13637
  Beta virt. eigenvalues --    0.13893   0.14283   0.14894   0.15052   0.15217
  Beta virt. eigenvalues --    0.15394   0.15740   0.16085   0.16226   0.16674
  Beta virt. eigenvalues --    0.16875   0.17174   0.17306   0.17608   0.17840
  Beta virt. eigenvalues --    0.17976   0.18023   0.18249   0.18561   0.18895
  Beta virt. eigenvalues --    0.19082   0.19340   0.19654   0.19807   0.19947
  Beta virt. eigenvalues --    0.20375   0.20673   0.20706   0.20984   0.21307
  Beta virt. eigenvalues --    0.21417   0.21694   0.21997   0.22197   0.22412
  Beta virt. eigenvalues --    0.23054   0.23205   0.23292   0.23502   0.23672
  Beta virt. eigenvalues --    0.24175   0.24348   0.24686   0.24826   0.25215
  Beta virt. eigenvalues --    0.25589   0.25827   0.25945   0.26158   0.26380
  Beta virt. eigenvalues --    0.26648   0.27059   0.27244   0.27642   0.27968
  Beta virt. eigenvalues --    0.28211   0.28718   0.29096   0.29236   0.29428
  Beta virt. eigenvalues --    0.30022   0.30085   0.30338   0.30634   0.31149
  Beta virt. eigenvalues --    0.31170   0.31680   0.32155   0.32843   0.32946
  Beta virt. eigenvalues --    0.33241   0.33686   0.34052   0.34485   0.34812
  Beta virt. eigenvalues --    0.35433   0.35865   0.36793   0.37127   0.37903
  Beta virt. eigenvalues --    0.38502   0.39269   0.39887   0.40261   0.40909
  Beta virt. eigenvalues --    0.41437   0.42651   0.43246   0.44245   0.45014
  Beta virt. eigenvalues --    0.45454   0.45931   0.47086   0.48277   0.48877
  Beta virt. eigenvalues --    0.49504   0.50236   0.51337   0.52095   0.52875
  Beta virt. eigenvalues --    0.53190   0.53389   0.53762   0.54526   0.54819
  Beta virt. eigenvalues --    0.54872   0.55496   0.55741   0.56286   0.56815
  Beta virt. eigenvalues --    0.57142   0.57969   0.58070   0.58415   0.58857
  Beta virt. eigenvalues --    0.59577   0.59774   0.59877   0.60537   0.60899
  Beta virt. eigenvalues --    0.61825   0.61970   0.62371   0.63415   0.63617
  Beta virt. eigenvalues --    0.64276   0.64551   0.65437   0.65749   0.66230
  Beta virt. eigenvalues --    0.66708   0.67196   0.67939   0.68431   0.68678
  Beta virt. eigenvalues --    0.69035   0.69623   0.70172   0.70417   0.70754
  Beta virt. eigenvalues --    0.70897   0.71487   0.71801   0.72061   0.72800
  Beta virt. eigenvalues --    0.73187   0.73539   0.73925   0.74227   0.74291
  Beta virt. eigenvalues --    0.74680   0.75105   0.75362   0.76354   0.76640
  Beta virt. eigenvalues --    0.77172   0.77508   0.77993   0.78862   0.79719
  Beta virt. eigenvalues --    0.80194   0.80918   0.81920   0.82633   0.82671
  Beta virt. eigenvalues --    0.83383   0.84105   0.84810   0.85269   0.85683
  Beta virt. eigenvalues --    0.87029   0.87767   0.88399   0.88917   0.89832
  Beta virt. eigenvalues --    0.90204   0.90774   0.91271   0.91778   0.92463
  Beta virt. eigenvalues --    0.93180   0.93542   0.93874   0.94410   0.94753
  Beta virt. eigenvalues --    0.95374   0.95552   0.95885   0.97015   0.97127
  Beta virt. eigenvalues --    0.97415   0.98281   0.98950   0.99499   1.00070
  Beta virt. eigenvalues --    1.00842   1.01653   1.02306   1.02808   1.03578
  Beta virt. eigenvalues --    1.04095   1.05310   1.05698   1.06516   1.07130
  Beta virt. eigenvalues --    1.07893   1.08611   1.09173   1.09871   1.10973
  Beta virt. eigenvalues --    1.11194   1.11539   1.12570   1.14039   1.14167
  Beta virt. eigenvalues --    1.14881   1.15821   1.16702   1.17050   1.17777
  Beta virt. eigenvalues --    1.20189   1.21824   1.23187   1.25395   1.26449
  Beta virt. eigenvalues --    1.27760   1.30336   1.30672   1.32220   1.33357
  Beta virt. eigenvalues --    1.34426   1.36324   1.37046   1.38294   1.39964
  Beta virt. eigenvalues --    1.41945   1.43809   1.44644   1.44910   1.45805
  Beta virt. eigenvalues --    1.46994   1.47561   1.47841   1.49061   1.49972
  Beta virt. eigenvalues --    1.50423   1.51192   1.51572   1.51683   1.52529
  Beta virt. eigenvalues --    1.53075   1.53577   1.54419   1.54636   1.55878
  Beta virt. eigenvalues --    1.56775   1.58607   1.59042   1.59873   1.60755
  Beta virt. eigenvalues --    1.61076   1.61821   1.62344   1.63065   1.64109
  Beta virt. eigenvalues --    1.65108   1.66593   1.67562   1.68234   1.69430
  Beta virt. eigenvalues --    1.70487   1.71261   1.72057   1.72804   1.73989
  Beta virt. eigenvalues --    1.74289   1.74768   1.76048   1.76503   1.76712
  Beta virt. eigenvalues --    1.78639   1.79032   1.79906   1.80788   1.81336
  Beta virt. eigenvalues --    1.81705   1.82394   1.83616   1.84901   1.85228
  Beta virt. eigenvalues --    1.85910   1.86908   1.87563   1.88079   1.88722
  Beta virt. eigenvalues --    1.89571   1.89739   1.90483   1.90553   1.91152
  Beta virt. eigenvalues --    1.91991   1.92901   1.93255   1.94039   1.94408
  Beta virt. eigenvalues --    1.95767   1.96563   1.97161   1.97695   1.99240
  Beta virt. eigenvalues --    1.99753   2.01222   2.01643   2.02778   2.03705
  Beta virt. eigenvalues --    2.04841   2.05928   2.07419   2.08427   2.09075
  Beta virt. eigenvalues --    2.09757   2.10595   2.11355   2.11393   2.13234
  Beta virt. eigenvalues --    2.14233   2.15462   2.16454   2.17805   2.18227
  Beta virt. eigenvalues --    2.19881   2.21045   2.21615   2.23755   2.24583
  Beta virt. eigenvalues --    2.25880   2.26772   2.30183   2.31187   2.32129
  Beta virt. eigenvalues --    2.33296   2.34644   2.36854   2.37564   2.37608
  Beta virt. eigenvalues --    2.39629   2.40382   2.42076   2.43088   2.43567
  Beta virt. eigenvalues --    2.44299   2.45211   2.45951   2.49444   2.52612
  Beta virt. eigenvalues --    2.54005   2.54472   2.56320   2.57605   2.59944
  Beta virt. eigenvalues --    2.61268   2.63060   2.64138   2.65334   2.66533
  Beta virt. eigenvalues --    2.67443   2.68896   2.70201   2.70558   2.71592
  Beta virt. eigenvalues --    2.72010   2.72272   2.72411   2.72945   2.73251
  Beta virt. eigenvalues --    2.73312   2.74003   2.74560   2.75012   2.75210
  Beta virt. eigenvalues --    2.76329   2.76850   2.77276   2.77994   2.78529
  Beta virt. eigenvalues --    2.79040   2.79624   2.80671   2.80801   2.81986
  Beta virt. eigenvalues --    2.83180   2.83608   2.85195   2.85568   2.86039
  Beta virt. eigenvalues --    2.86515   2.87841   2.88973   2.90123   2.90916
  Beta virt. eigenvalues --    2.92249   2.93972   2.94967   2.95583   2.98059
  Beta virt. eigenvalues --    3.01177   3.02578   3.04878   3.05508   3.06826
  Beta virt. eigenvalues --    3.07363   3.09656   3.11012   3.12208   3.13086
  Beta virt. eigenvalues --    3.13720   3.14715   3.15650   3.16715   3.18403
  Beta virt. eigenvalues --    3.19249   3.20848   3.21548   3.26610   3.28963
  Beta virt. eigenvalues --    3.30085   3.30554   3.31907   3.35791   3.37747
  Beta virt. eigenvalues --    3.39849   3.39960   3.40517   3.44950   3.48280
  Beta virt. eigenvalues --    3.48676   3.51107   3.52670   3.52851   3.54457
  Beta virt. eigenvalues --    3.57486   3.60354   3.60909   3.64543   3.65567
  Beta virt. eigenvalues --    3.70212   3.72777   3.76405   3.79468   3.84314
  Beta virt. eigenvalues --    3.89606   3.95358   4.01938   4.02602   4.05880
  Beta virt. eigenvalues --    4.07583   4.09761   4.12125   4.19184   4.26134
  Beta virt. eigenvalues --    4.28540   4.32140   4.36068   4.56365   4.66766
  Beta virt. eigenvalues --    4.71874   4.71954   4.73815   4.77727   4.82005
  Beta virt. eigenvalues --   23.44510  23.58742  23.70151  23.76131  23.76720
  Beta virt. eigenvalues --   23.79809  23.80939  23.82188  23.82646  23.85229
  Beta virt. eigenvalues --   23.86457  23.88604  23.89408  23.92248  24.04258
  Beta virt. eigenvalues --   24.16168  24.16898  24.18790  24.19556  24.22211
  Beta virt. eigenvalues --   24.23605  24.24485  24.26477  24.31384  24.57717
          Condensed to atoms (all electrons):
               1          2          3          4          5          6
     1  C   13.349754   1.743662  -2.263719   1.631258  -3.927592   1.601871
     2  C    1.743662   9.690051   1.904192   0.834968  -0.718142  -0.100004
     3  C   -2.263719   1.904192  10.049989   0.124260   1.417330  -2.364894
     4  C    1.631258   0.834968   0.124260  10.845696  -1.545944   0.850467
     5  C   -3.927592  -0.718142   1.417330  -1.545944  10.590778  -0.149097
     6  C    1.601871  -0.100004  -2.364894   0.850467  -0.149097  10.643049
     7  C   -1.408096  -1.659658   1.722560  -0.774703   0.584508  -1.684592
     8  C   -0.994426  -0.661321  -0.395924  -1.512358   0.340083  -1.074361
     9  C   -0.267811   0.072925   0.574841  -0.892615  -0.261251  -0.918128
    10  C   -0.244614  -0.013483  -0.141622   1.897877  -0.446150  -0.404643
    11  C   -0.305397  -0.204595   0.520298  -1.481617  -0.076002  -0.294556
    12  C   -0.008029   0.070673   0.200266  -0.168483  -0.058499   0.085500
    13  C   -0.040211  -0.049669  -0.032507  -0.072331   0.028581  -0.159512
    14  C    0.032718   0.038487  -1.150057  -0.306480  -0.038217   0.058543
    15  C   -0.078006  -0.489238  -1.221125  -0.326708   0.069556  -0.055662
    16  C   -0.020890  -0.083813  -0.112228  -0.109195  -0.008840   0.009496
    17  C    0.004204   0.010742  -0.019768   0.033425   0.000846  -0.001019
    18  C   -0.023352  -0.054159  -0.101929  -0.214477  -0.000059  -0.005560
    19  C   -1.362463  -3.446849  -1.896189  -0.070731   0.330845   0.985086
    20  C    0.171570   1.282580   0.111654  -0.179514  -0.650997  -0.081430
    21  C    0.806007  -2.031649  -1.465864   0.415000   0.032776   0.413443
    22  C    0.114281   1.608662  -0.116984  -0.198574  -0.285264  -0.100600
    23  C   -2.294797  -1.829535   0.533555  -2.648728   0.808926  -1.262009
    24  H   -0.024934   0.047169   0.001476  -0.000624  -0.004697  -0.002019
    25  H    0.013542   0.004121   0.006278  -0.000152   0.016308  -0.001809
    26  H   -0.042626   0.057719  -0.000487   0.002637   0.012232   0.014823
    27  H   -0.088191  -0.005049  -0.015544   0.024743   0.379863  -0.042139
    28  H   -0.046209   0.002442   0.030668  -0.073269   0.000833   0.329748
    29  H    0.010558  -0.007564  -0.003114  -0.067964  -0.000948   0.026353
    30  H    0.000511   0.002455   0.009764   0.058557   0.000877   0.008649
    31  H    0.000024  -0.000016   0.000112   0.001372  -0.000009   0.000273
    32  H    0.000002   0.000071   0.000102   0.000399  -0.000001   0.000017
    33  H    0.000015  -0.000020  -0.000868  -0.000013   0.000004  -0.000008
    34  H   -0.000001  -0.000019  -0.000071   0.000015   0.000000   0.000001
    35  H    0.008307   0.022528   0.029085   0.008561  -0.003148   0.000619
    36  C   -0.032613   0.135760   0.082194   0.102441  -0.010558   0.013257
    37  C   -0.000690   0.002385  -0.003064   0.016094   0.002829  -0.000731
    38  H   -0.000002  -0.000038  -0.000276   0.000008   0.000002   0.000001
    39  H   -0.000639  -0.005042  -0.009511  -0.014170  -0.000269  -0.001978
               7          8          9         10         11         12
     1  C   -1.408096  -0.994426  -0.267811  -0.244614  -0.305397  -0.008029
     2  C   -1.659658  -0.661321   0.072925  -0.013483  -0.204595   0.070673
     3  C    1.722560  -0.395924   0.574841  -0.141622   0.520298   0.200266
     4  C   -0.774703  -1.512358  -0.892615   1.897877  -1.481617  -0.168483
     5  C    0.584508   0.340083  -0.261251  -0.446150  -0.076002  -0.058499
     6  C   -1.684592  -1.074361  -0.918128  -0.404643  -0.294556   0.085500
     7  C   10.957063   1.689014   0.919663  -0.096622   0.564805  -0.506817
     8  C    1.689014  11.144810  -0.788944  -0.055607   1.191945  -2.798725
     9  C    0.919663  -0.788944  15.088695   0.191691  -0.403523   2.034041
    10  C   -0.096622  -0.055607   0.191691   8.611243  -1.252638  -0.454547
    11  C    0.564805   1.191945  -0.403523  -1.252638  15.886541  -0.695687
    12  C   -0.506817  -2.798725   2.034041  -0.454547  -0.695687  13.886384
    13  C   -0.159846   0.584376  -1.559412  -0.181224  -0.370134  -1.445602
    14  C   -0.651172  -0.201920  -0.689249  -1.287644  -0.290381  -0.764120
    15  C   -0.943913   3.382334  -2.540550   0.416923  -1.848193  -3.214512
    16  C   -0.987768  -2.638477  -0.206592   0.030701  -4.423891   3.193990
    17  C    0.104057   0.458572   0.005112   0.014823   0.351153  -0.347693
    18  C   -0.165041  -1.658422  -0.916979  -0.272348  -1.585811  -2.159526
    19  C   -0.098819  -0.061683  -0.122020   0.085047  -0.094877  -0.007099
    20  C   -0.583614  -0.147312  -0.071801  -0.088755   0.068862   0.008355
    21  C   -0.197177   0.410552   0.006409   0.009428  -0.428260  -0.072062
    22  C   -3.149628  -0.988192  -0.864045  -0.194040   0.445160   0.033450
    23  C    1.302199   0.802307  -2.323763  -0.324684   1.044261  -0.514138
    24  H   -0.004662   0.000056  -0.001006  -0.000283   0.000823   0.000069
    25  H    0.010062   0.000278   0.000084   0.000279   0.000023  -0.000003
    26  H    0.000762  -0.000732  -0.000215  -0.000236   0.000011  -0.000001
    27  H    0.001629   0.000404   0.001892   0.005272   0.000081   0.000015
    28  H   -0.003715   0.011426   0.027074   0.051123   0.000796   0.000056
    29  H   -0.013957  -0.029767  -0.015251   0.332949  -0.011274   0.010719
    30  H   -0.010962  -0.004155  -0.114846   0.133162  -0.028059  -0.032509
    31  H   -0.000686  -0.012622   0.011158   0.004078  -0.005419  -0.054948
    32  H    0.003540  -0.000226   0.014683   0.000742   0.037197   0.018533
    33  H   -0.000523   0.014582  -0.000378   0.000320  -0.037944  -0.012672
    34  H   -0.000332  -0.005624   0.001406   0.000229  -0.041134   0.025454
    35  H    0.034238   0.003770   0.017100   0.005282   0.019827   0.002851
    36  C    0.849131  -0.669852  -0.014406  -0.083428  -0.330235  -0.665996
    37  C    0.067559   0.124356   0.033114  -0.007501   0.035475  -0.088970
    38  H    0.000336   0.001269   0.000061   0.000014  -0.002145  -0.000988
    39  H   -0.034979  -0.014241  -0.020111  -0.000338   0.034626   0.008787
              13         14         15         16         17         18
     1  C   -0.040211   0.032718  -0.078006  -0.020890   0.004204  -0.023352
     2  C   -0.049669   0.038487  -0.489238  -0.083813   0.010742  -0.054159
     3  C   -0.032507  -1.150057  -1.221125  -0.112228  -0.019768  -0.101929
     4  C   -0.072331  -0.306480  -0.326708  -0.109195   0.033425  -0.214477
     5  C    0.028581  -0.038217   0.069556  -0.008840   0.000846  -0.000059
[...]
 1174707,-0.00977366,0.00388637,-0.00073430,0.00032544,-0.00061068,0.00
 009800,-0.00021188,-0.00004007,0.00009547,0.00010452,-0.00000206,0.000
 29590,-0.00002624,0.00002843,0.00013892,0.00000960,-0.00002823,0.00004
 111,0.00000384,-0.00001977,-0.00009413,-0.00001745,0.00001414,0.000180
 46,-0.00001464,-0.00018639,0.00009413,0.00006456,-0.00005486,-0.000021
 27,0.00002168,0.00000487,0.00000865,-0.00001495,-0.00001860,-0.0000784
 1,0.00027315,-0.00005134,-0.00029750,-0.00030651,-0.00003173,-0.000059
 11,0.00008999,-0.00054780,0.00142647,0.00286622,-0.00012887,-0.1050044
 7,-0.27189190,0.08907271,-0.00029699,-0.00009012,0.00016271,-0.0000168
 5,-0.00000467,0.00001061,-0.00001936,0.00000815,0.00001264,-0.00000687
 ,0.00000748,-0.00004720,-0.00008929,-0.00007038,-0.00004079,0.00003672
 ,-0.00002457,0.00001287,0.00001987,-0.00001316,-0.00000075,0.00000637,
 0.00001063,0.00000055,0.00000368,0.00000229,0.00000372,0.00000406,0.00
 000046,-0.00001060,-0.00000003,0.00000275,0.00000919,0.11664401,0.2818
 5659,-0.00045661,0.00041729,0.00052101,-0.00059580,0.00128215,0.002530
 53,-0.00050895,0.00282452,0.00287422,0.00118951,-0.00027460,0.00063007
 ,0.00022806,-0.00028434,-0.00010465,-0.00039637,0.00014088,-0.00024234
 ,0.00599370,0.00222128,0.00104297,-0.00089053,-0.00040146,-0.00148211,
 -0.00018976,-0.00010159,-0.00007235,-0.00038190,0.00009941,0.00007262,
 0.00005313,0.00052144,-0.00014957,-0.00010316,-0.00007813,0.00000844,-
 0.00002923,0.00003538,0.00000759,0.00003081,-0.00000229,0.00000802,-0.
 00020881,0.00031596,0.00000176,-0.00010417,-0.00014826,0.00004140,0.00
 006134,-0.00015268,-0.00008338,0.00014638,0.00007128,-0.00005601,0.000
 20938,-0.00023308,0.00020678,0.00024991,0.00006988,-0.00030580,0.00025
 251,-0.00059666,-0.00121420,-0.00191906,-0.00084343,0.00263524,0.03691
 713,0.08808391,-0.05602882,0.00008370,0.00018302,0.00032897,0.00000809
 ,0.00001735,0.00002115,0.00001342,0.00000707,0.00004594,0.00001553,-0.
 00002692,-0.00014620,0.00006362,0.00001478,-0.00013378,-0.00002163,0.0
 0002322,0.00002916,-0.00001642,0.00000625,0.00000395,0.00000304,-0.000
 00895,0.00000586,0.00000314,-0.00001285,0.00001682,-0.00005094,-0.0000
 1648,0.00002798,0.00003116,-0.00000896,-0.00000161,-0.03804673,-0.0929
 3299,0.04985186,-0.00015868,0.00007809,-0.00015370,-0.00011683,0.00017
 745,0.00015572,0.00053875,0.00053502,-0.00023940,0.00077127,-0.0005464
 1,0.00011136,0.00013839,-0.00017128,0.00005297,-0.00024009,0.00005002,
 0.00001242,0.00090365,-0.00267729,-0.00117491,-0.00340159,-0.00324319,
 -0.00054815,-0.00032022,0.00129855,0.00020507,-0.00087815,-0.00015994,
 0.00004078,0.00317108,0.01360365,0.00204038,0.00232178,-0.00163906,0.0
 0135647,0.00020173,-0.00015638,0.00033057,0.00039185,-0.00016258,-0.00
 014970,-0.14052611,0.03428133,0.05770791,-0.03517323,0.00902704,0.0247
 3137,0.00252340,-0.00790573,0.00146020,-0.00035533,0.00232863,-0.00037
 007,0.00009703,-0.00012493,0.00006502,0.00011222,0.00018741,-0.0000725
 1,-0.00024434,0.00003830,-0.00001799,-0.00011781,0.00007976,0.00044381
 ,-0.00190149,-0.00010710,-0.00215464,-0.00001616,0.00001173,-0.0000067
 7,-0.00000876,0.00000553,-0.00001117,-0.00000513,-0.00000551,0.0000039
 9,-0.00001082,0.00000051,-0.00000029,0.00000035,-0.00001093,-0.0000067
 7,-0.00002535,-0.00002842,0.00000702,-0.00002742,-0.00003170,-0.000020
 47,0.00006889,-0.00017262,0.00005574,-0.00007482,0.00009824,-0.0004489
 5,-0.00002086,0.00162485,-0.00187623,-0.00064814,0.00038738,0.00009265
 ,-0.00111585,-0.00177708,-0.00169451,0.36621228,0.00018285,0.00014408,
 0.00001909,-0.00074822,0.00007261,0.00003871,0.00087957,0.00039279,-0.
 00026021,-0.00008580,-0.00022752,0.00011193,-0.00004196,-0.00022287,0.
 00005021,-0.00004252,0.00006065,-0.00000524,-0.00178131,-0.00233069,-0
 .00133012,0.00268627,0.00185112,-0.00047225,0.00022798,-0.00024851,-0.
 00013566,0.00007340,0.00004505,-0.00003824,0.02582245,-0.02091906,-0.0
 1735179,-0.00321628,-0.00472174,-0.00084029,0.00171877,-0.00002288,-0.
 00021107,-0.00013555,0.00008099,-0.00002922,0.01886445,-0.10197969,-0.
 01583456,-0.00207463,0.01445132,-0.00125585,-0.00744621,0.00363889,-0.
 00000737,0.00028622,-0.00368026,-0.00033349,0.00004372,0.00011048,-0.0
 0002128,-0.00008541,-0.00008371,-0.00001250,0.00018023,0.00001341,0.00
 000623,-0.00071718,-0.00038212,0.00011286,-0.00101907,-0.00013291,-0.0
 0172636,0.00002584,-0.00000666,0.00002673,0.00000043,-0.00000032,-0.00
 000241,-0.00000517,-0.00000023,0.00000524,0.00000199,-0.00000342,-0.00
 001558,-0.00000451,-0.00000578,-0.00000742,0.00000982,0.00000386,0.000
 00691,-0.00002767,-0.00002548,-0.00000039,0.00006654,-0.00043867,0.000
 08236,0.00015636,0.00013130,0.00037409,0.00048616,0.00011957,0.0026516
 1,-0.00084019,0.00032919,0.00065315,-0.00081106,-0.00068111,-0.0001371
 7,-0.02972865,0.78607058,0.00005893,0.00022340,-0.00004190,-0.00046598
 ,0.00007104,0.00016920,0.00089021,0.00049458,-0.00024189,0.00037445,-0
 .00021371,0.00001816,0.00016417,-0.00014000,0.00004675,-0.00016069,-0.
 00002025,0.00000416,-0.00061791,-0.00260987,-0.00045444,-0.00128835,0.
 00125663,-0.00188735,0.00001630,0.00002792,0.00015680,-0.00005140,0.00
 013331,0.00009444,0.00504950,-0.00521757,-0.00152633,0.00049714,-0.000
 49905,0.00458062,0.00056822,-0.00018017,0.00002060,0.00008969,0.000174
 32,-0.00012144,0.06464022,-0.03839043,-0.10490999,0.01995757,-0.001625
 97,-0.00685395,-0.00100485,0.00352911,0.00633258,-0.00121910,-0.002490
 03,-0.00059930,0.00001680,-0.00003908,0.00001266,0.00008203,0.00005152
 ,-0.00002421,-0.00010030,0.00003366,-0.00000854,0.00011260,0.00002223,
 -0.00013860,-0.00306296,-0.00102018,-0.00307336,0.00001370,-0.00000922
 ,0.00002590,-0.00000532,0.00000431,0.00000408,-0.00000234,-0.00000396,
 0.00000408,-0.00000158,-0.00000628,-0.00000839,-0.00000005,0.00000115,
 0.00000690,0.00001327,0.00001474,-0.00004347,0.00001358,0.00001259,-0.
 00000410,-0.00004877,-0.00008458,0.00002660,-0.00018975,-0.00006885,-0
 .00062073,-0.00184090,-0.00024952,-0.00254425,0.00011010,-0.00005411,0
 .00024982,-0.00184771,-0.00121541,-0.00062655,-0.18981651,0.01362288,0
 .27943762,-0.00001187,0.00024840,-0.00001069,-0.00046455,0.00007000,-0
 .00003842,0.00054358,0.00012556,0.00009338,0.00046757,-0.00013554,-0.0
 0002307,0.00022197,-0.00022203,0.00004962,-0.00030834,-0.00007390,0.00
 000170,0.00013462,-0.00041460,0.00023626,-0.00028873,0.00024149,-0.000
 50154,0.00040045,0.00013215,-0.00008876,-0.00037103,-0.00013075,0.0000
 9686,-0.00202468,-0.00221580,0.00174343,-0.00114204,0.00021423,0.00119
 743,0.00006129,0.00005980,-0.00016724,-0.00037018,0.00010190,0.0000657
 7,-0.00660159,0.02457222,0.00151905,-0.00256902,0.00394216,0.00238230,
 0.00167188,-0.00055972,0.00036425,-0.00005404,0.00143716,0.00020489,0.
 00007589,-0.00006810,0.00002272,0.00007534,0.00000541,-0.00001188,0.00
 005725,0.00000100,-0.00003434,-0.00006085,-0.00025352,0.00007429,-0.00
 025868,0.00044796,-0.00141209,0.00004209,-0.00002009,0.00004529,-0.000
 00888,0.00000380,0.00000296,-0.00000505,-0.00000941,0.00000503,-0.0000
 0029,-0.00001397,-0.00000252,-0.00000251,-0.00000127,0.00000793,0.0000
 0048,0.00000021,-0.00001926,0.00003256,0.00001439,0.00001506,-0.000019
 38,0.00005477,-0.00004530,-0.00005758,0.00003180,-0.00017324,-0.001277
 30,0.00033504,-0.00035247,-0.00006932,-0.00002369,-0.00003801,-0.00053
 485,-0.00086882,0.00014651,-0.06819578,0.09519014,0.02574519,0.2200077
 0,0.00007788,-0.00005725,0.00003602,0.00017581,-0.00015247,0.00008090,
 -0.00036860,-0.00012888,-0.00006131,0.00000695,0.00017331,-0.00004013,
 -0.00003847,0.00003701,-0.00001228,-0.00002010,0.00005233,-0.00000013,
 0.00078509,0.00044002,-0.00010114,-0.00076669,-0.00079335,0.00035646,-
 0.00025463,0.00038252,0.00007632,0.00000507,0.00000289,-0.00002527,0.0
 0055951,0.00573260,-0.00010796,0.00051478,0.00001894,-0.00086637,-0.00
 012672,-0.00004299,0.00008257,0.00020915,-0.00012095,-0.00001135,0.025
 66346,-0.02722154,-0.01856313,-0.00745585,-0.00232541,0.00485468,0.001
 73773,-0.00347105,-0.00094320,0.00019117,0.00172292,0.00006749,-0.0000
 7893,0.00005379,-0.00002160,-0.00008232,0.00000263,0.00001604,-0.00002
 064,-0.00006602,0.00005692,0.00017190,0.00022413,-0.00032607,-0.000110
 47,-0.00069680,0.00048593,-0.00004138,0.00003251,-0.00005267,-0.000015
 58,0.00000121,-0.00000590,-0.00001008,0.00000180,-0.00000745,-0.000012
 33,-0.00000004,-0.00000306,-0.00000136,-0.00001260,0.00000332,-0.00001
 137,-0.00002937,-0.00000063,-0.00000996,-0.00003074,-0.00000381,0.0000
 3085,-0.00003227,0.00000691,0.00004306,-0.00001740,-0.00003516,-0.0003
 6041,0.00044022,-0.00019455,0.00005632,0.00002532,-0.00018707,-0.00016
 347,-0.00013042,-0.00033490,0.05920152,-0.52775662,-0.03483205,-0.2166
 8653,0.73218185,-0.00007841,-0.00005507,0.00006713,0.00000641,-0.00005
 906,-0.00006075,-0.00031081,-0.00019614,0.00036420,-0.00004090,0.00005
 213,-0.00005060,-0.00001448,-0.00001092,0.00000105,-0.00002893,0.00001
 147,-0.00000597,0.00018562,0.00019451,0.00035999,0.00023384,0.00012499
 ,0.00015917,-0.00009613,-0.00017665,0.00011509,0.00005055,0.00004630,-
 0.00001501,0.00333232,0.00060648,-0.00075823,0.00016890,-0.00076774,-0
 .00023894,0.00026578,0.00009728,0.00000197,-0.00000387,-0.00002894,-0.
 00001541,0.00209741,-0.02008395,-0.00321985,-0.00009298,-0.00177160,0.
 00106280,0.00010432,-0.00055570,-0.00081372,0.00008389,0.00010122,-0.0
 0013416,0.00003214,-0.00003921,0.00001680,0.00004111,0.00001450,-0.000
 01077,-0.00003166,0.00007656,-0.00003222,0.00002970,-0.00028748,0.0000
 6910,-0.00028027,0.00056045,-0.00084377,0.00002785,-0.00001219,0.00002
 664,0.00000051,0.00000307,-0.00000491,-0.00000331,-0.00000750,0.000000
 23,-0.00000315,-0.00000833,-0.00001428,0.00000133,-0.00000822,-0.00000
 562,-0.00000117,-0.00001211,-0.00000285,-0.00002069,-0.00001901,-0.000
 00907,0.00002845,-0.00009293,0.00001292,0.00006184,0.00002867,0.000122
 31,0.00080555,-0.00010004,0.00013214,-0.00000227,0.00000741,-0.0000259
 5,-0.00047213,-0.00076263,-0.00000274,0.02784038,-0.06282554,-0.057150
 51,-0.14753545,0.16354041,0.16279407,0.00001682,-0.00002425,0.00000516
 ,0.00004772,-0.00001621,-0.00000332,-0.00004214,0.00000752,-0.00001037
 ,-0.00006436,0.00001716,-0.00000054,-0.00003014,0.00001500,-0.00000302
 ,0.00003286,0.00000454,-0.00000016,-0.00010883,0.00005440,-0.00000869,
 0.00014901,0.00000316,0.00016937,0.00000559,-0.00005590,-0.00002407,0.
 00003638,0.00001816,-0.00001580,-0.00034343,-0.00027158,0.00016695,-0.
 00006218,0.00030386,-0.00039364,-0.00010863,0.00002656,0.00001649,-0.0
 0000121,-0.00000426,0.00000361,0.00324862,0.00132677,0.00443131,0.0000
 9148,0.00022808,-0.00038214,-0.00005968,-0.00008350,-0.00031767,0.0001
 5826,0.00007138,0.00000952,-0.00000478,0.00000627,-0.00000289,-0.00002
 174,0.00001641,0.00000485,-0.00001607,-0.00001111,0.00001418,0.0000190
 5,-0.00000207,-0.00000259,-0.00003362,-0.00007129,0.00010916,-0.000020
 86,0.00000467,-0.00003543,0.00000297,-0.00000416,-0.00000224,0.0000046
 9,0.00000507,-0.00000206,0.00000519,0.00000412,-0.00000074,-0.00000041
 ,0.00000614,-0.00000121,0.00000144,0.00000909,0.00000422,-0.00000072,0
 .00000753,0.00000235,-0.00000534,0.00003498,0.00000469,-0.00000179,0.0
 0000953,0.00005149,0.00031939,-0.00007360,0.00022739,-0.00001517,-0.00
 000152,0.00001989,0.00004660,0.00001118,-0.00002950,0.00346347,-0.0101
 5535,-0.00207353,-0.14905094,0.13588575,0.10958370,0.14363218,0.000010
 17,-0.00003180,0.00000602,0.00004809,-0.00001950,-0.00000267,-0.000079
 87,-0.00000815,0.00001822,-0.00005843,0.00000998,0.00000241,-0.0000249
 2,0.00002393,-0.00000508,0.00003531,-0.00000264,0.00000139,-0.00003933
 ,0.00008323,0.00003390,0.00019545,0.00007105,0.00006690,0.00000735,-0.
 00003903,-0.00001799,0.00003363,0.00000006,-0.00000285,0.00111058,-0.0
 0012714,-0.00044173,-0.00022359,-0.00033545,-0.00004356,0.00010414,0.0
 0002475,-0.00001958,-0.00000098,-0.00000862,0.00000385,-0.00268923,-0.
 00268326,0.00172049,-0.00035888,0.00011218,0.00004686,0.00015556,0.000
 10316,-0.00005151,-0.00002183,0.00007979,0.00002247,-0.00001230,0.0000
 1489,-0.00000650,-0.00001613,-0.00000651,0.00000663,-0.00002006,0.0000
 2870,-0.00000368,-0.00000620,0.00000121,0.00002151,-0.00000328,-0.0000
 0358,0.00005875,-0.00000851,0.00000163,-0.00001069,0.00000839,-0.00000
 145,-0.00000051,0.00000392,0.00000308,-0.00000140,0.00000372,0.0000029
 4,-0.00000119,0.00000005,0.00000369,-0.00000291,-0.00000205,0.00000183
 ,0.00000229,-0.00000385,0.00000087,-0.00000111,0.00000196,-0.00003205,
 0.00000546,0.00000204,0.00002236,-0.00000319,0.00024729,0.00011090,0.0
 0001624,0.00000284,-0.00000945,-0.00000823,0.00003112,-0.00001174,-0.0
 0008057,0.02037558,-0.00449363,-0.01767578,0.11103872,-0.14797816,-0.0
 9292416,-0.12924415,0.15232814,0.00003378,-0.00000741,0.00000161,0.000
 02711,-0.00003496,0.00001165,0.00001819,0.00009779,-0.00005804,-0.0000
 4620,0.00000797,0.00000171,-0.00003483,0.00001720,-0.00000735,0.000043
 92,0.00002458,-0.00000687,-0.00006947,-0.00003097,-0.00008448,0.000152
 58,0.00009741,0.00009104,-0.00004073,-0.00009850,-0.00004628,0.0000683
 3,0.00003034,-0.00000681,-0.00010815,-0.00031635,0.00036726,-0.0001131
 5,0.00013512,-0.00043750,-0.00009409,0.00001268,-0.00000525,0.00001690
 ,-0.00002688,0.00000210,0.00377875,0.00038770,0.00452856,0.00017445,-0
 .00002132,-0.00051557,-0.00016773,-0.00006975,-0.00021035,0.00014873,-
 0.00002381,-0.00000314,-0.00001029,0.00001620,-0.00000991,-0.00004122,
 0.00003083,-0.00000201,-0.00000988,-0.00006558,0.00003452,0.00002339,0
 .00005522,-0.00001957,-0.00005176,-0.00020353,0.00018496,-0.00004147,0
 .00001899,-0.00004601,-0.00000406,-0.00000322,0.00000043,0.00000073,0.
 00000693,-0.00000121,0.00000046,0.00000409,0.00000194,-0.00000031,0.00
 000260,0.00000156,0.00000004,0.00000423,0.00000735,-0.00000229,0.00000
 090,0.00000438,0.00000124,0.00001400,0.00000324,0.00001263,-0.00002374
 ,0.00004426,-0.00016083,-0.00016751,0.00029027,0.00003920,-0.00000565,
 0.00001093,0.00012720,0.00000341,-0.00007139,-0.00374061,0.00804015,0.
 00371817,0.11124749,-0.11505776,-0.11333828,-0.10989353,0.10895771,0.1
 0717600,0.00005829,-0.00001747,0.00003652,-0.00003596,-0.00011922,0.00
 009971,0.00003478,0.00002384,-0.00014952,-0.00002944,-0.00004349,0.000
 02056,-0.00002956,0.00000437,-0.00000691,0.00003233,0.00000810,0.00000
 340,-0.00016676,-0.00116373,-0.00066893,0.00037920,0.00014686,-0.00001
 230,-0.00010698,0.00015488,-0.00007398,0.00005525,0.00005795,-0.000025
 61,-0.00024674,-0.00132045,-0.00084655,-0.00013529,0.00011038,-0.00031
 617,-0.00005710,-0.00014638,0.00000896,0.00012005,0.00004603,-0.000022
 78,-0.01103458,-0.01211528,0.01609059,-0.00061586,0.00221765,0.0024329
 1,-0.00103362,-0.00007972,0.00012922,-0.00003441,-0.00040570,0.0000910
 8,-0.00004079,-0.00001373,0.00000252,0.00003047,0.00005225,-0.00001845
 ,-0.00021242,0.00009624,0.00002836,0.00034592,-0.00002170,-0.00026938,
 -0.00135572,-0.00068547,-0.00156373,-0.00000381,-0.00000159,-0.0000184
 2,0.00000528,0.00000020,-0.00000181,0.00000376,0.00000171,-0.00000282,
 0.00000284,0.00000250,-0.00000489,-0.00000026,0.00000606,0.00000354,-0
 .00000437,0.00000333,0.00000627,0.00001146,0.00000829,0.00000636,-0.00
 000912,0.00000985,-0.00000228,-0.00001015,0.00003409,-0.00000343,0.000
 03846,0.00008309,-0.00018761,-0.00029907,0.00012388,-0.00004978,-0.000
 06204,0.00006018,-0.00005599,-0.12733320,-0.08793644,0.08538431,0.0099
 5480,0.00131990,0.00403499,-0.00128969,-0.00060233,-0.00128453,0.13307
 405,-0.00009501,0.00001701,-0.00000751,0.00002427,-0.00000163,0.000024
 41,-0.00001018,-0.00002651,0.00002082,0.00007833,-0.00003102,0.0000267
 4,0.00006724,-0.00001314,0.00000791,-0.00005358,-0.00002150,-0.0000064
 6,-0.00061012,-0.00162707,-0.00078238,0.00051771,-0.00011234,-0.000673
 54,-0.00008860,-0.00050239,0.00024292,0.00012973,0.00014746,-0.0000818
 8,-0.00024335,-0.00007493,-0.00062334,0.00021519,0.00021647,0.00014904
 ,-0.00010077,0.00006381,-0.00001014,0.00000362,-0.00002701,0.00000245,
 0.00724709,0.00868952,-0.00679112,0.00250104,-0.00108573,-0.00120354,0
 .00029275,0.00050589,0.00034988,-0.00001820,-0.00026903,-0.00005948,0.
 00006881,-0.00010345,0.00002858,0.00013845,0.00012057,-0.00003445,-0.0
 0017819,0.00006670,-0.00003244,0.00049006,0.00003741,-0.00004419,-0.00
 139453,0.00024647,-0.00141401,0.00000929,-0.00001717,0.00002544,0.0000
 0935,0.00000176,0.00000566,0.00000829,-0.00000211,0.00000360,0.0000063
 5,0.00000258,-0.00000040,0.00000432,0.00001093,0.00000262,0.00000294,0
 .00001430,-0.00001253,-0.00001627,0.00001082,0.00000297,-0.00000608,0.
 00001460,-0.00000226,-0.00001939,-0.00001728,-0.00001536,0.00009802,-0
 .00008263,-0.00016940,0.00013891,-0.00004562,-0.00005364,0.00005220,-0
 .00004757,0.00034125,-0.09474180,-0.13915202,0.08697269,-0.01657056,-0
 .03046165,0.01533966,0.00194163,0.00276375,-0.00180908,0.10010106,0.16
 079176,0.00009773,-0.00015919,0.00005396,0.00023467,-0.00008675,-0.000
 02044,-0.00053887,-0.00022821,0.00020384,-0.00036909,0.00020305,-0.000
 02878,-0.00011970,0.00011452,-0.00002951,0.00015312,0.00001428,-0.0000
 2269,-0.00078738,-0.00032666,-0.00072467,0.00059450,-0.00051731,-0.000
 20484,-0.00007890,-0.00014905,0.00001723,0.00022446,0.00011700,-0.0000
 5106,-0.00085873,0.00039733,0.00054881,0.00041142,0.00008586,-0.000189
 06,-0.00015044,0.00007429,0.00001913,0.00007192,-0.00005715,-0.0000062
 3,0.01259990,0.01294411,-0.00211715,0.00278657,-0.00315196,-0.00106880
 ,0.00004810,0.00162832,0.00073393,-0.00009871,-0.00063589,-0.00004286,
 -0.00005082,0.00007902,-0.00002828,-0.00003433,-0.00005640,0.00001284,
 -0.00000772,0.00006344,-0.00000635,0.00005024,-0.00013306,-0.00011254,
 -0.00086626,-0.00058699,-0.00050619,-0.00000941,-0.00000478,-0.0000060
 6,0.00001600,-0.00000325,0.00000154,0.00000865,0.00000800,0.00000040,0
 .00000934,0.00000833,0.00000001,0.00000378,0.00001264,-0.00000054,0.00
 000312,0.00001189,0.00000987,-0.00001994,0.00001000,0.00000664,-0.0000
 0641,0.00000985,-0.00000561,-0.00003379,-0.00003168,-0.00004962,-0.000
 10859,0.00044472,-0.00028404,0.00023078,-0.00013835,-0.00020118,0.0000
 3300,0.00026288,-0.00019084,0.08578952,0.07705185,-0.11402985,0.005186
 87,0.00213099,0.01144803,-0.00162119,0.00031379,-0.00161193,-0.1027934
 3,-0.08971946,0.10848289\\0.00000335,-0.00000645,0.00000119,0.00000258
 ,0.00000303,-0.00000797,0.00000034,-0.00001188,-0.00000414,-0.00000579
 ,-0.00000138,-0.00000421,0.00000149,0.00000127,0.00000219,-0.00000052,
 0.00000231,0.00000199,0.00001727,-0.00000537,-0.00000031,-0.00000460,0
 .00001438,-0.00000077,-0.00000062,0.00000834,0.00000499,-0.00000043,-0
 .00001054,-0.00000038,-0.00000024,0.00002241,-0.00001541,-0.00001591,-
 0.00000015,0.00000706,0.00000910,0.00000058,-0.00000038,0.00000250,-0.
 00001438,-0.00000418,-0.00002129,-0.00001787,0.00000914,0.00000821,-0.
 00000106,0.00000252,0.00000266,0.00000630,-0.00000338,0.00000924,-0.00
 000565,-0.00000063,-0.00001261,-0.00000891,0.00000529,-0.00000046,0.00
 001231,0.00000455,-0.00000082,0.00000782,-0.00000141,0.00000498,-0.000
 00042,-0.00000912,-0.00000717,0.00001694,0.00001526,0.00000191,0.00000
 268,0.00000318,0.00000006,0.00000402,-0.00000016,0.00000124,-0.0000016
 2,-0.00000094,0.00000023,-0.00000261,-0.00000253,-0.00000381,-0.000001
 56,-0.00000345,-0.00000251,0.00000002,-0.00000415,0.00000206,0.0000002
 8,-0.00000474,-0.00000126,-0.00000161,-0.00000307,-0.00000120,0.000000
 77,-0.00000158,0.00000042,-0.00000062,0.00000506,0.00000061,0.00000048
 ,0.00000331,0.00000167,0.00000132,-0.00000094,0.00000877,0.00001055,-0
 .00000376,-0.00001040,-0.00000301,0.00001643,0.00001690,-0.00002303,-0
 .00001171,-0.00000596,0.00000234,0.00000717\\\@


 A MAN SHOULD NEVER BE ASHAMED TO OWN HE HAS BEEN IN THE WRONG
 WHICH IS BUT SAYING IN OTHER WORDS,
 THAT HE IS WISER TODAY THAN HE WAS YESTERDAY.

                          -- JONATHAN SWIFT
 Job cpu time:       1 days  1 hours 37 minutes 54.3 seconds.
 Elapsed time:       0 days  1 hours 17 minutes  7.4 seconds.
 File lengths (MBytes):  RWF=   2643 Int=      0 D2E=      0 Chk=     45 Scr=      1
 Normal termination of Gaussian 16 at Thu Jun 20 19:35:34 2019.
