 Entering Gaussian System, Link 0=g09
 Initial command:
 /usr/local/Cluster-Apps/gaussian/g09/l1.exe "/rds/user/am2145/hpc-work/scratch/19189941/Gau-170994.inp" -scrdir="/rds/user/am2145/hpc-work/scratch/19189941/"
 Entering Link 1 = /usr/local/Cluster-Apps/gaussian/g09/l1.exe PID=    170995.
  
 Copyright (c) 1988,1990,1992,1993,1995,1998,2003,2009,2013,
            Gaussian, Inc.  All Rights Reserved.
  
 This is part of the Gaussian(R) 09 program.  It is based on
 the Gaussian(R) 03 system (copyright 2003, Gaussian, Inc.),
 the Gaussian(R) 98 system (copyright 1998, Gaussian, Inc.),
 the Gaussian(R) 94 system (copyright 1995, Gaussian, Inc.),
 the Gaussian 92(TM) system (copyright 1992, Gaussian, Inc.),
 the Gaussian 90(TM) system (copyright 1990, Gaussian, Inc.),
 the Gaussian 88(TM) system (copyright 1988, Gaussian, Inc.),
 the Gaussian 86(TM) system (copyright 1986, Carnegie Mellon
 University), and the Gaussian 82(TM) system (copyright 1983,
 Carnegie Mellon University). Gaussian is a federally registered
 trademark of Gaussian, Inc.
  
 This software contains proprietary and confidential information,
 including trade secrets, belonging to Gaussian, Inc.
  
 This software is provided under written license and may be
 used, copied, transmitted, or stored only in accord with that
 written license.
  
 The following legend is applicable only to US Government
 contracts under FAR:
  
                    RESTRICTED RIGHTS LEGEND
  
 Use, reproduction and disclosure by the US Government is
 subject to restrictions as set forth in subparagraphs (a)
 and (c) of the Commercial Computer Software - Restricted
 Rights clause in FAR 52.227-19.
  
 Gaussian, Inc.
 340 Quinnipiac St., Bldg. 40, Wallingford CT 06492
  
  
 ---------------------------------------------------------------
 Warning -- This program may not be used in any manner that
 competes with the business of Gaussian, Inc. or will provide
 assistance to any competitor of Gaussian, Inc.  The licensee
 of this program is prohibited from giving any competitor of
 Gaussian, Inc. access to this program.  By using this program,
 the user acknowledges that Gaussian, Inc. is engaged in the
 business of creating and licensing software in the field of
 computational chemistry and represents and warrants to the
 licensee that it is not a competitor of Gaussian, Inc. and that
 it will not use this program in any manner prohibited above.
 ---------------------------------------------------------------
  

 Cite this work as:
 Gaussian 09, Revision D.01,
 M. J. Frisch, G. W. Trucks, H. B. Schlegel, G. E. Scuseria, 
 M. A. Robb, J. R. Cheeseman, G. Scalmani, V. Barone, B. Mennucci, 
 G. A. Petersson, H. Nakatsuji, M. Caricato, X. Li, H. P. Hratchian, 
 A. F. Izmaylov, J. Bloino, G. Zheng, J. L. Sonnenberg, M. Hada, 
 M. Ehara, K. Toyota, R. Fukuda, J. Hasegawa, M. Ishida, T. Nakajima, 
 Y. Honda, O. Kitao, H. Nakai, T. Vreven, J. A. Montgomery, Jr., 
 J. E. Peralta, F. Ogliaro, M. Bearpark, J. J. Heyd, E. Brothers, 
 K. N. Kudin, V. N. Staroverov, T. Keith, R. Kobayashi, J. Normand, 
 K. Raghavachari, A. Rendell, J. C. Burant, S. S. Iyengar, J. Tomasi, 
 M. Cossi, N. Rega, J. M. Millam, M. Klene, J. E. Knox, J. B. Cross, 
 V. Bakken, C. Adamo, J. Jaramillo, R. Gomperts, R. E. Stratmann, 
 O. Yazyev, A. J. Austin, R. Cammi, C. Pomelli, J. W. Ochterski, 
 R. L. Martin, K. Morokuma, V. G. Zakrzewski, G. A. Voth, 
 P. Salvador, J. J. Dannenberg, S. Dapprich, A. D. Daniels, 
 O. Farkas, J. B. Foresman, J. V. Ortiz, J. Cioslowski, 
 and D. J. Fox, Gaussian, Inc., Wallingford CT, 2013.
 
 ******************************************
 Gaussian 09:  ES64L-G09RevD.01 24-Apr-2013
                 2-Feb-2020 
 ******************************************
 %NProcShared=20
 Will use up to   20 processors via shared memory.
 %mem=64GB
 %Chk=BS2b_Hmig.chk
 ------------------------------
 #n opt freq b3lyp/6-311+g(d,p)
 ------------------------------
 1/14=-1,18=20,19=15,26=3,38=1/1,3;
 2/9=110,12=2,17=6,18=5,40=1/2;
 3/5=4,6=6,7=111,11=2,16=1,25=1,30=1,71=1,74=-5/1,2,3;
 4//1;
 5/5=2,38=5/2;
 6/7=2,8=2,9=2,10=2,28=1/1;
 7//1,2,3,16;
 1/14=-1,18=20,19=15,26=3/3(2);
 2/9=110/2;
 99//99;
 2/9=110/2;
 3/5=4,6=6,7=111,11=2,16=1,25=1,30=1,71=1,74=-5/1,2,3;
 4/5=5,16=3,69=1/1;
 5/5=2,38=5/2;
 7//1,2,3,16;
 1/14=-1,18=20,19=15,26=3/3(-5);
 2/9=110/2;
 6/7=2,8=2,9=2,10=2,19=2,28=1/1;
 99/9=1/99;
 ---------
 BS2b_Hmig
 ---------
 Symbolic Z-matrix:
 Charge =  0 Multiplicity = 3
 C                    -3.88226  -0.27024  -0.03791 
 C                    -2.56857   0.17729  -0.05316 
 C                    -1.46295  -0.67502   0.07569 
 C                    -1.60064  -2.05299   0.20305 
 C                    -4.04172  -1.69917   0.12775 
 C                    -2.96254  -2.54237   0.23857 
 C                    -0.25303   0.07357   0.0066 
 C                     0.97452  -0.63879   0.08463 
 C                     0.85245  -2.08559   0.13126 
 C                    -0.38569  -2.759     0.22223 
 C                     2.30183  -0.0399    0.03615 
 C                     3.41693  -0.89714  -0.22435 
 C                     3.24731  -2.32117  -0.22143 
 C                     2.03866  -2.88411   0.00399 
 C                     2.5708    1.35635   0.22494 
 C                     3.85684   1.84     -0.00857 
 C                     4.91139   1.00152  -0.38007 
 C                     4.69806  -0.35744  -0.44986 
 C                    -4.86328   0.7434   -0.1999 
 C                    -4.46803   2.06909  -0.36904 
 C                    -3.11476   2.48351  -0.39336 
 C                    -2.12642   1.51758  -0.23038 
 C                    -0.68554   1.42192  -0.19537 
 H                    -2.87411   3.52986  -0.54196 
 H                    -5.2357    2.8248   -0.49397 
 H                    -5.91911   0.49449  -0.1979 
 H                    -5.04325  -2.11621   0.15608 
 H                    -3.13263  -3.60847   0.34837 
 H                    -0.37554  -3.84332   0.26528 
 H                     1.93314  -3.96305   0.04021 
 H                     4.12402  -2.93994  -0.37914 
 H                     5.51753  -1.03512  -0.6637 
 H                     4.05233   2.89042   0.16839 
 H                     5.8979    1.41596  -0.55347 
 H                     2.04705   4.04836  -0.30369 
 C                     1.59585   2.29931   0.8137 
 C                     1.48665   3.59874   0.50865 
 H                     0.80381   4.24208   1.05022 
 H                     0.98924   1.9041    1.62241 
 

 GradGradGradGradGradGradGradGradGradGradGradGradGradGradGradGradGradGrad
 Berny optimization.
 Initialization pass.
                           ----------------------------
                           !    Initial Parameters    !
                           ! (Angstroms and Degrees)  !
 --------------------------                            --------------------------
 ! Name  Definition              Value          Derivative Info.                !
 --------------------------------------------------------------------------------
 ! R1    R(1,2)                  1.3879         estimate D2E/DX2                !
 ! R2    R(1,5)                  1.4473         estimate D2E/DX2                !
 ! R3    R(1,19)                 1.4199         estimate D2E/DX2                !
 ! R4    R(2,3)                  1.4019         estimate D2E/DX2                !
 ! R5    R(2,22)                 1.4224         estimate D2E/DX2                !
 ! R6    R(3,4)                  1.3907         estimate D2E/DX2                !
 ! R7    R(3,7)                  1.4245         estimate D2E/DX2                !
 ! R8    R(4,6)                  1.4476         estimate D2E/DX2                !
 ! R9    R(4,10)                 1.4053         estimate D2E/DX2                !
 ! R10   R(5,6)                  1.374          estimate D2E/DX2                !
 ! R11   R(5,27)                 1.0853         estimate D2E/DX2                !
 ! R12   R(6,28)                 1.0852         estimate D2E/DX2                !
 ! R13   R(7,8)                  1.4214         estimate D2E/DX2                !
 ! R14   R(7,23)                 1.4304         estimate D2E/DX2                !
 ! R15   R(8,9)                  1.4527         estimate D2E/DX2                !
 ! R16   R(8,11)                 1.457          estimate D2E/DX2                !
 ! R17   R(9,10)                 1.4124         estimate D2E/DX2                !
 ! R18   R(9,14)                 1.4356         estimate D2E/DX2                !
 ! R19   R(10,29)                1.0852         estimate D2E/DX2                !
 ! R20   R(11,12)                1.4304         estimate D2E/DX2                !
 ! R21   R(11,15)                1.4344         estimate D2E/DX2                !
 ! R22   R(12,13)                1.4341         estimate D2E/DX2                !
 ! R23   R(12,18)                1.4083         estimate D2E/DX2                !
 ! R24   R(13,14)                1.3522         estimate D2E/DX2                !
 ! R25   R(13,31)                1.0846         estimate D2E/DX2                !
 ! R26   R(14,30)                1.0847         estimate D2E/DX2                !
 ! R27   R(15,16)                1.3937         estimate D2E/DX2                !
 ! R28   R(15,36)                1.4786         estimate D2E/DX2                !
 ! R29   R(16,17)                1.3975         estimate D2E/DX2                !
 ! R30   R(16,33)                1.083          estimate D2E/DX2                !
 ! R31   R(17,18)                1.3774         estimate D2E/DX2                !
 ! R32   R(17,34)                1.084          estimate D2E/DX2                !
 ! R33   R(18,32)                1.0847         estimate D2E/DX2                !
 ! R34   R(19,20)                1.3937         estimate D2E/DX2                !
 ! R35   R(19,26)                1.0848         estimate D2E/DX2                !
 ! R36   R(20,21)                1.4155         estimate D2E/DX2                !
 ! R37   R(20,25)                1.0844         estimate D2E/DX2                !
 ! R38   R(21,22)                1.3915         estimate D2E/DX2                !
 ! R39   R(21,24)                1.0839         estimate D2E/DX2                !
 ! R40   R(22,23)                1.4445         estimate D2E/DX2                !
 ! R41   R(35,37)                1.0845         estimate D2E/DX2                !
 ! R42   R(36,37)                1.3392         estimate D2E/DX2                !
 ! R43   R(36,39)                1.0854         estimate D2E/DX2                !
 ! R44   R(37,38)                1.0833         estimate D2E/DX2                !
 ! A1    A(2,1,5)              115.0808         estimate D2E/DX2                !
 ! A2    A(2,1,19)             114.9936         estimate D2E/DX2                !
 ! A3    A(5,1,19)             129.9226         estimate D2E/DX2                !
 ! A4    A(1,2,3)              123.3272         estimate D2E/DX2                !
 ! A5    A(1,2,22)             126.8284         estimate D2E/DX2                !
 ! A6    A(3,2,22)             109.8255         estimate D2E/DX2                !
 ! A7    A(2,3,4)              122.1902         estimate D2E/DX2                !
 ! A8    A(2,3,7)              110.2373         estimate D2E/DX2                !
 ! A9    A(4,3,7)              127.5365         estimate D2E/DX2                !
 ! A10   A(3,4,6)              115.4911         estimate D2E/DX2                !
 ! A11   A(3,4,10)             114.4215         estimate D2E/DX2                !
 ! A12   A(6,4,10)             130.0298         estimate D2E/DX2                !
 ! A13   A(1,5,6)              121.9097         estimate D2E/DX2                !
 ! A14   A(1,5,27)             118.9509         estimate D2E/DX2                !
 ! A15   A(6,5,27)             119.1371         estimate D2E/DX2                !
 ! A16   A(4,6,5)              121.9709         estimate D2E/DX2                !
 ! A17   A(4,6,28)             118.8211         estimate D2E/DX2                !
 ! A18   A(5,6,28)             119.2063         estimate D2E/DX2                !
 ! A19   A(3,7,8)              117.8726         estimate D2E/DX2                !
 ! A20   A(3,7,23)             104.206          estimate D2E/DX2                !
 ! A21   A(8,7,23)             137.8441         estimate D2E/DX2                !
 ! A22   A(7,8,9)              115.3612         estimate D2E/DX2                !
 ! A23   A(7,8,11)             125.3749         estimate D2E/DX2                !
 ! A24   A(9,8,11)             119.1439         estimate D2E/DX2                !
 ! A25   A(8,9,10)             123.4081         estimate D2E/DX2                !
 ! A26   A(8,9,14)             118.7963         estimate D2E/DX2                !
 ! A27   A(10,9,14)            117.7013         estimate D2E/DX2                !
 ! A28   A(4,10,9)             121.1634         estimate D2E/DX2                !
 ! A29   A(4,10,29)            120.7034         estimate D2E/DX2                !
 ! A30   A(9,10,29)            118.0836         estimate D2E/DX2                !
 ! A31   A(8,11,12)            118.0276         estimate D2E/DX2                !
 ! A32   A(8,11,15)            124.5111         estimate D2E/DX2                !
 ! A33   A(12,11,15)           117.4605         estimate D2E/DX2                !
 ! A34   A(11,12,13)           120.1657         estimate D2E/DX2                !
 ! A35   A(11,12,18)           120.5732         estimate D2E/DX2                !
 ! A36   A(13,12,18)           119.2384         estimate D2E/DX2                !
 ! A37   A(12,13,14)           121.2944         estimate D2E/DX2                !
 ! A38   A(12,13,31)           118.0729         estimate D2E/DX2                !
 ! A39   A(14,13,31)           120.6124         estimate D2E/DX2                !
 ! A40   A(9,14,13)            121.4507         estimate D2E/DX2                !
 ! A41   A(9,14,30)            118.0303         estimate D2E/DX2                !
 ! A42   A(13,14,30)           120.4384         estimate D2E/DX2                !
 ! A43   A(11,15,16)           119.2605         estimate D2E/DX2                !
 ! A44   A(11,15,36)           123.335          estimate D2E/DX2                !
 ! A45   A(16,15,36)           116.9903         estimate D2E/DX2                !
 ! A46   A(15,16,17)           122.183          estimate D2E/DX2                !
 ! A47   A(15,16,33)           118.4099         estimate D2E/DX2                !
 ! A48   A(17,16,33)           119.2841         estimate D2E/DX2                !
 ! A49   A(16,17,18)           119.245          estimate D2E/DX2                !
 ! A50   A(16,17,34)           119.9904         estimate D2E/DX2                !
 ! A51   A(18,17,34)           120.6683         estimate D2E/DX2                !
 ! A52   A(12,18,17)           120.722          estimate D2E/DX2                !
 ! A53   A(12,18,32)           118.6463         estimate D2E/DX2                !
 ! A54   A(17,18,32)           120.6241         estimate D2E/DX2                !
 ! A55   A(1,19,20)            119.7995         estimate D2E/DX2                !
 ! A56   A(1,19,26)            120.5611         estimate D2E/DX2                !
 ! A57   A(20,19,26)           119.6387         estimate D2E/DX2                !
 ! A58   A(19,20,21)           123.4846         estimate D2E/DX2                !
 ! A59   A(19,20,25)           118.4307         estimate D2E/DX2                !
 ! A60   A(21,20,25)           118.0839         estimate D2E/DX2                !
 ! A61   A(20,21,22)           118.2799         estimate D2E/DX2                !
 ! A62   A(20,21,24)           119.8177         estimate D2E/DX2                !
 ! A63   A(22,21,24)           121.9015         estimate D2E/DX2                !
 ! A64   A(2,22,21)            116.6077         estimate D2E/DX2                !
 ! A65   A(2,22,23)            104.1611         estimate D2E/DX2                !
 ! A66   A(21,22,23)           139.2255         estimate D2E/DX2                !
 ! A67   A(7,23,22)            111.5602         estimate D2E/DX2                !
 ! A68   A(15,36,37)           125.5805         estimate D2E/DX2                !
 ! A69   A(15,36,39)           115.6555         estimate D2E/DX2                !
 ! A70   A(37,36,39)           118.5174         estimate D2E/DX2                !
 ! A71   A(35,37,36)           122.0571         estimate D2E/DX2                !
 ! A72   A(35,37,38)           117.0003         estimate D2E/DX2                !
 ! A73   A(36,37,38)           120.9152         estimate D2E/DX2                !
 ! D1    D(5,1,2,3)              0.2315         estimate D2E/DX2                !
 ! D2    D(5,1,2,22)           178.4855         estimate D2E/DX2                !
 ! D3    D(19,1,2,3)          -179.2047         estimate D2E/DX2                !
 ! D4    D(19,1,2,22)           -0.9507         estimate D2E/DX2                !
 ! D5    D(2,1,5,6)             -1.0213         estimate D2E/DX2                !
 ! D6    D(2,1,5,27)           179.541          estimate D2E/DX2                !
 ! D7    D(19,1,5,6)           178.3123         estimate D2E/DX2                !
 ! D8    D(19,1,5,27)           -1.1254         estimate D2E/DX2                !
 ! D9    D(2,1,19,20)            0.5327         estimate D2E/DX2                !
 ! D10   D(2,1,19,26)         -179.7572         estimate D2E/DX2                !
 ! D11   D(5,1,19,20)         -178.8014         estimate D2E/DX2                !
 ! D12   D(5,1,19,26)            0.9087         estimate D2E/DX2                !
 ! D13   D(1,2,3,4)              1.339          estimate D2E/DX2                !
 ! D14   D(1,2,3,7)            179.3078         estimate D2E/DX2                !
 ! D15   D(22,2,3,4)          -177.1755         estimate D2E/DX2                !
 ! D16   D(22,2,3,7)             0.7933         estimate D2E/DX2                !
 ! D17   D(1,2,22,21)            0.6365         estimate D2E/DX2                !
 ! D18   D(1,2,22,23)         -178.6605         estimate D2E/DX2                !
 ! D19   D(3,2,22,21)          179.0858         estimate D2E/DX2                !
 ! D20   D(3,2,22,23)           -0.2112         estimate D2E/DX2                !
 ! D21   D(2,3,4,6)             -1.9846         estimate D2E/DX2                !
 ! D22   D(2,3,4,10)           175.5366         estimate D2E/DX2                !
 ! D23   D(7,3,4,6)           -179.581          estimate D2E/DX2                !
 ! D24   D(7,3,4,10)            -2.0597         estimate D2E/DX2                !
 ! D25   D(2,3,7,8)           -178.3804         estimate D2E/DX2                !
 ! D26   D(2,3,7,23)            -1.0142         estimate D2E/DX2                !
 ! D27   D(4,3,7,8)             -0.5483         estimate D2E/DX2                !
 ! D28   D(4,3,7,23)           176.8179         estimate D2E/DX2                !
 ! D29   D(3,4,6,5)              1.1885         estimate D2E/DX2                !
 ! D30   D(3,4,6,28)          -179.2958         estimate D2E/DX2                !
 ! D31   D(10,4,6,5)          -175.8636         estimate D2E/DX2                !
 ! D32   D(10,4,6,28)            3.6521         estimate D2E/DX2                !
 ! D33   D(3,4,10,9)             0.6246         estimate D2E/DX2                !
 ! D34   D(3,4,10,29)         -176.7635         estimate D2E/DX2                !
 ! D35   D(6,4,10,9)           177.7022         estimate D2E/DX2                !
 ! D36   D(6,4,10,29)            0.3141         estimate D2E/DX2                !
 ! D37   D(1,5,6,4)              0.3085         estimate D2E/DX2                !
 ! D38   D(1,5,6,28)          -179.2054         estimate D2E/DX2                !
 ! D39   D(27,5,6,4)           179.7452         estimate D2E/DX2                !
 ! D40   D(27,5,6,28)            0.2313         estimate D2E/DX2                !
 ! D41   D(3,7,8,9)              4.2749         estimate D2E/DX2                !
 ! D42   D(3,7,8,11)          -179.763          estimate D2E/DX2                !
 ! D43   D(23,7,8,9)          -171.9194         estimate D2E/DX2                !
 ! D44   D(23,7,8,11)            4.0427         estimate D2E/DX2                !
 ! D45   D(3,7,23,22)            0.8941         estimate D2E/DX2                !
 ! D46   D(8,7,23,22)          177.4242         estimate D2E/DX2                !
 ! D47   D(7,8,9,10)            -5.8224         estimate D2E/DX2                !
 ! D48   D(7,8,9,14)           170.5619         estimate D2E/DX2                !
 ! D49   D(11,8,9,10)          177.9468         estimate D2E/DX2                !
 ! D50   D(11,8,9,14)           -5.6688         estimate D2E/DX2                !
 ! D51   D(7,8,11,12)         -163.902          estimate D2E/DX2                !
 ! D52   D(7,8,11,15)           15.7485         estimate D2E/DX2                !
 ! D53   D(9,8,11,12)           11.9201         estimate D2E/DX2                !
 ! D54   D(9,8,11,15)         -168.4294         estimate D2E/DX2                !
 ! D55   D(8,9,10,4)             3.3852         estimate D2E/DX2                !
 ! D56   D(8,9,10,29)         -179.1602         estimate D2E/DX2                !
 ! D57   D(14,9,10,4)         -173.0361         estimate D2E/DX2                !
 ! D58   D(14,9,10,29)           4.4184         estimate D2E/DX2                !
 ! D59   D(8,9,14,13)           -3.2328         estimate D2E/DX2                !
 ! D60   D(8,9,14,30)         -179.9809         estimate D2E/DX2                !
 ! D61   D(10,9,14,13)         173.3585         estimate D2E/DX2                !
 ! D62   D(10,9,14,30)          -3.3896         estimate D2E/DX2                !
 ! D63   D(8,11,12,13)          -9.7721         estimate D2E/DX2                !
 ! D64   D(8,11,12,18)         171.9727         estimate D2E/DX2                !
 ! D65   D(15,11,12,13)        170.5525         estimate D2E/DX2                !
 ! D66   D(15,11,12,18)         -7.7028         estimate D2E/DX2                !
 ! D67   D(8,11,15,16)        -172.0337         estimate D2E/DX2                !
 ! D68   D(8,11,15,36)          15.5825         estimate D2E/DX2                !
 ! D69   D(12,11,15,16)          7.6186         estimate D2E/DX2                !
 ! D70   D(12,11,15,36)       -164.7652         estimate D2E/DX2                !
 ! D71   D(11,12,13,14)          1.0517         estimate D2E/DX2                !
 ! D72   D(11,12,13,31)       -177.3194         estimate D2E/DX2                !
 ! D73   D(18,12,13,14)        179.3302         estimate D2E/DX2                !
 ! D74   D(18,12,13,31)          0.959          estimate D2E/DX2                !
 ! D75   D(11,12,18,17)          2.1788         estimate D2E/DX2                !
 ! D76   D(11,12,18,32)       -178.8145         estimate D2E/DX2                !
 ! D77   D(13,12,18,17)       -176.0924         estimate D2E/DX2                !
 ! D78   D(13,12,18,32)          2.9143         estimate D2E/DX2                !
 ! D79   D(12,13,14,9)           5.6456         estimate D2E/DX2                !
 ! D80   D(12,13,14,30)       -177.6839         estimate D2E/DX2                !
 ! D81   D(31,13,14,9)        -176.0244         estimate D2E/DX2                !
 ! D82   D(31,13,14,30)          0.6462         estimate D2E/DX2                !
 ! D83   D(11,15,16,17)         -2.1559         estimate D2E/DX2                !
 ! D84   D(11,15,16,33)       -178.0919         estimate D2E/DX2                !
 ! D85   D(36,15,16,17)        170.7058         estimate D2E/DX2                !
 ! D86   D(36,15,16,33)         -5.2303         estimate D2E/DX2                !
 ! D87   D(11,15,36,37)       -148.5183         estimate D2E/DX2                !
 ! D88   D(11,15,36,39)         37.2998         estimate D2E/DX2                !
 ! D89   D(16,15,36,37)         38.9373         estimate D2E/DX2                !
 ! D90   D(16,15,36,39)       -135.2445         estimate D2E/DX2                !
 ! D91   D(15,16,17,18)         -3.579          estimate D2E/DX2                !
 ! D92   D(15,16,17,34)        179.9643         estimate D2E/DX2                !
 ! D93   D(33,16,17,18)        172.3227         estimate D2E/DX2                !
 ! D94   D(33,16,17,34)         -4.134          estimate D2E/DX2                !
 ! D95   D(16,17,18,12)          3.5471         estimate D2E/DX2                !
 ! D96   D(16,17,18,32)       -175.4399         estimate D2E/DX2                !
 ! D97   D(34,17,18,12)        179.9792         estimate D2E/DX2                !
 ! D98   D(34,17,18,32)          0.9922         estimate D2E/DX2                !
 ! D99   D(1,19,20,21)           0.1321         estimate D2E/DX2                !
 ! D100  D(1,19,20,25)         179.8074         estimate D2E/DX2                !
 ! D101  D(26,19,20,21)       -179.5807         estimate D2E/DX2                !
 ! D102  D(26,19,20,25)          0.0946         estimate D2E/DX2                !
 ! D103  D(19,20,21,22)         -0.4681         estimate D2E/DX2                !
 ! D104  D(19,20,21,24)        179.1884         estimate D2E/DX2                !
 ! D105  D(25,20,21,22)        179.8556         estimate D2E/DX2                !
 ! D106  D(25,20,21,24)         -0.488          estimate D2E/DX2                !
 ! D107  D(20,21,22,2)           0.1066         estimate D2E/DX2                !
 ! D108  D(20,21,22,23)        179.0628         estimate D2E/DX2                !
 ! D109  D(24,21,22,2)        -179.5423         estimate D2E/DX2                !
 ! D110  D(24,21,22,23)         -0.5861         estimate D2E/DX2                !
 ! D111  D(2,22,23,7)           -0.4421         estimate D2E/DX2                !
 ! D112  D(21,22,23,7)        -179.4795         estimate D2E/DX2                !
 ! D113  D(15,36,37,35)          7.4889         estimate D2E/DX2                !
 ! D114  D(15,36,37,38)       -174.4711         estimate D2E/DX2                !
 ! D115  D(39,36,37,35)       -178.4803         estimate D2E/DX2                !
 ! D116  D(39,36,37,38)         -0.4403         estimate D2E/DX2                !
 --------------------------------------------------------------------------------
 Trust Radius=3.00D-01 FncErr=1.00D-07 GrdErr=1.00D-06
 Number of steps in this run=    234 maximum allowed number of steps=    234.
 GradGradGradGradGradGradGradGradGradGradGradGradGradGradGradGradGradGrad

                          Input orientation:                          
 ---------------------------------------------------------------------
 Center     Atomic      Atomic             Coordinates (Angstroms)
 Number     Number       Type             X           Y           Z
 ---------------------------------------------------------------------
      1          6           0       -3.882260   -0.270240   -0.037910
      2          6           0       -2.568570    0.177290   -0.053160
      3          6           0       -1.462950   -0.675020    0.075690
      4          6           0       -1.600640   -2.052990    0.203050
      5          6           0       -4.041720   -1.699170    0.127750
      6          6           0       -2.962540   -2.542370    0.238570
      7          6           0       -0.253030    0.073570    0.006600
      8          6           0        0.974520   -0.638790    0.084630
      9          6           0        0.852450   -2.085590    0.131260
     10          6           0       -0.385690   -2.759000    0.222230
     11          6           0        2.301830   -0.039900    0.036150
     12          6           0        3.416930   -0.897140   -0.224350
     13          6           0        3.247310   -2.321170   -0.221430
     14          6           0        2.038660   -2.884110    0.003990
     15          6           0        2.570800    1.356350    0.224940
     16          6           0        3.856840    1.840000   -0.008570
     17          6           0        4.911390    1.001520   -0.380070
     18          6           0        4.698060   -0.357440   -0.449860
     19          6           0       -4.863280    0.743400   -0.199900
     20          6           0       -4.468030    2.069090   -0.369040
     21          6           0       -3.114760    2.483510   -0.393360
     22          6           0       -2.126420    1.517580   -0.230380
     23          6           0       -0.685540    1.421920   -0.195370
     24          1           0       -2.874110    3.529860   -0.541960
     25          1           0       -5.235700    2.824800   -0.493970
     26          1           0       -5.919110    0.494490   -0.197900
     27          1           0       -5.043250   -2.116210    0.156080
     28          1           0       -3.132630   -3.608470    0.348370
     29          1           0       -0.375540   -3.843320    0.265280
     30          1           0        1.933140   -3.963050    0.040210
     31          1           0        4.124020   -2.939940   -0.379140
     32          1           0        5.517530   -1.035120   -0.663700
     33          1           0        4.052330    2.890420    0.168390
     34          1           0        5.897900    1.415960   -0.553470
     35          1           0        2.047050    4.048360   -0.303690
     36          6           0        1.595850    2.299310    0.813700
     37          6           0        1.486650    3.598740    0.508650
     38          1           0        0.803810    4.242080    1.050220
     39          1           0        0.989240    1.904100    1.622410
 ---------------------------------------------------------------------
                    Distance matrix (angstroms):
                    1          2          3          4          5
     1  C    0.000000
     2  C    1.387911   0.000000
     3  C    2.455568   1.401938   0.000000
     4  C    2.905520   2.444725   1.390676   0.000000
     5  C    1.447312   2.392489   2.775184   2.467738   0.000000
     6  C    2.466759   2.763489   2.400478   1.447593   1.374008
     7  C    3.645751   2.318632   1.424453   2.525253   4.184669
     8  C    4.872285   3.638469   2.437756   2.940312   5.127273
     9  C    5.073617   4.105851   2.711803   2.454357   4.909402
    10  C    4.299721   3.669142   2.350518   1.405319   3.807719
    11  C    6.188821   4.876058   3.818181   4.394276   6.557606
    12  C    7.328434   6.083578   4.894138   5.166688   7.509906
    13  C    7.420968   6.332067   4.998464   4.873882   7.323849
    14  C    6.472354   5.531908   4.140832   3.738300   6.196000
    15  C    6.660095   5.280213   4.518836   5.387485   7.284989
    16  C    8.021698   6.637205   5.884946   6.707029   8.656302
    17  C    8.891722   7.532332   6.606869   7.216412   9.365350
    18  C    8.590646   7.297069   6.191535   6.555517   8.861017
    19  C    1.419897   2.368060   3.694605   4.315899   2.597781
    20  C    2.434181   2.699377   4.093706   5.053786   3.824699
    21  C    2.880719   2.394308   3.595107   4.819554   4.315741
    22  C    2.513229   1.422421   2.311140   3.635007   3.760866
    23  C    3.620389   2.261665   2.252775   3.615404   4.594513
    24  H    3.963735   3.401765   4.478156   5.774511   5.399498
    25  H    3.408675   3.783808   5.177538   6.123098   4.720003
    26  H    2.181551   3.368632   4.615189   5.029871   2.905647
    27  H    2.189323   3.380527   3.860316   3.443511   1.085259
    28  H    3.443100   3.848554   3.386342   2.188065   2.126157
    29  H    5.015567   4.590870   3.355075   2.170259   4.249373
    30  H    6.889254   6.116905   4.727137   4.020255   6.389974
    31  H    8.446553   7.390138   6.045740   5.822144   8.275008
    32  H    9.451598   8.199251   7.028760   7.242628   9.614916
    33  H    8.543421   7.158664   6.568049   7.509632   9.304818
    34  H    9.937837   8.571215   7.677900   8.296628  10.438589
    35  H    7.340140   6.029253   5.896978   7.126633   8.384114
    36  C    6.110443   4.753610   4.329845   5.434423   6.945543
    37  C    6.640251   5.335425   5.210818   6.447232   7.666538
    38  H    6.595780   5.395638   5.501435   6.791685   7.721953
    39  H    5.587122   4.295046   3.880392   4.937674   6.366170
                    6          7          8          9         10
     6  C    0.000000
     7  C    3.773380   0.000000
     8  C    4.375815   1.421416   0.000000
     9  C    3.843737   2.428909   1.452689   0.000000
    10  C    2.585991   2.843861   2.522775   1.412355   0.000000
    11  C    5.832403   2.557549   1.456973   2.508903   3.827649
    12  C    6.604447   3.803186   2.475395   2.848759   4.257449
    13  C    6.230792   4.247253   2.844231   2.432127   3.686084
    14  C    5.018348   3.741620   2.486033   1.435593   2.437366
    15  C    6.768904   3.109214   2.558980   3.848175   5.067242
    16  C    8.109882   4.473426   3.802743   4.945318   6.261240
    17  C    8.656827   5.261353   4.290164   5.125105   6.524058
    18  C    7.995789   4.990733   3.772213   4.255928   5.662483
    19  C    3.821172   4.663231   6.005940   6.386112   5.700334
    20  C    4.888891   4.678614   6.095882   6.768986   6.350240
    21  C    5.067739   3.762616   5.167150   6.073768   5.942279
    22  C    4.171595   2.377165   3.790118   4.689060   4.639411
    23  C    4.592236   1.430351   2.660963   3.843791   4.212409
    24  H    6.122828   4.372290   5.708083   6.773017   6.806319
    25  H    5.874554   5.713741   7.134288   7.846554   7.430637
    26  H    4.260790   5.685372   6.991873   7.253908   6.432763
    27  H    2.125505   5.269126   6.196889   5.895832   4.702172
    28  H    1.085152   4.686824   5.075159   4.271670   2.878053
    29  H    2.895817   3.927334   3.481998   2.148380   1.085222
    30  H    5.101506   4.590727   3.460004   2.168187   2.619130
    31  H    7.124532   5.328096   3.928069   3.419589   4.553226
    32  H    8.660109   5.914208   4.621257   4.847517   6.213263
    33  H    8.872910   5.147518   4.683509   5.916188   7.184349
    34  H    9.736688   6.320572   5.372973   6.179504   7.583898
    35  H    8.296250   4.602782   4.823949   6.264311   7.248101
    36  C    6.674695   3.003945   3.090312   4.499524   5.464690
    37  C    7.588245   3.962999   4.289374   5.732036   6.633894
    38  H    7.802111   4.425215   4.978393   6.394237   7.149517
    39  H    6.107591   2.739510   2.971746   4.261439   5.059193
                   11         12         13         14         15
    11  C    0.000000
    12  C    1.430444   0.000000
    13  C    2.482836   1.434099   0.000000
    14  C    2.856540   2.428954   1.352239   0.000000
    15  C    1.434399   2.448676   3.765776   4.279427   0.000000
    16  C    2.440098   2.780650   4.210959   5.061932   1.393680
    17  C    2.840352   2.421274   3.719489   4.847494   2.443420
    18  C    2.465554   1.408341   2.452161   3.696275   2.813835
    19  C    7.211663   8.441199   8.670278   7.799819   7.471395
    20  C    7.102325   8.425678   8.878212   8.185985   7.099714
    21  C    5.990954   7.356652   7.974362   7.451642   5.829097
    22  C    4.701721   6.046457   6.604018   6.064462   4.721990
    23  C    3.333901   4.712657   5.429430   5.099304   3.284008
    24  H    6.314092   7.699116   8.474024   8.097678   5.912641
    25  H    8.080959   9.423032   9.925560   9.260450   7.975877
    26  H    8.241614   9.439225   9.589148   8.647647   8.544014
    27  H    7.633849   8.556022   8.301681   7.125044   8.368821
    28  H    6.508881   7.111684   6.533410   5.233119   7.562657
    29  H    4.656910   4.827271   3.959655   2.610885   5.976547
    30  H    3.940438   3.416347   2.119261   1.084693   5.360667
    31  H    3.450083   2.167249   1.084606   2.120998   4.608201
    32  H    3.438165   2.150485   2.646399   3.995887   3.897695
    33  H    3.415921   3.860517   5.287787   6.117768   2.133424
    34  H    3.924143   3.407927   4.593693   5.804748   3.417465
    35  H    4.110264   5.132332   6.482153   6.939300   2.792970
    36  C    2.564156   3.822456   5.014743   5.264936   1.478628
    37  C    3.758653   4.947343   6.219186   6.525852   2.506828
    38  H    4.648414   5.904617   7.117867   7.307670   3.482927
    39  H    2.831651   4.141394   5.133374   5.162124   2.180432
                   16         17         18         19         20
    16  C    0.000000
    17  C    1.397547   0.000000
    18  C    2.393978   1.377372   0.000000
    19  C    8.790883   9.779737   9.627749   0.000000
    20  C    8.335819   9.439987   9.482183   1.393659   0.000000
    21  C    7.011803   8.161835   8.313504   2.474415   1.415512
    22  C    5.996045   7.058293   7.080777   2.844413   2.409674
    23  C    4.565403   5.615735   5.675741   4.232484   3.841383
    24  H    6.960303   8.187351   8.512188   3.440663   2.168947
    25  H    9.158588  10.310226  10.431116   2.134807   1.084446
    26  H    9.869926  10.843892  10.654275   1.084775   2.148089
    27  H    9.741166  10.445217   9.917336   2.887296   4.257155
    28  H    8.869381   9.299940   8.516224   4.715350   5.876449
    29  H    7.091415   7.200040   6.197112   6.433833   7.218548
    30  H    6.113787   5.804616   4.570052   8.270408   8.805065
    31  H    4.801722   4.019336   2.646475   9.714457   9.945542
    32  H    3.384287   2.143771   1.084670  10.542270  10.461088
    33  H    1.083011   2.146331   3.368649   9.177877   8.576710
    34  H    2.154681   1.083988   2.143665  10.787972  10.388123
    35  H    2.870416   4.182525   5.143957   7.660691   6.809409
    36  C    2.449320   3.755283   4.275349   6.720759   6.182436
    37  C    2.996412   4.389102   5.184907   6.998330   6.210345
    38  H    4.026415   5.423944   6.210556   6.776391   5.876094
    39  H    3.299596   4.495313   4.812921   6.238592   5.811617
                   21         22         23         24         25
    21  C    0.000000
    22  C    1.391546   0.000000
    23  C    2.658436   1.444476   0.000000
    24  H    1.083902   2.169192   3.058329   0.000000
    25  H    2.150578   3.383183   4.770869   2.465060   0.000000
    26  H    3.443659   3.928392   5.315109   4.313221   2.446436
    27  H    5.017807   4.675647   5.624190   6.088558   4.987302
    28  H    6.136995   5.255835   5.620385   7.198283   6.820513
    29  H    6.925743   5.661317   5.294436   7.826766   8.286220
    30  H    8.199232   6.825727   5.992569   8.921450   9.886988
    31  H    9.045106   7.678516   6.495495   9.531980  10.993169
    32  H    9.325785   8.070565   6.688382   9.553716  11.426274
    33  H    7.200578   6.341976   4.973553   6.992071   9.311849
    34  H    9.077078   8.031465   6.593175   9.023129  11.222541
    35  H    5.394542   4.881401   3.791697   4.954133   7.387270
    36  C    4.866289   3.944173   2.644386   4.830384   6.975401
    37  C    4.819786   4.234580   3.154774   4.486062   6.840630
    38  H    4.531190   4.201081   3.423881   4.070552   6.392878
    39  H    4.608889   3.645486   2.518275   4.717316   6.639023
                   26         27         28         29         30
    26  H    0.000000
    27  H    2.776362   0.000000
    28  H    4.989706   2.431930   0.000000
    29  H    7.054240   4.978187   2.768321   0.000000
    30  H    9.032397   7.217635   5.087506   2.322713   0.000000
    31  H   10.615678   9.219752   7.323604   4.634373   2.454091
    32  H   11.547875  10.647576   9.081392   6.593729   4.681465
    33  H   10.261787  10.382489   9.689769   8.059694   7.174779
    34  H   11.858215  11.519047  10.373461   8.227176   6.708616
    35  H    8.723582   9.406682   9.267217   8.274738   8.019597
    36  C    7.794571   8.000433   7.581353   6.474492   6.318956
    37  C    8.061071   8.684731   8.561969   7.675366   7.589431
    38  H    7.797428   8.684207   8.810181   8.208574   8.343840
    39  H    7.281884   7.396212   7.000101   6.061127   6.149614
                   31         32         33         34         35
    31  H    0.000000
    32  H    2.377222   0.000000
    33  H    5.856452   4.271891   0.000000
    34  H    4.706475   2.482866   2.470069   0.000000
    35  H    7.290805   6.165680   2.363225   4.671292   0.000000
    36  C    5.938371   5.355437   2.607706   4.599684   2.123986
    37  C    7.106211   6.252604   2.683320   5.035053   1.084483
    38  H    8.040415   7.280489   3.627326   6.042229   1.848309
    39  H    6.107190   5.862655   3.531221   5.391445   3.070289
                   36         37         38         39
    36  C    0.000000
    37  C    1.339216   0.000000
    38  H    2.111309   1.083261   0.000000
    39  H    1.085439   2.087985   2.414112   0.000000
 Stoichiometry    C25H14(3)
 Framework group  C1[X(C25H14)]
 Deg. of freedom   111
 Full point group                 C1      NOp   1
 Largest Abelian subgroup         C1      NOp   1
 Largest concise Abelian subgroup C1      NOp   1
                         Standard orientation:                         
 ---------------------------------------------------------------------
 Center     Atomic      Atomic             Coordinates (Angstroms)
 Number     Number       Type             X           Y           Z
 ---------------------------------------------------------------------
      1          6           0       -3.882259   -0.270239   -0.037910
      2          6           0       -2.568569    0.177291   -0.053160
      3          6           0       -1.462949   -0.675020    0.075690
      4          6           0       -1.600640   -2.052990    0.203050
      5          6           0       -4.041720   -1.699169    0.127750
      6          6           0       -2.962540   -2.542369    0.238570
      7          6           0       -0.253029    0.073570    0.006600
      8          6           0        0.974521   -0.638791    0.084630
      9          6           0        0.852450   -2.085591    0.131260
     10          6           0       -0.385690   -2.759000    0.222230
     11          6           0        2.301831   -0.039901    0.036150
     12          6           0        3.416931   -0.897142   -0.224350
     13          6           0        3.247310   -2.321172   -0.221430
     14          6           0        2.038660   -2.884111    0.003990
     15          6           0        2.570801    1.356349    0.224940
     16          6           0        3.856842    1.839998   -0.008570
     17          6           0        4.911391    1.001518   -0.380070
     18          6           0        4.698061   -0.357442   -0.449860
     19          6           0       -4.863279    0.743401   -0.199900
     20          6           0       -4.468028    2.069091   -0.369040
     21          6           0       -3.114758    2.483511   -0.393360
     22          6           0       -2.126418    1.517580   -0.230380
     23          6           0       -0.685539    1.421920   -0.195370
     24          1           0       -2.874108    3.529861   -0.541960
     25          1           0       -5.235698    2.824801   -0.493970
     26          1           0       -5.919109    0.494492   -0.197900
     27          1           0       -5.043250   -2.116209    0.156080
     28          1           0       -3.132630   -3.608469    0.348370
     29          1           0       -0.375540   -3.843320    0.265280
     30          1           0        1.933140   -3.963051    0.040210
     31          1           0        4.124020   -2.939942   -0.379140
     32          1           0        5.517531   -1.035122   -0.663700
     33          1           0        4.052332    2.890418    0.168390
     34          1           0        5.897901    1.415958   -0.553470
     35          1           0        2.047052    4.048359   -0.303690
     36          6           0        1.595852    2.299309    0.813700
     37          6           0        1.486652    3.598739    0.508650
     38          1           0        0.803812    4.242079    1.050220
     39          1           0        0.989242    1.904099    1.622410
 ---------------------------------------------------------------------
 Rotational constants (GHZ):      0.4476580      0.1782320      0.1294401
 Standard basis: 6-311+G(d,p) (5D, 7F)
 There are   659 symmetry adapted cartesian basis functions of A   symmetry.
 There are   634 symmetry adapted basis functions of A   symmetry.
   634 basis functions,  1012 primitive gaussians,   659 cartesian basis functions
    83 alpha electrons       81 beta electrons
       nuclear repulsion energy      1912.7453322877 Hartrees.
 NAtoms=   39 NActive=   39 NUniq=   39 SFac= 1.00D+00 NAtFMM=   60 NAOKFM=F Big=F
 Integral buffers will be    131072 words long.
 Raffenetti 2 integral format.
 Two-electron integral symmetry is turned on.
 One-electron integrals computed using PRISM.
 NBasis=   634 RedAO= T EigKep=  1.51D-06  NBF=   634
 NBsUse=   618 1.00D-06 EigRej=  9.23D-07 NBFU=   618
 ExpMin= 4.38D-02 ExpMax= 4.56D+03 ExpMxC= 6.82D+02 IAcc=2 IRadAn=         4 AccDes= 0.00D+00
 Harris functional with IExCor=  402 and IRadAn=       4 diagonalized for initial guess.
 HarFok:  IExCor=  402 AccDes= 0.00D+00 IRadAn=         4 IDoV= 1 UseB2=F ITyADJ=14
 ICtDFT=  3500011 ScaDFX=  1.000000  1.000000  1.000000  1.000000
 FoFCou: FMM=F IPFlag=           0 FMFlag=      100000 FMFlg1=           0
         NFxFlg=           0 DoJE=T BraDBF=F KetDBF=T FulRan=T
         wScrn=  0.000000 ICntrl=     500 IOpCl=  0 I1Cent=   200000004 NGrid=           0
         NMat0=    1 NMatS0=      1 NMatT0=    0 NMatD0=    1 NMtDS0=    0 NMtDT0=    0
 Petite list used in FoFCou.
 Initial guess <Sx>= 0.0000 <Sy>= 0.0000 <Sz>= 1.0000 <S**2>= 2.0000 S= 1.0000
 Requested convergence on RMS density matrix=1.00D-08 within 128 cycles.
 Requested convergence on MAX density matrix=1.00D-06.
 Requested convergence on             energy=1.00D-06.
 No special actions if energy rises.
 Restarting incremental Fock formation.
 SCF Done:  E(UB3LYP) =  -961.208517665     A.U. after   24 cycles
            NFock= 24  Conv=0.74D-08     -V/T= 2.0044
 <Sx>= 0.0000 <Sy>= 0.0000 <Sz>= 1.0000 <S**2>= 2.0409 S= 1.0136
 <L.S>= 0.000000000000E+00
 Annihilation of the first spin contaminant:
 S**2 before annihilation     2.0409,   after     2.0010

 **********************************************************************

            Population analysis using the SCF density.

 **********************************************************************

 Orbital symmetries:
 Alpha Orbitals:
       Occupied  (A) (A) (A) (A) (A) (A) (A) (A) (A) (A) (A) (A)
                 (A) (A) (A) (A) (A) (A) (A) (A) (A) (A) (A) (A)
                 (A) (A) (A) (A) (A) (A) (A) (A) (A) (A) (A) (A)
                 (A) (A) (A) (A) (A) (A) (A) (A) (A) (A) (A) (A)
                 (A) (A) (A) (A) (A) (A) (A) (A) (A) (A) (A) (A)
                 (A) (A) (A) (A) (A) (A) (A) (A) (A) (A) (A) (A)
                 (A) (A) (A) (A) (A) (A) (A) (A) (A) (A) (A)
       Virtual   (A) (A) (A) (A) (A) (A) (A) (A) (A) (A) (A) (A)
                 (A) (A) (A) (A) (A) (A) (A) (A) (A) (A) (A) (A)
                 (A) (A) (A) (A) (A) (A) (A) (A) (A) (A) (A) (A)
                 (A) (A) (A) (A) (A) (A) (A) (A) (A) (A) (A) (A)
                 (A) (A) (A) (A) (A) (A) (A) (A) (A) (A) (A) (A)
                 (A) (A) (A) (A) (A) (A) (A) (A) (A) (A) (A) (A)
                 (A) (A) (A) (A) (A) (A) (A) (A) (A) (A) (A) (A)
                 (A) (A) (A) (A) (A) (A) (A) (A) (A) (A) (A) (A)
                 (A) (A) (A) (A) (A) (A) (A) (A) (A) (A) (A) (A)
                 (A) (A) (A) (A) (A) (A) (A) (A) (A) (A) (A) (A)
                 (A) (A) (A) (A) (A) (A) (A) (A) (A) (A) (A) (A)
                 (A) (A) (A) (A) (A) (A) (A) (A) (A) (A) (A) (A)
                 (A) (A) (A) (A) (A) (A) (A) (A) (A) (A) (A) (A)
                 (A) (A) (A) (A) (A) (A) (A) (A) (A) (A) (A) (A)
                 (A) (A) (A) (A) (A) (A) (A) (A) (A) (A) (A) (A)
                 (A) (A) (A) (A) (A) (A) (A) (A) (A) (A) (A) (A)
                 (A) (A) (A) (A) (A) (A) (A) (A) (A) (A) (A) (A)
                 (A) (A) (A) (A) (A) (A) (A) (A) (A) (A) (A) (A)
                 (A) (A) (A) (A) (A) (A) (A) (A) (A) (A) (A) (A)
                 (A) (A) (A) (A) (A) (A) (A) (A) (A) (A) (A) (A)
                 (A) (A) (A) (A) (A) (A) (A) (A) (A) (A) (A) (A)
                 (A) (A) (A) (A) (A) (A) (A) (A) (A) (A) (A) (A)
                 (A) (A) (A) (A) (A) (A) (A) (A) (A) (A) (A) (A)
                 (A) (A) (A) (A) (A) (A) (A) (A) (A) (A) (A) (A)
                 (A) (A) (A) (A) (A) (A) (A) (A) (A) (A) (A) (A)
                 (A) (A) (A) (A) (A) (A) (A) (A) (A) (A) (A) (A)
                 (A) (A) (A) (A) (A) (A) (A) (A) (A) (A) (A) (A)
                 (A) (A) (A) (A) (A) (A) (A) (A) (A) (A) (A) (A)
                 (A) (A) (A) (A) (A) (A) (A) (A) (A) (A) (A) (A)
                 (A) (A) (A) (A) (A) (A) (A) (A) (A) (A) (A) (A)
                 (A) (A) (A) (A) (A) (A) (A) (A) (A) (A) (A) (A)
                 (A) (A) (A) (A) (A) (A) (A) (A) (A) (A) (A) (A)
                 (A) (A) (A) (A) (A) (A) (A) (A) (A) (A) (A) (A)
                 (A) (A) (A) (A) (A) (A) (A) (A) (A) (A) (A) (A)
                 (A) (A) (A) (A) (A) (A) (A) (A) (A) (A) (A) (A)
                 (A) (A) (A) (A) (A) (A) (A) (A) (A) (A) (A) (A)
                 (A) (A) (A) (A) (A) (A) (A) (A) (A) (A) (A) (A)
                 (A) (A) (A) (A) (A) (A) (A) (A) (A) (A) (A) (A)
                 (A) (A) (A) (A) (A) (A) (A) (A) (A) (A) (A) (A)
                 (A) (A) (A) (A) (A) (A) (A) (A) (A) (A) (A) (A)
                 (A) (A) (A) (A) (A) (A) (A) (A) (A) (A) (A) (A)
                 (A) (A) (A) (A) (A) (A) (A) (A) (A) (A) (A) (A)
                 (A) (A) (A) (A) (A) (A) (A) (A) (A) (A) (A) (A)
                 (A) (A) (A) (A) (A) (A) (A) (A) (A) (A) (A) (A)
                 (A) (A) (A) (A) (A) (A) (A)
 Beta  Orbitals:
       Occupied  (A) (A) (A) (A) (A) (A) (A) (A) (A) (A) (A) (A)
                 (A) (A) (A) (A) (A) (A) (A) (A) (A) (A) (A) (A)
                 (A) (A) (A) (A) (A) (A) (A) (A) (A) (A) (A) (A)
                 (A) (A) (A) (A) (A) (A) (A) (A) (A) (A) (A) (A)
                 (A) (A) (A) (A) (A) (A) (A) (A) (A) (A) (A) (A)
                 (A) (A) (A) (A) (A) (A) (A) (A) (A) (A) (A) (A)
                 (A) (A) (A) (A) (A) (A) (A) (A) (A)
       Virtual   (A) (A) (A) (A) (A) (A) (A) (A) (A) (A) (A) (A)
                 (A) (A) (A) (A) (A) (A) (A) (A) (A) (A) (A) (A)
                 (A) (A) (A) (A) (A) (A) (A) (A) (A) (A) (A) (A)
                 (A) (A) (A) (A) (A) (A) (A) (A) (A) (A) (A) (A)
                 (A) (A) (A) (A) (A) (A) (A) (A) (A) (A) (A) (A)
                 (A) (A) (A) (A) (A) (A) (A) (A) (A) (A) (A) (A)
                 (A) (A) (A) (A) (A) (A) (A) (A) (A) (A) (A) (A)
                 (A) (A) (A) (A) (A) (A) (A) (A) (A) (A) (A) (A)
                 (A) (A) (A) (A) (A) (A) (A) (A) (A) (A) (A) (A)
                 (A) (A) (A) (A) (A) (A) (A) (A) (A) (A) (A) (A)
                 (A) (A) (A) (A) (A) (A) (A) (A) (A) (A) (A) (A)
                 (A) (A) (A) (A) (A) (A) (A) (A) (A) (A) (A) (A)
                 (A) (A) (A) (A) (A) (A) (A) (A) (A) (A) (A) (A)
                 (A) (A) (A) (A) (A) (A) (A) (A) (A) (A) (A) (A)
                 (A) (A) (A) (A) (A) (A) (A) (A) (A) (A) (A) (A)
                 (A) (A) (A) (A) (A) (A) (A) (A) (A) (A) (A) (A)
                 (A) (A) (A) (A) (A) (A) (A) (A) (A) (A) (A) (A)
                 (A) (A) (A) (A) (A) (A) (A) (A) (A) (A) (A) (A)
                 (A) (A) (A) (A) (A) (A) (A) (A) (A) (A) (A) (A)
                 (A) (A) (A) (A) (A) (A) (A) (A) (A) (A) (A) (A)
                 (A) (A) (A) (A) (A) (A) (A) (A) (A) (A) (A) (A)
                 (A) (A) (A) (A) (A) (A) (A) (A) (A) (A) (A) (A)
                 (A) (A) (A) (A) (A) (A) (A) (A) (A) (A) (A) (A)
                 (A) (A) (A) (A) (A) (A) (A) (A) (A) (A) (A) (A)
                 (A) (A) (A) (A) (A) (A) (A) (A) (A) (A) (A) (A)
                 (A) (A) (A) (A) (A) (A) (A) (A) (A) (A) (A) (A)
                 (A) (A) (A) (A) (A) (A) (A) (A) (A) (A) (A) (A)
                 (A) (A) (A) (A) (A) (A) (A) (A) (A) (A) (A) (A)
                 (A) (A) (A) (A) (A) (A) (A) (A) (A) (A) (A) (A)
                 (A) (A) (A) (A) (A) (A) (A) (A) (A) (A) (A) (A)
                 (A) (A) (A) (A) (A) (A) (A) (A) (A) (A) (A) (A)
                 (A) (A) (A) (A) (A) (A) (A) (A) (A) (A) (A) (A)
                 (A) (A) (A) (A) (A) (A) (A) (A) (A) (A) (A) (A)
                 (A) (A) (A) (A) (A) (A) (A) (A) (A) (A) (A) (A)
                 (A) (A) (A) (A) (A) (A) (A) (A) (A) (A) (A) (A)
                 (A) (A) (A) (A) (A) (A) (A) (A) (A) (A) (A) (A)
                 (A) (A) (A) (A) (A) (A) (A) (A) (A) (A) (A) (A)
                 (A) (A) (A) (A) (A) (A) (A) (A) (A) (A) (A) (A)
                 (A) (A) (A) (A) (A) (A) (A) (A) (A) (A) (A) (A)
                 (A) (A) (A) (A) (A) (A) (A) (A) (A) (A) (A) (A)
                 (A) (A) (A) (A) (A) (A) (A) (A) (A) (A) (A) (A)
                 (A) (A) (A) (A) (A) (A) (A) (A) (A) (A) (A) (A)
                 (A) (A) (A) (A) (A) (A) (A) (A) (A) (A) (A) (A)
                 (A) (A) (A) (A) (A) (A) (A) (A) (A) (A) (A) (A)
                 (A) (A) (A) (A) (A) (A) (A) (A) (A)
 The electronic state is 3-A.
 Alpha  occ. eigenvalues --  -10.21716 -10.20767 -10.19978 -10.19730 -10.19698
 Alpha  occ. eigenvalues --  -10.19387 -10.19290 -10.19220 -10.19155 -10.19123
 Alpha  occ. eigenvalues --  -10.19099 -10.19030 -10.18964 -10.18953 -10.18907
 Alpha  occ. eigenvalues --  -10.18841 -10.18378 -10.18262 -10.18260 -10.18149
 Alpha  occ. eigenvalues --  -10.18068 -10.18018 -10.17719 -10.17548 -10.17343
 Alpha  occ. eigenvalues --   -0.91946  -0.88876  -0.85932  -0.84141  -0.83289
 Alpha  occ. eigenvalues --   -0.80839  -0.78979  -0.77522  -0.75517  -0.74155
 Alpha  occ. eigenvalues --   -0.72984  -0.71476  -0.69571  -0.64987  -0.64476
 Alpha  occ. eigenvalues --   -0.63197  -0.61368  -0.59565  -0.58312  -0.57550
 Alpha  occ. eigenvalues --   -0.55454  -0.52958  -0.52158  -0.51724  -0.50622
 Alpha  occ. eigenvalues --   -0.48602  -0.47461  -0.47045  -0.46194  -0.45609
 Alpha  occ. eigenvalues --   -0.44336  -0.43985  -0.43422  -0.43047  -0.42567
 Alpha  occ. eigenvalues --   -0.41839  -0.41588  -0.40208  -0.39947  -0.39491
 Alpha  occ. eigenvalues --   -0.38657  -0.37401  -0.36956  -0.35876  -0.35345
 Alpha  occ. eigenvalues --   -0.34883  -0.33925  -0.33831  -0.33377  -0.31477
 Alpha  occ. eigenvalues --   -0.29531  -0.29001  -0.25982  -0.25467  -0.24920
 Alpha  occ. eigenvalues --   -0.22944  -0.21323  -0.19135
 Alpha virt. eigenvalues --   -0.07109  -0.06103  -0.02945  -0.02438   0.00102
 Alpha virt. eigenvalues --    0.00268   0.00537   0.00811   0.01132   0.01869
 Alpha virt. eigenvalues --    0.02037   0.02511   0.02675   0.03296   0.03429
 Alpha virt. eigenvalues --    0.03818   0.04079   0.04751   0.05190   0.05551
 Alpha virt. eigenvalues --    0.05906   0.06106   0.06527   0.07098   0.07425
 Alpha virt. eigenvalues --    0.07702   0.07775   0.08202   0.08444   0.09093
 Alpha virt. eigenvalues --    0.09453   0.09950   0.10436   0.10542   0.10976
 Alpha virt. eigenvalues --    0.11278   0.11712   0.12051   0.12406   0.12746
 Alpha virt. eigenvalues --    0.13053   0.13254   0.13804   0.14264   0.14482
 Alpha virt. eigenvalues --    0.15276   0.15321   0.15488   0.15774   0.16178
 Alpha virt. eigenvalues --    0.16217   0.16618   0.17074   0.17242   0.17560
 Alpha virt. eigenvalues --    0.17606   0.17834   0.17972   0.18186   0.18657
 Alpha virt. eigenvalues --    0.18877   0.19081   0.19517   0.19758   0.19815
 Alpha virt. eigenvalues --    0.19912   0.20404   0.20477   0.20680   0.21091
 Alpha virt. eigenvalues --    0.21372   0.21392   0.21726   0.21935   0.22443
 Alpha virt. eigenvalues --    0.22700   0.23003   0.23114   0.23508   0.23638
 Alpha virt. eigenvalues --    0.23834   0.24239   0.24742   0.24950   0.25012
 Alpha virt. eigenvalues --    0.25274   0.25398   0.25707   0.25921   0.26369
 Alpha virt. eigenvalues --    0.26587   0.26893   0.27481   0.27593   0.27855
 Alpha virt. eigenvalues --    0.28210   0.28504   0.28984   0.29163   0.29304
 Alpha virt. eigenvalues --    0.29339   0.30149   0.30630   0.30765   0.31084
 Alpha virt. eigenvalues --    0.31382   0.31422   0.31806   0.32012   0.32618
 Alpha virt. eigenvalues --    0.33170   0.33746   0.33974   0.34217   0.34509
 Alpha virt. eigenvalues --    0.35334   0.35704   0.36049   0.37615   0.38225
 Alpha virt. eigenvalues --    0.38456   0.38859   0.39574   0.41039   0.41230
 Alpha virt. eigenvalues --    0.41826   0.42082   0.43516   0.43667   0.44711
 Alpha virt. eigenvalues --    0.45525   0.45928   0.47172   0.47904   0.48865
 Alpha virt. eigenvalues --    0.49889   0.50156   0.51202   0.51952   0.52601
 Alpha virt. eigenvalues --    0.52995   0.53420   0.53782   0.54168   0.54533
 Alpha virt. eigenvalues --    0.54727   0.54888   0.55544   0.56102   0.56352
 Alpha virt. eigenvalues --    0.57232   0.57410   0.57621   0.57960   0.58987
 Alpha virt. eigenvalues --    0.59152   0.59531   0.59907   0.60077   0.60239
 Alpha virt. eigenvalues --    0.61114   0.61574   0.62341   0.62607   0.62884
 Alpha virt. eigenvalues --    0.63440   0.63630   0.64401   0.64849   0.65397
 Alpha virt. eigenvalues --    0.65601   0.66395   0.66802   0.67239   0.68011
 Alpha virt. eigenvalues --    0.68420   0.68537   0.68872   0.69604   0.70316
 Alpha virt. eigenvalues --    0.70452   0.70531   0.71156   0.71675   0.71989
 Alpha virt. eigenvalues --    0.72322   0.72683   0.72884   0.72968   0.73412
 Alpha virt. eigenvalues --    0.73688   0.74070   0.74734   0.75450   0.75871
 Alpha virt. eigenvalues --    0.75999   0.76212   0.77218   0.77403   0.78624
 Alpha virt. eigenvalues --    0.79085   0.80837   0.81081   0.81867   0.82405
 Alpha virt. eigenvalues --    0.83225   0.84741   0.85249   0.86617   0.87271
 Alpha virt. eigenvalues --    0.87506   0.88042   0.88993   0.89552   0.90072
 Alpha virt. eigenvalues --    0.90532   0.91280   0.91688   0.92192   0.93182
 Alpha virt. eigenvalues --    0.93405   0.93888   0.94159   0.94468   0.95042
 Alpha virt. eigenvalues --    0.95270   0.95828   0.96778   0.96941   0.97109
 Alpha virt. eigenvalues --    0.97634   0.98415   0.99113   0.99685   1.00506
 Alpha virt. eigenvalues --    1.01467   1.01963   1.02517   1.02918   1.03472
 Alpha virt. eigenvalues --    1.04472   1.05787   1.06275   1.06497   1.07192
 Alpha virt. eigenvalues --    1.08477   1.08785   1.09282   1.09918   1.10824
 Alpha virt. eigenvalues --    1.11099   1.12661   1.12960   1.13926   1.14496
 Alpha virt. eigenvalues --    1.14886   1.15660   1.16884   1.17935   1.18632
 Alpha virt. eigenvalues --    1.20779   1.21659   1.22312   1.26130   1.26266
 Alpha virt. eigenvalues --    1.27944   1.29844   1.31658   1.32452   1.33509
 Alpha virt. eigenvalues --    1.35514   1.36866   1.38403   1.40067   1.41867
 Alpha virt. eigenvalues --    1.43931   1.44461   1.45267   1.46125   1.46560
 Alpha virt. eigenvalues --    1.47064   1.47884   1.49001   1.49194   1.49878
 Alpha virt. eigenvalues --    1.50443   1.51543   1.51715   1.52554   1.52719
 Alpha virt. eigenvalues --    1.54626   1.54964   1.55463   1.56308   1.56332
 Alpha virt. eigenvalues --    1.57108   1.58217   1.59184   1.59946   1.60382
 Alpha virt. eigenvalues --    1.61620   1.61972   1.62817   1.64578   1.65338
 Alpha virt. eigenvalues --    1.66722   1.67275   1.68181   1.68697   1.70381
 Alpha virt. eigenvalues --    1.70722   1.71004   1.71644   1.72694   1.73469
 Alpha virt. eigenvalues --    1.74052   1.74310   1.74605   1.75458   1.76323
 Alpha virt. eigenvalues --    1.78234   1.78937   1.79850   1.80459   1.81502
 Alpha virt. eigenvalues --    1.82079   1.82724   1.84360   1.84987   1.85197
 Alpha virt. eigenvalues --    1.86420   1.87236   1.87908   1.88587   1.89295
 Alpha virt. eigenvalues --    1.90027   1.91017   1.91349   1.92536   1.92588
 Alpha virt. eigenvalues --    1.92878   1.93517   1.93565   1.93972   1.94602
 Alpha virt. eigenvalues --    1.95833   1.97483   1.98158   1.98493   2.00100
 Alpha virt. eigenvalues --    2.00399   2.00666   2.02973   2.04151   2.04342
 Alpha virt. eigenvalues --    2.05489   2.06175   2.06769   2.07613   2.09056
 Alpha virt. eigenvalues --    2.09639   2.11422   2.11766   2.13066   2.13997
 Alpha virt. eigenvalues --    2.14291   2.16125   2.16644   2.18210   2.19803
 Alpha virt. eigenvalues --    2.20959   2.21514   2.21776   2.22532   2.24506
 Alpha virt. eigenvalues --    2.25525   2.26395   2.28270   2.29923   2.31866
 Alpha virt. eigenvalues --    2.32521   2.35082   2.36807   2.37123   2.37907
 Alpha virt. eigenvalues --    2.38369   2.40413   2.42440   2.43150   2.44762
 Alpha virt. eigenvalues --    2.44989   2.46464   2.46941   2.49423   2.52278
 Alpha virt. eigenvalues --    2.54512   2.54618   2.57076   2.58379   2.59604
 Alpha virt. eigenvalues --    2.60712   2.62605   2.63291   2.65037   2.66114
 Alpha virt. eigenvalues --    2.67036   2.67489   2.68666   2.70044   2.71040
 Alpha virt. eigenvalues --    2.71288   2.71719   2.71869   2.73013   2.73949
 Alpha virt. eigenvalues --    2.74095   2.74812   2.75032   2.75661   2.76161
 Alpha virt. eigenvalues --    2.76981   2.77287   2.77814   2.78098   2.78578
 Alpha virt. eigenvalues --    2.79555   2.80436   2.81487   2.82158   2.82328
 Alpha virt. eigenvalues --    2.83359   2.83623   2.84994   2.85350   2.86554
 Alpha virt. eigenvalues --    2.87289   2.87682   2.88730   2.88791   2.90414
 Alpha virt. eigenvalues --    2.91137   2.92312   2.93408   2.94378   2.95573
 Alpha virt. eigenvalues --    2.99434   3.00809   3.02309   3.04614   3.07236
 Alpha virt. eigenvalues --    3.09650   3.11065   3.12558   3.12736   3.13879
 Alpha virt. eigenvalues --    3.16374   3.18210   3.20337   3.21324   3.22992
 Alpha virt. eigenvalues --    3.24084   3.25495   3.27241   3.29488   3.32332
 Alpha virt. eigenvalues --    3.36323   3.36465   3.37071   3.38066   3.40637
 Alpha virt. eigenvalues --    3.41405   3.43945   3.44880   3.46400   3.48146
 Alpha virt. eigenvalues --    3.48529   3.51290   3.53376   3.54832   3.56597
 Alpha virt. eigenvalues --    3.57705   3.59018   3.62099   3.66097   3.67501
 Alpha virt. eigenvalues --    3.71241   3.74450   3.76951   3.80961   3.82260
 Alpha virt. eigenvalues --    3.92386   4.01929   4.03265   4.05692   4.06827
 Alpha virt. eigenvalues --    4.08808   4.10062   4.12786   4.14340   4.23271
 Alpha virt. eigenvalues --    4.29148   4.36795   4.42607   4.63250   4.68827
 Alpha virt. eigenvalues --    4.77409   4.79463   4.80310   4.82926   4.87066
 Alpha virt. eigenvalues --   23.40993  23.60687  23.75502  23.77980  23.80908
 Alpha virt. eigenvalues --   23.82435  23.87385  23.90043  23.93686  23.94302
 Alpha virt. eigenvalues --   23.94506  23.95659  23.99131  24.00954  24.04086
 Alpha virt. eigenvalues --   24.05840  24.07892  24.08811  24.09969  24.13982
 Alpha virt. eigenvalues --   24.15667  24.17254  24.18337  24.22714  24.24476
  Beta  occ. eigenvalues --  -10.20537 -10.20042 -10.19798 -10.19661 -10.19396
  Beta  occ. eigenvalues --  -10.19352 -10.19319 -10.19233 -10.19219 -10.19045
  Beta  occ. eigenvalues --  -10.19010 -10.18961 -10.18928 -10.18914 -10.18809
  Beta  occ. eigenvalues --  -10.18639 -10.18449 -10.18228 -10.18212 -10.18169
  Beta  occ. eigenvalues --  -10.18109 -10.18072 -10.17461 -10.17346 -10.17163
  Beta  occ. eigenvalues --   -0.91261  -0.88742  -0.85717  -0.83382  -0.83151
  Beta  occ. eigenvalues --   -0.80592  -0.78739  -0.77260  -0.75386  -0.73922
  Beta  occ. eigenvalues --   -0.72517  -0.71317  -0.67968  -0.64784  -0.64308
  Beta  occ. eigenvalues --   -0.63079  -0.61099  -0.59199  -0.58130  -0.56449
  Beta  occ. eigenvalues --   -0.55001  -0.52506  -0.51975  -0.51602  -0.50360
  Beta  occ. eigenvalues --   -0.48495  -0.47220  -0.46732  -0.46064  -0.45304
  Beta  occ. eigenvalues --   -0.43815  -0.43688  -0.43184  -0.42402  -0.42213
  Beta  occ. eigenvalues --   -0.41673  -0.41334  -0.39978  -0.39731  -0.38994
  Beta  occ. eigenvalues --   -0.38561  -0.37135  -0.36540  -0.35630  -0.34918
  Beta  occ. eigenvalues --   -0.34122  -0.33637  -0.33546  -0.32882  -0.30600
  Beta  occ. eigenvalues --   -0.28831  -0.27774  -0.25626  -0.24292  -0.22668
  Beta  occ. eigenvalues --   -0.21074
  Beta virt. eigenvalues --   -0.11683  -0.09008  -0.06366  -0.05628  -0.02385
  Beta virt. eigenvalues --   -0.02138   0.00157   0.00454   0.00875   0.01032
  Beta virt. eigenvalues --    0.01279   0.01879   0.02174   0.02642   0.03235
  Beta virt. eigenvalues --    0.03406   0.03820   0.04098   0.04204   0.04788
  Beta virt. eigenvalues --    0.05209   0.05618   0.05984   0.06548   0.06668
  Beta virt. eigenvalues --    0.07245   0.07503   0.07770   0.07809   0.08430
  Beta virt. eigenvalues --    0.08714   0.09302   0.09521   0.10050   0.10598
  Beta virt. eigenvalues --    0.10733   0.11215   0.11375   0.11899   0.12120
  Beta virt. eigenvalues --    0.12545   0.12805   0.13189   0.13371   0.13905
  Beta virt. eigenvalues --    0.14361   0.14603   0.15346   0.15502   0.15692
  Beta virt. eigenvalues --    0.15842   0.16257   0.16435   0.16682   0.17161
  Beta virt. eigenvalues --    0.17363   0.17640   0.17756   0.18014   0.18164
  Beta virt. eigenvalues --    0.18329   0.18801   0.19001   0.19142   0.19779
  Beta virt. eigenvalues --    0.19876   0.19948   0.20080   0.20484   0.20633
  Beta virt. eigenvalues --    0.20776   0.21282   0.21449   0.21523   0.21803
  Beta virt. eigenvalues --    0.22209   0.22536   0.22854   0.23110   0.23379
  Beta virt. eigenvalues --    0.23578   0.23700   0.23907   0.24400   0.24865
  Beta virt. eigenvalues --    0.25103   0.25196   0.25440   0.25522   0.25777
  Beta virt. eigenvalues --    0.26043   0.26464   0.26672   0.27050   0.27568
  Beta virt. eigenvalues --    0.27791   0.28010   0.28366   0.28649   0.29193
  Beta virt. eigenvalues --    0.29278   0.29388   0.29431   0.30365   0.30690
  Beta virt. eigenvalues --    0.30881   0.31152   0.31462   0.31602   0.31876
  Beta virt. eigenvalues --    0.32081   0.32782   0.33287   0.33870   0.34060
  Beta virt. eigenvalues --    0.34347   0.34576   0.35439   0.36115   0.36255
  Beta virt. eigenvalues --    0.37755   0.38505   0.38586   0.39213   0.39865
  Beta virt. eigenvalues --    0.41194   0.41419   0.41918   0.42553   0.43842
  Beta virt. eigenvalues --    0.43952   0.44967   0.45757   0.46128   0.47339
  Beta virt. eigenvalues --    0.48027   0.49145   0.50026   0.50361   0.51728
  Beta virt. eigenvalues --    0.52074   0.52826   0.53218   0.53558   0.53930
  Beta virt. eigenvalues --    0.54348   0.54727   0.55022   0.55169   0.55830
  Beta virt. eigenvalues --    0.56277   0.56509   0.57499   0.57728   0.57958
  Beta virt. eigenvalues --    0.58268   0.59193   0.59363   0.59895   0.60253
  Beta virt. eigenvalues --    0.60360   0.60578   0.61426   0.61917   0.62590
  Beta virt. eigenvalues --    0.62944   0.63183   0.63635   0.64174   0.64705
  Beta virt. eigenvalues --    0.65045   0.65635   0.65764   0.66521   0.66957
  Beta virt. eigenvalues --    0.67525   0.68456   0.68845   0.69090   0.69464
  Beta virt. eigenvalues --    0.69694   0.70563   0.70654   0.70799   0.71500
  Beta virt. eigenvalues --    0.71977   0.72264   0.72469   0.72893   0.73110
  Beta virt. eigenvalues --    0.73281   0.73716   0.73978   0.74176   0.74866
  Beta virt. eigenvalues --    0.75654   0.76017   0.76248   0.76412   0.77443
  Beta virt. eigenvalues --    0.77607   0.78907   0.79619   0.80895   0.81376
  Beta virt. eigenvalues --    0.82169   0.82552   0.83356   0.84889   0.85354
  Beta virt. eigenvalues --    0.86704   0.87627   0.87740   0.88352   0.89123
  Beta virt. eigenvalues --    0.89848   0.90347   0.90662   0.91649   0.91872
  Beta virt. eigenvalues --    0.92592   0.93535   0.93716   0.94016   0.94344
  Beta virt. eigenvalues --    0.94773   0.95274   0.95686   0.95952   0.96916
  Beta virt. eigenvalues --    0.97130   0.97416   0.97928   0.98693   0.99283
  Beta virt. eigenvalues --    0.99846   1.00908   1.01686   1.02243   1.02861
  Beta virt. eigenvalues --    1.03644   1.03691   1.04686   1.05989   1.06580
  Beta virt. eigenvalues --    1.06783   1.07615   1.08665   1.09228   1.09516
  Beta virt. eigenvalues --    1.10135   1.11099   1.11369   1.13034   1.13318
  Beta virt. eigenvalues --    1.14222   1.14957   1.15450   1.15931   1.17291
  Beta virt. eigenvalues --    1.18256   1.19287   1.21436   1.21977   1.22748
  Beta virt. eigenvalues --    1.26288   1.27403   1.28780   1.30821   1.32016
  Beta virt. eigenvalues --    1.32806   1.33847   1.35886   1.37140   1.38597
  Beta virt. eigenvalues --    1.40291   1.42112   1.44152   1.44699   1.45544
  Beta virt. eigenvalues --    1.46673   1.46843   1.47351   1.48106   1.49104
  Beta virt. eigenvalues --    1.49448   1.50177   1.50563   1.51777   1.51915
  Beta virt. eigenvalues --    1.52841   1.53274   1.54874   1.55104   1.55655
  Beta virt. eigenvalues --    1.56466   1.56695   1.57218   1.58601   1.59381
  Beta virt. eigenvalues --    1.60304   1.60785   1.61688   1.62237   1.63242
  Beta virt. eigenvalues --    1.64950   1.65568   1.66911   1.67518   1.68462
  Beta virt. eigenvalues --    1.68879   1.70588   1.70985   1.71467   1.72212
  Beta virt. eigenvalues --    1.73063   1.73674   1.74277   1.74556   1.74829
  Beta virt. eigenvalues --    1.75615   1.76574   1.79234   1.79756   1.80033
  Beta virt. eigenvalues --    1.81228   1.81996   1.82343   1.83190   1.84684
  Beta virt. eigenvalues --    1.85329   1.85530   1.86857   1.87469   1.88099
  Beta virt. eigenvalues --    1.88916   1.89612   1.90210   1.91513   1.91650
  Beta virt. eigenvalues --    1.92718   1.93062   1.93263   1.93723   1.93938
  Beta virt. eigenvalues --    1.94337   1.94874   1.96105   1.97636   1.98654
  Beta virt. eigenvalues --    1.98777   2.00362   2.00682   2.01545   2.03191
  Beta virt. eigenvalues --    2.04379   2.04578   2.05917   2.06665   2.07343
  Beta virt. eigenvalues --    2.08157   2.09435   2.10123   2.11775   2.11880
  Beta virt. eigenvalues --    2.13654   2.14257   2.14727   2.16315   2.16846
  Beta virt. eigenvalues --    2.18505   2.20171   2.21186   2.21910   2.22148
  Beta virt. eigenvalues --    2.22867   2.24739   2.25779   2.26541   2.28775
  Beta virt. eigenvalues --    2.30062   2.32277   2.32880   2.35366   2.37229
  Beta virt. eigenvalues --    2.37480   2.38325   2.38703   2.40762   2.42610
  Beta virt. eigenvalues --    2.43323   2.44990   2.45308   2.46669   2.47314
  Beta virt. eigenvalues --    2.49610   2.52687   2.54603   2.54937   2.57219
  Beta virt. eigenvalues --    2.58581   2.59755   2.61009   2.63115   2.63653
  Beta virt. eigenvalues --    2.65177   2.66186   2.67527   2.67950   2.69346
  Beta virt. eigenvalues --    2.70320   2.71128   2.71343   2.71772   2.72181
  Beta virt. eigenvalues --    2.73173   2.74157   2.74188   2.74926   2.75066
  Beta virt. eigenvalues --    2.75811   2.76450   2.77207   2.77452   2.77899
  Beta virt. eigenvalues --    2.78236   2.78701   2.79675   2.80537   2.82113
  Beta virt. eigenvalues --    2.82432   2.82669   2.83405   2.83959   2.85168
  Beta virt. eigenvalues --    2.85692   2.86960   2.87463   2.87890   2.88954
  Beta virt. eigenvalues --    2.89300   2.90863   2.91453   2.92591   2.93875
  Beta virt. eigenvalues --    2.94475   2.95972   2.99755   3.01601   3.03831
  Beta virt. eigenvalues --    3.05047   3.07416   3.09984   3.11174   3.12807
  Beta virt. eigenvalues --    3.13041   3.14234   3.16973   3.18555   3.20604
  Beta virt. eigenvalues --    3.21490   3.23069   3.24181   3.26006   3.28128
  Beta virt. eigenvalues --    3.30095   3.32889   3.36478   3.36925   3.37584
  Beta virt. eigenvalues --    3.38195   3.40938   3.41537   3.44098   3.45173
  Beta virt. eigenvalues --    3.46621   3.48322   3.48745   3.51368   3.53642
  Beta virt. eigenvalues --    3.54863   3.56728   3.57937   3.59190   3.62168
  Beta virt. eigenvalues --    3.66551   3.67515   3.71516   3.74777   3.77401
  Beta virt. eigenvalues --    3.81182   3.82638   3.92557   4.02094   4.03371
  Beta virt. eigenvalues --    4.05741   4.06868   4.08987   4.10213   4.12916
  Beta virt. eigenvalues --    4.14566   4.23430   4.29261   4.36996   4.42800
  Beta virt. eigenvalues --    4.63794   4.69536   4.77573   4.79586   4.80550
  Beta virt. eigenvalues --    4.82952   4.87254  23.41273  23.60776  23.75609
  Beta virt. eigenvalues --   23.79017  23.80994  23.82808  23.87726  23.90302
  Beta virt. eigenvalues --   23.93675  23.94357  23.94599  23.95910  23.99134
  Beta virt. eigenvalues --   24.01008  24.04313  24.06021  24.07879  24.08988
  Beta virt. eigenvalues --   24.10098  24.14099  24.15726  24.17382  24.18350
  Beta virt. eigenvalues --   24.22711  24.24583
          Condensed to atoms (all electrons):
               1          2          3          4          5          6
     1  C    9.495651   1.467182   0.076206  -0.008100  -1.007477  -0.917917
     2  C    1.467182   6.769507   0.435579   0.022632   0.019787   0.249873
     3  C    0.076206   0.435579   6.961167   1.088436   0.377725   0.329574
     4  C   -0.008100   0.022632   1.088436   9.524344  -1.404042  -0.105801
     5  C   -1.007477   0.019787   0.377725  -1.404042   8.624959   1.862583
     6  C   -0.917917   0.249873   0.329574  -0.105801   1.862583   8.782674
     7  C   -0.015817  -1.378356   0.676388   0.701591  -0.659639  -0.660951
     8  C   -0.542960  -0.339356  -0.205762  -0.793341  -0.040738  -0.690750
     9  C   -0.947748  -0.416187  -0.515207  -0.241527   0.193637  -0.475659
    10  C   -0.681523  -0.268871   0.394512   1.326040  -0.107936  -0.812354
    11  C    0.015019  -0.247725  -0.238421  -0.722417  -0.039519  -0.201767
    12  C   -0.045328   0.013048  -0.248836  -0.016862   0.014104   0.011878
    13  C    0.008834   0.007354  -0.126945  -0.040636  -0.044875  -0.153384
    14  C   -0.252497  -0.062136  -1.405042  -1.028094  -0.089448  -0.444974
    15  C    0.025842  -0.076097  -0.089128  -0.300874  -0.035299  -0.101501
    16  C    0.022868   0.025094   0.120817  -0.057691  -0.005496  -0.012413
    17  C   -0.003115  -0.004076  -0.053135  -0.046820   0.000143  -0.004702
    18  C   -0.003159   0.009128  -0.147831   0.031044   0.001186   0.004168
    19  C   -1.571273  -1.745635  -0.642067  -0.146131  -0.670673   0.087964
    20  C    0.167229   0.644176  -0.208055  -0.325131  -0.353249  -0.043675
    21  C    0.172564   0.191972   0.212557   0.026860   0.061492  -0.052746
    22  C    0.542724   0.855469  -0.829358  -0.753389  -0.677715  -0.364492
    23  C   -0.060277  -0.275346   0.215416  -0.845854  -0.035625  -0.253862
    24  H   -0.015523   0.027612  -0.003940   0.003313  -0.005929  -0.001648
    25  H    0.003028  -0.009565   0.001141   0.003599   0.007885   0.000244
    26  H   -0.088626   0.022954  -0.010444   0.000296   0.039905   0.021324
    27  H   -0.087893   0.002951  -0.004688   0.029788   0.370194  -0.043543
    28  H   -0.033038  -0.006307   0.003120  -0.073738  -0.043467   0.374405
    29  H    0.002394  -0.002854   0.014609  -0.038833   0.017170   0.036066
    30  H    0.000723   0.001515   0.009367   0.053029   0.000334   0.009180
    31  H    0.000026   0.000062   0.000631   0.002360  -0.000002   0.000190
    32  H   -0.000005   0.000000  -0.000108   0.000320   0.000001   0.000026
    33  H   -0.000020  -0.000031  -0.000531  -0.000279  -0.000001  -0.000018
    34  H    0.000002   0.000018   0.000093   0.000058   0.000000   0.000001
    35  H    0.000062   0.000877  -0.000750  -0.000402  -0.000007  -0.000024
    36  C   -0.086458  -0.038598  -0.113563  -0.056031   0.032249  -0.009201
    37  C    0.013009   0.073068  -0.019133   0.017887   0.005140   0.008263
    38  H    0.000107  -0.000436  -0.001820  -0.000404  -0.000043  -0.000056
    39  H    0.002338  -0.001151  -0.003030  -0.010168  -0.000773  -0.001406
               7          8          9         10         11         12
     1  C   -0.015817  -0.542960  -0.947748  -0.681523   0.015019  -0.045328
     2  C   -1.378356  -0.339356  -0.416187  -0.268871  -0.247725   0.013048
     3  C    0.676388  -0.205762  -0.515207   0.394512  -0.238421  -0.248836
     4  C    0.701591  -0.793341  -0.241527   1.326040  -0.722417  -0.016862
     5  C   -0.659639  -0.040738   0.193637  -0.107936  -0.039519   0.014104
     6  C   -0.660951  -0.690750  -0.475659  -0.812354  -0.201767   0.011878
     7  C   10.385177   0.813265   0.593232   0.060400   0.278753   0.095534
     8  C    0.813265   7.007073   0.876034  -0.155901   0.947502  -0.149799
     9  C    0.593232   0.876034  12.923291   1.830527  -1.207702   0.751294
    10  C    0.060400  -0.155901   1.830527   8.279804  -0.725452  -0.671063
    11  C    0.278753   0.947502  -1.207702  -0.725452   6.770169   0.129946
    12  C    0.095534  -0.149799   0.751294  -0.671063   0.129946  10.750493
    13  C   -0.677474  -0.003531  -1.445249  -0.271124  -0.707389  -0.275387
    14  C   -0.546851   0.754547  -0.771030  -1.637028   0.458865  -0.773194
    15  C    0.081374   0.475030  -0.814867  -0.269134   2.146902  -0.986765
    16  C   -0.671528  -0.470142   0.492448   0.074040  -1.145127   1.675051
    17  C   -0.012352  -0.213183  -0.483423  -0.092051   0.267255  -1.055631
    18  C    0.119088  -0.135187  -0.976612  -0.125277   0.401765  -1.349136
    19  C    0.408071  -0.110181  -0.078864  -0.019406   0.020135  -0.001396
    20  C   -0.462989  -0.096415  -0.135920  -0.098810   0.004501  -0.003461
    21  C   -0.421157   0.081721   0.081158  -0.033076   0.051379  -0.019081
    22  C   -2.810117  -0.900979  -1.425078  -0.274548  -0.010791  -0.200631
    23  C   -0.329287  -0.062609  -1.719114  -0.108352   0.395971  -0.659761
    24  H    0.000614   0.001379  -0.000618   0.000016   0.000016  -0.000013
    25  H    0.007111   0.000183   0.000280   0.000418   0.000028  -0.000002
    26  H    0.001193  -0.000379  -0.000567  -0.000338   0.000013  -0.000003
    27  H    0.003329   0.000468   0.002663   0.003297   0.000067   0.000001
    28  H   -0.010794   0.008888   0.034713   0.077505   0.000450   0.000307
    29  H   -0.008669  -0.005704  -0.090189   0.335583  -0.006890   0.009468
    30  H   -0.016421  -0.023951  -0.080810   0.120085  -0.031185  -0.028462
    31  H    0.002052  -0.006590   0.008684   0.004847  -0.003513  -0.084182
    32  H    0.003071  -0.009522   0.018760   0.001346   0.003460  -0.087956
    33  H    0.000491  -0.009716  -0.001336  -0.000144   0.008838  -0.028776
    34  H    0.000017   0.000000   0.003352   0.000247  -0.008167   0.046229
    35  H   -0.011835  -0.003216  -0.000071  -0.000013   0.006449  -0.000365
    36  C    0.779813   0.063000  -0.446755  -0.120049  -0.624080  -1.460327
    37  C   -0.110964   0.010557  -0.031915  -0.006069   0.051327  -0.073466
    38  H   -0.015727  -0.002556  -0.000985   0.000010   0.003675   0.004085
    39  H   -0.051134  -0.004346  -0.008718   0.000066   0.000475   0.000273
              13         14         15         16         17         18
     1  C    0.008834  -0.252497   0.025842   0.022868  -0.003115  -0.003159
     2  C    0.007354  -0.062136  -0.076097   0.025094  -0.004076   0.009128
     3  C   -0.126945  -1.405042  -0.089128   0.120817  -0.053135  -0.147831
     4  C   -0.040636  -1.028094  -0.300874  -0.057691  -0.046820   0.031044
     5  C   -0.044875  -0.089448  -0.035299  -0.005496   0.000143   0.001186
     6  C   -0.153384  -0.444974  -0.101501  -0.012413  -0.004702   0.004168
     7  C   -0.677474  -0.546851   0.081374  -0.671528  -0.012352   0.119088
     8  C   -0.003531   0.754547   0.475030  -0.470142  -0.213183  -0.135187
     9  C   -1.445249  -0.771030  -0.814867   0.492448  -0.483423  -0.976612
    10  C   -0.271124  -1.637028  -0.269134   0.074040  -0.092051  -0.125277
    11  C   -0.707389   0.458865   2.146902  -1.145127   0.267255   0.401765
    12  C   -0.275387  -0.773194  -0.986765   1.675051  -1.055631  -1.349136
[...]
 028,0.00003955,0.00002149,-0.00000241,0.00002418,-0.00001230,0.0000004
 3,0.00000644,-0.00001164,-0.00000164,-0.00000984,-0.00000340,-0.000001
 08,0.00008339,0.00000918,0.00005873,0.00007575,0.00012524,-0.00009709,
 0.00002834,-0.00000880,-0.00000705,-0.00000971,-0.00001941,0.00000206,
 0.00005291,-0.00050291,-0.00026610,-0.00033705,0.00003085,0.00020391,0
 .00007361,-0.00001049,-0.00002635,-0.00006246,0.00005531,0.00000184,-0
 .00246744,0.00164162,-0.00069464,-0.00004528,-0.00000678,-0.00015224,0
 .00034314,-0.00018260,-0.00029747,0.00017083,0.00030167,0.00003120,0.0
 0000156,-0.00000775,-0.00000141,-0.00000124,0.00001553,-0.00000065,-0.
 00001484,-0.00000928,0.00001111,0.00002756,-0.00002291,0.00000727,0.00
 022600,0.00014728,0.00002602,-0.00000965,0.00001426,-0.00001597,0.0000
 0039,-0.00000047,-0.00000039,0.00000166,0.00000193,0.00000002,0.000001
 25,0.00000002,0.00000109,-0.00000066,0.00000162,0.00000159,-0.00000120
 ,0.00000058,0.00000245,0.00000593,0.00000010,0.00000473,-0.00000226,-0
 .00000333,0.00000276,0.00001481,0.00003670,0.00002971,0.00072418,-0.00
 003833,0.00047114,-0.00000726,-0.00001228,0.00000604,0.06170067,0.1059
 0181,0.00001064,-0.00002643,0.00000446,0.00006011,-0.00002758,-0.00001
 100,-0.00015309,0.00004439,0.00010632,-0.00002259,0.00004784,-0.000020
 92,-0.00000864,0.00001631,-0.00000627,0.00001840,0.00001250,-0.0000076
 2,0.00023085,0.00028901,0.00022939,0.00036708,-0.00002900,-0.00013782,
 0.00004281,-0.00008680,-0.00004217,0.00004166,-0.00000074,0.00001107,0
 .00019007,-0.00047180,-0.00005647,-0.00026409,-0.00009134,0.00026113,-
 0.00000463,0.00005468,-0.00004665,-0.00003095,-0.00003971,0.00001172,-
 0.00348265,-0.00172118,-0.00236868,0.00017843,0.00119758,0.00041389,-0
 .00026614,-0.00077599,-0.00013219,0.00024122,0.00017009,-0.00006761,0.
 00000059,0.00002798,-0.00000079,-0.00002595,-0.00000331,0.00000179,0.0
 0000410,0.00000276,0.00000887,-0.00003728,0.00004096,0.00002313,-0.000
 09857,-0.00002373,-0.00014006,-0.00001099,0.00000843,-0.00001181,0.000
 00595,-0.00000353,-0.00000166,0.00000339,0.00000287,-0.00000058,0.0000
 0451,0.00000382,-0.00000085,0.00000461,0.00000495,-0.00000170,-0.00000
 011,0.00000567,0.00000485,-0.00000463,0.00000410,0.00000641,-0.0000069
 7,-0.00000794,0.00000123,0.00000564,-0.00003819,0.00003103,-0.00051035
 ,-0.00036895,0.00021375,-0.00005426,0.00005620,0.00002651,-0.13094945,
 -0.10026032,0.20628652,0.00010302,-0.00006280,-0.00011742,-0.00010469,
 -0.00011746,0.00005322,0.00047076,-0.00102360,-0.00016923,-0.00015843,
 -0.00016095,0.00016450,-0.00004424,-0.00012738,0.00005170,-0.00008540,
 -0.00002717,0.00002822,-0.00416680,-0.00308520,-0.00249890,-0.00264951
 ,-0.00224417,-0.00027797,0.00002247,0.00132916,0.00014769,-0.00054581,
 -0.00003318,-0.00003899,0.01092243,0.00763267,-0.00225998,0.00101836,-
 0.00344392,0.00074934,0.00055936,-0.00042328,0.00015536,0.00044075,-0.
 00027791,-0.00009102,-0.14223365,0.04759950,0.04656114,-0.03537625,0.0
 1949293,0.02023746,-0.00093259,-0.00563304,0.00174802,-0.00049132,0.00
 098438,-0.00030952,-0.00001540,0.00007366,-0.00001449,-0.00007656,-0.0
 0000358,0.00001810,0.00008794,0.00004550,0.00003026,-0.00022215,-0.000
 11916,0.00044176,0.00624201,-0.00105489,0.00087800,-0.00002833,0.00002
 745,-0.00005173,-0.00001871,0.00000872,-0.00001207,-0.00001771,0.00000
 105,-0.00000526,-0.00001839,-0.00000434,0.00001338,-0.00004459,-0.0000
 3072,-0.00000095,-0.00001743,-0.00004525,-0.00000259,-0.00003134,-0.00
 003986,-0.00001767,0.00001881,-0.00032284,0.00006979,0.00002547,0.0001
 0722,-0.00041636,0.00020210,0.00210164,-0.00158247,-0.00065647,0.00059
 212,0.00005307,0.00615552,-0.01716434,0.00629708,0.36733808,-0.0000617
 7,-0.00024001,-0.00032508,-0.00126506,0.00001880,0.00010859,0.00090883
 ,-0.00278325,-0.00093545,-0.00088986,0.00017879,-0.00004445,-0.0000441
 1,-0.00002761,-0.00003212,0.00001497,-0.00039752,0.00017556,-0.0101161
 5,-0.00142147,-0.00124222,0.00369494,0.00254077,0.00096388,0.00044752,
 -0.00103520,-0.00003391,0.00034872,-0.00008219,-0.00003828,0.02017182,
 -0.02811305,-0.01022074,-0.00413510,-0.00343663,-0.00147300,0.00168462
 ,-0.00042558,-0.00018198,-0.00045513,0.00050228,0.00004552,0.04724756,
 -0.14063709,-0.02443596,0.00795302,0.01304613,-0.00672812,-0.00604527,
 0.00390089,-0.00174904,-0.00065365,-0.00234354,0.00001433,0.00000433,-
 0.00019045,0.00001724,0.00005407,-0.00001198,0.00000371,0.00033950,-0.
 00013578,0.00008611,0.00015032,-0.00295346,0.00142158,0.01325010,0.007
 13072,0.00140716,0.00012095,0.00001434,-0.00001639,-0.00006736,0.00000
 364,-0.00001391,-0.00004378,-0.00001648,0.00000386,-0.00003362,-0.0000
 7138,0.00008474,-0.00008821,-0.00005653,0.00000478,0.00006772,-0.00001
 231,-0.00001687,0.00000672,-0.00000716,-0.00002487,-0.00002679,-0.0003
 2494,0.00001231,0.00017276,0.00007538,0.00055000,-0.00070332,-0.000837
 34,0.00355414,-0.00081097,0.00061159,0.00073599,0.00017457,-0.00953304
 ,0.00151699,-0.05338417,0.75219308,-0.00019488,0.00022486,-0.00006187,
 0.00023069,-0.00017247,0.00010410,0.00060623,-0.00034576,-0.00032631,0
 .00023443,-0.00016431,-0.00003226,0.00017511,-0.00000777,0.00001530,-0
 .00007399,-0.00013475,0.00002753,-0.00279269,-0.00229172,-0.00061207,-
 0.00070724,0.00181942,-0.00193981,-0.00013121,-0.00043861,0.00013303,0
 .00013865,0.00011631,0.00011987,0.00024691,-0.00291952,0.00123825,0.00
 062057,0.00019869,0.00516559,0.00016842,-0.00025215,0.00015747,0.00000
 888,0.00023811,-0.00015373,0.05358507,-0.03923402,-0.09883278,0.013408
 29,-0.00428764,-0.00054761,0.00109204,0.00119652,0.00701857,-0.0012526
 0,-0.00047117,-0.00071184,-0.00001911,-0.00029974,0.00000585,0.0002917
 1,0.00020893,0.00000437,-0.00036910,0.00013239,-0.00001413,0.00075407,
 0.00011495,-0.00005335,0.00073682,-0.00084837,-0.00031624,-0.00002399,
 0.00000141,-0.00004952,-0.00001162,0.00001337,0.00000261,0.00000098,-0
 .00000573,0.00000019,-0.00001104,-0.00000765,0.00001665,-0.00001693,-0
 .00000540,0.00002131,0.00002818,0.00001645,-0.00002726,0.00002365,0.00
 001973,-0.00000054,-0.00003416,0.00003247,0.00002074,-0.00018028,0.000
 00688,-0.00078818,-0.00125067,0.00039889,-0.00340504,0.00006331,-0.000
 05884,0.00013951,-0.00096081,0.02479160,-0.00175211,-0.21242176,-0.139
 32566,0.39018147,-0.00005642,0.00001273,0.00005510,-0.00092756,0.00016
 284,-0.00005057,0.00057538,-0.00072012,0.00015832,0.00014443,-0.000127
 49,0.00000879,0.00007891,-0.00016198,0.00001343,-0.00022561,-0.0001504
 2,0.00001749,-0.00182082,-0.00047457,0.00000557,-0.00059670,0.00016394
 ,-0.00032313,0.00032637,0.00003357,0.00003468,-0.00027152,-0.00009265,
 0.00004779,-0.00355571,-0.00019029,0.00155444,-0.00036094,0.00082996,0
 .00071903,-0.00003887,-0.00000822,-0.00006556,-0.00029397,0.00022322,0
 .00002499,0.00237501,0.02379758,-0.00405383,-0.00295181,0.00320342,0.0
 0088654,0.00165297,-0.00073320,0.00104928,-0.00006981,0.00137761,0.000
 22617,0.00004030,-0.00020358,0.00002759,0.00009225,0.00005421,0.000011
 08,0.00011154,-0.00005892,0.00006262,0.00017898,-0.00217391,0.00016181
 ,-0.00029624,0.00178298,-0.00133436,0.00003869,0.00002924,-0.00007682,
 -0.00005278,0.00001309,-0.00001193,-0.00001921,-0.00001055,-0.00000678
 ,-0.00001983,-0.00005310,0.00000370,-0.00003223,-0.00002204,0.00000571
 ,0.00001646,-0.00000895,-0.00002595,0.00004320,0.00000537,0.00000309,0
 .00001325,0.00011636,-0.00003868,-0.00004676,0.00007258,-0.00026860,-0
 .00091897,0.00143327,-0.00097839,-0.00010607,-0.00000668,-0.00003854,-
 0.12012364,-0.05505046,0.11810143,-0.07935606,0.04081622,0.02153287,0.
 35979362,0.00009154,0.00002145,0.00027518,0.00050140,0.00000535,-0.000
 11475,-0.00046530,0.00147902,0.00049299,0.00036138,0.00000823,-0.00009
 024,-0.00000857,-0.00000339,-0.00003792,0.00001761,0.00030186,-0.00005
 298,0.00445605,0.00009298,0.00037470,-0.00092364,-0.00079752,0.0001119
 9,-0.00034428,0.00040686,0.00009057,0.00000359,0.00006834,-0.00000892,
 0.00303174,0.00508739,-0.00124793,0.00046767,-0.00058921,-0.00059253,-
 0.00013609,0.00003635,0.00002441,0.00035264,-0.00030106,-0.00001513,0.
 01625101,-0.02806902,-0.00438129,-0.00641789,-0.00305882,0.00436564,0.
 00069467,-0.00190779,-0.00062874,0.00027187,0.00069762,-0.00003288,0.0
 0001268,0.00018740,-0.00000126,-0.00012467,-0.00004185,0.00001811,-0.0
 0005481,0.00003966,-0.00011662,-0.00061761,0.00118880,-0.00073075,-0.0
 1229849,-0.00604679,-0.00322025,-0.00007527,0.00001472,0.00004820,0.00
 003121,0.00000089,-0.00000124,0.00000990,0.00001191,0.00000126,0.00001
 113,0.00003633,-0.00005700,0.00004884,0.00001963,0.00000649,-0.0000357
 1,0.00000459,0.00000805,-0.00004159,-0.00001252,0.00000192,-0.00000417
 ,-0.00010122,0.00002448,0.00002346,-0.00002076,-0.00005246,0.00012963,
 0.00029761,-0.00067133,0.00016628,-0.00010786,-0.00018375,-0.05635791,
 -0.10278026,0.09120556,0.03982899,-0.47756326,0.10357452,-0.10069267,0
 .76904463,-0.00012861,-0.00013907,-0.00002821,-0.00046147,0.00011263,-
 0.00003683,0.00010913,-0.00069726,0.00007988,-0.00017328,-0.00005038,-
 0.00000987,-0.00002464,0.00003166,-0.00000574,0.00001969,-0.00012131,0
 .00002768,-0.00207462,-0.00002988,0.00013447,0.00028383,0.00016584,0.0
 0032251,0.00000415,-0.00021250,0.00000701,-0.00005164,-0.00003930,0.00
 000062,0.00326673,-0.00235090,0.00008221,-0.00051511,-0.00076433,-0.00
 037482,0.00038343,-0.00006663,-0.00007985,-0.00013875,0.00014730,0.000
 01383,0.00035895,-0.01416730,0.00876163,0.00054667,-0.00096415,-0.0005
 9928,0.00029082,0.00005454,-0.00063881,0.00018294,0.00013612,0.0000625
 9,-0.00000220,-0.00012320,0.00003659,0.00006650,-0.00004721,-0.0000249
 7,0.00008837,0.00010410,-0.00002318,0.00008039,-0.00150625,0.00046273,
 0.00147895,0.00203946,-0.00047633,0.00010764,-0.00002076,0.00006296,-0
 .00003645,0.00001810,-0.00000330,-0.00001972,-0.00001561,0.00000056,-0
 .00002252,-0.00003805,0.00000449,-0.00002430,-0.00002820,-0.00000601,0
 .00000889,-0.00002077,-0.00000418,-0.00000569,-0.00001737,-0.00000717,
 0.00001297,-0.00008983,-0.00000807,0.00003880,0.00003222,0.00005271,0.
 00052403,-0.00001712,0.00060886,0.00005636,-0.00003761,-0.00004262,0.1
 1869431,0.08637540,-0.20196026,0.02251154,0.09476255,-0.10396182,-0.24
 857160,-0.10956932,0.42038063,0.00003457,-0.00000913,0.00000883,0.0000
 3853,-0.00002639,-0.00000103,0.00004670,0.00005380,-0.00010317,-0.0000
 3615,-0.00001614,-0.00000566,-0.00001205,-0.00000800,-0.00000885,0.000
 01061,0.00002695,0.00001119,-0.00004224,-0.00016195,-0.00015789,-0.000
 20330,-0.00007940,0.00023862,-0.00003251,0.00007058,0.00000070,-0.0000
 1125,-0.00000247,-0.00001400,-0.00092145,0.00047028,0.00015416,0.00034
 564,0.00037197,-0.00045469,-0.00014510,0.00002228,0.00003760,0.0000546
 0,0.00000133,0.00000537,0.00670721,0.00198360,0.00489932,0.00036156,-0
 .00087360,-0.00036638,-0.00002658,0.00039658,-0.00024679,0.00000546,-0
 .00019977,0.00003540,0.00000648,0.00002766,0.00000268,-0.00002849,0.00
 002710,0.00000717,-0.00002212,-0.00003627,-0.00000786,-0.00003826,0.00
 011122,-0.00000044,0.00004279,-0.00027542,0.00019901,-0.00005047,0.000
 01655,-0.00003842,0.00000871,-0.00000725,-0.00000077,0.00000155,0.0000
 0574,-0.00000018,0.00000588,0.00000674,-0.00000097,0.00000096,0.000003
 60,0.00000189,-0.00000021,0.00000539,0.00000289,0.00000269,0.00000409,
 -0.00000041,0.00000437,0.00004221,0.00000097,-0.00001163,0.00001818,0.
 00002819,0.00037389,0.00012334,0.00013773,0.00003930,-0.00003048,0.000
 01049,-0.00555351,0.00910675,0.00609586,0.00202013,-0.00116119,0.00280
 722,-0.15859285,0.10882215,0.10404086,0.15888192,0.00003194,-0.0000114
 5,-0.00002057,-0.00000754,-0.00009429,0.00007079,0.00000451,0.00005660
 ,-0.00007229,-0.00003697,-0.00000970,0.00001664,-0.00004253,0.00001266
 ,0.00001304,0.00003467,0.00000169,-0.00000317,-0.00000514,-0.00010643,
 -0.00001498,0.00009960,0.00005318,0.00012242,-0.00006787,-0.00000032,-
 0.00002413,0.00002910,0.00004171,-0.00001073,0.00112751,-0.00026726,-0
 .00021482,-0.00016292,-0.00019542,-0.00029766,0.00006857,-0.00000412,-
 0.00000293,0.00002734,-0.00004903,0.00000386,-0.00041771,-0.00275717,0
 .00331383,-0.00040792,-0.00032917,-0.00019001,0.00012065,0.00015402,-0
 .00008732,0.00004403,-0.00008247,0.00002247,-0.00001536,0.00002796,-0.
 00001289,-0.00003168,0.00003300,-0.00000347,-0.00004492,-0.00000901,0.
 00004305,-0.00003820,0.00002015,-0.00000208,0.00015367,0.00002034,0.00
 006763,-0.00003475,0.00004611,-0.00003711,0.00000282,-0.00000003,-0.00
 000084,0.00000442,0.00000516,-0.00000309,0.00000035,0.00000346,-0.0000
 0181,-0.00000335,0.00000131,-0.00000324,-0.00000487,-0.00000667,-0.000
 00027,-0.00000660,-0.00000756,-0.00000034,0.00000265,-0.00003741,-0.00
 000082,0.00001284,0.00000422,0.00000666,0.00019528,0.00014869,0.000108
 83,0.00005465,-0.00003416,-0.00002625,-0.00831960,0.00916111,0.0071434
 2,0.02143737,-0.01555229,-0.01625088,0.10512492,-0.14671829,-0.0785614
 3,-0.11780564,0.15572575,0.00003425,0.00000825,-0.00002154,0.00002875,
 -0.00006116,0.00005572,0.00004833,0.00007748,-0.00012791,-0.00002992,-
 0.00000686,0.00002045,-0.00003256,0.00000232,0.00000666,0.00002693,0.0
 0001524,0.00000130,0.00002389,-0.00015662,-0.00009212,-0.00016329,-0.0
 0008407,0.00015473,-0.00005775,0.00006509,-0.00000725,0.00001681,0.000
 05221,-0.00002541,-0.00084167,0.00061642,0.00059589,0.00041311,0.00040
 061,-0.00051437,-0.00019033,0.00002030,0.00001734,0.00007883,-0.000066
 95,0.00000055,0.00497009,0.00324969,0.00495016,0.00042679,-0.00063097,
 -0.00017687,-0.00024740,0.00033053,0.00003883,-0.00006132,-0.00035219,
 0.00000248,0.00000196,0.00002849,-0.00001129,-0.00003114,0.00006683,-0
 .00001382,-0.00002658,-0.00013248,0.00004757,-0.00003259,0.00013801,-0
 .00002880,0.00011720,-0.00019404,0.00018604,-0.00009747,0.00005035,-0.
 00003961,-0.00000020,-0.00000512,0.00000429,0.00000655,0.00000984,-0.0
 0000098,0.00000338,0.00000694,0.00000107,-0.00000170,0.00000416,-0.000
 00095,-0.00000013,0.00000066,0.00000131,-0.00000058,0.00000086,0.00000
 236,0.00000359,0.00004053,-0.00000383,-0.00001588,-0.00001517,0.000004
 70,-0.00011797,0.00000177,-0.00023578,0.00002889,-0.00001193,0.0000150
 3,0.01209661,-0.01243918,-0.00655379,-0.00490317,0.00618281,0.00704637
 ,0.10538688,-0.08216440,-0.12156933,-0.11297766,0.08613827,0.11888346,
 -0.00004449,0.00002382,-0.00002779,0.00004661,-0.00011816,0.00018746,0
 .00014332,0.00017703,-0.00040433,0.00007226,-0.00008245,0.00001129,0.0
 0000695,0.00002589,0.00001445,0.00002006,-0.00002163,0.00000131,-0.000
 25589,-0.00122622,-0.00046940,0.00061756,0.00052446,0.00018250,-0.0001
 8333,-0.00028081,0.00002304,0.00017162,0.00009776,-0.00002724,-0.00077
 833,-0.00166199,-0.00087326,-0.00019194,0.00015677,-0.00022806,-0.0000
 6701,-0.00008734,-0.00000315,0.00004563,0.00003969,-0.00001660,-0.0122
 7901,-0.00375706,0.01630386,0.00058992,0.00219878,0.00145266,-0.001177
 73,0.00083230,-0.00058013,-0.00022933,-0.00045998,0.00009014,-0.000018
 17,-0.00009721,0.00000105,0.00013162,0.00011090,-0.00002133,-0.0002598
 0,0.00017039,0.00005235,0.00029936,-0.00008014,-0.00026623,-0.00393413
 ,-0.00089187,-0.00294219,-0.00000352,-0.00000249,-0.00001871,0.0000113
 4,-0.00000178,0.00000114,0.00000780,-0.00000104,0.00000065,0.00000519,
 0.00000323,-0.00000123,0.00000403,0.00001220,0.00000890,0.00000252,0.0
 0000956,-0.00000403,0.00000677,0.00001257,0.00000524,-0.00000698,0.000
 01368,0.00000932,0.00002180,0.00002335,0.00012959,0.00019066,-0.000139
 17,0.00052095,-0.00021179,0.00013103,-0.00003749,0.00583743,0.00248623
 ,0.00402691,-0.12833538,-0.05764375,0.12369801,0.00525301,0.00301324,-
 0.00090536,-0.00326538,-0.00112329,-0.00388354,0.13775677,-0.00011579,
 0.00000055,-0.00003847,0.00017729,-0.00005897,0.00005758,-0.00016409,-
 0.00001315,-0.00010336,-0.00002730,0.00003561,0.00001850,0.00001649,0.
 00005768,0.00001018,0.00003321,-0.00002525,-0.00001321,-0.00076326,-0.
 00101634,-0.00059324,0.00058271,0.00032293,-0.00027447,-0.00025089,-0.
 00064580,0.00017367,0.00025915,0.00011587,-0.00004043,-0.00041850,-0.0
 0001861,-0.00028330,0.00027744,0.00010576,0.00040199,-0.00003583,0.000
 13440,-0.00003386,-0.00005364,-0.00002755,0.00000506,0.01128344,0.0095
 3604,-0.01374773,0.00204438,-0.00251985,-0.00098086,0.00051944,0.00069
 774,0.00075618,0.00000814,-0.00034302,-0.00012813,-0.00000195,-0.00009
 459,0.00000335,0.00013005,0.00006433,-0.00001432,-0.00014610,0.0000864
 6,-0.00000432,0.00036502,0.00006592,-0.00006051,-0.00188530,0.00009911
 ,-0.00120738,0.00000050,-0.00001994,0.00001823,0.00000638,0.00000010,0
 .00000578,0.00000709,-0.00000369,0.00000149,0.00000302,0.00000341,0.00
 000546,0.00000492,0.00000617,0.00000396,0.00000783,0.00000765,-0.00001
 323,-0.00001979,0.00000721,-0.00000144,-0.00000060,0.00000331,-0.00000
 548,-0.00002386,-0.00001655,-0.00004268,0.00003845,0.00017755,-0.00015
 440,0.00020366,-0.00013639,-0.00005900,0.00209620,-0.00429988,0.002120
 46,-0.05243315,-0.09200684,0.07441663,-0.01831332,-0.01093204,0.025715
 82,-0.00102497,0.00075515,-0.00118653,0.05761350,0.09989548,0.00006670
 ,-0.00015202,-0.00000478,0.00018287,-0.00005892,0.00004369,-0.00054067
 ,0.00013099,0.00017997,-0.00021213,0.00023577,-0.00009024,-0.00006282,
 0.00009961,-0.00002697,0.00011654,0.00004239,-0.00002396,0.00026067,0.
 00036803,0.00019041,0.00060283,-0.00044219,-0.00023900,-0.00011528,-0.
 00011613,-0.00005907,0.00022971,0.00004406,0.00001120,-0.00001968,0.00
 012366,0.00076444,0.00026747,-0.00016052,0.00005690,-0.00008081,0.0000
 7945,0.00000352,0.00008214,-0.00008239,-0.00000609,0.00629228,0.007364
 15,-0.00432633,0.00136961,-0.00228313,-0.00086962,-0.00005324,0.001186
 08,0.00025529,-0.00013728,-0.00053214,-0.00011544,-0.00001386,0.000130
 27,0.00000044,-0.00007814,-0.00007778,-0.00000465,0.00005478,0.0000344
 0,-0.00001975,-0.00021465,0.00008733,-0.00004188,-0.00307979,-0.000843
 55,-0.00188160,0.00000284,-0.00000732,0.00002560,0.00002046,-0.0000090
 0,-0.00000148,0.00000817,0.00000518,0.00000349,0.00001208,0.00001192,-
 0.00000179,0.00001585,0.00001242,-0.00000479,-0.00000045,0.00001189,0.
 00001418,-0.00001954,0.00001048,0.00000302,-0.00000881,-0.00001347,0.0
 0000501,-0.00001138,-0.00003433,0.00003252,-0.00009455,0.00016765,0.00
 012274,0.00013731,-0.00013910,-0.00004467,0.00464427,0.00222820,0.0056
 7893,0.12498190,0.07518621,-0.19783233,0.00574632,0.00334760,-0.001241
 30,-0.00434096,-0.00122779,-0.00261264,-0.13601074,-0.08472801,0.20205
 702\\0.00000112,0.00000090,0.00000095,-0.00000114,0.00000334,-0.000009
 29,-0.00000099,-0.00000355,-0.00000551,-0.00000248,0.00000267,-0.00000
 205,-0.00000143,0.00000451,-0.00000217,0.00000256,0.00000104,-0.000000
 68,-0.00000071,0.00000676,0.00000526,-0.00000549,-0.00000696,0.0000063
 7,0.00000208,0.00000384,-0.00000359,-0.00000280,-0.00000277,0.00000018
 ,0.00000521,0.00000397,-0.00000302,-0.00000052,-0.00000301,0.00000016,
 -0.00000081,0.00000068,0.00000100,-0.00000344,0.00000124,0.00000009,0.
 00000070,0.00000068,-0.00000168,-0.00000175,-0.00000276,0.00000316,-0.
 00000371,-0.00000395,0.00000290,-0.00000069,-0.00000055,0.00000222,0.0
 0000119,0.00000110,0.00000037,0.00000317,0.,0.00000019,0.00000421,-0.0
 0000055,0.00000562,-0.00000427,0.00000008,-0.00000029,0.00000504,-0.00
 000186,-0.00000320,0.00000030,0.00000105,-0.00000025,0.00000108,0.0000
 0210,-0.00000077,0.00000074,0.00000418,-0.00000187,0.00000027,0.000000
 45,-0.00000223,-0.00000364,0.00000184,-0.00000262,-0.00000146,0.000001
 27,-0.00000188,-0.00000014,-0.00000070,-0.00000080,-0.00000288,-0.0000
 0251,-0.00000155,-0.00000015,-0.00000081,0.00000061,0.00000207,-0.0000
 0190,0.00000278,0.00000096,-0.00000225,0.00000252,0.00000180,-0.000002
 42,0.00000294,0.00000257,-0.00000143,0.00000255,0.00000371,-0.00000110
 ,0.00000085,0.00000086,-0.00000273,0.00000312,-0.00000114,0.00000010,-
 0.00000040\\\@


 WE LEARN WISDOM FROM FAILURE MUCH MORE THAN FROM SUCCESS.
 WE DISCOVER WHAT WILL DO BY FINDING OUT WHAT WILL NOT DO...
 AND HE WHO NEVER MADE A MISTAKE NEVER MADE A DISCOVERY
 Job cpu time:       3 days 10 hours 28 minutes 32.6 seconds.
 File lengths (MBytes):  RWF=   8877 Int=      0 D2E=      0 Chk=     41 Scr=      1
 Normal termination of Gaussian 09 at Sun Feb  2 22:15:54 2020.
