 Entering Gaussian System, Link 0=g09
 Initial command:
 /usr/local/Cluster-Apps/gaussian/g09/l1.exe "/rds/user/am2145/hpc-work/scratch/19189940/Gau-90852.inp" -scrdir="/rds/user/am2145/hpc-work/scratch/19189940/"
 Entering Link 1 = /usr/local/Cluster-Apps/gaussian/g09/l1.exe PID=     90853.
  
 Copyright (c) 1988,1990,1992,1993,1995,1998,2003,2009,2013,
            Gaussian, Inc.  All Rights Reserved.
  
 This is part of the Gaussian(R) 09 program.  It is based on
 the Gaussian(R) 03 system (copyright 2003, Gaussian, Inc.),
 the Gaussian(R) 98 system (copyright 1998, Gaussian, Inc.),
 the Gaussian(R) 94 system (copyright 1995, Gaussian, Inc.),
 the Gaussian 92(TM) system (copyright 1992, Gaussian, Inc.),
 the Gaussian 90(TM) system (copyright 1990, Gaussian, Inc.),
 the Gaussian 88(TM) system (copyright 1988, Gaussian, Inc.),
 the Gaussian 86(TM) system (copyright 1986, Carnegie Mellon
 University), and the Gaussian 82(TM) system (copyright 1983,
 Carnegie Mellon University). Gaussian is a federally registered
 trademark of Gaussian, Inc.
  
 This software contains proprietary and confidential information,
 including trade secrets, belonging to Gaussian, Inc.
  
 This software is provided under written license and may be
 used, copied, transmitted, or stored only in accord with that
 written license.
  
 The following legend is applicable only to US Government
 contracts under FAR:
  
                    RESTRICTED RIGHTS LEGEND
  
 Use, reproduction and disclosure by the US Government is
 subject to restrictions as set forth in subparagraphs (a)
 and (c) of the Commercial Computer Software - Restricted
 Rights clause in FAR 52.227-19.
  
 Gaussian, Inc.
 340 Quinnipiac St., Bldg. 40, Wallingford CT 06492
  
  
 ---------------------------------------------------------------
 Warning -- This program may not be used in any manner that
 competes with the business of Gaussian, Inc. or will provide
 assistance to any competitor of Gaussian, Inc.  The licensee
 of this program is prohibited from giving any competitor of
 Gaussian, Inc. access to this program.  By using this program,
 the user acknowledges that Gaussian, Inc. is engaged in the
 business of creating and licensing software in the field of
 computational chemistry and represents and warrants to the
 licensee that it is not a competitor of Gaussian, Inc. and that
 it will not use this program in any manner prohibited above.
 ---------------------------------------------------------------
  

 Cite this work as:
 Gaussian 09, Revision D.01,
 M. J. Frisch, G. W. Trucks, H. B. Schlegel, G. E. Scuseria, 
 M. A. Robb, J. R. Cheeseman, G. Scalmani, V. Barone, B. Mennucci, 
 G. A. Petersson, H. Nakatsuji, M. Caricato, X. Li, H. P. Hratchian, 
 A. F. Izmaylov, J. Bloino, G. Zheng, J. L. Sonnenberg, M. Hada, 
 M. Ehara, K. Toyota, R. Fukuda, J. Hasegawa, M. Ishida, T. Nakajima, 
 Y. Honda, O. Kitao, H. Nakai, T. Vreven, J. A. Montgomery, Jr., 
 J. E. Peralta, F. Ogliaro, M. Bearpark, J. J. Heyd, E. Brothers, 
 K. N. Kudin, V. N. Staroverov, T. Keith, R. Kobayashi, J. Normand, 
 K. Raghavachari, A. Rendell, J. C. Burant, S. S. Iyengar, J. Tomasi, 
 M. Cossi, N. Rega, J. M. Millam, M. Klene, J. E. Knox, J. B. Cross, 
 V. Bakken, C. Adamo, J. Jaramillo, R. Gomperts, R. E. Stratmann, 
 O. Yazyev, A. J. Austin, R. Cammi, C. Pomelli, J. W. Ochterski, 
 R. L. Martin, K. Morokuma, V. G. Zakrzewski, G. A. Voth, 
 P. Salvador, J. J. Dannenberg, S. Dapprich, A. D. Daniels, 
 O. Farkas, J. B. Foresman, J. V. Ortiz, J. Cioslowski, 
 and D. J. Fox, Gaussian, Inc., Wallingford CT, 2013.
 
 ******************************************
 Gaussian 09:  ES64L-G09RevD.01 24-Apr-2013
                 2-Feb-2020 
 ******************************************
 %NProcShared=20
 Will use up to   20 processors via shared memory.
 %mem=64GB
 %Chk=BS2a_Hmig.chk
 ------------------------------
 #n opt freq b3lyp/6-311+g(d,p)
 ------------------------------
 1/14=-1,18=20,19=15,26=3,38=1/1,3;
 2/9=110,12=2,17=6,18=5,40=1/2;
 3/5=4,6=6,7=111,11=2,16=1,25=1,30=1,71=1,74=-5/1,2,3;
 4//1;
 5/5=2,38=5/2;
 6/7=2,8=2,9=2,10=2,28=1/1;
 7//1,2,3,16;
 1/14=-1,18=20,19=15,26=3/3(2);
 2/9=110/2;
 99//99;
 2/9=110/2;
 3/5=4,6=6,7=111,11=2,16=1,25=1,30=1,71=1,74=-5/1,2,3;
 4/5=5,16=3,69=1/1;
 5/5=2,38=5/2;
 7//1,2,3,16;
 1/14=-1,18=20,19=15,26=3/3(-5);
 2/9=110/2;
 6/7=2,8=2,9=2,10=2,19=2,28=1/1;
 99/9=1/99;
 ---------
 BS2a_Hmig
 ---------
 Symbolic Z-matrix:
 Charge =  0 Multiplicity = 3
 C                     3.75906   0.47519  -0.2132 
 C                     2.48283  -0.0613   -0.09346 
 C                     1.32472   0.71613   0.04238 
 C                     1.38053   2.10948   0.0722 
 C                     3.82766   1.91897  -0.17887 
 C                     2.701     2.69048  -0.03912 
 C                     0.17832  -0.11442   0.13151 
 C                    -1.07734   0.55491   0.10706 
 C                    -1.05472   1.99986   0.22452 
 C                     0.13956   2.74762   0.21859 
 C                    -2.36152  -0.07861  -0.12187 
 C                    -3.57628   0.68107  -0.05277 
 C                    -3.50135   2.0868    0.21592 
 C                    -2.30263   2.70971   0.31941 
 C                    -2.52643  -1.40878  -0.49624 
 C                    -3.70037  -2.05327  -0.74766 
 C                    -4.8857   -1.29252  -0.63551 
 C                    -4.81296   0.04439  -0.29546 
 C                     4.80156  -0.47824  -0.3372 
 C                     4.49911  -1.83734  -0.31547 
 C                     3.18289  -2.33733  -0.16799 
 C                     2.13662  -1.42666  -0.06396 
 C                     0.68067  -1.49208   0.15955 
 H                     3.02353  -3.40971  -0.14452 
 H                     5.31037  -2.55068  -0.41086 
 H                     5.83251  -0.15825  -0.44456 
 H                     4.79542   2.40297  -0.26119 
 H                     2.79777   3.77103  -0.01358 
 H                     0.07481   3.82808   0.29785 
 H                    -2.25933   3.78371   0.46658 
 H                    -4.42528   2.65063   0.28959 
 H                    -5.71971   0.63571  -0.22668 
 H                    -1.48154  -2.02313   1.87179 
 H                    -3.7342   -3.09979  -1.0304 
 H                    -5.84624  -1.75804  -0.82937 
 C                     0.0694   -2.71881   0.58184 
 C                    -0.97076  -2.86793   1.42976 
 H                     0.58003  -3.62178   0.25229 
 H                    -1.31144  -3.85468   1.71939 
 

 GradGradGradGradGradGradGradGradGradGradGradGradGradGradGradGradGradGrad
 Berny optimization.
 Initialization pass.
                           ----------------------------
                           !    Initial Parameters    !
                           ! (Angstroms and Degrees)  !
 --------------------------                            --------------------------
 ! Name  Definition              Value          Derivative Info.                !
 --------------------------------------------------------------------------------
 ! R1    R(1,2)                  1.3896         estimate D2E/DX2                !
 ! R2    R(1,5)                  1.4458         estimate D2E/DX2                !
 ! R3    R(1,19)                 1.4182         estimate D2E/DX2                !
 ! R4    R(2,3)                  1.4015         estimate D2E/DX2                !
 ! R5    R(2,22)                 1.4089         estimate D2E/DX2                !
 ! R6    R(3,4)                  1.3948         estimate D2E/DX2                !
 ! R7    R(3,7)                  1.4184         estimate D2E/DX2                !
 ! R8    R(4,6)                  1.4469         estimate D2E/DX2                !
 ! R9    R(4,10)                 1.4031         estimate D2E/DX2                !
 ! R10   R(5,6)                  1.3726         estimate D2E/DX2                !
 ! R11   R(5,27)                 1.0852         estimate D2E/DX2                !
 ! R12   R(6,28)                 1.0852         estimate D2E/DX2                !
 ! R13   R(7,8)                  1.4231         estimate D2E/DX2                !
 ! R14   R(7,23)                 1.4667         estimate D2E/DX2                !
 ! R15   R(8,9)                  1.4499         estimate D2E/DX2                !
 ! R16   R(8,11)                 1.4501         estimate D2E/DX2                !
 ! R17   R(9,10)                 1.4091         estimate D2E/DX2                !
 ! R18   R(9,14)                 1.4388         estimate D2E/DX2                !
 ! R19   R(10,29)                1.0853         estimate D2E/DX2                !
 ! R20   R(11,12)                1.4344         estimate D2E/DX2                !
 ! R21   R(11,15)                1.3917         estimate D2E/DX2                !
 ! R22   R(12,13)                1.4331         estimate D2E/DX2                !
 ! R23   R(12,18)                1.412          estimate D2E/DX2                !
 ! R24   R(13,14)                1.3549         estimate D2E/DX2                !
 ! R25   R(13,31)                1.0849         estimate D2E/DX2                !
 ! R26   R(14,30)                1.0849         estimate D2E/DX2                !
 ! R27   R(15,16)                1.3626         estimate D2E/DX2                !
 ! R28   R(16,17)                1.4129         estimate D2E/DX2                !
 ! R29   R(16,34)                1.0846         estimate D2E/DX2                !
 ! R30   R(17,18)                1.3814         estimate D2E/DX2                !
 ! R31   R(17,35)                1.0849         estimate D2E/DX2                !
 ! R32   R(18,32)                1.0847         estimate D2E/DX2                !
 ! R33   R(19,20)                1.3925         estimate D2E/DX2                !
 ! R34   R(19,26)                1.0848         estimate D2E/DX2                !
 ! R35   R(20,21)                1.4157         estimate D2E/DX2                !
 ! R36   R(20,25)                1.0845         estimate D2E/DX2                !
 ! R37   R(21,22)                1.391          estimate D2E/DX2                !
 ! R38   R(21,24)                1.0844         estimate D2E/DX2                !
 ! R39   R(22,23)                1.4745         estimate D2E/DX2                !
 ! R40   R(23,36)                1.4342         estimate D2E/DX2                !
 ! R41   R(33,37)                1.0817         estimate D2E/DX2                !
 ! R42   R(36,37)                1.3502         estimate D2E/DX2                !
 ! R43   R(36,38)                1.0884         estimate D2E/DX2                !
 ! R44   R(37,39)                1.0833         estimate D2E/DX2                !
 ! A1    A(2,1,5)              115.2817         estimate D2E/DX2                !
 ! A2    A(2,1,19)             115.0313         estimate D2E/DX2                !
 ! A3    A(5,1,19)             129.6835         estimate D2E/DX2                !
 ! A4    A(1,2,3)              123.5826         estimate D2E/DX2                !
 ! A5    A(1,2,22)             126.9882         estimate D2E/DX2                !
 ! A6    A(3,2,22)             109.4206         estimate D2E/DX2                !
 ! A7    A(2,3,4)              121.5449         estimate D2E/DX2                !
 ! A8    A(2,3,7)              110.4353         estimate D2E/DX2                !
 ! A9    A(4,3,7)              128.0194         estimate D2E/DX2                !
 ! A10   A(3,4,6)              115.8489         estimate D2E/DX2                !
 ! A11   A(3,4,10)             114.9093         estimate D2E/DX2                !
 ! A12   A(6,4,10)             129.2392         estimate D2E/DX2                !
 ! A13   A(1,5,6)              121.6512         estimate D2E/DX2                !
 ! A14   A(1,5,27)             119.0713         estimate D2E/DX2                !
 ! A15   A(6,5,27)             119.2769         estimate D2E/DX2                !
 ! A16   A(4,6,5)              122.0871         estimate D2E/DX2                !
 ! A17   A(4,6,28)             118.6462         estimate D2E/DX2                !
 ! A18   A(5,6,28)             119.2665         estimate D2E/DX2                !
 ! A19   A(3,7,8)              115.8892         estimate D2E/DX2                !
 ! A20   A(3,7,23)             105.9253         estimate D2E/DX2                !
 ! A21   A(8,7,23)             138.1008         estimate D2E/DX2                !
 ! A22   A(7,8,9)              116.9726         estimate D2E/DX2                !
 ! A23   A(7,8,11)             125.3519         estimate D2E/DX2                !
 ! A24   A(9,8,11)             117.5154         estimate D2E/DX2                !
 ! A25   A(8,9,10)             122.8027         estimate D2E/DX2                !
 ! A26   A(8,9,14)             118.9135         estimate D2E/DX2                !
 ! A27   A(10,9,14)            118.2666         estimate D2E/DX2                !
 ! A28   A(4,10,9)             120.5783         estimate D2E/DX2                !
 ! A29   A(4,10,29)            120.8753         estimate D2E/DX2                !
 ! A30   A(9,10,29)            118.5181         estimate D2E/DX2                !
 ! A31   A(8,11,12)            120.7291         estimate D2E/DX2                !
 ! A32   A(8,11,15)            124.4007         estimate D2E/DX2                !
 ! A33   A(12,11,15)           114.76           estimate D2E/DX2                !
 ! A34   A(11,12,13)           118.9625         estimate D2E/DX2                !
 ! A35   A(11,12,18)           119.6465         estimate D2E/DX2                !
 ! A36   A(13,12,18)           121.3533         estimate D2E/DX2                !
 ! A37   A(12,13,14)           120.7668         estimate D2E/DX2                !
 ! A38   A(12,13,31)           118.5535         estimate D2E/DX2                !
 ! A39   A(14,13,31)           120.6212         estimate D2E/DX2                !
 ! A40   A(9,14,13)            122.3779         estimate D2E/DX2                !
 ! A41   A(9,14,30)            117.5636         estimate D2E/DX2                !
 ! A42   A(13,14,30)           120.0538         estimate D2E/DX2                !
 ! A43   A(11,15,16)           127.1434         estimate D2E/DX2                !
 ! A44   A(15,16,17)           116.9655         estimate D2E/DX2                !
 ! A45   A(15,16,34)           122.0975         estimate D2E/DX2                !
 ! A46   A(17,16,34)           120.9348         estimate D2E/DX2                !
 ! A47   A(16,17,18)           119.7655         estimate D2E/DX2                !
 ! A48   A(16,17,35)           119.8388         estimate D2E/DX2                !
 ! A49   A(18,17,35)           120.3909         estimate D2E/DX2                !
 ! A50   A(12,18,17)           121.6567         estimate D2E/DX2                !
 ! A51   A(12,18,32)           118.3888         estimate D2E/DX2                !
 ! A52   A(17,18,32)           119.9457         estimate D2E/DX2                !
 ! A53   A(1,19,20)            119.6787         estimate D2E/DX2                !
 ! A54   A(1,19,26)            120.5943         estimate D2E/DX2                !
 ! A55   A(20,19,26)           119.7265         estimate D2E/DX2                !
 ! A56   A(19,20,21)           123.248          estimate D2E/DX2                !
 ! A57   A(19,20,25)           118.5638         estimate D2E/DX2                !
 ! A58   A(21,20,25)           118.1874         estimate D2E/DX2                !
 ! A59   A(20,21,22)           118.4179         estimate D2E/DX2                !
 ! A60   A(20,21,24)           119.2187         estimate D2E/DX2                !
 ! A61   A(22,21,24)           122.3628         estimate D2E/DX2                !
 ! A62   A(2,22,21)            116.62           estimate D2E/DX2                !
 ! A63   A(2,22,23)            106.7875         estimate D2E/DX2                !
 ! A64   A(21,22,23)           136.4713         estimate D2E/DX2                !
 ! A65   A(7,23,22)            107.076          estimate D2E/DX2                !
 ! A66   A(7,23,36)            131.5366         estimate D2E/DX2                !
 ! A67   A(22,23,36)           120.2288         estimate D2E/DX2                !
 ! A68   A(23,36,37)           127.4243         estimate D2E/DX2                !
 ! A69   A(23,36,38)           114.8661         estimate D2E/DX2                !
 ! A70   A(37,36,38)           117.3818         estimate D2E/DX2                !
 ! A71   A(33,37,36)           122.2864         estimate D2E/DX2                !
 ! A72   A(33,37,39)           116.9772         estimate D2E/DX2                !
 ! A73   A(36,37,39)           120.713          estimate D2E/DX2                !
 ! D1    D(5,1,2,3)              0.4509         estimate D2E/DX2                !
 ! D2    D(5,1,2,22)          -178.3721         estimate D2E/DX2                !
 ! D3    D(19,1,2,3)           179.8345         estimate D2E/DX2                !
 ! D4    D(19,1,2,22)            1.0115         estimate D2E/DX2                !
 ! D5    D(2,1,5,6)             -0.0892         estimate D2E/DX2                !
 ! D6    D(2,1,5,27)           179.6244         estimate D2E/DX2                !
 ! D7    D(19,1,5,6)          -179.3635         estimate D2E/DX2                !
 ! D8    D(19,1,5,27)            0.3501         estimate D2E/DX2                !
 ! D9    D(2,1,19,20)           -0.779          estimate D2E/DX2                !
 ! D10   D(2,1,19,26)          179.4813         estimate D2E/DX2                !
 ! D11   D(5,1,19,20)          178.4968         estimate D2E/DX2                !
 ! D12   D(5,1,19,26)           -1.243          estimate D2E/DX2                !
 ! D13   D(1,2,3,4)             -0.2686         estimate D2E/DX2                !
 ! D14   D(1,2,3,7)            179.5313         estimate D2E/DX2                !
 ! D15   D(22,2,3,4)           178.7345         estimate D2E/DX2                !
 ! D16   D(22,2,3,7)            -1.4656         estimate D2E/DX2                !
 ! D17   D(1,2,22,21)           -0.1176         estimate D2E/DX2                !
 ! D18   D(1,2,22,23)          176.5402         estimate D2E/DX2                !
 ! D19   D(3,2,22,21)         -179.0779         estimate D2E/DX2                !
 ! D20   D(3,2,22,23)           -2.4201         estimate D2E/DX2                !
 ! D21   D(2,3,4,6)             -0.2743         estimate D2E/DX2                !
 ! D22   D(2,3,4,10)          -179.7409         estimate D2E/DX2                !
 ! D23   D(7,3,4,6)            179.9637         estimate D2E/DX2                !
 ! D24   D(7,3,4,10)             0.4971         estimate D2E/DX2                !
 ! D25   D(2,3,7,8)           -172.5526         estimate D2E/DX2                !
 ! D26   D(2,3,7,23)             4.7112         estimate D2E/DX2                !
 ! D27   D(4,3,7,8)              7.231          estimate D2E/DX2                !
 ! D28   D(4,3,7,23)          -175.5053         estimate D2E/DX2                !
 ! D29   D(3,4,6,5)              0.6279         estimate D2E/DX2                !
 ! D30   D(3,4,6,28)          -179.5499         estimate D2E/DX2                !
 ! D31   D(10,4,6,5)          -179.9968         estimate D2E/DX2                !
 ! D32   D(10,4,6,28)           -0.1745         estimate D2E/DX2                !
 ! D33   D(3,4,10,9)            -4.7052         estimate D2E/DX2                !
 ! D34   D(3,4,10,29)          177.2583         estimate D2E/DX2                !
 ! D35   D(6,4,10,9)           175.9146         estimate D2E/DX2                !
 ! D36   D(6,4,10,29)           -2.1219         estimate D2E/DX2                !
 ! D37   D(1,5,6,4)             -0.4549         estimate D2E/DX2                !
 ! D38   D(1,5,6,28)           179.7239         estimate D2E/DX2                !
 ! D39   D(27,5,6,4)           179.832          estimate D2E/DX2                !
 ! D40   D(27,5,6,28)            0.0109         estimate D2E/DX2                !
 ! D41   D(3,7,8,9)            -10.2044         estimate D2E/DX2                !
 ! D42   D(3,7,8,11)           165.064          estimate D2E/DX2                !
 ! D43   D(23,7,8,9)           173.7373         estimate D2E/DX2                !
 ! D44   D(23,7,8,11)          -10.9944         estimate D2E/DX2                !
 ! D45   D(3,7,23,22)           -6.033          estimate D2E/DX2                !
 ! D46   D(3,7,23,36)          161.317          estimate D2E/DX2                !
 ! D47   D(8,7,23,22)          170.2797         estimate D2E/DX2                !
 ! D48   D(8,7,23,36)          -22.3703         estimate D2E/DX2                !
 ! D49   D(7,8,9,10)             6.7715         estimate D2E/DX2                !
 ! D50   D(7,8,9,14)          -174.7606         estimate D2E/DX2                !
 ! D51   D(11,8,9,10)         -168.8779         estimate D2E/DX2                !
 ! D52   D(11,8,9,14)            9.59           estimate D2E/DX2                !
 ! D53   D(7,8,11,12)          176.5528         estimate D2E/DX2                !
 ! D54   D(7,8,11,15)           -7.4668         estimate D2E/DX2                !
 ! D55   D(9,8,11,12)           -8.202          estimate D2E/DX2                !
 ! D56   D(9,8,11,15)          167.7784         estimate D2E/DX2                !
 ! D57   D(8,9,10,4)             1.1301         estimate D2E/DX2                !
 ! D58   D(8,9,10,29)          179.2121         estimate D2E/DX2                !
 ! D59   D(14,9,10,4)         -177.3472         estimate D2E/DX2                !
 ! D60   D(14,9,10,29)           0.7349         estimate D2E/DX2                !
 ! D61   D(8,9,14,13)           -4.3928         estimate D2E/DX2                !
 ! D62   D(8,9,14,30)          176.3982         estimate D2E/DX2                !
 ! D63   D(10,9,14,13)         174.145          estimate D2E/DX2                !
 ! D64   D(10,9,14,30)          -5.0639         estimate D2E/DX2                !
 ! D65   D(8,11,12,13)           1.4444         estimate D2E/DX2                !
 ! D66   D(8,11,12,18)         179.2418         estimate D2E/DX2                !
 ! D67   D(15,11,12,13)       -174.9037         estimate D2E/DX2                !
 ! D68   D(15,11,12,18)          2.8936         estimate D2E/DX2                !
 ! D69   D(8,11,15,16)        -178.7761         estimate D2E/DX2                !
 ! D70   D(12,11,15,16)         -2.5808         estimate D2E/DX2                !
 ! D71   D(11,12,13,14)          4.1675         estimate D2E/DX2                !
 ! D72   D(11,12,13,31)       -178.5996         estimate D2E/DX2                !
 ! D73   D(18,12,13,14)       -173.5908         estimate D2E/DX2                !
 ! D74   D(18,12,13,31)          3.6421         estimate D2E/DX2                !
 ! D75   D(11,12,18,17)         -1.7686         estimate D2E/DX2                !
 ! D76   D(11,12,18,32)        179.3097         estimate D2E/DX2                !
 ! D77   D(13,12,18,17)        175.9746         estimate D2E/DX2                !
 ! D78   D(13,12,18,32)         -2.9471         estimate D2E/DX2                !
 ! D79   D(12,13,14,9)          -2.6852         estimate D2E/DX2                !
 ! D80   D(12,13,14,30)        176.5047         estimate D2E/DX2                !
 ! D81   D(31,13,14,9)        -179.8608         estimate D2E/DX2                !
 ! D82   D(31,13,14,30)         -0.6709         estimate D2E/DX2                !
 ! D83   D(11,15,16,17)          0.8782         estimate D2E/DX2                !
 ! D84   D(11,15,16,34)       -179.6603         estimate D2E/DX2                !
 ! D85   D(15,16,17,18)          0.5464         estimate D2E/DX2                !
 ! D86   D(15,16,17,35)        179.7547         estimate D2E/DX2                !
 ! D87   D(34,16,17,18)       -178.9218         estimate D2E/DX2                !
 ! D88   D(34,16,17,35)          0.2865         estimate D2E/DX2                !
 ! D89   D(16,17,18,12)         -0.0477         estimate D2E/DX2                !
 ! D90   D(16,17,18,32)        178.8575         estimate D2E/DX2                !
 ! D91   D(35,17,18,12)       -179.2515         estimate D2E/DX2                !
 ! D92   D(35,17,18,32)         -0.3463         estimate D2E/DX2                !
 ! D93   D(1,19,20,21)          -0.277          estimate D2E/DX2                !
 ! D94   D(1,19,20,25)        -179.9488         estimate D2E/DX2                !
 ! D95   D(26,19,20,21)        179.465          estimate D2E/DX2                !
 ! D96   D(26,19,20,25)         -0.2068         estimate D2E/DX2                !
 ! D97   D(19,20,21,22)          1.209          estimate D2E/DX2                !
 ! D98   D(19,20,21,24)       -179.0677         estimate D2E/DX2                !
 ! D99   D(25,20,21,22)       -179.118          estimate D2E/DX2                !
 ! D100  D(25,20,21,24)          0.6052         estimate D2E/DX2                !
 ! D101  D(20,21,22,2)          -0.9834         estimate D2E/DX2                !
 ! D102  D(20,21,22,23)       -176.335          estimate D2E/DX2                !
 ! D103  D(24,21,22,2)         179.3025         estimate D2E/DX2                !
 ! D104  D(24,21,22,23)          3.951          estimate D2E/DX2                !
 ! D105  D(2,22,23,7)            5.2446         estimate D2E/DX2                !
 ! D106  D(2,22,23,36)        -163.8188         estimate D2E/DX2                !
 ! D107  D(21,22,23,7)        -179.0955         estimate D2E/DX2                !
 ! D108  D(21,22,23,36)         11.8411         estimate D2E/DX2                !
 ! D109  D(7,23,36,37)         -22.021          estimate D2E/DX2                !
 ! D110  D(7,23,36,38)         164.7824         estimate D2E/DX2                !
 ! D111  D(22,23,36,37)        143.9575         estimate D2E/DX2                !
 ! D112  D(22,23,36,38)        -29.2391         estimate D2E/DX2                !
 ! D113  D(23,36,37,33)          1.7191         estimate D2E/DX2                !
 ! D114  D(23,36,37,39)       -176.467          estimate D2E/DX2                !
 ! D115  D(38,36,37,33)        174.7668         estimate D2E/DX2                !
 ! D116  D(38,36,37,39)         -3.4193         estimate D2E/DX2                !
 --------------------------------------------------------------------------------
 Trust Radius=3.00D-01 FncErr=1.00D-07 GrdErr=1.00D-06
 Number of steps in this run=    234 maximum allowed number of steps=    234.
 GradGradGradGradGradGradGradGradGradGradGradGradGradGradGradGradGradGrad

                          Input orientation:                          
 ---------------------------------------------------------------------
 Center     Atomic      Atomic             Coordinates (Angstroms)
 Number     Number       Type             X           Y           Z
 ---------------------------------------------------------------------
      1          6           0        3.759060    0.475190   -0.213200
      2          6           0        2.482830   -0.061300   -0.093460
      3          6           0        1.324720    0.716130    0.042380
      4          6           0        1.380530    2.109480    0.072200
      5          6           0        3.827660    1.918970   -0.178870
      6          6           0        2.701000    2.690480   -0.039120
      7          6           0        0.178320   -0.114420    0.131510
      8          6           0       -1.077340    0.554910    0.107060
      9          6           0       -1.054720    1.999860    0.224520
     10          6           0        0.139560    2.747620    0.218590
     11          6           0       -2.361520   -0.078610   -0.121870
     12          6           0       -3.576280    0.681070   -0.052770
     13          6           0       -3.501350    2.086800    0.215920
     14          6           0       -2.302630    2.709710    0.319410
     15          6           0       -2.526430   -1.408780   -0.496240
     16          6           0       -3.700370   -2.053270   -0.747660
     17          6           0       -4.885700   -1.292520   -0.635510
     18          6           0       -4.812960    0.044390   -0.295460
     19          6           0        4.801560   -0.478240   -0.337200
     20          6           0        4.499110   -1.837340   -0.315470
     21          6           0        3.182890   -2.337330   -0.167990
     22          6           0        2.136620   -1.426660   -0.063960
     23          6           0        0.680670   -1.492080    0.159550
     24          1           0        3.023530   -3.409710   -0.144520
     25          1           0        5.310370   -2.550680   -0.410860
     26          1           0        5.832510   -0.158250   -0.444560
     27          1           0        4.795420    2.402970   -0.261190
     28          1           0        2.797770    3.771030   -0.013580
     29          1           0        0.074810    3.828080    0.297850
     30          1           0       -2.259330    3.783710    0.466580
     31          1           0       -4.425280    2.650630    0.289590
     32          1           0       -5.719710    0.635710   -0.226680
     33          1           0       -1.481540   -2.023130    1.871790
     34          1           0       -3.734200   -3.099790   -1.030400
     35          1           0       -5.846240   -1.758040   -0.829370
     36          6           0        0.069400   -2.718810    0.581840
     37          6           0       -0.970760   -2.867930    1.429760
     38          1           0        0.580030   -3.621780    0.252290
     39          1           0       -1.311440   -3.854680    1.719390
 ---------------------------------------------------------------------
                    Distance matrix (angstroms):
                    1          2          3          4          5
     1  C    0.000000
     2  C    1.389576   0.000000
     3  C    2.459550   1.401452   0.000000
     4  C    2.899959   2.440245   1.394786   0.000000
     5  C    1.445816   2.395273   2.785765   2.467342   0.000000
     6  C    2.461159   2.760950   2.408079   1.446926   1.372633
     7  C    3.645293   2.316074   1.418446   2.528746   4.189116
     8  C    4.847648   3.618665   2.408333   2.908441   5.099161
     9  C    5.068402   4.106550   2.709773   2.442470   4.899684
    10  C    4.295481   3.671283   2.358518   1.403089   3.800884
    11  C    6.146262   4.844464   3.774514   4.339163   6.503808
    12  C    7.339982   6.104554   4.902049   5.160033   7.507771
    13  C    7.449496   6.365568   5.019941   4.884048   7.341554
    14  C    6.482348   5.545231   4.148346   3.739927   6.201130
    15  C    6.567864   5.202943   4.431333   5.288252   7.179770
    16  C    7.894419   6.529003   5.791828   6.619381   8.530736
    17  C    8.833743   7.490324   6.562281   7.165200   9.297571
    18  C    8.583233   7.299351   6.183566   6.539043   8.842395
    19  C    1.418172   2.368493   3.695811   4.308985   2.592328
    20  C    2.430212   2.696107   4.089623   5.045118   3.818294
    21  C    2.871286   2.382426   3.580596   4.804197   4.304874
    22  C    2.504320   1.408879   2.293913   3.618632   3.750475
    23  C    3.672272   2.314935   2.303198   3.669968   4.653315
    24  H    3.954513   3.392169   4.465808   5.762627   5.389122
    25  H    3.406101   3.780574   5.173285   6.115070   4.714872
    26  H    2.180360   3.369425   4.617556   5.022924   2.899113
    27  H    2.189219   3.383612   3.870832   3.443655   1.085169
    28  H    3.438966   3.846079   3.391964   2.185561   2.125587
    29  H    5.007668   4.591183   3.363298   2.170117   4.237434
    30  H    6.901407   6.130728   4.736603   4.025812   6.398852
    31  H    8.483440   7.431236   6.071730   5.835026   8.298542
    32  H    9.480139   8.233179   7.050025   7.257736   9.633344
    33  H    6.168685   4.840167   4.327283   5.339329   6.923364
    34  H    8.342496   6.982961   6.426879   7.383271   9.115634
    35  H    9.880727   8.531934   7.635714   8.246014  10.369566
    36  C    4.944423   3.652812   3.696709   5.029034   6.017657
    37  C    6.020545   4.703685   4.476554   5.669757   6.966128
    38  H    5.206542   4.051815   4.406369   5.789695   6.436840
    39  H    6.942093   5.663271   5.536606   6.747677   7.959194
                    6          7          8          9         10
     6  C    0.000000
     7  C    3.776307   0.000000
     8  C    4.342566   1.423124   0.000000
     9  C    3.827779   2.449330   1.449893   0.000000
    10  C    2.575006   2.863627   2.510231   1.409072   0.000000
    11  C    5.770946   2.552699   1.450129   2.479466   3.789313
    12  C    6.591067   3.842367   2.507222   2.859084   4.260485
    13  C    6.236876   4.288644   2.869558   2.448189   3.700394
    14  C    5.016495   3.763792   2.487889   1.438809   2.444564
    15  C    6.658747   3.063513   2.513943   3.782096   4.989403
    16  C    7.998921   4.424513   3.796503   4.936847   6.223122
    17  C    8.589411   5.255525   4.297443   5.124044   6.504264
    18  C    7.970389   5.012026   3.791769   4.268326   5.665612
    19  C    3.813396   4.661159   5.985502   6.383770   5.696430
    20  C    4.879623   4.673058   6.082613   6.772054   6.349233
    21  C    5.052494   3.749463   5.156575   6.076399   5.938688
    22  C    4.155717   2.365401   3.779604   4.691366   4.636022
    23  C    4.649195   1.466659   2.698800   3.899929   4.274499
    24  H    6.109620   4.362379   5.709522   6.784671   6.808953
    25  H    5.866580   5.706791   7.121501   7.850191   7.430038
    26  H    4.252764   5.683629   6.968422   7.248382   6.426004
    27  H    2.125693   5.273431   6.167677   5.884093   4.693187
    28  H    1.085175   4.688208   5.037307   4.246812   2.857858
    29  H    2.881763   3.947365   3.475269   2.150257   1.085297
    30  H    5.104484   4.609753   3.457095   2.166056   2.624815
    31  H    7.133968   5.372488   3.953993   3.433425   4.566422
    32  H    8.669811   5.956320   4.655052   4.881252   6.244155
    33  H    6.585084   3.070323   3.150229   4.368080   5.302932
    34  H    8.713304   5.056707   4.659351   5.895835   7.124479
    35  H    9.667944   6.318236   5.382290   6.179900   7.564985
    36  C    6.047423   2.645280   3.501096   4.863864   5.478935
    37  C    6.821682   3.253868   3.671066   5.015479   5.850995
    38  H    6.665438   3.532355   4.495854   5.854572   6.384701
    39  H    7.875986   4.327851   4.700946   6.047824   6.924461
                   11         12         13         14         15
    11  C    0.000000
    12  C    1.434409   0.000000
    13  C    2.470286   1.433138   0.000000
    14  C    2.823637   2.424063   1.354864   0.000000
    15  C    1.391654   2.380404   3.698205   4.204442   0.000000
    16  C    2.466458   2.823984   4.255382   5.077233   1.362613
    17  C    2.847611   2.439103   3.749822   4.858186   2.366235
    18  C    2.460654   1.411962   2.480578   3.712648   2.716659
    19  C    7.177450   8.462453   8.707680   7.814325   7.388548
    20  C    7.085115   8.463056   8.926848   8.206242   7.040920
    21  C    5.987021   7.403404   8.024922   7.470013   5.793642
    22  C    4.696153   6.089325   6.649018   6.079759   4.683078
    23  C    3.366306   4.784275   5.504621   5.155645   3.274521
    24  H    6.332101   7.765333   8.539063   8.125916   5.910117
    25  H    8.065516   9.462821   9.977248   9.282390   7.920016
    26  H    8.200768   9.454273   9.622756   8.659639   8.452122
    27  H    7.576242   8.549488   8.316489   7.128359   8.257976
    28  H    6.438146   7.083636   6.524432   5.220284   7.443823
    29  H    4.623213   4.832915   3.978403   2.627439   5.900994
    30  H    3.908226   3.410346   2.117770   1.084901   5.287752
    31  H    3.446325   2.171907   1.084886   2.123681   4.549942
    32  H    3.434920   2.150952   2.687504   4.034368   3.801268
    33  H    2.920651   3.924865   4.869606   5.048153   2.660223
    34  H    3.440524   3.908401   5.339312   6.133651   2.145589
    35  H    3.932469   3.421269   4.623195   5.817014   3.354713
    36  C    3.657217   5.025226   5.998170   5.929943   3.101091
    37  C    3.481677   4.645646   5.694440   5.840961   2.873796
    38  H    4.620256   5.990200   7.017611   6.957155   3.886870
    39  H    4.330313   5.370575   6.508250   6.784808   3.516766
                   16         17         18         19         20
    16  C    0.000000
    17  C    1.412914   0.000000
    18  C    2.417130   1.381395   0.000000
    19  C    8.656328   9.725999   9.628805   0.000000
    20  C    8.213701   9.406057   9.500313   1.392516   0.000000
    21  C    6.913463   8.149377   8.344007   2.470818   1.415689
    22  C    5.910206   7.046818   7.107337   2.841842   2.411073
    23  C    4.509044   5.626404   5.722565   4.272747   3.863332
    24  H    6.885822   8.202407   8.565288   3.433953   2.163078
    25  H    9.030741  10.275859  10.451293   2.135257   1.084480
    26  H    9.724133  10.779752  10.648442   1.084794   2.148014
    27  H    9.605893  10.369226   9.893687   2.882219   4.250997
    28  H    8.757121   9.222909   8.478827   4.709161   5.868519
    29  H    7.066495   7.190157   6.209559   6.425718   7.214401
    30  H    6.133621   5.820699   4.591758   8.286522   8.825209
    31  H    4.871145   4.076301   2.699086   9.763056  10.007633
    32  H    3.402906   2.140277   1.084705  10.580653  10.514188
    33  H    3.433021   4.290530   4.479952   6.836934   6.370777
    34  H    1.084569   2.179017   3.404369   8.956129   8.360161
    35  H    2.167624   1.084863   2.145106  10.735724  10.358410
    36  C    4.052367   5.298043   5.678236   5.315837   4.604833
    37  C    3.585471   4.698299   5.120595   6.492491   5.833303
    38  H    4.667113   6.007316   6.544095   5.296287   4.343474
    39  H    3.877938   4.988542   5.614536   7.280019   6.478642
                   21         22         23         24         25
    21  C    0.000000
    22  C    1.390979   0.000000
    23  C    2.661360   1.474458   0.000000
    24  H    1.084410   2.173841   3.042820   0.000000
    25  H    2.151900   3.384738   4.783317   2.457337   0.000000
    26  H    3.441710   3.925981   5.355885   4.307248   2.448977
    27  H    5.007932   4.666282   5.681514   6.077866   4.982592
    28  H    6.122436   5.239813   5.675598   7.185481   6.814324
    29  H    6.920220   5.656347   5.356332   7.827914   8.282629
    30  H    8.215082   6.837675   6.047465   8.945800   9.909327
    31  H    9.108972   7.733552   6.576449   9.612541  11.060160
    32  H    9.386091   8.124147   6.755851   9.634128  11.482581
    33  H    5.100621   4.146563   2.808724   5.126770   7.184625
    34  H    7.012220   6.180607   4.846833   6.822591   9.082378
    35  H    9.071835   8.026314   6.606758   9.048196  11.192559
    36  C    3.225150   2.521925   1.434171   3.119587   5.336805
    37  C    4.481869   3.736880   2.496721   4.327382   6.552948
    38  H    2.932802   2.709527   2.134093   2.484577   4.895216
    39  H    5.105248   4.578726   3.461717   4.739633   7.077199
                   26         27         28         29         30
    26  H    0.000000
    27  H    2.769301   0.000000
    28  H    4.983436   2.433825   0.000000
    29  H    7.042237   4.962623   2.741305   0.000000
    30  H    9.046939   7.225344   5.079860   2.340651   0.000000
    31  H   10.660724   9.240455   7.315713   4.651588   2.450823
    32  H   11.581521  10.662662   9.078717   6.636476   4.729138
    33  H    7.895479   7.971210   7.445764   6.255891   6.024862
    34  H   10.025857  10.179709   9.534607   8.016744   7.197136
    35  H   11.794092  11.440357  10.293446   8.217919   6.727288
    36  C    6.389319   7.019871   7.065165   6.553049   6.907897
    37  C    7.559095   7.993155   7.769224   6.871025   6.843423
    38  H    6.330102   7.370942   7.722868   7.467110   7.934051
    39  H    8.329604   8.965189   8.834039   7.935192   7.798271
                   31         32         33         34         35
    31  H    0.000000
    32  H    2.449895   0.000000
    33  H    5.745694   5.425412   0.000000
    34  H    5.940311   4.306063   3.828365   0.000000
    35  H    4.765246   2.471697   5.139761   2.510263   0.000000
    36  C    7.008455   6.739459   2.133860   4.148715   6.157060
    37  C    6.609705   6.129585   1.081653   3.707121   5.486878
    38  H    8.024814   7.618553   3.070592   4.531043   6.777939
    39  H    7.352509   6.586625   1.845734   3.741787   5.608608
                   36         37         38         39
    36  C    0.000000
    37  C    1.350236   0.000000
    38  H    1.088440   2.087983   0.000000
    39  H    2.119184   1.083339   2.405054   0.000000
 Stoichiometry    C25H14(3)
 Framework group  C1[X(C25H14)]
 Deg. of freedom   111
 Full point group                 C1      NOp   1
 Largest Abelian subgroup         C1      NOp   1
 Largest concise Abelian subgroup C1      NOp   1
                         Standard orientation:                         
 ---------------------------------------------------------------------
 Center     Atomic      Atomic             Coordinates (Angstroms)
 Number     Number       Type             X           Y           Z
 ---------------------------------------------------------------------
      1          6           0        3.759061    0.475188   -0.213201
      2          6           0        2.482830   -0.061301   -0.093461
      3          6           0        1.324721    0.716130    0.042379
      4          6           0        1.380531    2.109479    0.072199
      5          6           0        3.827661    1.918968   -0.178871
      6          6           0        2.701002    2.690479   -0.039121
      7          6           0        0.178320   -0.114420    0.131509
      8          6           0       -1.077339    0.554911    0.107059
      9          6           0       -1.054719    1.999861    0.224519
     10          6           0        0.139562    2.747620    0.218589
     11          6           0       -2.361520   -0.078609   -0.121871
     12          6           0       -3.576279    0.681072   -0.052771
     13          6           0       -3.501349    2.086802    0.215919
     14          6           0       -2.302628    2.709711    0.319409
     15          6           0       -2.526430   -1.408779   -0.496241
     16          6           0       -3.700370   -2.053268   -0.747661
     17          6           0       -4.885700   -1.292518   -0.635511
     18          6           0       -4.812959    0.044392   -0.295461
     19          6           0        4.801560   -0.478242   -0.337201
     20          6           0        4.499110   -1.837342   -0.315471
     21          6           0        3.182890   -2.337331   -0.167991
     22          6           0        2.136620   -1.426661   -0.063961
     23          6           0        0.680670   -1.492080    0.159549
     24          1           0        3.023529   -3.409711   -0.144521
     25          1           0        5.310369   -2.550682   -0.410861
     26          1           0        5.832510   -0.158252   -0.444561
     27          1           0        4.795421    2.402968   -0.261191
     28          1           0        2.797772    3.771029   -0.013581
     29          1           0        0.074812    3.828080    0.297849
     30          1           0       -2.259328    3.783711    0.466579
     31          1           0       -4.425278    2.650632    0.289589
     32          1           0       -5.719709    0.635712   -0.226681
     33          1           0       -1.481540   -2.023129    1.871789
     34          1           0       -3.734201   -3.099788   -1.030401
     35          1           0       -5.846240   -1.758038   -0.829371
     36          6           0        0.069399   -2.718810    0.581839
     37          6           0       -0.970761   -2.867930    1.429759
     38          1           0        0.580029   -3.621780    0.252289
     39          1           0       -1.311441   -3.854679    1.719389
 ---------------------------------------------------------------------
 Rotational constants (GHZ):      0.4572967      0.1803048      0.1335041
 Standard basis: 6-311+G(d,p) (5D, 7F)
 There are   659 symmetry adapted cartesian basis functions of A   symmetry.
 There are   634 symmetry adapted basis functions of A   symmetry.
   634 basis functions,  1012 primitive gaussians,   659 cartesian basis functions
    83 alpha electrons       81 beta electrons
       nuclear repulsion energy      1920.8608546782 Hartrees.
 NAtoms=   39 NActive=   39 NUniq=   39 SFac= 1.00D+00 NAtFMM=   60 NAOKFM=F Big=F
 Integral buffers will be    131072 words long.
 Raffenetti 2 integral format.
 Two-electron integral symmetry is turned on.
 One-electron integrals computed using PRISM.
 NBasis=   634 RedAO= T EigKep=  1.07D-06  NBF=   634
 NBsUse=   618 1.00D-06 EigRej=  8.29D-07 NBFU=   618
 ExpMin= 4.38D-02 ExpMax= 4.56D+03 ExpMxC= 6.82D+02 IAcc=2 IRadAn=         4 AccDes= 0.00D+00
 Harris functional with IExCor=  402 and IRadAn=       4 diagonalized for initial guess.
 HarFok:  IExCor=  402 AccDes= 0.00D+00 IRadAn=         4 IDoV= 1 UseB2=F ITyADJ=14
 ICtDFT=  3500011 ScaDFX=  1.000000  1.000000  1.000000  1.000000
 FoFCou: FMM=F IPFlag=           0 FMFlag=      100000 FMFlg1=           0
         NFxFlg=           0 DoJE=T BraDBF=F KetDBF=T FulRan=T
         wScrn=  0.000000 ICntrl=     500 IOpCl=  0 I1Cent=   200000004 NGrid=           0
         NMat0=    1 NMatS0=      1 NMatT0=    0 NMatD0=    1 NMtDS0=    0 NMtDT0=    0
 Petite list used in FoFCou.
 Initial guess <Sx>= 0.0000 <Sy>= 0.0000 <Sz>= 1.0000 <S**2>= 2.0000 S= 1.0000
 Requested convergence on RMS density matrix=1.00D-08 within 128 cycles.
 Requested convergence on MAX density matrix=1.00D-06.
 Requested convergence on             energy=1.00D-06.
 No special actions if energy rises.
 Restarting incremental Fock formation.
 SCF Done:  E(UB3LYP) =  -961.222820164     A.U. after   23 cycles
            NFock= 23  Conv=0.78D-08     -V/T= 2.0044
 <Sx>= 0.0000 <Sy>= 0.0000 <Sz>= 1.0000 <S**2>= 2.0433 S= 1.0144
 <L.S>= 0.000000000000E+00
 Annihilation of the first spin contaminant:
 S**2 before annihilation     2.0433,   after     2.0012

 **********************************************************************

            Population analysis using the SCF density.

 **********************************************************************

 Orbital symmetries:
 Alpha Orbitals:
       Occupied  (A) (A) (A) (A) (A) (A) (A) (A) (A) (A) (A) (A)
                 (A) (A) (A) (A) (A) (A) (A) (A) (A) (A) (A) (A)
                 (A) (A) (A) (A) (A) (A) (A) (A) (A) (A) (A) (A)
                 (A) (A) (A) (A) (A) (A) (A) (A) (A) (A) (A) (A)
                 (A) (A) (A) (A) (A) (A) (A) (A) (A) (A) (A) (A)
                 (A) (A) (A) (A) (A) (A) (A) (A) (A) (A) (A) (A)
                 (A) (A) (A) (A) (A) (A) (A) (A) (A) (A) (A)
       Virtual   (A) (A) (A) (A) (A) (A) (A) (A) (A) (A) (A) (A)
                 (A) (A) (A) (A) (A) (A) (A) (A) (A) (A) (A) (A)
                 (A) (A) (A) (A) (A) (A) (A) (A) (A) (A) (A) (A)
                 (A) (A) (A) (A) (A) (A) (A) (A) (A) (A) (A) (A)
                 (A) (A) (A) (A) (A) (A) (A) (A) (A) (A) (A) (A)
                 (A) (A) (A) (A) (A) (A) (A) (A) (A) (A) (A) (A)
                 (A) (A) (A) (A) (A) (A) (A) (A) (A) (A) (A) (A)
                 (A) (A) (A) (A) (A) (A) (A) (A) (A) (A) (A) (A)
                 (A) (A) (A) (A) (A) (A) (A) (A) (A) (A) (A) (A)
                 (A) (A) (A) (A) (A) (A) (A) (A) (A) (A) (A) (A)
                 (A) (A) (A) (A) (A) (A) (A) (A) (A) (A) (A) (A)
                 (A) (A) (A) (A) (A) (A) (A) (A) (A) (A) (A) (A)
                 (A) (A) (A) (A) (A) (A) (A) (A) (A) (A) (A) (A)
                 (A) (A) (A) (A) (A) (A) (A) (A) (A) (A) (A) (A)
                 (A) (A) (A) (A) (A) (A) (A) (A) (A) (A) (A) (A)
                 (A) (A) (A) (A) (A) (A) (A) (A) (A) (A) (A) (A)
                 (A) (A) (A) (A) (A) (A) (A) (A) (A) (A) (A) (A)
                 (A) (A) (A) (A) (A) (A) (A) (A) (A) (A) (A) (A)
                 (A) (A) (A) (A) (A) (A) (A) (A) (A) (A) (A) (A)
                 (A) (A) (A) (A) (A) (A) (A) (A) (A) (A) (A) (A)
                 (A) (A) (A) (A) (A) (A) (A) (A) (A) (A) (A) (A)
                 (A) (A) (A) (A) (A) (A) (A) (A) (A) (A) (A) (A)
                 (A) (A) (A) (A) (A) (A) (A) (A) (A) (A) (A) (A)
                 (A) (A) (A) (A) (A) (A) (A) (A) (A) (A) (A) (A)
                 (A) (A) (A) (A) (A) (A) (A) (A) (A) (A) (A) (A)
                 (A) (A) (A) (A) (A) (A) (A) (A) (A) (A) (A) (A)
                 (A) (A) (A) (A) (A) (A) (A) (A) (A) (A) (A) (A)
                 (A) (A) (A) (A) (A) (A) (A) (A) (A) (A) (A) (A)
                 (A) (A) (A) (A) (A) (A) (A) (A) (A) (A) (A) (A)
                 (A) (A) (A) (A) (A) (A) (A) (A) (A) (A) (A) (A)
                 (A) (A) (A) (A) (A) (A) (A) (A) (A) (A) (A) (A)
                 (A) (A) (A) (A) (A) (A) (A) (A) (A) (A) (A) (A)
                 (A) (A) (A) (A) (A) (A) (A) (A) (A) (A) (A) (A)
                 (A) (A) (A) (A) (A) (A) (A) (A) (A) (A) (A) (A)
                 (A) (A) (A) (A) (A) (A) (A) (A) (A) (A) (A) (A)
                 (A) (A) (A) (A) (A) (A) (A) (A) (A) (A) (A) (A)
                 (A) (A) (A) (A) (A) (A) (A) (A) (A) (A) (A) (A)
                 (A) (A) (A) (A) (A) (A) (A) (A) (A) (A) (A) (A)
                 (A) (A) (A) (A) (A) (A) (A) (A) (A) (A) (A) (A)
                 (A) (A) (A) (A) (A) (A) (A) (A) (A) (A) (A) (A)
                 (A) (A) (A) (A) (A) (A) (A) (A) (A) (A) (A) (A)
                 (A) (A) (A) (A) (A) (A) (A) (A) (A) (A) (A) (A)
                 (A) (A) (A) (A) (A) (A) (A) (A) (A) (A) (A) (A)
                 (A) (A) (A) (A) (A) (A) (A) (A) (A) (A) (A) (A)
                 (A) (A) (A) (A) (A) (A) (A)
 Beta  Orbitals:
       Occupied  (A) (A) (A) (A) (A) (A) (A) (A) (A) (A) (A) (A)
                 (A) (A) (A) (A) (A) (A) (A) (A) (A) (A) (A) (A)
                 (A) (A) (A) (A) (A) (A) (A) (A) (A) (A) (A) (A)
                 (A) (A) (A) (A) (A) (A) (A) (A) (A) (A) (A) (A)
                 (A) (A) (A) (A) (A) (A) (A) (A) (A) (A) (A) (A)
                 (A) (A) (A) (A) (A) (A) (A) (A) (A) (A) (A) (A)
                 (A) (A) (A) (A) (A) (A) (A) (A) (A)
       Virtual   (A) (A) (A) (A) (A) (A) (A) (A) (A) (A) (A) (A)
                 (A) (A) (A) (A) (A) (A) (A) (A) (A) (A) (A) (A)
                 (A) (A) (A) (A) (A) (A) (A) (A) (A) (A) (A) (A)
                 (A) (A) (A) (A) (A) (A) (A) (A) (A) (A) (A) (A)
                 (A) (A) (A) (A) (A) (A) (A) (A) (A) (A) (A) (A)
                 (A) (A) (A) (A) (A) (A) (A) (A) (A) (A) (A) (A)
                 (A) (A) (A) (A) (A) (A) (A) (A) (A) (A) (A) (A)
                 (A) (A) (A) (A) (A) (A) (A) (A) (A) (A) (A) (A)
                 (A) (A) (A) (A) (A) (A) (A) (A) (A) (A) (A) (A)
                 (A) (A) (A) (A) (A) (A) (A) (A) (A) (A) (A) (A)
                 (A) (A) (A) (A) (A) (A) (A) (A) (A) (A) (A) (A)
                 (A) (A) (A) (A) (A) (A) (A) (A) (A) (A) (A) (A)
                 (A) (A) (A) (A) (A) (A) (A) (A) (A) (A) (A) (A)
                 (A) (A) (A) (A) (A) (A) (A) (A) (A) (A) (A) (A)
                 (A) (A) (A) (A) (A) (A) (A) (A) (A) (A) (A) (A)
                 (A) (A) (A) (A) (A) (A) (A) (A) (A) (A) (A) (A)
                 (A) (A) (A) (A) (A) (A) (A) (A) (A) (A) (A) (A)
                 (A) (A) (A) (A) (A) (A) (A) (A) (A) (A) (A) (A)
                 (A) (A) (A) (A) (A) (A) (A) (A) (A) (A) (A) (A)
                 (A) (A) (A) (A) (A) (A) (A) (A) (A) (A) (A) (A)
                 (A) (A) (A) (A) (A) (A) (A) (A) (A) (A) (A) (A)
                 (A) (A) (A) (A) (A) (A) (A) (A) (A) (A) (A) (A)
                 (A) (A) (A) (A) (A) (A) (A) (A) (A) (A) (A) (A)
                 (A) (A) (A) (A) (A) (A) (A) (A) (A) (A) (A) (A)
                 (A) (A) (A) (A) (A) (A) (A) (A) (A) (A) (A) (A)
                 (A) (A) (A) (A) (A) (A) (A) (A) (A) (A) (A) (A)
                 (A) (A) (A) (A) (A) (A) (A) (A) (A) (A) (A) (A)
                 (A) (A) (A) (A) (A) (A) (A) (A) (A) (A) (A) (A)
                 (A) (A) (A) (A) (A) (A) (A) (A) (A) (A) (A) (A)
                 (A) (A) (A) (A) (A) (A) (A) (A) (A) (A) (A) (A)
                 (A) (A) (A) (A) (A) (A) (A) (A) (A) (A) (A) (A)
                 (A) (A) (A) (A) (A) (A) (A) (A) (A) (A) (A) (A)
                 (A) (A) (A) (A) (A) (A) (A) (A) (A) (A) (A) (A)
                 (A) (A) (A) (A) (A) (A) (A) (A) (A) (A) (A) (A)
                 (A) (A) (A) (A) (A) (A) (A) (A) (A) (A) (A) (A)
                 (A) (A) (A) (A) (A) (A) (A) (A) (A) (A) (A) (A)
                 (A) (A) (A) (A) (A) (A) (A) (A) (A) (A) (A) (A)
                 (A) (A) (A) (A) (A) (A) (A) (A) (A) (A) (A) (A)
                 (A) (A) (A) (A) (A) (A) (A) (A) (A) (A) (A) (A)
                 (A) (A) (A) (A) (A) (A) (A) (A) (A) (A) (A) (A)
                 (A) (A) (A) (A) (A) (A) (A) (A) (A) (A) (A) (A)
                 (A) (A) (A) (A) (A) (A) (A) (A) (A) (A) (A) (A)
                 (A) (A) (A) (A) (A) (A) (A) (A) (A) (A) (A) (A)
                 (A) (A) (A) (A) (A) (A) (A) (A) (A) (A) (A) (A)
                 (A) (A) (A) (A) (A) (A) (A) (A) (A)
 The electronic state is 3-A.
 Alpha  occ. eigenvalues --  -10.21040 -10.20644 -10.19753 -10.19723 -10.19654
 Alpha  occ. eigenvalues --  -10.19618 -10.19132 -10.19085 -10.19052 -10.19028
 Alpha  occ. eigenvalues --  -10.19001 -10.18863 -10.18853 -10.18786 -10.18767
 Alpha  occ. eigenvalues --  -10.18675 -10.18520 -10.18425 -10.18365 -10.18324
 Alpha  occ. eigenvalues --  -10.18146 -10.18090 -10.18010 -10.17543 -10.16916
 Alpha  occ. eigenvalues --   -0.91639  -0.88890  -0.85851  -0.84452  -0.82969
 Alpha  occ. eigenvalues --   -0.79585  -0.78950  -0.78455  -0.75504  -0.74718
 Alpha  occ. eigenvalues --   -0.72894  -0.71540  -0.69715  -0.64847  -0.64602
 Alpha  occ. eigenvalues --   -0.62727  -0.61876  -0.59856  -0.59298  -0.56594
 Alpha  occ. eigenvalues --   -0.55147  -0.52862  -0.51943  -0.51695  -0.50784
 Alpha  occ. eigenvalues --   -0.48457  -0.48152  -0.47402  -0.46297  -0.45424
 Alpha  occ. eigenvalues --   -0.44637  -0.43774  -0.43173  -0.42552  -0.42258
 Alpha  occ. eigenvalues --   -0.41682  -0.40882  -0.40634  -0.39901  -0.39777
 Alpha  occ. eigenvalues --   -0.39217  -0.37094  -0.36958  -0.36257  -0.35750
 Alpha  occ. eigenvalues --   -0.35163  -0.34162  -0.33638  -0.33454  -0.31092
 Alpha  occ. eigenvalues --   -0.29419  -0.29055  -0.25883  -0.25354  -0.24085
 Alpha  occ. eigenvalues --   -0.22606  -0.21435  -0.18914
 Alpha virt. eigenvalues --   -0.06964  -0.05568  -0.02640  -0.01932  -0.00501
 Alpha virt. eigenvalues --    0.00165   0.00553   0.00747   0.00807   0.01792
 Alpha virt. eigenvalues --    0.01840   0.02818   0.03090   0.03230   0.03351
 Alpha virt. eigenvalues --    0.03773   0.04129   0.04706   0.05382   0.05462
 Alpha virt. eigenvalues --    0.05770   0.06005   0.06933   0.07141   0.07462
 Alpha virt. eigenvalues --    0.07742   0.07799   0.07970   0.08655   0.09072
 Alpha virt. eigenvalues --    0.09549   0.10088   0.10381   0.10585   0.10807
 Alpha virt. eigenvalues --    0.11142   0.11744   0.12311   0.12555   0.13011
 Alpha virt. eigenvalues --    0.13190   0.13588   0.13812   0.14099   0.14698
 Alpha virt. eigenvalues --    0.14887   0.15281   0.15411   0.15878   0.15939
 Alpha virt. eigenvalues --    0.16417   0.16652   0.16714   0.16955   0.17543
 Alpha virt. eigenvalues --    0.17664   0.17850   0.18154   0.18658   0.18714
 Alpha virt. eigenvalues --    0.18921   0.19026   0.19208   0.19640   0.19855
 Alpha virt. eigenvalues --    0.20084   0.20234   0.20603   0.20767   0.21090
 Alpha virt. eigenvalues --    0.21225   0.21433   0.21817   0.22053   0.22216
 Alpha virt. eigenvalues --    0.22247   0.22692   0.23011   0.23170   0.23475
 Alpha virt. eigenvalues --    0.24165   0.24450   0.24681   0.24756   0.25231
 Alpha virt. eigenvalues --    0.25455   0.25531   0.25774   0.26149   0.26486
 Alpha virt. eigenvalues --    0.26698   0.27031   0.27150   0.27715   0.27872
 Alpha virt. eigenvalues --    0.28428   0.28552   0.28752   0.28994   0.29470
 Alpha virt. eigenvalues --    0.29606   0.29776   0.30528   0.30769   0.31012
 Alpha virt. eigenvalues --    0.31502   0.31732   0.32148   0.32466   0.32843
 Alpha virt. eigenvalues --    0.33291   0.33688   0.34042   0.34437   0.34983
 Alpha virt. eigenvalues --    0.36036   0.36348   0.36948   0.37381   0.37802
 Alpha virt. eigenvalues --    0.38537   0.38977   0.39492   0.40361   0.41202
 Alpha virt. eigenvalues --    0.41662   0.42661   0.43802   0.44515   0.44988
 Alpha virt. eigenvalues --    0.46350   0.47106   0.47457   0.48438   0.48963
 Alpha virt. eigenvalues --    0.49778   0.51557   0.52403   0.52524   0.52748
 Alpha virt. eigenvalues --    0.53150   0.53727   0.53853   0.54293   0.54500
 Alpha virt. eigenvalues --    0.54724   0.55535   0.55762   0.55982   0.56654
 Alpha virt. eigenvalues --    0.56752   0.57324   0.58019   0.58353   0.58659
 Alpha virt. eigenvalues --    0.58758   0.59319   0.59559   0.60562   0.60667
 Alpha virt. eigenvalues --    0.60975   0.61863   0.61931   0.62786   0.63374
 Alpha virt. eigenvalues --    0.64041   0.64225   0.65229   0.65408   0.65712
 Alpha virt. eigenvalues --    0.66108   0.66627   0.66842   0.67459   0.67827
 Alpha virt. eigenvalues --    0.68229   0.68513   0.69189   0.69471   0.69912
 Alpha virt. eigenvalues --    0.70362   0.70983   0.71039   0.71550   0.71743
 Alpha virt. eigenvalues --    0.72219   0.72699   0.72897   0.73345   0.73602
 Alpha virt. eigenvalues --    0.73757   0.74223   0.74910   0.75428   0.75725
 Alpha virt. eigenvalues --    0.76430   0.77357   0.77753   0.78267   0.79266
 Alpha virt. eigenvalues --    0.80103   0.81008   0.81328   0.81614   0.82594
 Alpha virt. eigenvalues --    0.84135   0.84544   0.85461   0.85971   0.87268
 Alpha virt. eigenvalues --    0.87548   0.88244   0.89292   0.89469   0.89936
 Alpha virt. eigenvalues --    0.91213   0.91603   0.92072   0.92249   0.92441
 Alpha virt. eigenvalues --    0.93078   0.93228   0.94005   0.94278   0.94812
 Alpha virt. eigenvalues --    0.95503   0.95772   0.96499   0.96992   0.97390
 Alpha virt. eigenvalues --    0.97793   0.98453   0.99525   1.00095   1.00704
 Alpha virt. eigenvalues --    1.00793   1.01439   1.02503   1.03405   1.03871
 Alpha virt. eigenvalues --    1.04621   1.05310   1.06090   1.06241   1.07146
 Alpha virt. eigenvalues --    1.07794   1.08146   1.09350   1.09709   1.10516
 Alpha virt. eigenvalues --    1.11717   1.12361   1.12616   1.13764   1.14299
 Alpha virt. eigenvalues --    1.15083   1.15243   1.17707   1.18246   1.19208
 Alpha virt. eigenvalues --    1.19829   1.21775   1.23130   1.25151   1.26455
 Alpha virt. eigenvalues --    1.28323   1.29575   1.30874   1.33100   1.34220
 Alpha virt. eigenvalues --    1.34659   1.35811   1.37328   1.40290   1.41195
 Alpha virt. eigenvalues --    1.42869   1.44410   1.46197   1.46467   1.47087
 Alpha virt. eigenvalues --    1.47660   1.48184   1.48893   1.49447   1.49965
 Alpha virt. eigenvalues --    1.50790   1.51474   1.51663   1.53056   1.53811
 Alpha virt. eigenvalues --    1.54249   1.55065   1.55631   1.56091   1.56351
 Alpha virt. eigenvalues --    1.56903   1.57749   1.58622   1.59355   1.60888
 Alpha virt. eigenvalues --    1.61225   1.62106   1.62866   1.64058   1.64665
 Alpha virt. eigenvalues --    1.66175   1.67219   1.68463   1.69039   1.69574
 Alpha virt. eigenvalues --    1.70653   1.71772   1.72412   1.73466   1.74116
 Alpha virt. eigenvalues --    1.74219   1.74921   1.75687   1.76443   1.77553
 Alpha virt. eigenvalues --    1.78262   1.78978   1.79902   1.80891   1.82296
 Alpha virt. eigenvalues --    1.82510   1.83409   1.83857   1.84823   1.85197
 Alpha virt. eigenvalues --    1.85904   1.86474   1.87929   1.88211   1.89229
 Alpha virt. eigenvalues --    1.89620   1.90648   1.91253   1.91647   1.92219
 Alpha virt. eigenvalues --    1.92745   1.93240   1.93766   1.94462   1.94917
 Alpha virt. eigenvalues --    1.95906   1.97666   1.97966   1.99051   2.00212
 Alpha virt. eigenvalues --    2.00641   2.01125   2.01415   2.03003   2.03326
 Alpha virt. eigenvalues --    2.04563   2.05523   2.07163   2.07318   2.07540
 Alpha virt. eigenvalues --    2.08890   2.10056   2.11787   2.13193   2.13697
 Alpha virt. eigenvalues --    2.15277   2.16215   2.16272   2.17684   2.18494
 Alpha virt. eigenvalues --    2.20684   2.21878   2.22777   2.23629   2.24295
 Alpha virt. eigenvalues --    2.25861   2.27621   2.30081   2.30831   2.32160
 Alpha virt. eigenvalues --    2.33179   2.35668   2.36119   2.37481   2.38833
 Alpha virt. eigenvalues --    2.39877   2.42353   2.42990   2.43271   2.43880
 Alpha virt. eigenvalues --    2.44712   2.45274   2.47300   2.48567   2.52206
 Alpha virt. eigenvalues --    2.54209   2.56100   2.57095   2.58858   2.61686
 Alpha virt. eigenvalues --    2.61816   2.63474   2.63735   2.64527   2.65305
 Alpha virt. eigenvalues --    2.65766   2.68466   2.69458   2.70497   2.70743
 Alpha virt. eigenvalues --    2.71758   2.71898   2.72191   2.72425   2.73007
 Alpha virt. eigenvalues --    2.73793   2.74241   2.74754   2.75811   2.76410
 Alpha virt. eigenvalues --    2.76822   2.77175   2.77869   2.78374   2.79032
 Alpha virt. eigenvalues --    2.79093   2.79973   2.80964   2.81221   2.82536
 Alpha virt. eigenvalues --    2.82935   2.83678   2.84046   2.85134   2.85630
 Alpha virt. eigenvalues --    2.87029   2.88211   2.88750   2.89089   2.91247
 Alpha virt. eigenvalues --    2.91626   2.91983   2.93300   2.94901   2.96802
 Alpha virt. eigenvalues --    2.98606   2.99872   3.01676   3.03899   3.05434
 Alpha virt. eigenvalues --    3.08140   3.09559   3.12724   3.13326   3.13978
 Alpha virt. eigenvalues --    3.15822   3.17417   3.19395   3.20303   3.23291
 Alpha virt. eigenvalues --    3.23818   3.25519   3.27079   3.29509   3.33080
 Alpha virt. eigenvalues --    3.34079   3.37282   3.38146   3.38529   3.39465
 Alpha virt. eigenvalues --    3.41439   3.44065   3.45440   3.46919   3.48277
 Alpha virt. eigenvalues --    3.49043   3.51811   3.52291   3.54216   3.57504
 Alpha virt. eigenvalues --    3.58464   3.59478   3.62629   3.66141   3.68696
 Alpha virt. eigenvalues --    3.71174   3.73244   3.79387   3.82328   3.84096
 Alpha virt. eigenvalues --    3.92376   3.97343   4.03694   4.04776   4.07247
 Alpha virt. eigenvalues --    4.08633   4.12249   4.12368   4.13440   4.23541
 Alpha virt. eigenvalues --    4.29268   4.36806   4.44784   4.61735   4.73757
 Alpha virt. eigenvalues --    4.77561   4.79660   4.80649   4.81940   4.87215
 Alpha virt. eigenvalues --   23.41432  23.58392  23.75233  23.78356  23.82038
 Alpha virt. eigenvalues --   23.85216  23.90177  23.90422  23.91983  23.94449
 Alpha virt. eigenvalues --   23.95912  23.97906  23.99951  24.01843  24.02474
 Alpha virt. eigenvalues --   24.05941  24.08346  24.10379  24.12155  24.13774
 Alpha virt. eigenvalues --   24.16013  24.17981  24.19004  24.21110  24.21866
  Beta  occ. eigenvalues --  -10.20416 -10.20322 -10.19714 -10.19710 -10.19544
  Beta  occ. eigenvalues --  -10.19250 -10.19200 -10.19068 -10.19007 -10.18862
  Beta  occ. eigenvalues --  -10.18826 -10.18795 -10.18758 -10.18632 -10.18585
  Beta  occ. eigenvalues --  -10.18518 -10.18421 -10.18375 -10.18367 -10.18184
  Beta  occ. eigenvalues --  -10.18118 -10.18089 -10.17631 -10.17390 -10.16846
  Beta  occ. eigenvalues --   -0.91342  -0.88425  -0.85481  -0.84062  -0.82666
  Beta  occ. eigenvalues --   -0.79222  -0.78477  -0.78073  -0.75307  -0.74213
  Beta  occ. eigenvalues --   -0.72338  -0.71413  -0.68671  -0.64693  -0.64235
  Beta  occ. eigenvalues --   -0.62362  -0.61489  -0.59271  -0.59059  -0.56222
  Beta  occ. eigenvalues --   -0.54724  -0.52548  -0.51658  -0.51453  -0.50415
  Beta  occ. eigenvalues --   -0.48172  -0.47909  -0.47175  -0.46011  -0.45133
  Beta  occ. eigenvalues --   -0.44401  -0.43433  -0.42581  -0.42351  -0.42043
  Beta  occ. eigenvalues --   -0.41480  -0.40695  -0.40234  -0.39659  -0.39263
  Beta  occ. eigenvalues --   -0.38757  -0.36751  -0.36445  -0.35921  -0.35052
  Beta  occ. eigenvalues --   -0.34552  -0.33967  -0.33487  -0.33057  -0.30088
  Beta  occ. eigenvalues --   -0.28839  -0.27952  -0.25560  -0.24820  -0.22118
  Beta  occ. eigenvalues --   -0.21193
  Beta virt. eigenvalues --   -0.12514  -0.08106  -0.06260  -0.04966  -0.02344
  Beta virt. eigenvalues --   -0.00983   0.00050   0.00327   0.00569   0.00780
  Beta virt. eigenvalues --    0.01342   0.01850   0.01911   0.02943   0.03191
  Beta virt. eigenvalues --    0.03334   0.03495   0.03871   0.04490   0.04760
  Beta virt. eigenvalues --    0.05440   0.05559   0.05861   0.06365   0.07033
  Beta virt. eigenvalues --    0.07221   0.07641   0.07810   0.07897   0.08110
  Beta virt. eigenvalues --    0.08976   0.09304   0.09569   0.10226   0.10519
  Beta virt. eigenvalues --    0.10607   0.10991   0.11278   0.11878   0.12498
  Beta virt. eigenvalues --    0.12684   0.13105   0.13265   0.13680   0.13899
  Beta virt. eigenvalues --    0.14316   0.14805   0.14977   0.15366   0.15544
  Beta virt. eigenvalues --    0.15943   0.16049   0.16470   0.16754   0.16798
  Beta virt. eigenvalues --    0.17077   0.17621   0.17721   0.18056   0.18220
  Beta virt. eigenvalues --    0.18789   0.18838   0.19107   0.19122   0.19343
  Beta virt. eigenvalues --    0.19841   0.20002   0.20184   0.20348   0.20676
  Beta virt. eigenvalues --    0.20939   0.21223   0.21322   0.21632   0.21917
  Beta virt. eigenvalues --    0.22128   0.22337   0.22419   0.22851   0.23139
  Beta virt. eigenvalues --    0.23233   0.23671   0.24325   0.24609   0.24821
  Beta virt. eigenvalues --    0.24880   0.25319   0.25574   0.25611   0.25877
  Beta virt. eigenvalues --    0.26255   0.26551   0.26783   0.27254   0.27326
  Beta virt. eigenvalues --    0.27839   0.28070   0.28482   0.28633   0.28909
  Beta virt. eigenvalues --    0.29187   0.29560   0.29742   0.29884   0.30803
  Beta virt. eigenvalues --    0.30934   0.31125   0.31652   0.31891   0.32413
  Beta virt. eigenvalues --    0.32582   0.32998   0.33413   0.33852   0.34180
  Beta virt. eigenvalues --    0.34616   0.35188   0.36597   0.36670   0.37204
  Beta virt. eigenvalues --    0.37616   0.38082   0.38712   0.39257   0.39669
  Beta virt. eigenvalues --    0.40534   0.41441   0.41859   0.42859   0.44025
  Beta virt. eigenvalues --    0.44823   0.45119   0.46479   0.47242   0.47570
  Beta virt. eigenvalues --    0.48635   0.49257   0.50012   0.51786   0.52619
  Beta virt. eigenvalues --    0.52948   0.53079   0.53384   0.53910   0.54038
  Beta virt. eigenvalues --    0.54447   0.54929   0.55073   0.55752   0.55960
  Beta virt. eigenvalues --    0.56270   0.56929   0.57005   0.57503   0.58381
  Beta virt. eigenvalues --    0.58657   0.58906   0.59148   0.59548   0.59806
  Beta virt. eigenvalues --    0.60635   0.60841   0.61582   0.62116   0.62423
  Beta virt. eigenvalues --    0.62922   0.63554   0.64152   0.64399   0.65438
  Beta virt. eigenvalues --    0.65572   0.66033   0.66243   0.66802   0.67265
  Beta virt. eigenvalues --    0.68025   0.68185   0.68436   0.68717   0.69567
  Beta virt. eigenvalues --    0.70001   0.70314   0.70592   0.71203   0.71435
  Beta virt. eigenvalues --    0.71772   0.71926   0.72525   0.72992   0.73234
  Beta virt. eigenvalues --    0.73543   0.73729   0.74180   0.74384   0.75206
  Beta virt. eigenvalues --    0.75638   0.75892   0.76714   0.77525   0.78070
  Beta virt. eigenvalues --    0.78652   0.79531   0.80387   0.81094   0.81680
  Beta virt. eigenvalues --    0.81779   0.82854   0.84479   0.84743   0.85610
  Beta virt. eigenvalues --    0.86067   0.87396   0.87671   0.88520   0.89367
  Beta virt. eigenvalues --    0.89899   0.90467   0.91352   0.91854   0.92307
  Beta virt. eigenvalues --    0.92462   0.92656   0.93361   0.93541   0.94420
  Beta virt. eigenvalues --    0.94529   0.94960   0.95767   0.96093   0.96756
  Beta virt. eigenvalues --    0.97160   0.97551   0.98248   0.98660   0.99751
  Beta virt. eigenvalues --    1.00369   1.00971   1.01126   1.02079   1.02749
  Beta virt. eigenvalues --    1.03887   1.04309   1.04865   1.05515   1.06356
  Beta virt. eigenvalues --    1.06407   1.07441   1.08054   1.08289   1.09766
  Beta virt. eigenvalues --    1.10044   1.10700   1.12047   1.12604   1.12908
  Beta virt. eigenvalues --    1.14101   1.14660   1.15361   1.15518   1.18403
  Beta virt. eigenvalues --    1.18463   1.19518   1.20001   1.22232   1.23640
  Beta virt. eigenvalues --    1.25607   1.26801   1.28723   1.31067   1.31353
  Beta virt. eigenvalues --    1.33836   1.34592   1.34881   1.36644   1.37493
  Beta virt. eigenvalues --    1.40570   1.41439   1.43165   1.44656   1.46501
  Beta virt. eigenvalues --    1.46648   1.47294   1.47854   1.48408   1.49271
  Beta virt. eigenvalues --    1.49644   1.50238   1.51067   1.51922   1.52005
  Beta virt. eigenvalues --    1.53312   1.54200   1.54471   1.55295   1.55865
  Beta virt. eigenvalues --    1.56251   1.56567   1.57584   1.58164   1.58989
  Beta virt. eigenvalues --    1.59734   1.61215   1.61563   1.62462   1.63278
  Beta virt. eigenvalues --    1.64356   1.64952   1.66361   1.67464   1.68742
  Beta virt. eigenvalues --    1.69254   1.69949   1.70950   1.72010   1.73104
  Beta virt. eigenvalues --    1.73602   1.74309   1.74423   1.75059   1.75788
  Beta virt. eigenvalues --    1.76641   1.77830   1.78662   1.79787   1.80610
  Beta virt. eigenvalues --    1.81194   1.82531   1.82747   1.83764   1.84043
  Beta virt. eigenvalues --    1.85148   1.85642   1.86463   1.86937   1.88212
  Beta virt. eigenvalues --    1.88496   1.89422   1.89841   1.90865   1.91444
  Beta virt. eigenvalues --    1.91922   1.92471   1.92954   1.93808   1.94002
  Beta virt. eigenvalues --    1.94611   1.95281   1.96362   1.98212   1.98486
  Beta virt. eigenvalues --    1.99450   2.00514   2.00916   2.01631   2.02117
  Beta virt. eigenvalues --    2.03249   2.03667   2.04779   2.05784   2.07533
  Beta virt. eigenvalues --    2.07786   2.07860   2.09225   2.10422   2.12089
  Beta virt. eigenvalues --    2.13450   2.13952   2.15456   2.16506   2.16631
  Beta virt. eigenvalues --    2.17875   2.18747   2.21013   2.22082   2.23131
  Beta virt. eigenvalues --    2.23978   2.24652   2.26100   2.27809   2.30385
  Beta virt. eigenvalues --    2.31170   2.32618   2.33493   2.35903   2.36410
  Beta virt. eigenvalues --    2.37733   2.39276   2.40186   2.42753   2.43268
  Beta virt. eigenvalues --    2.43740   2.44029   2.45042   2.45608   2.47610
  Beta virt. eigenvalues --    2.48783   2.52619   2.54475   2.56215   2.57316
  Beta virt. eigenvalues --    2.59042   2.62018   2.62157   2.63833   2.64009
  Beta virt. eigenvalues --    2.65100   2.65469   2.66016   2.68689   2.69736
  Beta virt. eigenvalues --    2.70643   2.70955   2.72050   2.72152   2.72411
  Beta virt. eigenvalues --    2.72622   2.73102   2.73901   2.74398   2.74894
  Beta virt. eigenvalues --    2.76006   2.76476   2.77247   2.77304   2.77994
  Beta virt. eigenvalues --    2.78701   2.79257   2.79453   2.80242   2.81393
  Beta virt. eigenvalues --    2.81633   2.82850   2.83031   2.84064   2.84300
  Beta virt. eigenvalues --    2.85431   2.85968   2.87499   2.88407   2.89420
  Beta virt. eigenvalues --    2.89471   2.91443   2.91761   2.92242   2.93637
  Beta virt. eigenvalues --    2.95429   2.97234   2.98970   3.00325   3.02041
  Beta virt. eigenvalues --    3.05068   3.05648   3.08585   3.10409   3.13404
  Beta virt. eigenvalues --    3.13964   3.14287   3.17463   3.17663   3.19938
  Beta virt. eigenvalues --    3.20785   3.23405   3.24003   3.25778   3.27252
  Beta virt. eigenvalues --    3.29706   3.33174   3.34265   3.37588   3.38313
  Beta virt. eigenvalues --    3.38662   3.39611   3.41654   3.44172   3.45681
  Beta virt. eigenvalues --    3.47037   3.48462   3.49148   3.52047   3.52411
  Beta virt. eigenvalues --    3.54300   3.57761   3.58794   3.59639   3.63153
  Beta virt. eigenvalues --    3.66339   3.68984   3.71445   3.73435   3.79923
  Beta virt. eigenvalues --    3.82583   3.84427   3.92734   3.97583   4.03808
  Beta virt. eigenvalues --    4.04950   4.07278   4.08710   4.12498   4.12558
  Beta virt. eigenvalues --    4.13648   4.23687   4.29384   4.37036   4.45429
  Beta virt. eigenvalues --    4.62044   4.74184   4.77678   4.79827   4.80812
  Beta virt. eigenvalues --    4.82280   4.87316  23.41565  23.58699  23.75397
  Beta virt. eigenvalues --   23.78658  23.82101  23.85307  23.90354  23.90750
  Beta virt. eigenvalues --   23.92400  23.94541  23.95996  23.98018  23.99928
  Beta virt. eigenvalues --   24.01954  24.02539  24.06085  24.08414  24.10458
  Beta virt. eigenvalues --   24.12435  24.13843  24.16031  24.18036  24.19555
  Beta virt. eigenvalues --   24.21349  24.21894
          Condensed to atoms (all electrons):
               1          2          3          4          5          6
     1  C    9.265403   1.698927   0.209106  -0.085280  -0.913136  -0.951602
     2  C    1.698927   6.702560   0.412438   0.214830  -0.663265   0.174620
     3  C    0.209106   0.412438   6.212134   1.286156   0.289335  -0.075957
     4  C   -0.085280   0.214830   1.286156   9.641187  -0.365011  -0.030621
     5  C   -0.913136  -0.663265   0.289335  -0.365011   8.418960   1.542378
     6  C   -0.951602   0.174620  -0.075957  -0.030621   1.542378   8.427045
     7  C    0.146051  -0.317408   0.311272   0.000003  -0.287046  -0.626928
     8  C   -0.045338   0.037040   0.286972  -0.832162  -0.211650  -0.456880
     9  C   -0.410845  -0.138781  -0.569278  -1.023618  -0.150247  -0.174503
    10  C   -0.295650  -0.192299   0.482284   1.586979  -0.349766  -0.275605
    11  C   -0.025902  -0.149115  -0.356313  -1.240057  -0.144746  -0.073726
    12  C   -0.044587  -0.000775  -0.327219  -0.381374  -0.042810   0.054956
    13  C    0.015232   0.042626  -0.024512   0.367928  -0.015556  -0.207486
    14  C   -0.124408   0.030365  -0.810033  -1.547148  -0.177023  -0.479801
    15  C   -0.026454  -0.048291  -0.135404  -0.500289  -0.047892  -0.025147
    16  C   -0.010551  -0.065473   0.012879   0.035844  -0.006238   0.020143
    17  C    0.000074   0.010779  -0.028343  -0.019599   0.001017  -0.011655
    18  C   -0.002251   0.005391  -0.102668  -0.145457  -0.009257   0.013734
    19  C   -2.384286  -1.882588  -0.265158  -0.139502   0.303502  -0.028854
    20  C    0.273730   0.764351  -0.056461  -0.083842  -0.420989  -0.084058
    21  C    0.288826   0.216564   0.080581   0.051725  -0.010837   0.053782
    22  C   -0.504609  -0.021684  -0.083660  -0.516996  -0.628080  -0.353761
    23  C   -0.146698  -0.366551  -0.138899  -0.812132  -0.147409  -0.388368
    24  H   -0.017120   0.038984  -0.009214   0.001742  -0.006837  -0.001461
    25  H   -0.003547  -0.010366  -0.001034   0.001734   0.010338   0.000515
    26  H   -0.069640   0.030855  -0.008171   0.001398   0.036353   0.012183
    27  H   -0.093556   0.009607  -0.006110   0.024832   0.354829  -0.016846
    28  H   -0.022892  -0.011619   0.008357  -0.073500  -0.057670   0.394927
    29  H    0.000509  -0.004532   0.010640  -0.042230   0.017470   0.027208
    30  H    0.000686   0.001109   0.009864   0.067478   0.001228   0.011217
    31  H    0.000008  -0.000022   0.000553   0.000334  -0.000018   0.000033
    32  H   -0.000004  -0.000016  -0.000015   0.000188   0.000001   0.000027
    33  H    0.000792  -0.000603   0.005378  -0.000831  -0.000122  -0.000084
    34  H    0.000017   0.000329  -0.000129   0.000049   0.000006  -0.000014
    35  H    0.000001   0.000007   0.000033   0.000085   0.000000   0.000003
    36  C   -0.031834  -0.602795  -0.450117   0.418425  -0.009768   0.043896
    37  C   -0.016629  -0.029620  -0.008787  -0.061723  -0.001996  -0.014068
    38  H    0.001050  -0.000185  -0.005246  -0.000961   0.000125  -0.000329
    39  H    0.000080   0.001094  -0.000040   0.000646   0.000025   0.000055
               7          8          9         10         11         12
     1  C    0.146051  -0.045338  -0.410845  -0.295650  -0.025902  -0.044587
     2  C   -0.317408   0.037040  -0.138781  -0.192299  -0.149115  -0.000775
     3  C    0.311272   0.286972  -0.569278   0.482284  -0.356313  -0.327219
     4  C    0.000003  -0.832162  -1.023618   1.586979  -1.240057  -0.381374
     5  C   -0.287046  -0.211650  -0.150247  -0.349766  -0.144746  -0.042810
     6  C   -0.626928  -0.456880  -0.174503  -0.275605  -0.073726   0.054956
     7  C    6.982505   0.700639   0.311002   0.144592   0.150255  -0.083871
     8  C    0.700639   8.525334   0.453439   0.087453   2.128318  -1.197420
     9  C    0.311002   0.453439  12.780590   1.405872  -0.891064   0.183106
    10  C    0.144592   0.087453   1.405872   8.732252  -1.018367  -0.977076
    11  C    0.150255   2.128318  -0.891064  -1.018367  10.474435   0.671332
    12  C   -0.083871  -1.197420   0.183106  -0.977076   0.671332  11.186623
    13  C   -0.341649   0.662567  -1.874813  -0.136300  -1.185277  -0.916821
    14  C   -0.421165  -0.447668  -0.993222  -2.657797   0.013443  -0.991109
    15  C   -0.277481  -0.732314  -1.246467  -0.294777   0.725393  -0.954361
    16  C   -0.290264  -0.928762   0.429568   0.111990  -2.594298   1.771697
    17  C    0.099554   0.366088  -0.257482  -0.090900   1.867976  -0.468598
    18  C   -0.205411  -1.986397  -1.323721  -0.243788  -3.196703  -1.556471
    19  C    0.347175  -0.010458  -0.039432   0.064456  -0.014903  -0.006723
    20  C   -0.201906  -0.007043  -0.083717  -0.058592   0.010345   0.002035
    21  C   -0.589117  -0.115883   0.166070  -0.070797   0.112544  -0.013287
    22  C   -0.175544  -0.170872  -0.446065  -0.211902   0.335186   0.134679
    23  C   -0.349499   0.327543  -1.246513  -0.162935   0.398469  -0.451611
    24  H   -0.009484   0.000035  -0.001205  -0.000114   0.000073   0.000037
    25  H    0.002680  -0.000287   0.000129   0.000249  -0.000029  -0.000009
    26  H    0.001217  -0.000232  -0.000506  -0.000210  -0.000026  -0.000004
    27  H    0.001771   0.001018   0.004580   0.007707   0.000270   0.000031
    28  H   -0.008135   0.003503   0.028648   0.062057   0.000036   0.000144
    29  H   -0.008347  -0.010133  -0.068170   0.323534  -0.006282   0.008306
    30  H   -0.010733  -0.008906  -0.070340   0.151104  -0.041436  -0.040795
    31  H   -0.000489  -0.020800   0.014233   0.000194  -0.010529  -0.089826
    32  H    0.002870  -0.004127   0.012607   0.000664   0.016036  -0.104842
    33  H    0.001542   0.016848  -0.001050   0.001252   0.010131  -0.002974
    34  H    0.005119   0.017812   0.002967   0.000254   0.079829  -0.021605
    35  H    0.000075   0.001492   0.003518   0.000379  -0.005156   0.033418
    36  C    0.956978  -0.119990   0.704184   0.133351   0.057392   0.167563
    37  C   -0.067933   0.070097  -0.056255  -0.031035   0.085184  -0.050315
    38  H   -0.003323  -0.004562  -0.000415  -0.000389  -0.001559  -0.000941
    39  H    0.011157   0.003905   0.001112  -0.000008   0.003315   0.000114
              13         14         15         16         17         18
     1  C    0.015232  -0.124408  -0.026454  -0.010551   0.000074  -0.002251
     2  C    0.042626   0.030365  -0.048291  -0.065473   0.010779   0.005391
     3  C   -0.024512  -0.810033  -0.135404   0.012879  -0.028343  -0.102668
     4  C    0.367928  -1.547148  -0.500289   0.035844  -0.019599  -0.145457
     5  C   -0.015556  -0.177023  -0.047892  -0.006238   0.001017  -0.009257
     6  C   -0.207486  -0.479801  -0.025147   0.020143  -0.011655   0.013734
     7  C   -0.341649  -0.421165  -0.277481  -0.290264   0.099554  -0.205411
     8  C    0.662567  -0.447668  -0.732314  -0.928762   0.366088  -1.986397
     9  C   -1.874813  -0.993222  -1.246467   0.429568  -0.257482  -1.323721
    10  C   -0.136300  -2.657797  -0.294777   0.111990  -0.090900  -0.243788
    11  C   -1.185277   0.013443   0.725393  -2.594298   1.867976  -3.196703
    12  C   -0.916821  -0.991109  -0.954361   1.771697  -0.468598  -1.556471
[...]
 0464,0.00000708,-0.00000273,-0.00015810,0.00011062,-0.00000258,0.00022
 759,0.00012084,0.00020246,0.00026622,-0.00006271,-0.00006199,-0.000080
 54,0.00000597,-0.00000745,-0.00026539,-0.00087762,-0.00002851,0.001360
 08,-0.00446951,-0.00295046,-0.00143016,0.00037731,-0.00015454,-0.00009
 446,-0.00058628,0.00002559,0.00360225,0.00019708,-0.00134208,0.0165679
 5,0.00933935,0.00282364,-0.10349077,-0.10698126,-0.02706399,-0.0281194
 9,-0.00775889,-0.00527964,-0.00000812,0.00001513,0.00000075,-0.0000209
 9,-0.00000687,0.00000443,0.00001264,-0.00000726,-0.00000040,-0.0000207
 6,0.00000652,-0.00001556,-0.00001599,-0.00013889,0.00001479,-0.0000019
 7,0.00000452,-0.00000111,-0.00000145,0.00000116,0.,-0.00000255,0.00000
 023,0.00000011,-0.00000306,-0.00000051,0.00000068,0.00000052,-0.000002
 19,-0.00000089,0.00000775,0.00000297,0.00000131,-0.00014095,-0.0000797
 0,0.00001991,0.00005420,0.00000195,-0.00001671,0.00025110,0.00057955,0
 .00129814,-0.00000924,-0.00001713,-0.00002215,-0.00092965,0.00053910,0
 .00090875,0.11226404,0.10970072,0.00003000,0.00000209,0.00000073,-0.00
 003792,-0.00000297,-0.00001055,0.00005328,0.00000905,-0.00000375,0.000
 03180,-0.00002568,-0.00000414,0.00000319,-0.00003069,-0.00000204,-0.00
 001935,0.00001353,0.00000848,0.00000780,-0.00017050,0.00000266,-0.0001
 1864,0.00010344,-0.00062434,0.00003759,0.00005501,0.00009808,-0.000069
 92,0.00000334,0.00003203,0.00025210,-0.00002468,-0.00076889,-0.0002755
 2,-0.00277917,0.00695887,-0.00052254,-0.00005471,0.00021678,0.00005250
 ,-0.00005889,-0.00041163,0.00027383,-0.00155129,0.00536666,0.00291705,
 0.00031728,0.00408532,-0.04622555,-0.02734773,-0.04686118,-0.00737568,
 -0.00243641,0.00223750,0.00000724,0.00002096,0.00000216,-0.00001015,0.
 00000363,-0.00000810,0.00000486,0.00001349,-0.00000773,0.00000606,0.00
 000829,0.00002975,-0.00001521,-0.00010196,0.00010936,0.00000156,0.0000
 0007,0.00000549,0.00000061,0.00000034,0.00000128,-0.00000095,0.0000000
 7,0.00000035,-0.00000061,0.00000095,-0.00000100,-0.00000074,-0.0000002
 3,0.00000086,-0.00000139,0.00000316,-0.00000104,-0.00003271,-0.0000130
 8,-0.00000841,0.00002369,-0.00000167,0.00004649,0.00050510,0.00119733,
 -0.00404236,0.00001076,0.00000478,0.00002977,0.00003738,0.00105157,-0.
 00287334,0.05050593,0.03148739,0.03670903,-0.00406934,0.00072278,-0.00
 032943,-0.00494822,0.00697212,-0.00036310,0.00552385,0.00886515,-0.000
 82064,0.00468600,-0.00477727,0.00019034,0.00066737,-0.00107971,-0.0002
 1353,-0.00146097,0.00052507,0.00025055,0.01507841,-0.01219270,-0.00946
 436,-0.00469572,0.00257926,0.00033742,-0.00151559,-0.00096906,0.000845
 54,-0.00208630,0.00214878,0.00016363,0.00126229,0.00099548,0.00009640,
 -0.00052588,0.00080150,0.00003261,-0.00039604,-0.00042648,-0.00039555,
 0.00057248,0.00015380,-0.00001052,-0.00271836,0.00047134,-0.00097307,0
 .00046756,0.00049239,-0.00039674,-0.00007643,0.00021451,-0.00061753,-0
 .00003745,0.00009975,0.00016244,0.00156616,-0.00179454,-0.00008197,0.0
 0090386,-0.00046404,-0.00050865,0.00257733,-0.00308963,0.00005313,-0.0
 2737922,-0.02919489,0.02071252,-0.10587058,-0.01772157,0.02666422,-0.0
 0016724,0.00030670,0.00001423,-0.00006042,0.00006950,0.00008692,0.0000
 2366,-0.00005065,0.00000240,0.00000963,-0.00012781,-0.00000330,0.00016
 265,0.00007679,0.00000813,-0.00005546,0.00004987,-0.00006269,-0.000043
 64,0.00004293,0.00003620,-0.00000535,0.00000485,-0.00001561,-0.0000109
 4,-0.00001571,0.00010218,-0.00800207,-0.00229554,0.00894823,0.00002295
 ,-0.00009175,0.00033379,-0.00005643,-0.00001128,0.00022470,0.53155159,
 -0.00353911,0.00171446,0.00003668,0.00344982,0.00732426,-0.00093747,0.
 01001671,0.00178897,-0.00075317,0.00179198,-0.00413698,-0.00013536,0.0
 0083059,-0.00064868,-0.00012816,-0.00058202,0.00000338,0.00008817,-0.0
 0834711,-0.03749607,0.00258843,-0.00635152,0.00343762,0.00018282,-0.00
 148573,-0.00124905,0.00020862,-0.00128471,0.00197352,0.00023253,0.0029
 2077,0.00143407,0.00084704,-0.00105459,0.00088777,0.00031802,-0.000411
 89,-0.00035879,-0.00032673,0.00051749,-0.00012610,-0.00005833,0.000064
 58,-0.00180803,0.00156576,-0.00004667,0.00010680,-0.00071592,0.0000352
 3,-0.00009376,-0.00058592,0.00024926,0.00030078,0.00017313,0.00140972,
 -0.00051901,-0.00011524,-0.00012480,-0.00164963,-0.00044923,0.00421078
 ,-0.00134887,-0.00042293,-0.02086980,0.00265931,0.01149100,-0.05426373
 ,-0.21405792,0.04502633,0.00110233,-0.00050780,0.00010889,0.00013599,0
 .00004622,0.00005364,0.00004146,-0.00007241,0.00002707,0.00003938,0.00
 012952,0.00001173,-0.00005970,0.00001422,-0.00000244,-0.00001883,0.000
 01210,0.00004022,-0.00001718,0.00001705,0.00001410,-0.00000998,-0.0000
 1959,-0.00004433,-0.00000135,0.00000100,0.00005381,0.01905875,0.006665
 27,-0.01910677,0.00002398,0.00000015,0.00032484,-0.00001728,-0.0000541
 3,0.00022191,-0.03142441,0.58362288,0.00260989,-0.00116262,0.00088956,
 0.00065485,-0.00349236,0.00287452,-0.00362548,-0.00372723,0.00389287,-
 0.00246101,0.00235090,0.00050912,-0.00057122,0.00090285,-0.00002399,0.
 00097843,-0.00036027,-0.00036571,-0.00237360,0.00885428,0.00582282,0.0
 0232491,-0.00153816,-0.00152536,0.00099155,0.00028272,-0.00052043,0.00
 134625,-0.00096419,-0.00007626,-0.00195483,-0.00034693,0.00005837,0.00
 047761,-0.00000950,-0.00012958,0.00003799,0.00011866,0.00025518,-0.000
 27455,-0.00008652,0.00002997,0.00169782,0.00035995,-0.00135823,-0.0011
 2006,0.00050134,0.00089594,0.00001140,-0.00060910,0.00025204,-0.000024
 12,0.00008448,-0.00006680,-0.00118498,0.00117772,0.00008561,-0.0004537
 3,-0.00005717,0.00005894,-0.00197908,0.00176193,-0.00036612,0.01155272
 ,0.00698569,-0.00647438,0.02799472,0.02620993,-0.06830400,0.00011643,-
 0.00037512,0.00003009,-0.00001495,-0.00004858,-0.00004046,-0.00001284,
 0.00000598,0.00005573,-0.00001975,-0.00000271,-0.00015747,-0.00005827,
 -0.00002557,-0.00013362,0.00004491,-0.00002233,0.00006313,0.00003960,-
 0.00000094,-0.00002877,-0.00002110,0.00006179,0.00004273,-0.00001941,0
 .00003845,-0.00003171,0.00974245,0.00221549,-0.00226356,0.00007175,-0.
 00002457,-0.00023638,-0.00010520,0.00011216,-0.00021810,-0.28538230,0.
 00457718,0.33174993,0.00234462,-0.00110327,-0.00001319,-0.00040924,-0.
 00445210,0.00072324,-0.00515600,-0.00281843,0.00108704,-0.00187813,0.0
 0267804,0.00004600,-0.00050219,0.00070935,0.00009923,0.00073944,-0.000
 27689,-0.00014063,-0.00190904,0.01378204,0.00220764,0.00333524,-0.0020
 9978,-0.00032825,0.00095700,0.00074498,-0.00005913,0.00103337,-0.00135
 097,-0.00011209,-0.00289509,-0.00069053,-0.00069258,0.00089462,0.00000
 935,0.00011328,-0.00005414,-0.00001698,0.00022339,-0.00023189,0.000156
 78,0.00005965,0.00292241,0.00014631,-0.00218415,-0.00184529,0.00118370
 ,0.00057292,0.00021014,-0.00070118,0.00018036,-0.00040957,0.00018346,-
 0.00003189,-0.00101427,0.00065210,0.00008052,-0.00013480,0.00031853,0.
 00018588,-0.00144811,0.00171166,-0.00014088,0.01073912,-0.00103382,-0.
 00521045,-0.02805290,-0.04357049,0.02128959,0.00007514,-0.00001389,-0.
 00004892,-0.00001118,-0.00001713,-0.00003353,-0.00003145,0.00001900,0.
 00000517,-0.00001908,-0.00004822,-0.00002150,-0.00001054,-0.00001933,-
 0.00002290,0.00003336,-0.00000263,-0.00003632,0.00003411,0.00000951,-0
 .00003190,-0.00001277,0.00010043,0.00003299,-0.00001727,0.00005582,-0.
 00002985,-0.10988187,0.10718085,0.06541682,0.00014477,0.00002188,-0.00
 004353,-0.00016066,0.00016489,-0.00028096,-0.28081309,0.00654665,0.186
 22590,0.49042364,0.00035905,-0.00014333,-0.00009220,-0.00183798,-0.001
 26620,0.00007671,-0.00085462,-0.00043722,-0.00051914,0.00023265,0.0002
 5798,-0.00003098,-0.00006320,-0.00027456,-0.00000004,-0.00028288,0.000
 05599,0.00006768,-0.00063977,0.00283487,0.00096423,0.00027949,-0.00032
 220,0.00015659,0.00004589,0.00008325,-0.00007970,-0.00010632,-0.000235
 61,-0.00001830,0.00024117,-0.00119121,0.00011441,-0.00007781,-0.000042
 41,-0.00002247,0.00011206,-0.00009469,-0.00010889,-0.00005086,0.000104
 36,0.00001766,-0.00005324,-0.00005048,0.00067908,0.00086982,0.00021847
 ,-0.00019799,0.00015302,0.00028781,-0.00011061,-0.00009119,-0.00000636
 ,0.00007270,0.00004645,-0.00024282,-0.00000292,0.00005673,0.00071372,0
 .00003556,-0.00046683,-0.00012160,-0.00008878,0.00221729,-0.00406658,0
 .00033544,-0.03023926,-0.00567652,0.02125199,-0.00047072,0.00045189,0.
 00001668,-0.00005725,-0.00000229,0.00000748,-0.00001604,0.00003210,-0.
 00000389,-0.00001852,-0.00005203,0.00000630,-0.00000365,-0.00001826,0.
 00001958,0.00000931,-0.00000600,0.00000152,0.00000449,-0.00001218,0.00
 002238,0.00001799,-0.00000122,-0.00000013,0.00001073,-0.00000791,0.000
 02951,0.10469265,-0.23553333,-0.08603393,0.00001425,0.00000875,0.00002
 721,-0.00001366,-0.00000486,0.00007492,-0.02520517,-0.10761945,0.02259
 662,0.00162887,0.64332087,-0.00215339,0.00107221,-0.00028972,0.0009815
 5,0.00326480,-0.00053420,0.00387482,0.00219575,-0.00072198,0.00166868,
 -0.00233026,-0.00009775,0.00059799,-0.00044229,-0.00010643,-0.00055272
 ,0.00005882,0.00012705,0.00046776,-0.00987785,-0.00239267,-0.00338349,
 0.00092958,-0.00002182,-0.00068670,-0.00041907,0.00043929,-0.00103484,
 0.00099055,0.00012172,0.00098876,0.00162330,-0.00031257,0.00005943,0.0
 0028268,0.00004748,-0.00027320,-0.00037284,-0.00007042,0.00034024,0.00
 009445,0.00000671,-0.00239684,0.00164869,-0.00233020,0.00004890,0.0001
 0707,-0.00010361,-0.00001169,0.00000701,0.00006671,-0.00020568,0.00011
 219,0.00010860,0.00076079,-0.00079877,-0.00001202,0.00044615,-0.000157
 40,-0.00018441,0.00069964,-0.00111636,0.00008732,-0.00716034,0.0013794
 8,0.00681102,0.02186053,0.02664050,-0.00906166,-0.00000698,-0.00007215
 ,-0.00007273,0.00001762,0.00001829,0.00001903,0.00003386,-0.00002838,-
 0.00001493,0.00001763,0.00003452,0.00001394,0.00001874,0.00002468,0.00
 001423,-0.00002254,0.00002994,-0.00006355,-0.00000339,0.00002634,0.000
 00699,-0.00001305,0.00001676,-0.00001725,-0.00001614,0.00000426,0.0000
 1860,0.06505645,-0.08950047,-0.08644479,0.00004804,-0.00004074,0.00009
 222,-0.00001312,0.00002823,-0.00011919,0.19753956,0.00164364,-0.203469
 73,-0.32070957,-0.00962379,0.36545114,-0.00035939,0.00020792,0.0000322
 7,0.00011383,0.00073559,0.00000598,0.00105369,0.00025672,-0.00011790,0
 .00025286,-0.00050935,-0.00025645,0.00006120,-0.00011000,-0.00000178,-
 0.00008479,0.00004834,-0.00000799,0.00032714,-0.00327145,0.00241642,-0
 .00091666,0.00013300,-0.00005157,-0.00012729,-0.00017622,-0.00010619,-
 0.00016419,0.00019780,0.00005683,0.00022996,0.00005543,0.00018474,-0.0
 0003654,0.00012681,0.00004998,-0.00006639,-0.00005718,-0.00003556,0.00
 005521,-0.00003107,-0.00001460,0.00025148,-0.00032104,0.00015080,-0.00
 002859,0.00010586,-0.00001734,-0.00001141,-0.00001090,-0.00006334,0.00
 001689,0.00001172,0.00000197,0.00020624,-0.00012052,-0.00004577,-0.000
 07872,0.00009143,-0.00000640,0.00012822,-0.00089076,0.00011771,-0.0012
 3585,-0.00018055,-0.00056022,0.01072817,-0.00579162,-0.00345351,-0.000
 72353,0.00000888,0.00029149,0.00002485,-0.00000052,0.00000469,0.000010
 30,0.00002602,0.00000667,0.00000741,0.00001268,0.00000778,-0.00001040,
 -0.00000158,0.00000885,-0.00000335,0.00000010,0.00002841,0.00000648,-0
 .00000389,0.00000150,0.00000111,0.00000285,0.00000056,0.00000149,-0.00
 000344,0.00000720,0.00084743,-0.00099884,0.00679185,-0.00005774,-0.000
 01161,0.00003037,-0.00001542,0.00000178,0.00002467,-0.11620610,0.09944
 401,0.04628470,-0.00679149,0.02408891,0.00828927,0.11423781,-0.0000209
 6,0.00019686,-0.00003124,-0.00009378,-0.00010225,-0.00002081,0.0010479
 1,-0.00107120,0.00011071,-0.00012144,-0.00025688,0.00000782,0.00001874
 ,-0.00013753,0.00000222,-0.00004601,-0.00001454,-0.00001394,-0.0033397
 9,-0.00158117,0.00040694,-0.00063097,0.00008840,-0.00004938,-0.0000142
 0,-0.00011216,0.00004301,-0.00010957,0.00007682,0.00001797,0.00007866,
 0.00003627,0.00000920,-0.00000941,0.00012433,0.00001440,-0.00003174,-0
 .00005552,-0.00000969,0.00001139,-0.00001935,-0.00002712,0.00002206,-0
 .00007817,0.00001206,0.00006578,0.00000920,0.00001470,0.00003167,0.000
 02929,0.00001271,-0.00001683,0.00001894,0.00000475,0.00013226,-0.00002
 861,0.00000092,-0.00017462,0.00042528,-0.00001642,-0.00021780,-0.00036
 612,-0.00006664,0.00103643,0.00074315,0.00061165,0.01401933,-0.0226705
 0,-0.00584651,-0.00041992,0.00060844,0.00003243,-0.00000590,-0.0000034
 6,-0.00000379,0.00000425,0.00004607,0.00000552,-0.00000978,0.00000934,
 0.00000437,-0.00004882,-0.00002535,-0.00000399,0.00000247,-0.00001569,
 0.00000789,0.00001497,-0.00001670,-0.00000652,0.00001103,-0.00000155,0
 .00000464,0.00001029,0.00000077,0.00000142,-0.00029568,0.00129618,0.00
 154591,0.00004109,0.00001681,-0.00000046,0.00000443,0.00000694,-0.0000
 0264,0.10363909,-0.24060746,-0.06470644,-0.00124075,0.00468559,0.00156
 174,-0.11276593,0.25752612,-0.00034540,0.00009561,0.00003159,-0.000111
 76,0.00058186,0.00004274,0.00046555,0.00107334,-0.00019213,0.00046498,
 -0.00036748,-0.00030688,0.00004971,-0.00007577,-0.00000136,-0.00010319
 ,0.00008563,-0.00000046,0.00234883,-0.00014876,0.00205336,-0.00043550,
 0.00012383,-0.00001735,-0.00018449,-0.00009244,-0.00011279,-0.00014237
 ,0.00015400,0.00005597,0.00012920,-0.00000925,0.00022523,-0.00012240,0
 .00015202,0.00008043,-0.00007254,-0.00004372,-0.00004014,0.00007388,-0
 .00000913,0.00000315,0.00028861,-0.00030222,0.00012785,-0.00012559,0.0
 0002508,-0.00005591,-0.00000533,-0.00002574,-0.00007351,0.00002563,0.0
 0003930,0.00000698,0.00014552,-0.00017548,0.00000544,0.00005622,0.0000
 5956,-0.00019732,0.00026963,-0.00022430,-0.00008383,-0.00077014,-0.000
 48445,-0.00068392,-0.00208380,0.01538136,0.00305201,0.00019757,0.00012
 689,0.00038557,-0.00001033,0.00000128,0.00000741,0.00000698,-0.0000039
 8,0.00003265,0.00000102,-0.00000343,0.00000721,0.00002165,0.00000889,0
 .00002114,-0.00000524,0.00000321,0.00002193,-0.00000432,0.00000191,0.0
 0000142,0.00000185,0.00000127,-0.00000498,0.00000284,-0.00000125,0.000
 00359,0.00732045,0.00108664,0.00429284,-0.00002647,-0.00000550,0.00004
 407,-0.00000735,-0.00000135,0.00002801,0.03639380,-0.06714731,-0.06053
 968,0.01669090,-0.01683537,-0.00585191,-0.05644519,0.06687893,0.061585
 91,0.00004199,0.00004580,-0.00003854,-0.00019202,-0.00038203,-0.000235
 67,-0.00020147,-0.00024766,-0.00014699,0.00003237,0.00005068,-0.000033
 57,0.00001458,-0.00006883,0.00001499,-0.00007095,0.00000099,0.00001146
 ,-0.00056250,0.00012589,0.00023663,-0.00012514,0.00000798,0.00000540,-
 0.00001105,-0.00010418,0.00001225,-0.00002390,-0.00002866,-0.00000778,
 -0.00029549,0.00027621,-0.00021355,0.00036478,-0.00007374,-0.00012133,
 0.00003036,0.00006691,0.00004041,-0.00006559,0.00002672,-0.00000577,0.
 00039704,-0.00013471,0.00032205,-0.00001862,0.00000100,0.00014317,-0.0
 0010828,0.00007454,0.00008350,-0.00009159,-0.00011463,-0.00002231,-0.0
 0002709,-0.00012038,-0.00000580,0.00011432,0.00014866,0.00004743,-0.00
 024895,0.00009105,0.00001565,0.00082647,-0.00015681,-0.00025594,0.0008
 8923,-0.00023747,0.00655189,-0.00003167,0.00000764,-0.00003064,-0.0000
 1295,0.00000462,0.00000962,-0.00000745,-0.00000126,-0.00001080,-0.0000
 0401,-0.00000669,0.00002038,-0.00000475,-0.00000884,0.00000939,0.00000
 465,-0.00000385,0.00000161,-0.00000025,-0.00000447,-0.00000170,0.00000
 594,0.00000761,0.00001082,-0.00000185,-0.00000630,-0.00000894,0.007099
 09,0.01268963,-0.00321027,-0.00002726,-0.00001903,-0.00012955,-0.00001
 280,0.00001341,-0.00002384,-0.00387498,-0.02197906,0.00845261,-0.07019
 693,-0.07453184,0.03482727,-0.00164394,-0.00057798,-0.00395339,0.06804
 069,0.00004376,-0.00001548,-0.00003572,-0.00018015,0.00004594,-0.00002
 060,0.00014551,0.00007580,0.00002578,0.00001578,-0.00003994,0.00000435
 ,-0.00001222,-0.00000334,0.00000276,0.00000289,0.00000543,-0.00000807,
 0.00017988,-0.00003582,-0.00008975,-0.00005160,0.00020871,-0.00002949,
 -0.00000627,0.00000062,0.00001276,0.00000265,0.00000868,0.00000748,0.0
 0004707,-0.00007755,0.00003624,-0.00023138,0.00004787,0.00007963,0.000
 01947,-0.00000763,-0.00000040,-0.00001273,0.00001163,-0.00000139,-0.00
 005641,-0.00000601,-0.00001211,-0.00008192,-0.00002736,-0.00009616,0.0
 0014510,-0.00007664,-0.00003247,0.00009200,0.00009573,0.00001244,-0.00
 002164,0.00002392,0.00000057,-0.00001938,-0.00000695,-0.00001037,-0.00
 003778,-0.00001684,-0.00000308,0.00015223,-0.00010894,0.00028222,0.000
 03024,0.00189002,-0.00023407,0.00000908,-0.00000663,0.00001751,-0.0000
 1129,0.00000136,0.00000251,-0.00000611,-0.00000225,0.00000327,-0.00000
 423,-0.00000505,0.00000466,-0.00000197,-0.00000570,-0.00000184,-0.0000
 0203,-0.00000724,-0.00000323,0.00000248,-0.00000781,-0.00000114,0.0000
 0490,-0.00000815,-0.00000056,0.00001053,0.00000547,0.00000014,-0.00826
 303,-0.01477897,0.00700065,0.00005198,0.00005148,0.00011055,0.00002213
 ,-0.00000640,0.00000970,0.00170055,0.00023439,-0.00163781,-0.07854783,
 -0.29562637,0.07098491,-0.00029938,0.00121942,0.00007627,0.08516911,0.
 30695063,-0.00000014,0.00019400,0.00001901,0.00045563,-0.00025464,-0.0
 0026579,0.00004059,0.00003792,-0.00012252,0.00005807,0.00000652,-0.000
 02329,0.00005338,-0.00007895,0.00000793,-0.00006198,0.00004004,0.00001
 460,-0.00033354,-0.00045041,0.00008967,-0.00002463,0.00017349,0.000046
 33,-0.00007786,-0.00002848,0.00004563,-0.00001310,0.00002654,0.0000053
 2,-0.00031610,0.00012621,-0.00012658,0.00017649,-0.00001282,-0.0000493
 5,-0.00002546,0.00005699,0.00002684,-0.00000793,-0.00002158,-0.0000168
 3,0.00043011,-0.00022578,0.00009836,-0.00010863,0.00014717,0.00012006,
 -0.00009550,-0.00002716,0.00001953,-0.00002766,-0.00008218,-0.00002826
 ,-0.00000275,-0.00007457,-0.00001180,0.00011426,0.00005979,0.00007015,
 -0.00018339,0.00017742,0.00001921,0.00046573,0.00151708,-0.00054864,0.
 00694064,-0.00230867,0.00437599,0.00001219,-0.00004538,-0.00006245,0.0
 0002557,0.00000799,0.00000270,0.00000245,-0.00000116,-0.00001434,0.000
 00265,0.00002092,0.00001395,-0.00000241,0.00000022,0.00000813,-0.00000
 501,-0.00000034,-0.00000329,-0.00000399,-0.00000223,-0.00000325,0.0000
 0384,-0.00000046,0.00000605,0.00000220,-0.00001186,-0.00000512,-0.0027
 8790,-0.01027530,0.00605016,-0.00009817,-0.00002802,-0.00012184,-0.000
 00837,0.00001156,-0.00000390,0.00644005,0.02109374,-0.00123620,0.03493
 171,0.06719487,-0.06113855,-0.00361090,-0.00050632,-0.00395435,-0.0423
 6015,-0.07645616,0.05669672\\-0.00001446,0.00000296,0.00000100,0.00001
 030,-0.00000073,-0.00000129,0.00000732,0.00002068,-0.00000010,0.000011
 27,-0.00001535,-0.00000007,0.00000346,-0.00001183,0.00000684,-0.000011
 38,-0.00000134,0.00000565,0.00000312,-0.00003858,-0.00000776,-0.000004
 75,0.00001847,-0.00000562,-0.00000715,-0.00001159,0.00000192,-0.000003
 27,0.00000994,0.00000342,-0.00000058,-0.00000349,-0.00000544,0.0000022
 0,-0.00000119,-0.00000012,-0.00000165,-0.00000453,-0.00000418,0.000005
 55,-0.00000290,-0.00000242,-0.00001686,0.00000009,0.00000428,0.0000151
 4,0.00000400,0.00000069,0.00000537,0.00000925,-0.00000115,0.00000535,-
 0.00000148,-0.00000718,-0.00000088,-0.00000484,0.00000667,-0.00000461,
 0.00001124,0.00000316,-0.00000674,0.00001026,-0.00000199,-0.00000070,-
 0.00000519,-0.00000688,0.00000526,0.00002759,0.00001871,0.00000375,0.0
 0000114,0.00000055,0.00000075,0.00000036,0.00000342,-0.00000158,-0.000
 00510,0.00000210,-0.00000433,0.00000329,0.00000261,0.00000549,-0.00000
 319,0.00000211,0.00000056,-0.00000515,0.00000215,-0.00000337,-0.000002
 27,0.00000002,0.00000419,0.00000153,0.00000177,0.00000068,-0.00000388,
 -0.00000252,0.00000549,-0.00000617,-0.00000853,-0.00000209,0.00000453,
 -0.00000477,0.00000025,0.00000178,-0.00000381,-0.00000320,-0.00001438,
 -0.00000042,-0.00000271,0.00001317,0.00000101,-0.00000577,0.00000419,0
 .00000226,0.00000056,-0.00000130,-0.00000611\\\@


 ALL MY ATTEMPTS TO ADAPT THE THEORETICAL FOUNDATIONS OF PHYSICS
 TO THESE NEW NOTIONS FAILED COMPLETELY. IT WAS AS IF THE GROUND HAD
 BEEN PULLED OUT FROM UNDER ONE WITH NO FIRM FOUNDATION TO BE SEEN ANYWHERE,
 UPON WHICH ONE COULD HAVE BUILT.  -- A.EINSTEIN
 Job cpu time:       3 days 20 hours 54 minutes 26.1 seconds.
 File lengths (MBytes):  RWF=   8995 Int=      0 D2E=      0 Chk=     41 Scr=      1
 Normal termination of Gaussian 09 at Sun Feb  2 22:54:32 2020.
