 Entering Gaussian System, Link 0=/share/apps/gaussian16/g16/g16
 Initial command:
 /share/apps/gaussian16/g16/l1.exe "/home/amen01//scratch/577/Gau-49146.inp" -scrdir="/home/amen01//scratch/577/"
 Entering Link 1 = /share/apps/gaussian16/g16/l1.exe PID=     49147.
  
 Copyright (c) 1988-2017, Gaussian, Inc.  All Rights Reserved.
  
 This is part of the Gaussian(R) 16 program.  It is based on
 the Gaussian(R) 09 system (copyright 2009, Gaussian, Inc.),
 the Gaussian(R) 03 system (copyright 2003, Gaussian, Inc.),
 the Gaussian(R) 98 system (copyright 1998, Gaussian, Inc.),
 the Gaussian(R) 94 system (copyright 1995, Gaussian, Inc.),
 the Gaussian 92(TM) system (copyright 1992, Gaussian, Inc.),
 the Gaussian 90(TM) system (copyright 1990, Gaussian, Inc.),
 the Gaussian 88(TM) system (copyright 1988, Gaussian, Inc.),
 the Gaussian 86(TM) system (copyright 1986, Carnegie Mellon
 University), and the Gaussian 82(TM) system (copyright 1983,
 Carnegie Mellon University). Gaussian is a federally registered
 trademark of Gaussian, Inc.
  
 This software contains proprietary and confidential information,
 including trade secrets, belonging to Gaussian, Inc.
  
 This software is provided under written license and may be
 used, copied, transmitted, or stored only in accord with that
 written license.
  
 The following legend is applicable only to US Government
 contracts under FAR:
  
                    RESTRICTED RIGHTS LEGEND
  
 Use, reproduction and disclosure by the US Government is
 subject to restrictions as set forth in subparagraphs (a)
 and (c) of the Commercial Computer Software - Restricted
 Rights clause in FAR 52.227-19.
  
 Gaussian, Inc.
 340 Quinnipiac St., Bldg. 40, Wallingford CT 06492
  
  
 ---------------------------------------------------------------
 Warning -- This program may not be used in any manner that
 competes with the business of Gaussian, Inc. or will provide
 assistance to any competitor of Gaussian, Inc.  The licensee
 of this program is prohibited from giving any competitor of
 Gaussian, Inc. access to this program.  By using this program,
 the user acknowledges that Gaussian, Inc. is engaged in the
 business of creating and licensing software in the field of
 computational chemistry and represents and warrants to the
 licensee that it is not a competitor of Gaussian, Inc. and that
 it will not use this program in any manner prohibited above.
 ---------------------------------------------------------------
  

 Cite this work as:
 Gaussian 16, Revision B.01,
 M. J. Frisch, G. W. Trucks, H. B. Schlegel, G. E. Scuseria, 
 M. A. Robb, J. R. Cheeseman, G. Scalmani, V. Barone, 
 G. A. Petersson, H. Nakatsuji, X. Li, M. Caricato, A. V. Marenich, 
 J. Bloino, B. G. Janesko, R. Gomperts, B. Mennucci, H. P. Hratchian, 
 J. V. Ortiz, A. F. Izmaylov, J. L. Sonnenberg, D. Williams-Young, 
 F. Ding, F. Lipparini, F. Egidi, J. Goings, B. Peng, A. Petrone, 
 T. Henderson, D. Ranasinghe, V. G. Zakrzewski, J. Gao, N. Rega, 
 G. Zheng, W. Liang, M. Hada, M. Ehara, K. Toyota, R. Fukuda, 
 J. Hasegawa, M. Ishida, T. Nakajima, Y. Honda, O. Kitao, H. Nakai, 
 T. Vreven, K. Throssell, J. A. Montgomery, Jr., J. E. Peralta, 
 F. Ogliaro, M. J. Bearpark, J. J. Heyd, E. N. Brothers, K. N. Kudin, 
 V. N. Staroverov, T. A. Keith, R. Kobayashi, J. Normand, 
 K. Raghavachari, A. P. Rendell, J. C. Burant, S. S. Iyengar, 
 J. Tomasi, M. Cossi, J. M. Millam, M. Klene, C. Adamo, R. Cammi, 
 J. W. Ochterski, R. L. Martin, K. Morokuma, O. Farkas, 
 J. B. Foresman, and D. J. Fox, Gaussian, Inc., Wallingford CT, 2016.
 
 ******************************************
 Gaussian 16:  ES64L-G16RevB.01 20-Dec-2017
                20-Jun-2019 
 ******************************************
 %nprocshared=20
 Will use up to   20 processors via shared memory.
 %mem=100GB
 %chk=7-HACAsite2-3a.chk
 --------------------------------------------------------
 # opt=modredundant freq b3lyp/6-311+g(d,p) int=grid=fine
 --------------------------------------------------------
 1/18=120,19=15,26=3,38=1/1,3;
 2/9=110,12=2,17=6,18=5,40=1/2;
 3/5=4,6=6,7=111,11=2,25=1,30=1,71=1,74=-5,75=-4/1,2,3;
 4//1;
 5/5=2,38=5/2;
 6/7=2,8=2,9=2,10=2,28=1/1;
 7//1,2,3,16;
 1/18=20,19=15,26=3/3(2);
 2/9=110/2;
 99//99;
 2/9=110/2;
 3/5=4,6=6,7=111,11=2,25=1,30=1,71=1,74=-5,75=-4/1,2,3;
 4/5=5,16=3,69=1/1;
 5/5=2,38=5/2;
 7//1,2,3,16;
 1/18=20,19=15,26=3/3(-5);
 2/9=110/2;
 6/7=2,8=2,9=2,10=2,19=2,28=1/1;
 99/9=1/99;
 --------------
 7-HACAsite2-3a
 --------------
 Symbolic Z-matrix:
 Charge =  0 Multiplicity = 3
 C                    -3.71494  -0.59724   0.21091 
 C                    -2.45636  -0.00446   0.12884 
 C                    -1.25806  -0.75342   0.11213 
 C                    -1.27078  -2.15019   0.13025 
 C                    -3.72386  -2.04219   0.29714 
 C                    -2.57044  -2.77377   0.24687 
 C                    -0.13862   0.09203  -0.04681 
 C                     1.14349  -0.52349  -0.05335 
 C                     1.15216  -1.97161  -0.15296 
 C                    -0.01736  -2.74976  -0.05648 
 C                     2.42914   0.14604   0.09733 
 C                     3.63427  -0.58162  -0.15068 
 C                     3.57233  -1.98496  -0.43687 
 C                     2.39666  -2.65444  -0.37942 
 C                     2.55574   1.47057   0.57368 
 C                     3.78631   2.08011   0.70762 
 C                     4.96393   1.38755   0.37484 
 C                     4.87941   0.07104  -0.03077 
 C                    -4.80622   0.29715   0.14352 
 C                    -4.573     1.65947  -0.04771 
 C                    -3.2747    2.208    -0.17213 
 C                    -2.1732    1.35802  -0.07653 
 C                    -0.70009   1.43293  -0.31243 
 H                    -3.17421   3.27424  -0.3491 
 H                    -5.41693   2.33343  -0.10976 
 H                    -5.82429  -0.0657    0.22243 
 H                    -4.67766  -2.55228   0.37643 
 H                    -2.62833  -3.85676   0.27834 
 H                     0.06804  -3.82898  -0.12781 
 H                     2.37165  -3.72941  -0.52229 
 H                     4.50101  -2.51101  -0.63028 
 H                     5.78285  -0.49572  -0.24842 
 H                     1.67213   2.02311   0.85328 
 H                     3.83726   3.09827   1.08013 
 H                     5.9273    1.86747   0.47607 
 C                     0.009     2.53745  -0.87568 
 C                    -0.20179   3.75073  -0.2448 
 H                     0.8817    2.33598  -1.51012 
 H                    -1.1786    4.03252   0.23784 
 
 The following ModRedundant input section has been read:
 

 GradGradGradGradGradGradGradGradGradGradGradGradGradGradGradGradGradGrad
 Berny optimization.
 Initialization pass.
                           ----------------------------
                           !    Initial Parameters    !
                           ! (Angstroms and Degrees)  !
 --------------------------                            --------------------------
 ! Name  Definition              Value          Derivative Info.                !
 --------------------------------------------------------------------------------
 ! R1    R(1,2)                  1.3936         estimate D2E/DX2                !
 ! R2    R(1,5)                  1.4475         estimate D2E/DX2                !
 ! R3    R(1,19)                 1.4126         estimate D2E/DX2                !
 ! R4    R(2,3)                  1.4132         estimate D2E/DX2                !
 ! R5    R(2,22)                 1.4067         estimate D2E/DX2                !
 ! R6    R(3,4)                  1.3969         estimate D2E/DX2                !
 ! R7    R(3,7)                  1.4118         estimate D2E/DX2                !
 ! R8    R(4,6)                  1.4462         estimate D2E/DX2                !
 ! R9    R(4,10)                 1.4019         estimate D2E/DX2                !
 ! R10   R(5,6)                  1.3668         estimate D2E/DX2                !
 ! R11   R(5,27)                 1.0845         estimate D2E/DX2                !
 ! R12   R(6,28)                 1.085          estimate D2E/DX2                !
 ! R13   R(7,8)                  1.4222         estimate D2E/DX2                !
 ! R14   R(7,23)                 1.4778         estimate D2E/DX2                !
 ! R15   R(8,9)                  1.4516         estimate D2E/DX2                !
 ! R16   R(8,11)                 1.4574         estimate D2E/DX2                !
 ! R17   R(9,10)                 1.408          estimate D2E/DX2                !
 ! R18   R(9,14)                 1.4375         estimate D2E/DX2                !
 ! R19   R(10,29)                1.0849         estimate D2E/DX2                !
 ! R20   R(11,12)                1.4295         estimate D2E/DX2                !
 ! R21   R(11,15)                1.4133         estimate D2E/DX2                !
 ! R22   R(12,13)                1.4336         estimate D2E/DX2                !
 ! R23   R(12,18)                1.4109         estimate D2E/DX2                !
 ! R24   R(13,14)                1.3541         estimate D2E/DX2                !
 ! R25   R(13,31)                1.0847         estimate D2E/DX2                !
 ! R26   R(14,30)                1.0847         estimate D2E/DX2                !
 ! R27   R(15,16)                1.3798         estimate D2E/DX2                !
 ! R28   R(15,33)                1.079          estimate D2E/DX2                !
 ! R29   R(16,17)                1.4061         estimate D2E/DX2                !
 ! R30   R(16,34)                1.0854         estimate D2E/DX2                !
 ! R31   R(17,18)                1.3802         estimate D2E/DX2                !
 ! R32   R(17,35)                1.081          estimate D2E/DX2                !
 ! R33   R(18,32)                1.0885         estimate D2E/DX2                !
 ! R34   R(19,20)                1.3953         estimate D2E/DX2                !
 ! R35   R(19,26)                1.0837         estimate D2E/DX2                !
 ! R36   R(20,21)                1.4149         estimate D2E/DX2                !
 ! R37   R(20,25)                1.0818         estimate D2E/DX2                !
 ! R38   R(21,22)                1.3946         estimate D2E/DX2                !
 ! R39   R(21,24)                1.0855         estimate D2E/DX2                !
 ! R40   R(22,23)                1.4938         estimate D2E/DX2                !
 ! R41   R(23,36)                1.4283         estimate D2E/DX2                !
 ! R42   R(36,37)                1.3837         estimate D2E/DX2                !
 ! R43   R(36,38)                1.0976         estimate D2E/DX2                !
 ! R44   R(37,39)                1.1254         estimate D2E/DX2                !
 ! A1    A(2,1,5)              115.7004         estimate D2E/DX2                !
 ! A2    A(2,1,19)             115.1864         estimate D2E/DX2                !
 ! A3    A(5,1,19)             129.0581         estimate D2E/DX2                !
 ! A4    A(1,2,3)              122.7547         estimate D2E/DX2                !
 ! A5    A(1,2,22)             127.0411         estimate D2E/DX2                !
 ! A6    A(3,2,22)             109.9325         estimate D2E/DX2                !
 ! A7    A(2,3,4)              121.4687         estimate D2E/DX2                !
 ! A8    A(2,3,7)              110.873          estimate D2E/DX2                !
 ! A9    A(4,3,7)              127.4052         estimate D2E/DX2                !
 ! A10   A(3,4,6)              116.1264         estimate D2E/DX2                !
 ! A11   A(3,4,10)             114.6927         estimate D2E/DX2                !
 ! A12   A(6,4,10)             129.035          estimate D2E/DX2                !
 ! A13   A(1,5,6)              121.7964         estimate D2E/DX2                !
 ! A14   A(1,5,27)             118.6372         estimate D2E/DX2                !
 ! A15   A(6,5,27)             119.545          estimate D2E/DX2                !
 ! A16   A(4,6,5)              122.0422         estimate D2E/DX2                !
 ! A17   A(4,6,28)             118.7291         estimate D2E/DX2                !
 ! A18   A(5,6,28)             119.2206         estimate D2E/DX2                !
 ! A19   A(3,7,8)              117.1386         estimate D2E/DX2                !
 ! A20   A(3,7,23)             105.2096         estimate D2E/DX2                !
 ! A21   A(8,7,23)             137.2556         estimate D2E/DX2                !
 ! A22   A(7,8,9)              115.9419         estimate D2E/DX2                !
 ! A23   A(7,8,11)             126.5817         estimate D2E/DX2                !
 ! A24   A(9,8,11)             117.3968         estimate D2E/DX2                !
 ! A25   A(8,9,10)             122.7973         estimate D2E/DX2                !
 ! A26   A(8,9,14)             119.3324         estimate D2E/DX2                !
 ! A27   A(10,9,14)            117.8638         estimate D2E/DX2                !
 ! A28   A(4,10,9)             121.023          estimate D2E/DX2                !
 ! A29   A(4,10,29)            120.3016         estimate D2E/DX2                !
 ! A30   A(9,10,29)            118.6753         estimate D2E/DX2                !
 ! A31   A(8,11,12)            119.4681         estimate D2E/DX2                !
 ! A32   A(8,11,15)            122.9868         estimate D2E/DX2                !
 ! A33   A(12,11,15)           117.3899         estimate D2E/DX2                !
 ! A34   A(11,12,13)           119.7704         estimate D2E/DX2                !
 ! A35   A(11,12,18)           119.59           estimate D2E/DX2                !
 ! A36   A(13,12,18)           120.5253         estimate D2E/DX2                !
 ! A37   A(12,13,14)           120.8648         estimate D2E/DX2                !
 ! A38   A(12,13,31)           118.252          estimate D2E/DX2                !
 ! A39   A(14,13,31)           120.7383         estimate D2E/DX2                !
 ! A40   A(9,14,13)            121.5665         estimate D2E/DX2                !
 ! A41   A(9,14,30)            118.1346         estimate D2E/DX2                !
 ! A42   A(13,14,30)           120.2905         estimate D2E/DX2                !
 ! A43   A(11,15,16)           121.7789         estimate D2E/DX2                !
 ! A44   A(11,15,33)           119.5982         estimate D2E/DX2                !
 ! A45   A(16,15,33)           118.619          estimate D2E/DX2                !
 ! A46   A(15,16,17)           120.4225         estimate D2E/DX2                !
 ! A47   A(15,16,34)           119.3142         estimate D2E/DX2                !
 ! A48   A(17,16,34)           120.2616         estimate D2E/DX2                !
 ! A49   A(16,17,18)           119.2145         estimate D2E/DX2                !
 ! A50   A(16,17,35)           120.3657         estimate D2E/DX2                !
 ! A51   A(18,17,35)           120.3685         estimate D2E/DX2                !
 ! A52   A(12,18,17)           121.3496         estimate D2E/DX2                !
 ! A53   A(12,18,32)           118.3347         estimate D2E/DX2                !
 ! A54   A(17,18,32)           120.3054         estimate D2E/DX2                !
 ! A55   A(1,19,20)            119.7097         estimate D2E/DX2                !
 ! A56   A(1,19,26)            120.6838         estimate D2E/DX2                !
 ! A57   A(20,19,26)           119.5988         estimate D2E/DX2                !
 ! A58   A(19,20,21)           122.9522         estimate D2E/DX2                !
 ! A59   A(19,20,25)           119.0609         estimate D2E/DX2                !
 ! A60   A(21,20,25)           117.9862         estimate D2E/DX2                !
 ! A61   A(20,21,22)           118.8443         estimate D2E/DX2                !
 ! A62   A(20,21,24)           118.6912         estimate D2E/DX2                !
 ! A63   A(22,21,24)           122.4612         estimate D2E/DX2                !
 ! A64   A(2,22,21)            116.1901         estimate D2E/DX2                !
 ! A65   A(2,22,23)            105.673          estimate D2E/DX2                !
 ! A66   A(21,22,23)           137.521          estimate D2E/DX2                !
 ! A67   A(7,23,22)            107.5058         estimate D2E/DX2                !
 ! A68   A(7,23,36)            125.7284         estimate D2E/DX2                !
 ! A69   A(22,23,36)           126.2035         estimate D2E/DX2                !
 ! A70   A(23,36,37)           115.0024         estimate D2E/DX2                !
 ! A71   A(23,36,38)           118.7335         estimate D2E/DX2                !
 ! A72   A(37,36,38)           123.0682         estimate D2E/DX2                !
 ! A73   A(36,37,39)           123.1843         estimate D2E/DX2                !
 ! D1    D(5,1,2,3)              0.8005         estimate D2E/DX2                !
 ! D2    D(5,1,2,22)           174.1952         estimate D2E/DX2                !
 ! D3    D(19,1,2,3)          -176.7473         estimate D2E/DX2                !
 ! D4    D(19,1,2,22)           -3.3525         estimate D2E/DX2                !
 ! D5    D(2,1,5,6)             -2.5023         estimate D2E/DX2                !
 ! D6    D(2,1,5,27)           179.1908         estimate D2E/DX2                !
 ! D7    D(19,1,5,6)           174.6396         estimate D2E/DX2                !
 ! D8    D(19,1,5,27)           -3.6673         estimate D2E/DX2                !
 ! D9    D(2,1,19,20)            2.485          estimate D2E/DX2                !
 ! D10   D(2,1,19,26)         -178.5317         estimate D2E/DX2                !
 ! D11   D(5,1,19,20)         -174.6691         estimate D2E/DX2                !
 ! D12   D(5,1,19,26)            4.3141         estimate D2E/DX2                !
 ! D13   D(1,2,3,4)              2.2926         estimate D2E/DX2                !
 ! D14   D(1,2,3,7)            176.9184         estimate D2E/DX2                !
 ! D15   D(22,2,3,4)          -172.1025         estimate D2E/DX2                !
 ! D16   D(22,2,3,7)             2.5232         estimate D2E/DX2                !
 ! D17   D(1,2,22,21)            1.8433         estimate D2E/DX2                !
 ! D18   D(1,2,22,23)         -170.7456         estimate D2E/DX2                !
 ! D19   D(3,2,22,21)          175.9369         estimate D2E/DX2                !
 ! D20   D(3,2,22,23)            3.3481         estimate D2E/DX2                !
 ! D21   D(2,3,4,6)             -3.5381         estimate D2E/DX2                !
 ! D22   D(2,3,4,10)           172.4731         estimate D2E/DX2                !
 ! D23   D(7,3,4,6)           -177.2129         estimate D2E/DX2                !
 ! D24   D(7,3,4,10)            -1.2018         estimate D2E/DX2                !
 ! D25   D(2,3,7,8)            178.7151         estimate D2E/DX2                !
 ! D26   D(2,3,7,23)            -7.2669         estimate D2E/DX2                !
 ! D27   D(4,3,7,8)             -7.0568         estimate D2E/DX2                !
 ! D28   D(4,3,7,23)           166.9613         estimate D2E/DX2                !
 ! D29   D(3,4,6,5)              1.8502         estimate D2E/DX2                !
 ! D30   D(3,4,6,28)          -179.1964         estimate D2E/DX2                !
 ! D31   D(10,4,6,5)          -173.4828         estimate D2E/DX2                !
 ! D32   D(10,4,6,28)            5.4707         estimate D2E/DX2                !
 ! D33   D(3,4,10,9)             4.3785         estimate D2E/DX2                !
 ! D34   D(3,4,10,29)         -175.7276         estimate D2E/DX2                !
 ! D35   D(6,4,10,9)           179.7668         estimate D2E/DX2                !
 ! D36   D(6,4,10,29)           -0.3394         estimate D2E/DX2                !
 ! D37   D(1,5,6,4)              1.1955         estimate D2E/DX2                !
 ! D38   D(1,5,6,28)          -177.753          estimate D2E/DX2                !
 ! D39   D(27,5,6,4)           179.4874         estimate D2E/DX2                !
 ! D40   D(27,5,6,28)            0.5389         estimate D2E/DX2                !
 ! D41   D(3,7,8,9)             11.3798         estimate D2E/DX2                !
 ! D42   D(3,7,8,11)          -165.2732         estimate D2E/DX2                !
 ! D43   D(23,7,8,9)          -160.0994         estimate D2E/DX2                !
 ! D44   D(23,7,8,11)           23.2476         estimate D2E/DX2                !
 ! D45   D(3,7,23,22)            9.1077         estimate D2E/DX2                !
 ! D46   D(3,7,23,36)         -162.7052         estimate D2E/DX2                !
 ! D47   D(8,7,23,22)         -178.7458         estimate D2E/DX2                !
 ! D48   D(8,7,23,36)            9.4413         estimate D2E/DX2                !
 ! D49   D(7,8,9,10)            -8.8641         estimate D2E/DX2                !
 ! D50   D(7,8,9,14)           170.1846         estimate D2E/DX2                !
 ! D51   D(11,8,9,10)          168.1091         estimate D2E/DX2                !
 ! D52   D(11,8,9,14)          -12.8423         estimate D2E/DX2                !
 ! D53   D(7,8,11,12)         -169.7395         estimate D2E/DX2                !
 ! D54   D(7,8,11,15)           14.9098         estimate D2E/DX2                !
 ! D55   D(9,8,11,12)           13.6505         estimate D2E/DX2                !
 ! D56   D(9,8,11,15)         -161.7002         estimate D2E/DX2                !
 ! D57   D(8,9,10,4)             0.6694         estimate D2E/DX2                !
 ! D58   D(8,9,10,29)         -179.2262         estimate D2E/DX2                !
 ! D59   D(14,9,10,4)         -178.3924         estimate D2E/DX2                !
 ! D60   D(14,9,10,29)           1.712          estimate D2E/DX2                !
 ! D61   D(8,9,14,13)            3.2972         estimate D2E/DX2                !
 ! D62   D(8,9,14,30)         -175.6498         estimate D2E/DX2                !
 ! D63   D(10,9,14,13)        -177.6074         estimate D2E/DX2                !
 ! D64   D(10,9,14,30)           3.4457         estimate D2E/DX2                !
 ! D65   D(8,11,12,13)          -5.0877         estimate D2E/DX2                !
 ! D66   D(8,11,12,18)         178.778          estimate D2E/DX2                !
 ! D67   D(15,11,12,13)        170.5206         estimate D2E/DX2                !
 ! D68   D(15,11,12,18)         -5.6137         estimate D2E/DX2                !
 ! D69   D(8,11,15,16)         179.9453         estimate D2E/DX2                !
 ! D70   D(8,11,15,33)           0.6759         estimate D2E/DX2                !
 ! D71   D(12,11,15,16)          4.504          estimate D2E/DX2                !
 ! D72   D(12,11,15,33)       -174.7654         estimate D2E/DX2                !
 ! D73   D(11,12,13,14)         -4.8994         estimate D2E/DX2                !
 ! D74   D(11,12,13,31)        179.4445         estimate D2E/DX2                !
 ! D75   D(18,12,13,14)        171.1981         estimate D2E/DX2                !
 ! D76   D(18,12,13,31)         -4.4579         estimate D2E/DX2                !
 ! D77   D(11,12,18,17)          2.6629         estimate D2E/DX2                !
 ! D78   D(11,12,18,32)       -178.4974         estimate D2E/DX2                !
 ! D79   D(13,12,18,17)       -173.4416         estimate D2E/DX2                !
 ! D80   D(13,12,18,32)          5.3981         estimate D2E/DX2                !
 ! D81   D(12,13,14,9)           5.8134         estimate D2E/DX2                !
 ! D82   D(12,13,14,30)       -175.262          estimate D2E/DX2                !
 ! D83   D(31,13,14,9)        -178.6387         estimate D2E/DX2                !
 ! D84   D(31,13,14,30)          0.2859         estimate D2E/DX2                !
 ! D85   D(11,15,16,17)         -0.2994         estimate D2E/DX2                !
 ! D86   D(11,15,16,34)       -179.8316         estimate D2E/DX2                !
 ! D87   D(33,15,16,17)        178.9769         estimate D2E/DX2                !
 ! D88   D(33,15,16,34)         -0.5553         estimate D2E/DX2                !
 ! D89   D(15,16,17,18)         -2.8625         estimate D2E/DX2                !
 ! D90   D(15,16,17,35)        179.734          estimate D2E/DX2                !
 ! D91   D(34,16,17,18)        176.6652         estimate D2E/DX2                !
 ! D92   D(34,16,17,35)         -0.7383         estimate D2E/DX2                !
 ! D93   D(16,17,18,12)          1.644          estimate D2E/DX2                !
 ! D94   D(16,17,18,32)       -177.1731         estimate D2E/DX2                !
 ! D95   D(35,17,18,12)        179.0474         estimate D2E/DX2                !
 ! D96   D(35,17,18,32)          0.2303         estimate D2E/DX2                !
 ! D97   D(1,19,20,21)          -0.4236         estimate D2E/DX2                !
 ! D98   D(1,19,20,25)         179.2632         estimate D2E/DX2                !
 ! D99   D(26,19,20,21)       -179.418          estimate D2E/DX2                !
 ! D100  D(26,19,20,25)          0.2689         estimate D2E/DX2                !
 ! D101  D(19,20,21,22)         -1.1795         estimate D2E/DX2                !
 ! D102  D(19,20,21,24)        178.1802         estimate D2E/DX2                !
 ! D103  D(25,20,21,22)        179.1305         estimate D2E/DX2                !
 ! D104  D(25,20,21,24)         -1.5099         estimate D2E/DX2                !
 ! D105  D(20,21,22,2)           0.5308         estimate D2E/DX2                !
 ! D106  D(20,21,22,23)        169.9337         estimate D2E/DX2                !
 ! D107  D(24,21,22,2)        -178.8034         estimate D2E/DX2                !
 ! D108  D(24,21,22,23)         -9.4005         estimate D2E/DX2                !
 ! D109  D(2,22,23,7)           -7.7241         estimate D2E/DX2                !
 ! D110  D(2,22,23,36)         164.039          estimate D2E/DX2                !
 ! D111  D(21,22,23,7)        -177.8553         estimate D2E/DX2                !
 ! D112  D(21,22,23,36)         -6.0921         estimate D2E/DX2                !
 ! D113  D(7,23,36,37)        -135.502          estimate D2E/DX2                !
 ! D114  D(7,23,36,38)          24.936          estimate D2E/DX2                !
 ! D115  D(22,23,36,37)         54.1874         estimate D2E/DX2                !
 ! D116  D(22,23,36,38)       -145.3746         estimate D2E/DX2                !
 ! D117  D(23,36,37,39)        -32.7749         estimate D2E/DX2                !
 ! D118  D(38,36,37,39)        167.7336         estimate D2E/DX2                !
 --------------------------------------------------------------------------------
 Trust Radius=3.00D-01 FncErr=1.00D-07 GrdErr=1.00D-06 EigMax=2.50D+02 EigMin=1.00D-04
 Number of steps in this run=    234 maximum allowed number of steps=    234.
 GradGradGradGradGradGradGradGradGradGradGradGradGradGradGradGradGradGrad

                          Input orientation:                          
 ---------------------------------------------------------------------
 Center     Atomic      Atomic             Coordinates (Angstroms)
 Number     Number       Type             X           Y           Z
 ---------------------------------------------------------------------
      1          6           0       -3.714940   -0.597240    0.210910
      2          6           0       -2.456360   -0.004460    0.128840
      3          6           0       -1.258060   -0.753420    0.112130
      4          6           0       -1.270780   -2.150190    0.130250
      5          6           0       -3.723860   -2.042190    0.297140
      6          6           0       -2.570440   -2.773770    0.246870
      7          6           0       -0.138620    0.092030   -0.046810
      8          6           0        1.143490   -0.523490   -0.053350
      9          6           0        1.152160   -1.971610   -0.152960
     10          6           0       -0.017360   -2.749760   -0.056480
     11          6           0        2.429140    0.146040    0.097330
     12          6           0        3.634270   -0.581620   -0.150680
     13          6           0        3.572330   -1.984960   -0.436870
     14          6           0        2.396660   -2.654440   -0.379420
     15          6           0        2.555740    1.470570    0.573680
     16          6           0        3.786310    2.080110    0.707620
     17          6           0        4.963930    1.387550    0.374840
     18          6           0        4.879410    0.071040   -0.030770
     19          6           0       -4.806220    0.297150    0.143520
     20          6           0       -4.573000    1.659470   -0.047710
     21          6           0       -3.274700    2.208000   -0.172130
     22          6           0       -2.173200    1.358020   -0.076530
     23          6           0       -0.700090    1.432930   -0.312430
     24          1           0       -3.174210    3.274240   -0.349100
     25          1           0       -5.416930    2.333430   -0.109760
     26          1           0       -5.824290   -0.065700    0.222430
     27          1           0       -4.677660   -2.552280    0.376430
     28          1           0       -2.628330   -3.856760    0.278340
     29          1           0        0.068040   -3.828980   -0.127810
     30          1           0        2.371650   -3.729410   -0.522290
     31          1           0        4.501010   -2.511010   -0.630280
     32          1           0        5.782850   -0.495720   -0.248420
     33          1           0        1.672130    2.023110    0.853280
     34          1           0        3.837260    3.098270    1.080130
     35          1           0        5.927300    1.867470    0.476070
     36          6           0        0.009000    2.537450   -0.875680
     37          6           0       -0.201790    3.750730   -0.244800
     38          1           0        0.881700    2.335980   -1.510120
     39          1           0       -1.178600    4.032520    0.237840
 ---------------------------------------------------------------------
                    Distance matrix (angstroms):
                    1          2          3          4          5
     1  C    0.000000
     2  C    1.393609   0.000000
     3  C    2.463820   1.413203   0.000000
     4  C    2.896908   2.451481   1.396945   0.000000
     5  C    1.447548   2.405665   2.788427   2.461121   0.000000
     6  C    2.459361   2.774171   2.412946   1.446226   1.366790
     7  C    3.651243   2.326388   1.411805   2.518072   4.186543
     8  C    4.866170   3.641635   2.418201   2.916944   5.110811
     9  C    5.070499   4.119528   2.713562   2.445963   4.897259
    10  C    4.286833   3.676919   2.356510   1.401932   3.789966
    11  C    6.189918   4.887919   3.795351   4.354672   6.533581
    12  C    7.358117   6.124297   4.902395   5.157407   7.515044
    13  C    7.446455   6.370833   5.015053   4.879000   7.333242
    14  C    6.475509   5.552704   4.148792   3.736863   6.188162
    15  C    6.612781   5.243543   4.438945   5.286661   7.200648
    16  C    7.980205   6.606917   5.816285   6.618380   8.576975
    17  C    8.904440   7.553735   6.585281   7.172659   9.340602
    18  C    8.623680   7.337895   6.194247   6.540996   8.865073
    19  C    1.412575   2.369183   3.700557   4.299882   2.582172
    20  C    2.428146   2.698147   4.103220   5.044783   3.813430
    21  C    2.865293   2.378075   3.594113   4.806345   4.299543
    22  C    2.506517   1.406666   2.308951   3.628313   3.755743
    23  C    3.672165   2.311989   2.296020   3.655188   4.646635
    24  H    3.948969   3.390223   4.484017   5.768645   5.383695
    25  H    3.404178   3.779899   5.184021   6.111548   4.709363
    26  H    2.175322   3.369787   4.619045   5.008797   2.885117
    27  H    2.185500   3.389227   3.872908   3.439348   1.084534
    28  H    3.436530   3.859033   3.396467   2.185693   2.119718
    29  H    4.986964   4.589708   3.357854   2.162723   4.213277
    30  H    6.884377   6.132610   4.736433   4.023312   6.377572
    31  H    8.477733   7.433980   6.066892   5.832852   8.290259
    32  H    9.509432   8.262460   7.054844   7.254954   9.647110
    33  H    6.024898   4.656209   4.104197   5.157511   6.778839
    34  H    8.452696   7.081069   6.460250   7.385166   9.176488
    35  H    9.955797   8.597118   7.657083   8.250669  10.414526
    36  C    4.987453   3.680811   3.662108   4.962227   6.023525
    37  C    5.608452   4.395924   4.640094   6.008682   6.801220
    38  H    5.717939   4.393916   4.093246   5.239247   6.606493
    39  H    5.279055   4.235771   4.788250   6.184333   6.586651
                    6          7          8          9         10
     6  C    0.000000
     7  C    3.769988   0.000000
     8  C    4.352834   1.422221   0.000000
     9  C    3.828978   2.436389   1.451568   0.000000
    10  C    2.571151   2.844392   2.510749   1.408049   0.000000
    11  C    5.791671   2.572369   1.457351   2.485511   3.794032
    12  C    6.592571   3.833966   2.493359   2.844811   4.247835
    13  C    6.230838   4.270502   2.860463   2.436802   3.689917
    14  C    5.007850   3.752515   2.493533   1.437470   2.437390
    15  C    6.663254   3.089491   2.522676   3.787697   4.982884
    16  C    8.011287   4.463933   3.787124   4.908745   6.195111
    17  C    8.608118   5.281305   4.293155   5.108045   6.489732
    18  C    7.979367   5.018100   3.782998   4.252028   5.651188
    19  C    3.799993   4.675980   6.009264   6.382591   5.679511
    20  C    4.873463   4.703254   6.119118   6.780360   6.339972
    21  C    5.048720   3.785239   5.195724   6.088234   5.933214
    22  C    4.163421   2.396483   3.813273   4.706410   4.639171
    23  C    4.637602   1.477774   2.700646   3.879066   4.245766
    24  H    6.107221   4.408248   5.757843   6.802565   6.807342
    25  H    5.857745   5.734840   7.155717   7.854182   7.415997
    26  H    4.233412   5.694226   6.988246   7.241841   6.403312
    27  H    2.122786   5.270142   6.179522   5.882536   4.684528
    28  H    1.084993   4.679457   5.044535   4.246400   2.855647
    29  H    2.866257   3.927288   3.476838   2.150761   1.084941
    30  H    5.092063   4.596840   3.464997   2.171042   2.623750
    31  H    7.130487   5.351861   3.944113   3.425432   4.560912
    32  H    8.672501   5.953982   4.643542   4.861137   6.225751
    33  H    6.432510   2.796077   2.754380   4.152189   5.144155
    34  H    8.731197   5.110293   4.653850   5.868045   7.095733
    35  H    9.685310   6.342001   5.374180   6.159235   7.545953
    36  C    6.010215   2.586290   3.366400   4.707522   5.350362
    37  C    6.958545   3.664598   4.485018   5.881053   6.505832
    38  H    6.412007   2.866643   3.219826   4.524419   5.365271
    39  H    6.947149   4.085345   5.121925   6.452499   6.887265
                   11         12         13         14         15
    11  C    0.000000
    12  C    1.429453   0.000000
    13  C    2.476573   1.433564   0.000000
    14  C    2.840956   2.424991   1.354143   0.000000
    15  C    1.413265   2.428870   3.741037   4.236675   0.000000
    16  C    2.440285   2.800822   4.228527   5.052598   1.379776
    17  C    2.836110   2.433474   3.737546   4.847419   2.417811
    18  C    2.454762   1.410928   2.469921   3.703221   2.779116
    19  C    7.237085   8.491211   8.703159   7.801720   7.467289
    20  C    7.165296   8.508370   8.931949   8.203415   7.158264
    21  C    6.071085   7.450927   8.033232   7.473327   5.924024
    22  C    4.762421   6.123268   6.657062   6.088941   4.774758
    23  C    3.408236   4.782390   5.472753   5.128444   3.374468
    24  H    6.432921   7.827032   8.554688   8.135402   6.077588
    25  H    8.147906   9.509123   9.978090   9.273821   8.048297
    26  H    8.257093   9.479965   9.613257   8.639897   8.526922
    27  H    7.606933   8.558594   8.309371   7.115318   8.279149
    28  H    6.452377   7.080308   6.516390   5.208526   7.439237
    29  H    4.628851   4.823263   3.971898   2.620176   5.896267
    30  H    3.925092   3.411874   2.119442   1.084711   5.317408
    31  H    3.447024   2.168825   1.084704   2.124098   4.592012
    32  H    3.432021   2.152517   2.672031   4.017899   3.867348
    33  H    2.160536   3.412118   4.619510   4.891213   1.079001
    34  H    3.415313   3.885574   5.311375   6.107314   2.132649
    35  H    3.917128   3.413040   4.606578   5.800427   3.396244
    36  C    3.538738   4.837024   5.774259   5.736106   3.118455
    37  C    4.475783   5.787354   6.868698   6.913484   3.670560
    38  H    3.126388   4.235222   5.202103   5.336467   2.809549
    39  H    5.304739   6.678694   7.696534   7.607820   4.541109
                   16         17         18         19         20
    16  C    0.000000
    17  C    1.406119   0.000000
    18  C    2.403425   1.380167   0.000000
    19  C    8.793675   9.833530   9.689836   0.000000
    20  C    8.403899   9.550158   9.584960   1.395305   0.000000
    21  C    7.116753   8.297430   8.430664   2.469116   1.414902
    22  C    6.054095   7.151450   7.169220   2.847220   2.418831
    23  C    4.646195   5.705745   5.750208   4.284646   3.888551
    24  H    7.140829   8.385285   8.673097   3.430626   2.157529
    25  H    9.242938  10.435122  10.542261   2.140924   1.081799
    26  H    9.859186  10.886728  10.707567   1.083676   2.148235
    27  H    9.654404  10.415494   9.918932   2.861822   4.234346
    28  H    8.750904   9.227920   8.478757   4.692158   5.858058
    29  H    7.031417   7.171791   6.194260   6.391946   7.188098
    30  H    6.104463   5.805862   4.579724   8.257016   8.803035
    31  H    4.835200   4.052571   2.677607   9.752387  10.003497
    32  H    3.396334   2.146110   1.088482  10.625943  10.579639
    33  H    2.119958   3.386560   3.857300   6.741789   6.320258
    34  H    1.085361   2.166422   3.388849   9.134181   8.606663
    35  H    2.163948   1.081042   2.140589  10.852877  10.515413
    36  C    4.121173   5.238072   5.524305   5.407777   4.738260
    37  C    4.427529   5.714301   6.277302   5.768777   4.849710
    38  H    3.663414   4.595345   4.827019   6.264486   5.687711
    39  H    5.355645   6.689194   7.243270   5.207832   4.151488
                   21         22         23         24         25
    21  C    0.000000
    22  C    1.394599   0.000000
    23  C    2.692403   1.493758   0.000000
    24  H    1.085488   2.179040   3.084321   0.000000
    25  H    2.146805   3.387376   4.806304   2.443809   0.000000
    26  H    3.438866   3.930243   5.365575   4.301717   2.456037
    27  H    4.992943   4.665612   5.672521   6.060948   4.965185
    28  H    6.115720   5.246619   5.661090   7.179333   6.800394
    29  H    6.900797   5.650731   5.320884   7.811331   8.249880
    30  H    8.201019   6.836396   6.010772   8.935193   9.878775
    31  H    9.107174   7.734411   6.535069   9.615466  11.050116
    32  H    9.452784   8.170963   6.764045   9.718624  11.552419
    33  H    5.055371   4.011665   2.708250   5.147626   7.160902
    34  H    7.276037   6.363329   5.029923   7.157819   9.361669
    35  H    9.231085   8.135294   6.688263   9.246480  11.368899
    36  C    3.374345   2.606088   1.428294   3.309527   5.483518
    37  C    3.439197   3.104808   2.371724   3.012176   5.405984
    38  H    4.368324   3.513403   2.179913   4.321887   6.452422
    39  H    2.809018   2.870716   2.699933   2.214034   4.579429
                   26         27         28         29         30
    26  H    0.000000
    27  H    2.742546   0.000000
    28  H    4.958772   2.431264   0.000000
    29  H    7.000321   4.940232   2.726929   0.000000
    30  H    9.008375   7.203201   5.065277   2.339262   0.000000
    31  H   10.645115   9.233805   7.311916   4.651961   2.455674
    32  H   11.624643  10.679052   9.073148   6.616965   4.708295
    33  H    7.807523   7.841008   7.307351   6.146755   5.955922
    34  H   10.202544  10.243426   9.529909   7.978279   7.164704
    35  H   11.912235  11.489530  10.295859   8.194214   6.705553
    36  C    6.481474   7.031210   7.012360   6.410478   6.706753
    37  C    6.811457   7.755467   8.002229   7.585414   7.915307
    38  H    7.330764   7.639414   7.339546   6.370208   6.323347
    39  H    6.195004   7.458031   8.021477   7.968124   8.569109
                   31         32         33         34         35
    31  H    0.000000
    32  H    2.418744   0.000000
    33  H    5.546328   4.945328   0.000000
    34  H    5.901702   4.297340   2.428007   0.000000
    35  H    4.735969   2.475968   4.274691   2.499605   0.000000
    36  C    6.762050   6.552169   2.453538   4.335353   6.107567
    37  C    7.840555   7.338138   2.775253   4.300589   6.452292
    38  H    6.112842   5.799283   2.511638   4.003226   5.442659
    39  H    8.708007   8.318846   3.541632   5.171182   7.432228
                   36         37         38         39
    36  C    0.000000
    37  C    1.383651   0.000000
    38  H    1.097593   2.185521   0.000000
    39  H    2.210329   1.125391   3.190368   0.000000
 Stoichiometry    C25H14(3)
 Framework group  C1[X(C25H14)]
 Deg. of freedom   111
 Full point group                 C1      NOp   1
 Largest Abelian subgroup         C1      NOp   1
 Largest concise Abelian subgroup C1      NOp   1
                         Standard orientation:                         
 ---------------------------------------------------------------------
 Center     Atomic      Atomic             Coordinates (Angstroms)
 Number     Number       Type             X           Y           Z
 ---------------------------------------------------------------------
      1          6           0        3.716839   -0.585621   -0.212923
      2          6           0        2.456323    0.002904   -0.129957
      3          6           0        1.260524   -0.750048   -0.113492
      4          6           0        1.277880   -2.146752   -0.132784
      5          6           0        3.730533   -2.030461   -0.300364
      6          6           0        2.579567   -2.765912   -0.250339
      7          6           0        0.138332    0.091544    0.046512
      8          6           0       -1.141724   -0.528239    0.052945
      9          6           0       -1.145549   -1.976462    0.151347
     10          6           0        0.026519   -2.750640    0.053844
     11          6           0       -2.429640    0.137140   -0.096766
     12          6           0       -3.632265   -0.594728    0.151019
     13          6           0       -3.565570   -1.998092    0.436016
     14          6           0       -2.387701   -2.663613    0.377632
     15          6           0       -2.560794    1.461640   -0.571968
     16          6           0       -3.793425    2.067198   -0.705006
     17          6           0       -4.968631    1.370451   -0.372431
     18          6           0       -4.879606    0.053891    0.032051
     19          6           0        4.805163    0.312334   -0.145133
     20          6           0        4.567478    1.673711    0.047311
     21          6           0        3.267403    2.217819    0.172603
     22          6           0        2.168703    1.364263    0.076642
     23          6           0        0.695428    1.434080    0.313074
     24          1           0        3.163427    3.283571    0.350496
     25          1           0        5.409184    2.350420    0.109656
     26          1           0        5.824408   -0.047065   -0.224670
     27          1           0        4.685998   -2.537312   -0.380384
     28          1           0        2.641046   -3.848677   -0.282733
     29          1           0       -0.055271   -3.830197    0.124299
     30          1           0       -2.359073   -3.738613    0.519595
     31          1           0       -4.492435   -2.527387    0.629282
     32          1           0       -5.781088   -0.516050    0.249515
     33          1           0       -1.679115    2.017347   -0.851387
     34          1           0       -3.847878    3.085494   -1.076648
     35          1           0       -5.933622    1.847251   -0.472953
     36          6           0       -0.017148    2.535767    0.877473
     37          6           0        0.189407    3.750267    0.247541
     38          1           0       -0.888970    2.330868    1.512022
     39          1           0        1.165120    4.035705   -0.235174
 ---------------------------------------------------------------------
 Rotational constants (GHZ):           0.4506114           0.1797405           0.1309357
 Standard basis: 6-311+G(d,p) (5D, 7F)
 There are   659 symmetry adapted cartesian basis functions of A   symmetry.
 There are   634 symmetry adapted basis functions of A   symmetry.
   634 basis functions,  1012 primitive gaussians,   659 cartesian basis functions
    83 alpha electrons       81 beta electrons
       nuclear repulsion energy      1916.6180225704 Hartrees.
 NAtoms=   39 NActive=   39 NUniq=   39 SFac= 1.00D+00 NAtFMM=   60 NAOKFM=F Big=F
 Integral buffers will be    131072 words long.
 Raffenetti 2 integral format.
 Two-electron integral symmetry is turned on.
 One-electron integrals computed using PRISM.
 NBasis=   634 RedAO= T EigKep=  1.02D-06  NBF=   634
 NBsUse=   620 1.00D-06 EigRej=  6.86D-07 NBFU=   620
 ExpMin= 4.38D-02 ExpMax= 4.56D+03 ExpMxC= 6.82D+02 IAcc=2 IRadAn=         4 AccDes= 0.00D+00
 Harris functional with IExCor=  402 and IRadAn=       4 diagonalized for initial guess.
 HarFok:  IExCor=  402 AccDes= 0.00D+00 IRadAn=         4 IDoV= 1 UseB2=F ITyADJ=14
 ICtDFT=  3500011 ScaDFX=  1.000000  1.000000  1.000000  1.000000
 FoFCou: FMM=F IPFlag=           0 FMFlag=      100000 FMFlg1=           0
         NFxFlg=           0 DoJE=T BraDBF=F KetDBF=T FulRan=T
         wScrn=  0.000000 ICntrl=       500 IOpCl=  0 I1Cent=   200000004 NGrid=           0
         NMat0=    1 NMatS0=      1 NMatT0=    0 NMatD0=    1 NMtDS0=    0 NMtDT0=    0
 Petite list used in FoFCou.
 Initial guess <Sx>= 0.0000 <Sy>= 0.0000 <Sz>= 1.0000 <S**2>= 2.0000 S= 1.0000
 Requested convergence on RMS density matrix=1.00D-08 within 128 cycles.
 Requested convergence on MAX density matrix=1.00D-06.
 Requested convergence on             energy=1.00D-06.
 No special actions if energy rises.
 Restarting incremental Fock formation.
 SCF Done:  E(UB3LYP) =  -961.199655688     A.U. after   25 cycles
            NFock= 25  Conv=0.53D-08     -V/T= 2.0046
 <Sx>= 0.0000 <Sy>= 0.0000 <Sz>= 1.0000 <S**2>= 2.0602 S= 1.0199
 <L.S>=  0.00000000000    
 Annihilation of the first spin contaminant:
 S**2 before annihilation     2.0602,   after     2.0017

 **********************************************************************

            Population analysis using the SCF Density.

 **********************************************************************

 Orbital symmetries:
 Alpha Orbitals:
       Occupied  (A) (A) (A) (A) (A) (A) (A) (A) (A) (A) (A) (A)
                 (A) (A) (A) (A) (A) (A) (A) (A) (A) (A) (A) (A)
                 (A) (A) (A) (A) (A) (A) (A) (A) (A) (A) (A) (A)
                 (A) (A) (A) (A) (A) (A) (A) (A) (A) (A) (A) (A)
                 (A) (A) (A) (A) (A) (A) (A) (A) (A) (A) (A) (A)
                 (A) (A) (A) (A) (A) (A) (A) (A) (A) (A) (A) (A)
                 (A) (A) (A) (A) (A) (A) (A) (A) (A) (A) (A)
       Virtual   (A) (A) (A) (A) (A) (A) (A) (A) (A) (A) (A) (A)
                 (A) (A) (A) (A) (A) (A) (A) (A) (A) (A) (A) (A)
                 (A) (A) (A) (A) (A) (A) (A) (A) (A) (A) (A) (A)
                 (A) (A) (A) (A) (A) (A) (A) (A) (A) (A) (A) (A)
                 (A) (A) (A) (A) (A) (A) (A) (A) (A) (A) (A) (A)
                 (A) (A) (A) (A) (A) (A) (A) (A) (A) (A) (A) (A)
                 (A) (A) (A) (A) (A) (A) (A) (A) (A) (A) (A) (A)
                 (A) (A) (A) (A) (A) (A) (A) (A) (A) (A) (A) (A)
                 (A) (A) (A) (A) (A) (A) (A) (A) (A) (A) (A) (A)
                 (A) (A) (A) (A) (A) (A) (A) (A) (A) (A) (A) (A)
                 (A) (A) (A) (A) (A) (A) (A) (A) (A) (A) (A) (A)
                 (A) (A) (A) (A) (A) (A) (A) (A) (A) (A) (A) (A)
                 (A) (A) (A) (A) (A) (A) (A) (A) (A) (A) (A) (A)
                 (A) (A) (A) (A) (A) (A) (A) (A) (A) (A) (A) (A)
                 (A) (A) (A) (A) (A) (A) (A) (A) (A) (A) (A) (A)
                 (A) (A) (A) (A) (A) (A) (A) (A) (A) (A) (A) (A)
                 (A) (A) (A) (A) (A) (A) (A) (A) (A) (A) (A) (A)
                 (A) (A) (A) (A) (A) (A) (A) (A) (A) (A) (A) (A)
                 (A) (A) (A) (A) (A) (A) (A) (A) (A) (A) (A) (A)
                 (A) (A) (A) (A) (A) (A) (A) (A) (A) (A) (A) (A)
                 (A) (A) (A) (A) (A) (A) (A) (A) (A) (A) (A) (A)
                 (A) (A) (A) (A) (A) (A) (A) (A) (A) (A) (A) (A)
                 (A) (A) (A) (A) (A) (A) (A) (A) (A) (A) (A) (A)
                 (A) (A) (A) (A) (A) (A) (A) (A) (A) (A) (A) (A)
                 (A) (A) (A) (A) (A) (A) (A) (A) (A) (A) (A) (A)
                 (A) (A) (A) (A) (A) (A) (A) (A) (A) (A) (A) (A)
                 (A) (A) (A) (A) (A) (A) (A) (A) (A) (A) (A) (A)
                 (A) (A) (A) (A) (A) (A) (A) (A) (A) (A) (A) (A)
                 (A) (A) (A) (A) (A) (A) (A) (A) (A) (A) (A) (A)
                 (A) (A) (A) (A) (A) (A) (A) (A) (A) (A) (A) (A)
                 (A) (A) (A) (A) (A) (A) (A) (A) (A) (A) (A) (A)
                 (A) (A) (A) (A) (A) (A) (A) (A) (A) (A) (A) (A)
                 (A) (A) (A) (A) (A) (A) (A) (A) (A) (A) (A) (A)
                 (A) (A) (A) (A) (A) (A) (A) (A) (A) (A) (A) (A)
                 (A) (A) (A) (A) (A) (A) (A) (A) (A) (A) (A) (A)
                 (A) (A) (A) (A) (A) (A) (A) (A) (A) (A) (A) (A)
                 (A) (A) (A) (A) (A) (A) (A) (A) (A) (A) (A) (A)
                 (A) (A) (A) (A) (A) (A) (A) (A) (A) (A) (A) (A)
                 (A) (A) (A) (A) (A) (A) (A) (A) (A) (A) (A) (A)
                 (A) (A) (A) (A) (A) (A) (A) (A) (A) (A) (A) (A)
                 (A) (A) (A) (A) (A) (A) (A) (A) (A) (A) (A) (A)
                 (A) (A) (A) (A) (A) (A) (A) (A) (A) (A) (A) (A)
                 (A) (A) (A) (A) (A) (A) (A) (A) (A) (A) (A) (A)
                 (A) (A) (A) (A) (A) (A) (A) (A) (A) (A) (A) (A)
                 (A) (A) (A) (A) (A) (A) (A) (A) (A)
 Beta  Orbitals:
       Occupied  (A) (A) (A) (A) (A) (A) (A) (A) (A) (A) (A) (A)
                 (A) (A) (A) (A) (A) (A) (A) (A) (A) (A) (A) (A)
                 (A) (A) (A) (A) (A) (A) (A) (A) (A) (A) (A) (A)
                 (A) (A) (A) (A) (A) (A) (A) (A) (A) (A) (A) (A)
                 (A) (A) (A) (A) (A) (A) (A) (A) (A) (A) (A) (A)
                 (A) (A) (A) (A) (A) (A) (A) (A) (A) (A) (A) (A)
                 (A) (A) (A) (A) (A) (A) (A) (A) (A)
       Virtual   (A) (A) (A) (A) (A) (A) (A) (A) (A) (A) (A) (A)
                 (A) (A) (A) (A) (A) (A) (A) (A) (A) (A) (A) (A)
                 (A) (A) (A) (A) (A) (A) (A) (A) (A) (A) (A) (A)
                 (A) (A) (A) (A) (A) (A) (A) (A) (A) (A) (A) (A)
                 (A) (A) (A) (A) (A) (A) (A) (A) (A) (A) (A) (A)
                 (A) (A) (A) (A) (A) (A) (A) (A) (A) (A) (A) (A)
                 (A) (A) (A) (A) (A) (A) (A) (A) (A) (A) (A) (A)
                 (A) (A) (A) (A) (A) (A) (A) (A) (A) (A) (A) (A)
                 (A) (A) (A) (A) (A) (A) (A) (A) (A) (A) (A) (A)
                 (A) (A) (A) (A) (A) (A) (A) (A) (A) (A) (A) (A)
                 (A) (A) (A) (A) (A) (A) (A) (A) (A) (A) (A) (A)
                 (A) (A) (A) (A) (A) (A) (A) (A) (A) (A) (A) (A)
                 (A) (A) (A) (A) (A) (A) (A) (A) (A) (A) (A) (A)
                 (A) (A) (A) (A) (A) (A) (A) (A) (A) (A) (A) (A)
                 (A) (A) (A) (A) (A) (A) (A) (A) (A) (A) (A) (A)
                 (A) (A) (A) (A) (A) (A) (A) (A) (A) (A) (A) (A)
                 (A) (A) (A) (A) (A) (A) (A) (A) (A) (A) (A) (A)
                 (A) (A) (A) (A) (A) (A) (A) (A) (A) (A) (A) (A)
                 (A) (A) (A) (A) (A) (A) (A) (A) (A) (A) (A) (A)
                 (A) (A) (A) (A) (A) (A) (A) (A) (A) (A) (A) (A)
                 (A) (A) (A) (A) (A) (A) (A) (A) (A) (A) (A) (A)
                 (A) (A) (A) (A) (A) (A) (A) (A) (A) (A) (A) (A)
                 (A) (A) (A) (A) (A) (A) (A) (A) (A) (A) (A) (A)
                 (A) (A) (A) (A) (A) (A) (A) (A) (A) (A) (A) (A)
                 (A) (A) (A) (A) (A) (A) (A) (A) (A) (A) (A) (A)
                 (A) (A) (A) (A) (A) (A) (A) (A) (A) (A) (A) (A)
                 (A) (A) (A) (A) (A) (A) (A) (A) (A) (A) (A) (A)
                 (A) (A) (A) (A) (A) (A) (A) (A) (A) (A) (A) (A)
                 (A) (A) (A) (A) (A) (A) (A) (A) (A) (A) (A) (A)
                 (A) (A) (A) (A) (A) (A) (A) (A) (A) (A) (A) (A)
                 (A) (A) (A) (A) (A) (A) (A) (A) (A) (A) (A) (A)
                 (A) (A) (A) (A) (A) (A) (A) (A) (A) (A) (A) (A)
                 (A) (A) (A) (A) (A) (A) (A) (A) (A) (A) (A) (A)
                 (A) (A) (A) (A) (A) (A) (A) (A) (A) (A) (A) (A)
                 (A) (A) (A) (A) (A) (A) (A) (A) (A) (A) (A) (A)
                 (A) (A) (A) (A) (A) (A) (A) (A) (A) (A) (A) (A)
                 (A) (A) (A) (A) (A) (A) (A) (A) (A) (A) (A) (A)
                 (A) (A) (A) (A) (A) (A) (A) (A) (A) (A) (A) (A)
                 (A) (A) (A) (A) (A) (A) (A) (A) (A) (A) (A) (A)
                 (A) (A) (A) (A) (A) (A) (A) (A) (A) (A) (A) (A)
                 (A) (A) (A) (A) (A) (A) (A) (A) (A) (A) (A) (A)
                 (A) (A) (A) (A) (A) (A) (A) (A) (A) (A) (A) (A)
                 (A) (A) (A) (A) (A) (A) (A) (A) (A) (A) (A) (A)
                 (A) (A) (A) (A) (A) (A) (A) (A) (A) (A) (A) (A)
                 (A) (A) (A) (A) (A) (A) (A) (A) (A) (A) (A)
 The electronic state is 3-A.
 Alpha  occ. eigenvalues --  -10.21955 -10.21837 -10.20807 -10.20363 -10.19710
 Alpha  occ. eigenvalues --  -10.19584 -10.19390 -10.19352 -10.19341 -10.19330
 Alpha  occ. eigenvalues --  -10.19300 -10.19249 -10.19120 -10.19029 -10.18962
 Alpha  occ. eigenvalues --  -10.18922 -10.18602 -10.18375 -10.18220 -10.18138
 Alpha  occ. eigenvalues --  -10.18097 -10.17948 -10.17822 -10.17808 -10.17426
 Alpha  occ. eigenvalues --   -0.91792  -0.88653  -0.85842  -0.84895  -0.82952
 Alpha  occ. eigenvalues --   -0.79944  -0.79216  -0.78546  -0.75483  -0.74926
 Alpha  occ. eigenvalues --   -0.72830  -0.71730  -0.69221  -0.64947  -0.64376
 Alpha  occ. eigenvalues --   -0.62539  -0.61544  -0.60577  -0.59443  -0.56919
 Alpha  occ. eigenvalues --   -0.55803  -0.53250  -0.52012  -0.51962  -0.50756
 Alpha  occ. eigenvalues --   -0.48807  -0.47965  -0.46895  -0.46158  -0.45809
 Alpha  occ. eigenvalues --   -0.44180  -0.44177  -0.43378  -0.43243  -0.42604
 Alpha  occ. eigenvalues --   -0.42068  -0.41527  -0.41019  -0.40298  -0.39839
 Alpha  occ. eigenvalues --   -0.38449  -0.37683  -0.37005  -0.36028  -0.35483
 Alpha  occ. eigenvalues --   -0.34663  -0.34121  -0.33777  -0.33253  -0.30624
 Alpha  occ. eigenvalues --   -0.29487  -0.29290  -0.27340  -0.25896  -0.25212
 Alpha  occ. eigenvalues --   -0.23185  -0.21541  -0.18623
 Alpha virt. eigenvalues --   -0.07230  -0.05599  -0.04682  -0.02463  -0.00612
 Alpha virt. eigenvalues --    0.00099   0.00442   0.00610   0.00749   0.01755
 Alpha virt. eigenvalues --    0.01796   0.02373   0.02691   0.03260   0.03502
 Alpha virt. eigenvalues --    0.03529   0.03812   0.04765   0.05087   0.05578
 Alpha virt. eigenvalues --    0.05651   0.05815   0.06728   0.07150   0.07314
 Alpha virt. eigenvalues --    0.07454   0.07775   0.08010   0.08352   0.08780
 Alpha virt. eigenvalues --    0.09421   0.09602   0.10418   0.10444   0.10616
 Alpha virt. eigenvalues --    0.10845   0.11600   0.12009   0.12254   0.12469
 Alpha virt. eigenvalues --    0.12719   0.13365   0.13473   0.13842   0.14226
 Alpha virt. eigenvalues --    0.14512   0.15077   0.15360   0.15647   0.15906
 Alpha virt. eigenvalues --    0.16066   0.16199   0.16547   0.16717   0.16993
 Alpha virt. eigenvalues --    0.17292   0.17511   0.17662   0.17857   0.18371
 Alpha virt. eigenvalues --    0.18473   0.18879   0.19194   0.19346   0.19759
 Alpha virt. eigenvalues --    0.20109   0.20213   0.20423   0.20549   0.20828
 Alpha virt. eigenvalues --    0.21118   0.21251   0.21653   0.21698   0.22000
 Alpha virt. eigenvalues --    0.22456   0.22631   0.22692   0.22990   0.23268
 Alpha virt. eigenvalues --    0.23339   0.24101   0.24236   0.24342   0.24748
 Alpha virt. eigenvalues --    0.24880   0.25127   0.25209   0.25656   0.25819
 Alpha virt. eigenvalues --    0.26059   0.26319   0.26674   0.27507   0.27624
 Alpha virt. eigenvalues --    0.27806   0.27832   0.28335   0.28650   0.28890
 Alpha virt. eigenvalues --    0.29036   0.29232   0.29601   0.29735   0.30102
 Alpha virt. eigenvalues --    0.30840   0.31365   0.31476   0.31812   0.32044
 Alpha virt. eigenvalues --    0.32322   0.32637   0.33063   0.33506   0.33754
 Alpha virt. eigenvalues --    0.35200   0.35257   0.35848   0.36328   0.37017
 Alpha virt. eigenvalues --    0.37705   0.37764   0.38673   0.39318   0.39892
 Alpha virt. eigenvalues --    0.40747   0.41171   0.42239   0.42523   0.43272
 Alpha virt. eigenvalues --    0.44185   0.44471   0.45323   0.46334   0.47300
 Alpha virt. eigenvalues --    0.48144   0.48387   0.49725   0.50786   0.51612
 Alpha virt. eigenvalues --    0.52191   0.52574   0.53125   0.53352   0.53891
 Alpha virt. eigenvalues --    0.53955   0.54464   0.54855   0.54947   0.55304
 Alpha virt. eigenvalues --    0.55671   0.56144   0.56649   0.57352   0.57764
 Alpha virt. eigenvalues --    0.58126   0.58319   0.58663   0.59132   0.59737
 Alpha virt. eigenvalues --    0.60606   0.61007   0.61271   0.61449   0.61778
 Alpha virt. eigenvalues --    0.62480   0.62865   0.63402   0.63649   0.64279
 Alpha virt. eigenvalues --    0.64774   0.65085   0.65964   0.66372   0.66634
 Alpha virt. eigenvalues --    0.67268   0.67785   0.68001   0.68254   0.68974
 Alpha virt. eigenvalues --    0.69432   0.69789   0.70244   0.70728   0.71182
 Alpha virt. eigenvalues --    0.71360   0.71553   0.71976   0.72516   0.72808
 Alpha virt. eigenvalues --    0.73189   0.73648   0.73766   0.74285   0.74522
 Alpha virt. eigenvalues --    0.75714   0.75958   0.76418   0.77184   0.77564
 Alpha virt. eigenvalues --    0.78647   0.78972   0.79696   0.81209   0.81700
 Alpha virt. eigenvalues --    0.82614   0.83193   0.83617   0.84530   0.84998
 Alpha virt. eigenvalues --    0.85855   0.86097   0.87041   0.87814   0.88759
 Alpha virt. eigenvalues --    0.89021   0.89721   0.90215   0.90424   0.91201
 Alpha virt. eigenvalues --    0.91417   0.92339   0.92405   0.92779   0.93190
 Alpha virt. eigenvalues --    0.94514   0.94857   0.95227   0.95372   0.95657
 Alpha virt. eigenvalues --    0.95917   0.96850   0.97224   0.97704   0.98207
 Alpha virt. eigenvalues --    0.98705   0.99499   1.00354   1.01261   1.01796
 Alpha virt. eigenvalues --    1.02459   1.02508   1.02974   1.03917   1.04350
 Alpha virt. eigenvalues --    1.05774   1.06295   1.06663   1.07988   1.08428
 Alpha virt. eigenvalues --    1.08946   1.09560   1.10439   1.11243   1.12108
 Alpha virt. eigenvalues --    1.13666   1.13755   1.15354   1.16165   1.17265
 Alpha virt. eigenvalues --    1.18928   1.20056   1.20757   1.21029   1.22640
 Alpha virt. eigenvalues --    1.25280   1.26358   1.28017   1.29866   1.32023
 Alpha virt. eigenvalues --    1.32579   1.33664   1.35112   1.36654   1.37659
 Alpha virt. eigenvalues --    1.38999   1.40376   1.40882   1.42833   1.43833
 Alpha virt. eigenvalues --    1.46054   1.46580   1.47278   1.48242   1.48445
 Alpha virt. eigenvalues --    1.49438   1.49791   1.50267   1.50756   1.51700
 Alpha virt. eigenvalues --    1.52524   1.53380   1.53572   1.53956   1.54661
 Alpha virt. eigenvalues --    1.55344   1.56415   1.56620   1.57215   1.58686
 Alpha virt. eigenvalues --    1.59402   1.60321   1.61151   1.62133   1.63095
 Alpha virt. eigenvalues --    1.64206   1.64879   1.66114   1.66625   1.67448
 Alpha virt. eigenvalues --    1.68713   1.69323   1.70361   1.70997   1.71331
 Alpha virt. eigenvalues --    1.72981   1.73333   1.74048   1.74469   1.74871
 Alpha virt. eigenvalues --    1.75482   1.76128   1.76487   1.78005   1.78702
 Alpha virt. eigenvalues --    1.80182   1.82180   1.82399   1.83847   1.84196
 Alpha virt. eigenvalues --    1.84766   1.85399   1.86057   1.86798   1.87494
 Alpha virt. eigenvalues --    1.88829   1.89106   1.89789   1.90587   1.91333
 Alpha virt. eigenvalues --    1.91968   1.92647   1.92767   1.93490   1.93708
 Alpha virt. eigenvalues --    1.94803   1.95143   1.96100   1.97163   1.97478
 Alpha virt. eigenvalues --    1.98212   1.99156   1.99907   2.00881   2.01372
 Alpha virt. eigenvalues --    2.02462   2.03716   2.03964   2.04194   2.05451
 Alpha virt. eigenvalues --    2.06088   2.08242   2.09365   2.09931   2.11562
 Alpha virt. eigenvalues --    2.12256   2.13160   2.13810   2.14513   2.15593
 Alpha virt. eigenvalues --    2.16491   2.18834   2.19543   2.21031   2.21673
 Alpha virt. eigenvalues --    2.22441   2.23846   2.24312   2.25237   2.27517
 Alpha virt. eigenvalues --    2.29665   2.31736   2.33497   2.35335   2.36070
 Alpha virt. eigenvalues --    2.37401   2.38408   2.39275   2.41066   2.41965
 Alpha virt. eigenvalues --    2.42466   2.43562   2.44189   2.45377   2.46164
 Alpha virt. eigenvalues --    2.47631   2.50724   2.53882   2.54667   2.56218
 Alpha virt. eigenvalues --    2.58383   2.59822   2.63094   2.63442   2.64572
 Alpha virt. eigenvalues --    2.65885   2.66806   2.68121   2.68305   2.69110
 Alpha virt. eigenvalues --    2.70058   2.71029   2.71104   2.71916   2.71950
 Alpha virt. eigenvalues --    2.72626   2.73029   2.74144   2.74428   2.74879
 Alpha virt. eigenvalues --    2.75540   2.76116   2.76402   2.77339   2.77703
 Alpha virt. eigenvalues --    2.77936   2.78124   2.78714   2.80211   2.81665
 Alpha virt. eigenvalues --    2.81960   2.82383   2.82900   2.83828   2.84713
 Alpha virt. eigenvalues --    2.85352   2.85773   2.86974   2.87373   2.87812
 Alpha virt. eigenvalues --    2.88901   2.90748   2.91428   2.92933   2.93219
 Alpha virt. eigenvalues --    2.94417   2.95314   2.97142   2.99091   3.00674
 Alpha virt. eigenvalues --    3.02085   3.04762   3.07234   3.07937   3.09982
 Alpha virt. eigenvalues --    3.11170   3.13492   3.15017   3.16707   3.18553
 Alpha virt. eigenvalues --    3.20218   3.22368   3.22536   3.24887   3.26661
 Alpha virt. eigenvalues --    3.29174   3.32511   3.34026   3.36212   3.36476
 Alpha virt. eigenvalues --    3.37102   3.38544   3.40143   3.43637   3.44810
 Alpha virt. eigenvalues --    3.46078   3.47319   3.48830   3.49133   3.52120
 Alpha virt. eigenvalues --    3.53525   3.55708   3.58354   3.58460   3.61915
 Alpha virt. eigenvalues --    3.63574   3.66649   3.70301   3.72778   3.76088
 Alpha virt. eigenvalues --    3.82398   3.87808   3.98921   4.00207   4.04111
 Alpha virt. eigenvalues --    4.04859   4.06812   4.07219   4.09187   4.12314
 Alpha virt. eigenvalues --    4.18694   4.23306   4.28489   4.33083   4.36433
 Alpha virt. eigenvalues --    4.59184   4.69785   4.76772   4.78621   4.80320
 Alpha virt. eigenvalues --    4.83631   4.86403  23.42872  23.61894  23.67718
 Alpha virt. eigenvalues --   23.76277  23.82063  23.85177  23.87672  23.90238
 Alpha virt. eigenvalues --   23.93989  23.94529  23.96195  23.96841  23.99339
 Alpha virt. eigenvalues --   24.01281  24.01666  24.04785  24.06229  24.07203
 Alpha virt. eigenvalues --   24.09433  24.11357  24.13192  24.15959  24.17563
 Alpha virt. eigenvalues --   24.19194  24.21866
  Beta  occ. eigenvalues --  -10.20947 -10.20649 -10.20616 -10.19962 -10.19797
  Beta  occ. eigenvalues --  -10.19634 -10.19518 -10.19399 -10.19370 -10.19359
  Beta  occ. eigenvalues --  -10.19241 -10.19202 -10.19040 -10.18965 -10.18845
  Beta  occ. eigenvalues --  -10.18766 -10.18651 -10.18327 -10.18203 -10.18146
  Beta  occ. eigenvalues --  -10.18134 -10.17977 -10.17778 -10.17638 -10.17358
  Beta  occ. eigenvalues --   -0.91473  -0.88557  -0.85683  -0.84323  -0.82849
  Beta  occ. eigenvalues --   -0.79459  -0.78525  -0.78309  -0.75382  -0.74840
  Beta  occ. eigenvalues --   -0.72542  -0.71628  -0.67805  -0.64849  -0.64218
  Beta  occ. eigenvalues --   -0.62120  -0.60887  -0.59887  -0.58889  -0.56820
  Beta  occ. eigenvalues --   -0.55098  -0.53019  -0.51899  -0.51839  -0.50587
  Beta  occ. eigenvalues --   -0.48555  -0.47753  -0.46720  -0.45971  -0.45050
  Beta  occ. eigenvalues --   -0.44102  -0.43642  -0.43178  -0.42870  -0.42389
  Beta  occ. eigenvalues --   -0.41484  -0.41348  -0.40893  -0.40059  -0.39752
  Beta  occ. eigenvalues --   -0.38044  -0.37518  -0.36617  -0.35832  -0.34781
  Beta  occ. eigenvalues --   -0.34501  -0.33920  -0.33652  -0.32962  -0.29948
  Beta  occ. eigenvalues --   -0.28829  -0.27785  -0.25611  -0.25108  -0.22525
  Beta  occ. eigenvalues --   -0.21304
  Beta virt. eigenvalues --   -0.13322  -0.08805  -0.06407  -0.05251  -0.03090
  Beta virt. eigenvalues --   -0.02286  -0.00159   0.00139   0.00499   0.00844
  Beta virt. eigenvalues --    0.01055   0.01792   0.01972   0.02591   0.02934
  Beta virt. eigenvalues --    0.03288   0.03615   0.03780   0.04111   0.04877
  Beta virt. eigenvalues --    0.05153   0.05661   0.05760   0.06134   0.06858
  Beta virt. eigenvalues --    0.07269   0.07414   0.07645   0.07806   0.08277
  Beta virt. eigenvalues --    0.08666   0.09156   0.09472   0.09756   0.10521
  Beta virt. eigenvalues --    0.10623   0.10888   0.10995   0.11665   0.12096
  Beta virt. eigenvalues --    0.12384   0.12577   0.12891   0.13509   0.13744
  Beta virt. eigenvalues --    0.14003   0.14309   0.14616   0.15134   0.15455
  Beta virt. eigenvalues --    0.15792   0.15958   0.16169   0.16410   0.16662
  Beta virt. eigenvalues --    0.16773   0.17131   0.17391   0.17632   0.17818
  Beta virt. eigenvalues --    0.17941   0.18479   0.18534   0.19055   0.19283
  Beta virt. eigenvalues --    0.19450   0.19856   0.20172   0.20293   0.20669
  Beta virt. eigenvalues --    0.20705   0.20942   0.21198   0.21346   0.21732
  Beta virt. eigenvalues --    0.21794   0.22106   0.22582   0.22722   0.22780
  Beta virt. eigenvalues --    0.23137   0.23432   0.23650   0.24215   0.24352
  Beta virt. eigenvalues --    0.24444   0.24850   0.25122   0.25241   0.25485
  Beta virt. eigenvalues --    0.25746   0.25950   0.26166   0.26439   0.26875
  Beta virt. eigenvalues --    0.27639   0.27844   0.27933   0.27992   0.28485
  Beta virt. eigenvalues --    0.28712   0.28978   0.29110   0.29330   0.29720
  Beta virt. eigenvalues --    0.29832   0.30237   0.30963   0.31492   0.31531
  Beta virt. eigenvalues --    0.31896   0.32192   0.32507   0.32678   0.33093
  Beta virt. eigenvalues --    0.33621   0.33909   0.35382   0.35583   0.35939
  Beta virt. eigenvalues --    0.36471   0.37151   0.37878   0.38014   0.38968
  Beta virt. eigenvalues --    0.39589   0.40451   0.40969   0.41670   0.42451
  Beta virt. eigenvalues --    0.42659   0.43424   0.44293   0.44565   0.45509
  Beta virt. eigenvalues --    0.46431   0.47403   0.48242   0.48602   0.50250
  Beta virt. eigenvalues --    0.50948   0.51935   0.52376   0.52620   0.53205
  Beta virt. eigenvalues --    0.53490   0.54015   0.54093   0.54629   0.54993
  Beta virt. eigenvalues --    0.55228   0.55513   0.55779   0.56263   0.56768
  Beta virt. eigenvalues --    0.57574   0.57921   0.58271   0.58401   0.58906
  Beta virt. eigenvalues --    0.59414   0.59923   0.60847   0.61312   0.61531
  Beta virt. eigenvalues --    0.61771   0.62470   0.62967   0.63438   0.63856
  Beta virt. eigenvalues --    0.64029   0.64610   0.65154   0.65381   0.66195
  Beta virt. eigenvalues --    0.66624   0.66749   0.67495   0.68131   0.68554
  Beta virt. eigenvalues --    0.68949   0.69473   0.69634   0.70021   0.70623
  Beta virt. eigenvalues --    0.70972   0.71558   0.71652   0.71940   0.72196
  Beta virt. eigenvalues --    0.72827   0.72919   0.73290   0.73814   0.74392
  Beta virt. eigenvalues --    0.74632   0.74795   0.75892   0.76061   0.76582
  Beta virt. eigenvalues --    0.77356   0.77859   0.79068   0.79310   0.80054
  Beta virt. eigenvalues --    0.81356   0.82069   0.82739   0.83403   0.83745
  Beta virt. eigenvalues --    0.84750   0.85236   0.85965   0.86433   0.87162
  Beta virt. eigenvalues --    0.87974   0.88925   0.89187   0.89944   0.90476
  Beta virt. eigenvalues --    0.90949   0.91300   0.91603   0.92476   0.92839
  Beta virt. eigenvalues --    0.93121   0.93431   0.94778   0.95046   0.95414
  Beta virt. eigenvalues --    0.95581   0.96008   0.96128   0.96971   0.97459
  Beta virt. eigenvalues --    0.98282   0.98573   0.98854   0.99805   1.00519
  Beta virt. eigenvalues --    1.01410   1.01996   1.02601   1.02675   1.03202
  Beta virt. eigenvalues --    1.04106   1.04618   1.06191   1.06495   1.06828
  Beta virt. eigenvalues --    1.08160   1.08666   1.09083   1.09744   1.10698
  Beta virt. eigenvalues --    1.11385   1.12298   1.13807   1.14032   1.15745
  Beta virt. eigenvalues --    1.16296   1.17486   1.19457   1.20226   1.20986
  Beta virt. eigenvalues --    1.21225   1.23116   1.26209   1.27199   1.29005
  Beta virt. eigenvalues --    1.30536   1.32302   1.32763   1.34004   1.35562
  Beta virt. eigenvalues --    1.36817   1.38362   1.39173   1.41098   1.41514
  Beta virt. eigenvalues --    1.43863   1.44203   1.46196   1.46879   1.47493
  Beta virt. eigenvalues --    1.48466   1.48655   1.49833   1.49921   1.50438
  Beta virt. eigenvalues --    1.50943   1.51997   1.52667   1.53738   1.54082
  Beta virt. eigenvalues --    1.54357   1.54993   1.56124   1.56584   1.56847
  Beta virt. eigenvalues --    1.57655   1.59055   1.59787   1.60500   1.61502
  Beta virt. eigenvalues --    1.62366   1.63745   1.64642   1.65221   1.66308
  Beta virt. eigenvalues --    1.66953   1.67675   1.69299   1.69792   1.70569
  Beta virt. eigenvalues --    1.71255   1.72247   1.73208   1.73512   1.74234
  Beta virt. eigenvalues --    1.74670   1.75103   1.75609   1.76266   1.76762
  Beta virt. eigenvalues --    1.78566   1.79075   1.80816   1.82493   1.82588
  Beta virt. eigenvalues --    1.84226   1.84727   1.84954   1.85619   1.86370
  Beta virt. eigenvalues --    1.87112   1.87758   1.88984   1.89424   1.90054
  Beta virt. eigenvalues --    1.91049   1.91466   1.92288   1.92879   1.93141
  Beta virt. eigenvalues --    1.93655   1.93841   1.94944   1.95340   1.96503
  Beta virt. eigenvalues --    1.97524   1.97895   1.98452   1.99687   2.00240
  Beta virt. eigenvalues --    2.01303   2.01695   2.03065   2.03849   2.04286
  Beta virt. eigenvalues --    2.04407   2.05876   2.06332   2.08697   2.09680
  Beta virt. eigenvalues --    2.10116   2.12149   2.12455   2.13476   2.14117
  Beta virt. eigenvalues --    2.14947   2.15744   2.16715   2.19429   2.19763
  Beta virt. eigenvalues --    2.21365   2.22217   2.22793   2.24224   2.24858
  Beta virt. eigenvalues --    2.25745   2.27612   2.30092   2.32158   2.33733
  Beta virt. eigenvalues --    2.35655   2.36404   2.37611   2.38583   2.39595
  Beta virt. eigenvalues --    2.41459   2.42051   2.42660   2.43788   2.44299
  Beta virt. eigenvalues --    2.45750   2.46242   2.47876   2.51015   2.54267
  Beta virt. eigenvalues --    2.54703   2.56340   2.58535   2.60000   2.63318
  Beta virt. eigenvalues --    2.63749   2.64702   2.66464   2.67596   2.68425
  Beta virt. eigenvalues --    2.68663   2.69171   2.70245   2.71116   2.71324
  Beta virt. eigenvalues --    2.71998   2.72155   2.72732   2.73167   2.74220
  Beta virt. eigenvalues --    2.74691   2.75090   2.75740   2.76233   2.76536
  Beta virt. eigenvalues --    2.77582   2.77842   2.78144   2.78298   2.78913
  Beta virt. eigenvalues --    2.80671   2.82063   2.82198   2.82831   2.83444
  Beta virt. eigenvalues --    2.84660   2.85142   2.85741   2.86218   2.87474
  Beta virt. eigenvalues --    2.87557   2.88050   2.89292   2.90927   2.91564
  Beta virt. eigenvalues --    2.93228   2.93321   2.94682   2.96994   2.97319
  Beta virt. eigenvalues --    2.99363   3.01740   3.03049   3.04985   3.07432
  Beta virt. eigenvalues --    3.08278   3.10982   3.11540   3.13812   3.15496
  Beta virt. eigenvalues --    3.17681   3.18605   3.20384   3.22488   3.22570
  Beta virt. eigenvalues --    3.24978   3.26796   3.30064   3.32652   3.34179
  Beta virt. eigenvalues --    3.36355   3.36643   3.37135   3.38630   3.40276
  Beta virt. eigenvalues --    3.43798   3.45158   3.46192   3.47382   3.48914
  Beta virt. eigenvalues --    3.49590   3.52181   3.53574   3.55722   3.58453
  Beta virt. eigenvalues --    3.58543   3.61966   3.63640   3.66762   3.70390
  Beta virt. eigenvalues --    3.72917   3.76194   3.82592   3.87866   3.99749
  Beta virt. eigenvalues --    4.00566   4.04129   4.05029   4.06854   4.07337
  Beta virt. eigenvalues --    4.09221   4.12560   4.18773   4.23421   4.28606
  Beta virt. eigenvalues --    4.33592   4.36739   4.59436   4.70202   4.76844
  Beta virt. eigenvalues --    4.78741   4.80482   4.83667   4.86513  23.42963
  Beta virt. eigenvalues --   23.61961  23.68953  23.76315  23.82067  23.85379
  Beta virt. eigenvalues --   23.88561  23.90316  23.94052  23.94521  23.96251
  Beta virt. eigenvalues --   23.96877  23.99320  24.01312  24.01691  24.05205
  Beta virt. eigenvalues --   24.06381  24.07296  24.09507  24.11370  24.13279
  Beta virt. eigenvalues --   24.16016  24.17565  24.19206  24.21865
          Condensed to atoms (all electrons):
               1          2          3          4          5          6
     1  C   13.463785   2.236618  -1.280362   1.119789  -4.883536  -0.367260
     2  C    2.236618   8.015374  -0.415427   0.181454  -0.832062   0.192975
     3  C   -1.280362  -0.415427   8.416730   1.113245   1.491330  -0.213500
     4  C    1.119789   0.181454   1.113245  11.009234  -2.300906  -0.548133
     5  C   -4.883536  -0.832062   1.491330  -2.300906  13.546964   0.973858
     6  C   -0.367260   0.192975  -0.213500  -0.548133   0.973858  10.185925
     7  C   -0.932962  -2.227481   1.861852   1.147716  -0.554461  -0.951218
     8  C   -1.102551  -0.630532  -0.235826  -0.888296   0.467110  -0.931063
     9  C   -0.011416  -0.682919   0.425331  -0.085201  -0.592620  -0.746639
    10  C   -0.582305  -0.408895   0.331209   1.571950  -0.174654  -0.935147
    11  C   -0.062975  -0.541131   0.503267  -0.799722  -0.189049  -0.210640
    12  C   -0.046496  -0.072244  -0.213480  -0.166065  -0.018439  -0.007781
    13  C   -0.069165  -0.060134  -0.114819   0.215204   0.036061  -0.148025
    14  C   -0.108964  -0.075632  -0.784502  -1.673051  -0.151121  -0.459081
    15  C   -0.018319   0.116530  -0.898131  -0.680561  -0.036412  -0.056131
    16  C    0.023241   0.067296   0.221647  -0.034909  -0.016486   0.007897
    17  C   -0.002388   0.011376  -0.085311  -0.008034   0.003062  -0.006888
    18  C   -0.005636  -0.040645  -0.016115  -0.170789  -0.007514  -0.000821
    19  C   -1.496246  -0.726552  -0.939639  -0.509554  -1.048533   0.906235
    20  C    0.116988   0.798665  -0.272168   0.030186  -0.659785  -0.164654
    21  C    0.167271   0.222795  -0.540645  -0.704759   0.714011   0.202799
    22  C    1.109060   2.855806  -1.321646  -0.698041  -1.185308  -0.379038
    23  C   -1.352867  -1.385248   0.219284  -1.563440   1.240212  -0.321980
    24  H   -0.035168   0.011115  -0.009157   0.001532  -0.008407  -0.002810
    25  H    0.009402  -0.007242   0.004382   0.001972   0.008628  -0.001077
    26  H   -0.066818   0.028929  -0.015142   0.008641   0.005167   0.014850
    27  H   -0.106819   0.007739   0.000743   0.016031   0.403166  -0.045578
    28  H   -0.070017   0.003731   0.028146  -0.098307   0.044465   0.347226
    29  H    0.013705  -0.005046   0.008920  -0.044770   0.002158   0.028196
    30  H    0.000583   0.001267   0.012716   0.066046   0.001066   0.010561
    31  H    0.000012  -0.000030   0.000474   0.001381  -0.000003   0.000132
    32  H   -0.000005   0.000004  -0.000431   0.000174   0.000001   0.000024
    33  H   -0.001595  -0.013233   0.015227  -0.001811   0.000181  -0.000771
    34  H    0.000012   0.000004  -0.001835  -0.000065   0.000012  -0.000012
    35  H    0.000000  -0.000002  -0.000020   0.000079   0.000000   0.000003
    36  C    0.097681  -0.519875  -1.072717   0.171988   0.247502   0.083416
    37  C    0.021261   0.029323  -0.034316   0.003890   0.017101   0.007912
    38  H    0.002192   0.008570   0.017510   0.002411   0.000246   0.000308
    39  H    0.010181   0.015434  -0.020099  -0.001142   0.001038   0.000615
               7          8          9         10         11         12
     1  C   -0.932962  -1.102551  -0.011416  -0.582305  -0.062975  -0.046496
     2  C   -2.227481  -0.630532  -0.682919  -0.408895  -0.541131  -0.072244
     3  C    1.861852  -0.235826   0.425331   0.331209   0.503267  -0.213480
     4  C    1.147716  -0.888296  -0.085201   1.571950  -0.799722  -0.166065
     5  C   -0.554461   0.467110  -0.592620  -0.174654  -0.189049  -0.018439
     6  C   -0.951218  -0.931063  -0.746639  -0.935147  -0.210640  -0.007781
     7  C   14.594445   2.563994   0.136767   0.416561   1.055856   0.120205
     8  C    2.563994   9.843861  -0.860121   0.447293   1.245180  -0.713431
     9  C    0.136767  -0.860121  15.290349   1.640501   1.292345   1.008799
    10  C    0.416561   0.447293   1.640501   8.478868  -0.658733  -0.865552
    11  C    1.055856   1.245180   1.292345  -0.658733  11.048550   1.966408
    12  C    0.120205  -0.713431   1.008799  -0.865552   1.966408  11.603181
    13  C   -0.576097   0.024923  -1.532729  -0.083935  -1.176421  -1.563744
    14  C   -0.915292  -0.713818  -0.254834  -2.318462   0.320286  -1.244497
    15  C   -0.587297  -0.466071  -2.532568  -0.390480  -1.593926  -1.150701
    16  C   -0.793823  -0.584340   0.205123   0.039097  -1.557432   0.563573
    17  C    0.167117   0.283948  -0.249446  -0.082267   1.597753  -0.080008
    18  C   -0.541923  -1.738084  -1.033874  -0.164333  -3.026789  -2.291737
    19  C   -0.667223  -0.248830  -0.103478  -0.045532  -0.039128  -0.005742
    20  C    0.009051  -0.062497  -0.037172  -0.060372   0.028621   0.003844
    21  C   -2.419542  -0.054559  -0.410964  -0.110068  -0.222902  -0.030244
    22  C   -5.593555  -1.271798  -1.496584  -0.365430  -1.023794  -0.184590
    23  C    0.206213   0.844325  -3.560476  -0.213638  -1.803865  -0.870389
    24  H    0.009739   0.001492  -0.001013  -0.000032   0.000353   0.000115
    25  H    0.006373   0.000215   0.000135   0.000313   0.000022  -0.000001
    26  H    0.004817  -0.000427  -0.000048   0.000091   0.000037  -0.000002
    27  H   -0.000138   0.000163   0.003900   0.004545   0.000074   0.000023
    28  H   -0.009034   0.012952   0.018177   0.053906   0.000292   0.000280
    29  H   -0.017784  -0.039309  -0.042710   0.332355  -0.007003   0.012363
    30  H   -0.007246  -0.002491  -0.060030   0.145353  -0.036135  -0.050613
    31  H    0.000696  -0.011750   0.023814   0.004549  -0.011865  -0.110416
    32  H    0.003593  -0.006455   0.007602   0.000420   0.005406  -0.114500
    33  H    0.042013   0.012618   0.012974   0.002916   0.049346   0.003110
    34  H    0.001980   0.012116  -0.000317   0.000262   0.060221  -0.013583
    35  H    0.000190   0.001563   0.002632   0.000408  -0.015156   0.030945
    36  C   -0.142593   0.318812  -0.027000   0.078580  -0.172130   0.127804
    37  C    0.053575   0.004134  -0.012218   0.002484  -0.019267  -0.010841
    38  H    0.010277   0.012873   0.015337   0.000439   0.022746  -0.004809
    39  H   -0.067728  -0.005671  -0.001960  -0.000176  -0.006872  -0.000329
              13         14         15         16         17         18
     1  C   -0.069165  -0.108964  -0.018319   0.023241  -0.002388  -0.005636
     2  C   -0.060134  -0.075632   0.116530   0.067296   0.011376  -0.040645
     3  C   -0.114819  -0.784502  -0.898131   0.221647  -0.085311  -0.016115
     4  C    0.215204  -1.673051  -0.680561  -0.034909  -0.008034  -0.170789
     5  C    0.036061  -0.151121  -0.036412  -0.016486   0.003062  -0.007514
     6  C   -0.148025  -0.459081  -0.056131   0.007897  -0.006888  -0.000821
[...]
 ,0.00000832,0.00005500,0.00000059,0.00004917,-0.00004265,-0.00000023,0
 .00000473,-0.00000964,-0.00000022,-0.00001117,0.00000852,-0.00000169,-
 0.00011613,0.00007333,0.00004470,0.00024528,0.00006074,0.00038581,0.00
 026431,-0.00005879,-0.00012655,-0.00010249,0.00000135,-0.00000531,0.00
 031335,-0.00076118,-0.00001986,0.00119922,-0.00392114,-0.00446372,-0.0
 0127634,0.00030523,-0.00000658,-0.00008958,-0.00058083,0.00008828,0.00
 279599,0.00011667,-0.00284201,0.01440504,0.01053481,0.00195968,-0.1104
 6941,-0.11176509,-0.02111234,-0.02772418,-0.00852659,-0.00285439,-0.00
 000192,0.00000534,0.00000174,-0.00000937,-0.00000069,0.00000114,0.0000
 0299,-0.00000118,0.00000261,-0.00001121,0.00000603,0.00000162,0.000006
 78,-0.00004729,0.00000975,0.00000090,0.00000158,-0.00000178,-0.0000018
 1,0.00000153,-0.00000039,-0.00000271,-0.00000072,-0.00000001,-0.000003
 39,-0.00000074,0.00000073,0.00000044,-0.00000271,-0.00000105,0.0000072
 1,0.00000092,0.00000212,-0.00012976,-0.00008738,0.00004641,0.00003180,
 -0.00002450,-0.00005113,0.00045277,0.00035589,0.00179168,0.00071111,0.
 00031685,0.00006726,-0.00044900,0.00008311,0.00145514,0.11990265,0.113
 84787,0.00001795,-0.00000157,-0.00000632,-0.00002222,0.00001024,0.0000
 0396,0.00000541,0.00002476,0.00003378,-0.00000721,0.00001035,-0.000013
 43,-0.00000951,-0.00001385,0.00000034,-0.00000963,0.00000962,0.0000057
 4,-0.00009645,-0.00009008,-0.00006233,-0.00015241,0.00033142,-0.000779
 68,0.00005003,0.00003658,0.00010602,-0.00002779,0.00001213,0.00004309,
 0.00035109,-0.00027461,-0.00096207,0.00043190,-0.00421290,0.00659116,-
 0.00067370,-0.00017739,0.00015709,0.00003575,-0.00008004,-0.00042510,0
 .00200026,-0.00295365,0.00468658,0.00762501,0.00407510,0.00417930,-0.0
 2500098,-0.02149487,-0.04332456,-0.01059913,-0.00416846,0.00269241,0.0
 0000678,0.00002138,-0.00000126,-0.00002737,-0.00001522,0.00000019,0.00
 004106,-0.00001609,-0.00000590,-0.00009311,0.00000180,0.00001082,0.000
 09727,-0.00006794,-0.00000667,-0.00000198,0.00000372,0.00000325,0.,0.0
 0000016,0.00000114,-0.00000091,0.00000098,0.00000128,-0.00000033,0.000
 00062,-0.00000051,-0.00000043,-0.00000047,0.00000137,-0.00000021,0.000
 00503,-0.00000255,-0.00004646,-0.00002364,0.00000412,0.00003518,-0.000
 01637,0.00006448,-0.00009317,0.00174623,-0.00385940,0.00039643,0.00019
 537,0.00011228,-0.00055153,0.00151947,-0.00254904,0.02631588,0.0256678
 1,0.03323521,-0.00028985,-0.00127404,-0.00010533,-0.00568597,0.0027537
 7,0.00035364,0.00048740,0.00492409,0.00013378,0.00104279,-0.00075068,0
 .00037077,-0.00028655,0.00012711,0.00004257,-0.00007123,0.00008761,-0.
 00003964,0.01190751,0.00214381,-0.00327170,-0.00075294,0.00140264,-0.0
 0029814,-0.00040188,-0.00079869,0.00014859,0.00015840,0.00087364,-0.00
 001661,-0.00007719,-0.00011157,-0.00017801,-0.00004910,0.00012040,0.00
 019033,-0.00017892,-0.00016542,-0.00005873,0.00026055,-0.00004840,-0.0
 0009878,-0.00290380,0.00149431,-0.00233899,0.00096292,0.00024276,-0.00
 003263,-0.00054262,0.00041089,0.00031382,-0.00021636,-0.00038204,-0.00
 016847,0.00017553,0.00014111,0.00002092,-0.00042129,-0.00076767,-0.000
 17269,0.00316575,-0.00112368,-0.00023480,-0.01578562,-0.02643411,0.011
 64851,-0.13955564,-0.07975261,0.04666963,-0.00000705,0.00071518,-0.000
 04890,-0.00005058,0.00000940,0.00002758,-0.00000945,0.00001896,0.00001
 808,0.00001127,-0.00016908,-0.00002087,0.00011611,0.00005949,-0.000047
 05,0.00000105,0.00000908,0.00001214,-0.00001776,0.00003123,0.00001221,
 -0.00002942,-0.00000317,0.00000486,-0.00002299,0.00000402,-0.00001463,
 -0.00123102,0.00036569,-0.00074699,-0.00001992,-0.00004477,-0.00014414
 ,-0.00002753,-0.00001196,0.00003996,0.56514890,-0.00674913,0.00324404,
 0.00017506,0.00227040,0.01188698,-0.00154312,0.01706856,0.00534712,-0.
 00313569,0.00571502,-0.00816821,-0.00091736,0.00178439,-0.00214149,-0.
 00006886,-0.00204841,0.00046216,0.00040745,-0.00504317,-0.05564916,0.0
 1392694,-0.01175077,0.00531216,0.00070591,-0.00284806,-0.00206286,0.00
 108940,-0.00361782,0.00311724,0.00047535,0.00480222,0.00219253,-0.0002
 1482,-0.00185731,0.00193439,0.00007283,-0.00071904,-0.00084891,-0.0001
 2606,0.00081944,0.00010586,-0.00019719,0.00192697,-0.00208718,0.001666
 62,-0.00008857,-0.00051607,0.00031969,0.00049871,-0.00040745,-0.000301
 52,0.00051152,0.00077012,0.00045076,0.00341604,-0.00149510,-0.00020917
 ,-0.00005207,-0.00122030,-0.00020681,0.00527877,-0.00270249,0.00016252
 ,-0.02927466,0.00171815,0.00911739,-0.02871769,-0.12948061,0.03074204,
 0.00008966,-0.00000903,0.00013388,0.00005873,0.00007113,0.00001317,0.0
 0005913,-0.00005717,0.00004282,0.00001454,0.00014910,-0.00001114,-0.00
 006581,0.00000701,0.00004783,-0.00009687,0.00002725,-0.00008499,-0.000
 03008,0.00000105,0.00002454,0.00004087,-0.00005627,0.00003097,0.000062
 50,-0.00000342,0.00004384,0.00149341,-0.00007050,-0.00024861,0.0000932
 1,0.00009001,0.00013821,0.00003811,0.00004633,-0.00014691,-0.10976296,
 0.56922379,0.00123381,-0.00034268,0.00067832,0.00037704,-0.00272871,0.
 00220820,-0.00353526,-0.00167863,0.00340114,-0.00096080,0.00143651,0.0
 0085041,-0.00025596,0.00040555,-0.00008373,0.00033057,-0.00010240,-0.0
 0026093,0.00054478,0.00914693,-0.00167001,0.00176799,-0.00112265,-0.00
 101290,0.00062596,0.00033218,-0.00018331,0.00068094,-0.00071557,-0.000
 10677,-0.00164957,-0.00023308,-0.00011807,0.00067810,-0.00066002,0.000
 31232,0.00020374,0.00017005,-0.00008139,-0.00022871,0.00005060,0.00009
 951,-0.00166671,0.00123623,-0.00287490,0.00036669,0.00057474,-0.000372
 33,-0.00011665,0.00028623,0.00033988,-0.00048587,-0.00023296,-0.000093
 55,-0.00075136,0.00006602,-0.00002215,0.00028123,0.00051021,0.00021949
 ,-0.00201037,0.00050750,-0.00023826,0.00809461,0.00457741,-0.00254719,
 0.03589184,0.05429338,-0.07345904,-0.00002821,-0.00019539,-0.00024408,
 -0.00001683,-0.00001667,0.00001164,-0.00000488,-0.00000284,-0.00003816
 ,-0.00001271,-0.00001157,-0.00008498,0.00000024,-0.00000880,-0.0000994
 2,0.00002803,0.00000298,0.00004468,0.00001338,0.00001204,-0.00001816,-
 0.00001118,0.00002919,-0.00000548,-0.00002371,0.00001740,-0.00003646,-
 0.00327063,0.00110692,-0.00043195,0.00000094,-0.00001136,-0.00009554,-
 0.00005593,-0.00002061,0.00009644,-0.09238580,-0.11174620,0.18059962,-
 0.00154960,0.00088964,-0.00004389,-0.00011592,0.00271357,-0.00034777,0
 .00319950,0.00107893,-0.00083402,0.00163768,-0.00176724,-0.00051205,0.
 00055648,-0.00070021,-0.00003189,-0.00074736,0.00009182,0.00013033,0.0
 0173151,-0.00865011,0.00290496,-0.00283608,0.00035540,0.00014093,-0.00
 039961,-0.00024714,0.00024752,-0.00105899,0.00061270,0.00015349,0.0010
 8247,0.00054956,-0.00009070,-0.00036661,0.00034184,0.00004208,-0.00010
 574,-0.00020801,-0.00002229,0.00011647,0.00009410,-0.00000884,0.000413
 24,-0.00053372,-0.00026338,0.00003247,-0.00003844,0.00000112,0.0001658
 6,-0.00006472,-0.00000542,0.00003309,0.00027723,0.00014379,0.00076143,
 -0.00043000,-0.00005078,0.00009585,-0.00052047,-0.00005086,0.00085832,
 -0.00070869,0.00021433,-0.00526322,-0.00125507,0.00217421,0.01965563,0
 .01146335,-0.00614993,-0.00059378,-0.00084982,0.00039252,-0.00003400,0
 .00002303,0.00001421,-0.00000205,-0.00003619,0.00001899,-0.00000423,0.
 00000425,0.00000535,0.00000178,-0.00000705,0.00002928,-0.00001847,0.00
 000212,-0.00001693,0.00000253,-0.00000516,-0.00001055,0.00001646,-0.00
 000121,0.00000167,0.00001590,0.00000459,-0.00000128,-0.00020664,0.0001
 5438,-0.00008029,0.00003256,0.00003405,0.00003521,0.00000060,0.0000153
 5,-0.00002989,-0.12716628,0.13311207,-0.01659552,0.38280955,0.00281334
 ,-0.00098367,0.00009784,0.00067466,-0.00589369,0.00105237,-0.00702992,
 -0.00578366,0.00201831,-0.00317546,0.00391448,0.00014381,-0.00067401,0
 .00082619,0.00000932,0.00088698,-0.00037859,-0.00018939,-0.00761487,0.
 01804769,0.00041423,0.00502534,-0.00211927,-0.00078561,0.00139174,0.00
 092076,-0.00078126,0.00156507,-0.00175737,-0.00015718,-0.00260307,-0.0
 0139735,0.00027719,0.00096603,-0.00082620,0.00008616,0.00042110,0.0004
 6366,0.00004213,-0.00058636,0.00005008,0.00012078,-0.00049409,0.001115
 47,-0.00084594,0.00008934,0.00045919,-0.00012196,-0.00008757,0.0002506
 2,0.00012237,-0.00031693,-0.00025433,-0.00019114,-0.00154048,0.0006770
 3,0.00003835,-0.00013940,-0.00004006,0.00017217,-0.00365535,0.00184504
 ,0.00004946,0.01317080,0.00223641,-0.00443516,-0.01570756,-0.08343005,
 0.03307093,-0.00036153,-0.00100824,0.00011571,-0.00003643,-0.00000131,
 0.00000084,-0.00006282,-0.00001855,0.00000183,-0.00003859,-0.00003383,
 -0.00001266,-0.00005631,-0.00006693,-0.00002720,0.00007022,-0.00004482
 ,0.00008767,0.00003219,-0.00003167,-0.00002513,0.00001342,0.00003749,-
 0.00000965,-0.00000645,0.00000648,-0.00001420,-0.00039704,-0.00020236,
 0.00076855,0.00004726,-0.00000583,-0.00000438,-0.00002444,-0.00001253,
 0.00010083,0.14012836,-0.34732758,0.06003577,-0.30471697,0.55867700,-0
 .00050988,0.00013386,-0.00008243,-0.00009612,0.00120392,-0.00019245,0.
 00115959,0.00207455,-0.00053693,0.00086110,-0.00081525,-0.00061430,0.0
 0011756,-0.00012490,0.00003404,-0.00015397,0.00014406,0.00002255,0.004
 13272,-0.00236785,0.00454797,-0.00147383,0.00050534,0.00001605,-0.0003
 8313,-0.00022466,-0.00021291,-0.00028188,0.00035627,0.00012173,0.00052
 383,0.00043021,0.00025717,-0.00033291,0.00019998,0.00001672,-0.0001218
 0,-0.00010618,0.00003905,0.00013205,-0.00001510,-0.00001450,0.00042906
 ,-0.00041169,-0.00002189,-0.00023929,-0.00007109,0.00005101,0.00008773
 ,-0.00016888,-0.00006685,0.00009760,0.00020112,0.00006604,0.00035082,-
 0.00006420,0.00000661,-0.00001122,0.00009937,-0.00020770,0.00117987,-0
 .00033609,0.00005486,-0.00238154,-0.00089483,-0.00006817,0.00105172,0.
 02713778,0.00117554,0.00017145,0.00046919,-0.00002944,0.00001865,-0.00
 001013,-0.00003411,0.00002362,0.00002133,0.00005286,0.00001248,0.00000
 917,-0.00000199,0.00003447,0.00003049,-0.00001879,-0.00000917,0.000014
 71,0.00005084,-0.00000765,0.00001570,-0.00000770,-0.00000914,-0.000000
 40,-0.00000817,-0.00000201,0.00001092,-0.00000094,-0.00008254,0.000127
 54,-0.00011263,0.00003175,0.00001449,0.00001097,-0.00000396,0.00000159
 ,-0.00001921,-0.01756007,0.05704600,-0.05234166,-0.00585715,-0.0704378
 4,0.06989301,0.00017656,-0.00026747,-0.00018588,-0.00083862,0.00003369
 ,0.00003675,-0.00034140,-0.00012311,0.00007529,-0.00011544,0.00013126,
 0.00007716,-0.00009528,0.00003602,-0.00002604,0.00001930,-0.00002417,-
 0.00000702,0.00035058,0.00119162,-0.00136839,0.00013822,-0.00048642,0.
 00003676,0.00009503,0.00006920,0.00006700,0.00002441,-0.00001157,-0.00
 002453,-0.00003023,0.00132374,-0.00019617,0.00023240,-0.00006063,-0.00
 002486,0.00000033,0.00003479,0.00000679,0.00001826,-0.00004851,0.00000
 485,-0.00026582,0.00012183,-0.00217930,-0.00074926,0.00000387,-0.00025
 961,0.00004645,-0.00017009,0.00012444,-0.00011640,0.00002419,0.0000203
 3,-0.00003806,0.00008641,0.00001384,-0.00010940,-0.00005054,-0.0000505
 7,0.00003946,0.00005231,-0.00010562,0.00137225,-0.00177263,0.00187542,
 -0.01528295,0.00134678,0.00580316,-0.00005237,0.00000242,0.00003790,-0
 .00002738,-0.00000471,0.00001007,-0.00000973,-0.00000086,0.00001213,0.
 00000015,-0.00002916,0.00002316,0.00000564,-0.00000349,0.00000859,0.00
 000298,-0.00000529,-0.00001221,-0.00000449,-0.00000279,-0.00000060,0.0
 0000108,-0.00000801,0.00000004,0.00000517,-0.00000953,0.00000430,-0.00
 113711,0.00110536,-0.00103950,-0.00001780,0.00001109,-0.00006386,-0.00
 000375,0.00000273,-0.00000602,-0.29023613,0.03272012,0.06998113,-0.010
 97517,0.01144050,-0.00070510,0.31764667,-0.00003195,-0.00027207,-0.000
 20483,-0.00118112,0.00024058,-0.00002915,-0.00007422,0.00021724,-0.000
 06535,0.00010846,-0.00001666,0.00006199,-0.00003429,0.00002340,0.00000
 566,-0.00003242,-0.00003969,0.00000827,0.00006519,0.00025427,-0.000776
 13,-0.00022807,-0.00022015,0.00002719,0.00006313,-0.00016817,-0.000071
 82,-0.00002389,0.00003782,-0.00000361,0.00033841,-0.00061292,0.0001865
 2,0.00024034,-0.00012561,-0.00016837,0.00004000,0.00005876,0.00001342,
 -0.00008427,0.00005987,0.00002547,0.00065439,0.00011108,0.00106621,0.0
 0024975,0.00001742,0.00008172,-0.00018505,0.00012287,0.00007718,-0.000
 06141,-0.00008849,-0.00000894,0.00001930,-0.00005209,0.00002730,-0.000
 05574,0.00009627,-0.00011195,0.00015001,-0.00044699,-0.00010675,-0.000
 59491,-0.00293032,0.00276367,-0.02551034,0.00506134,0.00813985,-0.0000
 9454,0.00012297,0.00008120,-0.00005434,-0.00001277,0.00001238,-0.00000
 451,0.00000440,0.00001527,-0.00000059,-0.00004378,0.00000971,0.0000140
 1,0.00000295,0.00000647,0.00001193,0.00001172,-0.00001263,-0.00000282,
 0.00000969,0.00001866,-0.00000564,0.00001906,0.00000707,-0.00002040,-0
 .00000552,-0.00000878,0.00045614,-0.00003442,0.00054947,-0.00009111,-0
 .00005447,-0.00011341,-0.00002290,0.00000894,-0.00001582,0.04364029,-0
 .05188233,-0.00866044,0.02660560,-0.01006876,-0.00506070,-0.04686985,0
 .06284082,0.00006934,0.00015780,-0.00034650,0.00093955,-0.00041487,-0.
 00003958,-0.00022423,-0.00045860,0.00004559,-0.00035449,0.00022676,0.0
 0013720,0.00000339,0.00003909,-0.00004692,0.00009217,-0.00001707,0.000
 00999,-0.00172812,0.00038947,-0.00195484,0.00045502,0.00029156,0.00002
 465,0.00000385,0.00001361,0.00002222,0.00009295,-0.00002597,-0.0000429
 3,0.00030481,0.00061476,-0.00000667,-0.00003798,-0.00005740,-0.0000265
 1,-0.00001519,0.00006979,-0.00001008,0.00002073,-0.00009975,-0.0000192
 5,-0.00083139,0.00063803,-0.00030774,-0.00047676,-0.00028539,0.0000354
 6,0.00003385,-0.00018512,-0.00011226,0.00027236,-0.00002058,-0.0000750
 6,-0.00013637,0.00003122,0.00006646,0.00005735,-0.00002940,-0.00018470
 ,-0.00029506,0.00008221,-0.00018188,0.00066232,0.00301247,0.00311193,0
 .01349127,-0.00366560,0.00507022,0.00004210,-0.00002110,0.00001025,0.0
 0003056,0.00000958,0.00001141,0.00000845,0.00000420,0.00002469,0.00000
 194,0.00003224,0.00001528,-0.00001311,-0.00000510,0.00001772,-0.000005
 57,-0.00001043,-0.00000845,-0.00000916,-0.00001451,0.00001293,0.000008
 58,-0.00003105,0.00000350,0.00001425,-0.00002695,0.00001545,-0.0007246
 6,0.00089009,-0.00218810,-0.00006769,-0.00001086,-0.00002286,0.0000591
 2,-0.00001215,-0.00001180,0.06543670,-0.00132494,-0.05592166,-0.004515
 69,-0.00275932,0.00136860,-0.07393105,-0.00004866,0.04560166,-0.000020
 95,0.00005543,0.00001823,-0.00002108,-0.00007328,0.00000293,-0.0001488
 5,0.00009429,-0.00004928,0.00004525,0.00002303,0.00005508,0.00000879,-
 0.00002641,0.00000395,-0.00002882,0.00002739,0.00000680,0.00006911,0.0
 0027361,-0.00038953,0.00017785,-0.00007020,0.00003401,-0.00000317,0.00
 006337,0.00003043,-0.00003134,-0.00002701,-0.00000950,-0.00006484,-0.0
 0003282,-0.00004170,0.00005806,-0.00002228,-0.00003491,0.00000941,0.00
 000783,-0.00000212,0.00000130,0.00000676,0.00000503,-0.00010251,0.0000
 2342,-0.00002910,0.00008233,0.00002586,-0.00001045,-0.00002412,0.00004
 142,0.00002112,-0.00003332,-0.00004801,-0.00000482,-0.00004768,-0.0000
 4944,-0.00000240,0.00006242,-0.00012208,0.00002537,-0.00168469,-0.0004
 2225,0.00047252,0.00056232,0.00042251,-0.00025844,-0.00080807,0.000183
 65,-0.00025241,-0.00107968,-0.00147073,0.00084839,-0.00000271,0.000000
 31,0.00001224,0.00000164,-0.00000770,-0.00000732,0.00000464,0.00000799
 ,-0.00000134,0.00000319,0.00000689,0.00000240,-0.00000505,0.00000775,-
 0.00000717,-0.00000165,0.00000457,0.00000591,-0.00000359,0.00000156,0.
 00000120,-0.00000356,-0.00000043,0.00000306,0.00003882,-0.00001665,0.0
 0004791,-0.00000866,-0.00000461,-0.00000215,-0.00000722,0.00000056,0.0
 0000051,0.00259894,-0.00915195,0.00296567,-0.26177563,0.17058925,0.019
 80629,0.00027184,0.00260745,0.00126586,0.26191127,0.00003448,0.0000017
 7,-0.00000524,-0.00011276,-0.00000238,0.00000248,0.00006073,0.00016133
 ,-0.00007300,-0.00000740,-0.00002375,0.00005064,-0.00003943,-0.0000318
 9,0.00000495,0.00000909,0.00005676,0.00000228,0.00002500,-0.00005485,-
 0.00030053,0.00014938,0.00009090,0.00007297,-0.00004524,0.00001670,0.0
 0000405,0.00001760,0.00003001,-0.00001128,-0.00001091,0.00004265,0.000
 02794,-0.00000503,0.00003141,-0.00001770,-0.00003032,0.00000103,0.0000
 0273,0.00003834,-0.00004107,-0.00001202,0.00002936,-0.00003082,0.00018
 619,-0.00002418,-0.00005692,0.00001348,-0.00003288,-0.00000073,-0.0000
 1325,0.00002443,-0.00004887,-0.00001598,0.00011810,0.00008328,0.000014
 09,-0.00022153,0.00031876,-0.00003409,0.00021815,-0.00065257,-0.000058
 35,-0.00028873,-0.00024588,0.00007779,-0.00045312,0.00246673,-0.001032
 59,-0.00106858,0.00036338,0.00047051,0.00002578,-0.00000858,-0.0000055
 8,0.00001844,0.00004920,-0.00000806,0.00000994,0.00001043,-0.00000029,
 -0.00000208,0.00001009,0.00000236,-0.00000690,0.00000793,-0.00000353,-
 0.00000170,0.00000453,0.00000758,-0.00000664,-0.00000308,-0.00000054,-
 0.00000333,-0.00000051,0.00000419,0.00008944,-0.00004326,-0.00006599,-
 0.00000347,-0.00000464,0.00000013,0.00000047,-0.00000247,-0.00000372,0
 .02189702,0.00047971,-0.00630727,0.14231666,-0.12784091,-0.00913779,0.
 00021089,-0.00224624,0.00302195,-0.16292905,0.12711279,-0.00000999,-0.
 00008005,0.00005675,0.00001072,0.00004755,0.00000223,0.00007937,-0.000
 23643,-0.00014783,-0.00014773,0.00005046,0.00013334,-0.00004565,0.0000
 5048,-0.00001004,0.00006299,-0.00001761,0.00000409,-0.00047360,0.00004
 025,-0.00076161,0.00029850,-0.00010469,0.00010872,0.00002217,0.0000465
 0,0.00009030,0.00006048,-0.00002253,-0.00003165,-0.00003727,-0.0000958
 8,-0.00001561,0.00005859,0.00002420,-0.00002350,0.00000631,-0.00000706
 ,-0.00001141,0.00001202,-0.00002021,-0.00000597,-0.00016820,0.00005751
 ,0.00009869,0.00011603,-0.00004101,-0.00000252,-0.00006642,0.00006340,
 0.00001930,-0.00000507,-0.00010065,-0.00003394,-0.00003692,0.00001433,
 0.00000383,-0.00002722,-0.00011323,0.00001500,0.00030177,0.00032909,-0
 .00018861,-0.00031948,-0.00002909,-0.00017409,0.00051322,-0.00122176,-
 0.00105162,0.00085840,0.00047086,0.00032367,-0.00001151,0.00000333,0.0
 0002498,-0.00000709,-0.00001497,-0.00001112,-0.00000415,-0.00000423,0.
 00000233,-0.00000610,-0.00000678,0.00001417,-0.00000173,-0.00000606,-0
 .00002425,0.00000103,-0.00000757,0.00000708,0.00000419,-0.00000494,0.0
 0000149,0.00000380,-0.00000816,0.00000318,0.00012446,-0.00009518,-0.00
 002045,-0.00001779,-0.00000544,-0.00000317,0.00000894,0.00000084,-0.00
 000025,-0.00746116,0.00365019,0.00358044,0.02886916,-0.01802863,-0.023
 19285,0.00196725,0.00228266,0.00590258,-0.02453232,0.01314053,0.015318
 32\\-0.00000074,0.00001304,0.00000754,-0.00002279,-0.00000682,0.000008
 59,0.00002174,0.00003583,-0.00001123,0.00001873,-0.00001985,-0.0000013
 5,0.00000762,-0.00001135,-0.00000510,-0.00001306,0.00000469,0.00000051
 ,0.00001651,-0.00007156,0.00000179,-0.00000031,0.00001640,0.00000748,0
 .00000619,-0.00000150,-0.00000007,-0.00001830,0.00000625,0.00000567,-0
 .00000039,0.00000100,-0.00000747,-0.00000651,0.00000140,0.00000592,0.0
 0000212,-0.00000045,0.00000038,-0.00000450,-0.00000096,-0.00000088,-0.
 00000140,-0.00000185,-0.00000212,0.00000273,-0.00000009,-0.00000075,-0
 .00000071,0.00000120,-0.00000039,0.00000325,0.00000186,-0.00000082,-0.
 00000206,-0.00000972,-0.00000657,0.00000862,0.00000935,-0.00000264,-0.
 00001522,0.00000204,0.00000265,0.00003998,-0.00001310,0.00000113,-0.00
 003798,0.00005785,-0.00000591,0.00000383,-0.00000025,-0.00000714,-0.00
 000137,-0.00000104,0.00000120,-0.00000003,0.00000039,0.00000091,-0.000
 00069,-0.00000004,0.00000134,0.00000043,0.00000030,0.00000208,0.000002
 93,-0.00000004,-0.00000020,-0.00000043,-0.00000022,0.00000063,-0.00000
 056,0.00000065,0.00000171,-0.00000099,-0.00000054,0.00000080,0.0000024
 7,0.00000002,0.00000274,-0.00000093,0.00000115,-0.00000075,-0.00000093
 ,0.00000041,0.00000090,-0.00002774,-0.00000653,0.00000538,0.00002920,0
 .00001122,-0.00000656,0.00000390,-0.00000531,-0.00000282,-0.00001261,-
 0.00001384,0.00000342\\\@


 "A LITTLE BIT GOES A LONG WAY"
 R.S. MULLIKEN AS QUOTED BY K. RUEDENBERG
 Job cpu time:       1 days  0 hours 21 minutes 42.4 seconds.
 Elapsed time:       0 days  1 hours 13 minutes 17.7 seconds.
 File lengths (MBytes):  RWF=   2747 Int=      0 D2E=      0 Chk=     42 Scr=      1
 Normal termination of Gaussian 16 at Thu Jun 20 07:14:37 2019.
