 Entering Gaussian System, Link 0=g09
 Initial command:
 /usr/local/Cluster-Apps/gaussian/g09/l1.exe "/rds/user/am2145/hpc-work/scratch/19187573/Gau-99486.inp" -scrdir="/rds/user/am2145/hpc-work/scratch/19187573/"
 Entering Link 1 = /usr/local/Cluster-Apps/gaussian/g09/l1.exe PID=     99487.
  
 Copyright (c) 1988,1990,1992,1993,1995,1998,2003,2009,2013,
            Gaussian, Inc.  All Rights Reserved.
  
 This is part of the Gaussian(R) 09 program.  It is based on
 the Gaussian(R) 03 system (copyright 2003, Gaussian, Inc.),
 the Gaussian(R) 98 system (copyright 1998, Gaussian, Inc.),
 the Gaussian(R) 94 system (copyright 1995, Gaussian, Inc.),
 the Gaussian 92(TM) system (copyright 1992, Gaussian, Inc.),
 the Gaussian 90(TM) system (copyright 1990, Gaussian, Inc.),
 the Gaussian 88(TM) system (copyright 1988, Gaussian, Inc.),
 the Gaussian 86(TM) system (copyright 1986, Carnegie Mellon
 University), and the Gaussian 82(TM) system (copyright 1983,
 Carnegie Mellon University). Gaussian is a federally registered
 trademark of Gaussian, Inc.
  
 This software contains proprietary and confidential information,
 including trade secrets, belonging to Gaussian, Inc.
  
 This software is provided under written license and may be
 used, copied, transmitted, or stored only in accord with that
 written license.
  
 The following legend is applicable only to US Government
 contracts under FAR:
  
                    RESTRICTED RIGHTS LEGEND
  
 Use, reproduction and disclosure by the US Government is
 subject to restrictions as set forth in subparagraphs (a)
 and (c) of the Commercial Computer Software - Restricted
 Rights clause in FAR 52.227-19.
  
 Gaussian, Inc.
 340 Quinnipiac St., Bldg. 40, Wallingford CT 06492
  
  
 ---------------------------------------------------------------
 Warning -- This program may not be used in any manner that
 competes with the business of Gaussian, Inc. or will provide
 assistance to any competitor of Gaussian, Inc.  The licensee
 of this program is prohibited from giving any competitor of
 Gaussian, Inc. access to this program.  By using this program,
 the user acknowledges that Gaussian, Inc. is engaged in the
 business of creating and licensing software in the field of
 computational chemistry and represents and warrants to the
 licensee that it is not a competitor of Gaussian, Inc. and that
 it will not use this program in any manner prohibited above.
 ---------------------------------------------------------------
  

 Cite this work as:
 Gaussian 09, Revision D.01,
 M. J. Frisch, G. W. Trucks, H. B. Schlegel, G. E. Scuseria, 
 M. A. Robb, J. R. Cheeseman, G. Scalmani, V. Barone, B. Mennucci, 
 G. A. Petersson, H. Nakatsuji, M. Caricato, X. Li, H. P. Hratchian, 
 A. F. Izmaylov, J. Bloino, G. Zheng, J. L. Sonnenberg, M. Hada, 
 M. Ehara, K. Toyota, R. Fukuda, J. Hasegawa, M. Ishida, T. Nakajima, 
 Y. Honda, O. Kitao, H. Nakai, T. Vreven, J. A. Montgomery, Jr., 
 J. E. Peralta, F. Ogliaro, M. Bearpark, J. J. Heyd, E. Brothers, 
 K. N. Kudin, V. N. Staroverov, T. Keith, R. Kobayashi, J. Normand, 
 K. Raghavachari, A. Rendell, J. C. Burant, S. S. Iyengar, J. Tomasi, 
 M. Cossi, N. Rega, J. M. Millam, M. Klene, J. E. Knox, J. B. Cross, 
 V. Bakken, C. Adamo, J. Jaramillo, R. Gomperts, R. E. Stratmann, 
 O. Yazyev, A. J. Austin, R. Cammi, C. Pomelli, J. W. Ochterski, 
 R. L. Martin, K. Morokuma, V. G. Zakrzewski, G. A. Voth, 
 P. Salvador, J. J. Dannenberg, S. Dapprich, A. D. Daniels, 
 O. Farkas, J. B. Foresman, J. V. Ortiz, J. Cioslowski, 
 and D. J. Fox, Gaussian, Inc., Wallingford CT, 2013.
 
 ******************************************
 Gaussian 09:  ES64L-G09RevD.01 24-Apr-2013
                 2-Feb-2020 
 ******************************************
 %NProcShared=20
 Will use up to   20 processors via shared memory.
 %mem=64GB
 %Chk=BS7enlarge.chk
 ------------------------------
 #n opt freq b3lyp/6-311+g(d,p)
 ------------------------------
 1/14=-1,18=20,19=15,26=3,38=1/1,3;
 2/9=110,12=2,17=6,18=5,40=1/2;
 3/5=4,6=6,7=111,11=2,16=1,25=1,30=1,71=1,74=-5/1,2,3;
 4//1;
 5/5=2,38=5/2;
 6/7=2,8=2,9=2,10=2,28=1/1;
 7//1,2,3,16;
 1/14=-1,18=20,19=15,26=3/3(2);
 2/9=110/2;
 99//99;
 2/9=110/2;
 3/5=4,6=6,7=111,11=2,16=1,25=1,30=1,71=1,74=-5/1,2,3;
 4/5=5,16=3,69=1/1;
 5/5=2,38=5/2;
 7//1,2,3,16;
 1/14=-1,18=20,19=15,26=3/3(-5);
 2/9=110/2;
 6/7=2,8=2,9=2,10=2,19=2,28=1/1;
 99/9=1/99;
 ----------
 BS7enlarge
 ----------
 Symbolic Z-matrix:
 Charge =  0 Multiplicity = 3
 C                    -3.60099   0.60641  -0.06163 
 C                    -2.38568  -0.0095    0.1946 
 C                    -1.1845    0.70814   0.14786 
 C                    -1.16335   2.11851   0.12963 
 C                    -3.60372   2.04217  -0.04885 
 C                    -2.43946   2.76716   0.07756 
 C                    -0.03862  -0.12983   0.0519 
 C                     1.23444   0.47198   0.00812 
 C                     1.27539   1.92071   0.08646 
 C                     0.11284   2.70516   0.1259 
 C                     2.48748  -0.25902  -0.13018 
 C                     3.72215   0.45078  -0.08601 
 C                     3.71595   1.8814    0.04686 
 C                     2.55598   2.57578   0.10889 
 C                     2.53928  -1.65611  -0.32633 
 C                     3.74345  -2.32637  -0.4395 
 C                     4.95533  -1.62537  -0.36096 
 C                     4.93731  -0.25503  -0.19245 
 C                    -4.65451  -0.25038  -0.53332 
 C                    -4.33629  -1.56527  -0.93722 
 C                    -3.10085  -2.1529   -0.73335 
 C                    -2.1179   -1.47095   0.16106 
 C                    -0.54662  -1.49804   0.11038 
 H                    -2.8981   -3.16044  -1.07842 
 H                    -5.09892  -2.13522  -1.45864 
 H                    -5.64272   0.15032  -0.72797 
 H                    -4.54521   2.56631  -0.17896 
 H                    -2.4809    3.85141   0.0804 
 H                     0.21753   3.78543   0.13917 
 H                     2.56968   3.65797   0.18408 
 H                     4.66902   2.39888   0.07804 
 H                     5.86722   0.30245  -0.14764 
 H                     1.61704  -2.21331  -0.41929 
 H                     3.74737  -3.39907  -0.59734 
 H                     5.89805  -2.15411  -0.44431 
 C                    -0.52192  -2.40734   1.24805 
 C                    -1.86117  -2.32143   1.44875 
 H                     0.28695  -2.85864   1.80804 
 H                    -2.55117  -2.71593   2.18554 
 

 GradGradGradGradGradGradGradGradGradGradGradGradGradGradGradGradGradGrad
 Berny optimization.
 Initialization pass.
                           ----------------------------
                           !    Initial Parameters    !
                           ! (Angstroms and Degrees)  !
 --------------------------                            --------------------------
 ! Name  Definition              Value          Derivative Info.                !
 --------------------------------------------------------------------------------
 ! R1    R(1,2)                  1.3864         estimate D2E/DX2                !
 ! R2    R(1,5)                  1.4358         estimate D2E/DX2                !
 ! R3    R(1,19)                 1.4375         estimate D2E/DX2                !
 ! R4    R(2,3)                  1.4            estimate D2E/DX2                !
 ! R5    R(2,22)                 1.4862         estimate D2E/DX2                !
 ! R6    R(3,4)                  1.4106         estimate D2E/DX2                !
 ! R7    R(3,7)                  1.4228         estimate D2E/DX2                !
 ! R8    R(4,6)                  1.4325         estimate D2E/DX2                !
 ! R9    R(4,10)                 1.4046         estimate D2E/DX2                !
 ! R10   R(5,6)                  1.3773         estimate D2E/DX2                !
 ! R11   R(5,27)                 1.0854         estimate D2E/DX2                !
 ! R12   R(6,28)                 1.085          estimate D2E/DX2                !
 ! R13   R(7,8)                  1.4088         estimate D2E/DX2                !
 ! R14   R(7,23)                 1.4606         estimate D2E/DX2                !
 ! R15   R(8,9)                  1.4514         estimate D2E/DX2                !
 ! R16   R(8,11)                 1.4573         estimate D2E/DX2                !
 ! R17   R(9,10)                 1.403          estimate D2E/DX2                !
 ! R18   R(9,14)                 1.4386         estimate D2E/DX2                !
 ! R19   R(10,29)                1.0854         estimate D2E/DX2                !
 ! R20   R(11,12)                1.4248         estimate D2E/DX2                !
 ! R21   R(11,15)                1.4117         estimate D2E/DX2                !
 ! R22   R(12,13)                1.4368         estimate D2E/DX2                !
 ! R23   R(12,18)                1.4093         estimate D2E/DX2                !
 ! R24   R(13,14)                1.3533         estimate D2E/DX2                !
 ! R25   R(13,31)                1.0849         estimate D2E/DX2                !
 ! R26   R(14,30)                1.0849         estimate D2E/DX2                !
 ! R27   R(15,16)                1.3828         estimate D2E/DX2                !
 ! R28   R(15,33)                1.0815         estimate D2E/DX2                !
 ! R29   R(16,17)                1.4022         estimate D2E/DX2                !
 ! R30   R(16,34)                1.0843         estimate D2E/DX2                !
 ! R31   R(17,18)                1.3808         estimate D2E/DX2                !
 ! R32   R(17,35)                1.0841         estimate D2E/DX2                !
 ! R33   R(18,32)                1.0851         estimate D2E/DX2                !
 ! R34   R(19,20)                1.4119         estimate D2E/DX2                !
 ! R35   R(19,26)                1.084          estimate D2E/DX2                !
 ! R36   R(20,21)                1.3832         estimate D2E/DX2                !
 ! R37   R(20,25)                1.0855         estimate D2E/DX2                !
 ! R38   R(21,22)                1.4937         estimate D2E/DX2                !
 ! R39   R(21,24)                1.0841         estimate D2E/DX2                !
 ! R40   R(22,23)                1.5723         estimate D2E/DX2                !
 ! R41   R(22,37)                1.5644         estimate D2E/DX2                !
 ! R42   R(23,36)                1.4566         estimate D2E/DX2                !
 ! R43   R(36,37)                1.3569         estimate D2E/DX2                !
 ! R44   R(36,38)                1.0824         estimate D2E/DX2                !
 ! R45   R(37,39)                1.0838         estimate D2E/DX2                !
 ! A1    A(2,1,5)              116.3766         estimate D2E/DX2                !
 ! A2    A(2,1,19)             115.9958         estimate D2E/DX2                !
 ! A3    A(5,1,19)             126.6924         estimate D2E/DX2                !
 ! A4    A(1,2,3)              121.2133         estimate D2E/DX2                !
 ! A5    A(1,2,22)             126.2039         estimate D2E/DX2                !
 ! A6    A(3,2,22)             110.4095         estimate D2E/DX2                !
 ! A7    A(2,3,4)              121.7215         estimate D2E/DX2                !
 ! A8    A(2,3,7)              113.0377         estimate D2E/DX2                !
 ! A9    A(4,3,7)              125.1616         estimate D2E/DX2                !
 ! A10   A(3,4,6)              116.0943         estimate D2E/DX2                !
 ! A11   A(3,4,10)             115.5466         estimate D2E/DX2                !
 ! A12   A(6,4,10)             128.3308         estimate D2E/DX2                !
 ! A13   A(1,5,6)              121.7055         estimate D2E/DX2                !
 ! A14   A(1,5,27)             118.9123         estimate D2E/DX2                !
 ! A15   A(6,5,27)             119.3434         estimate D2E/DX2                !
 ! A16   A(4,6,5)              121.1994         estimate D2E/DX2                !
 ! A17   A(4,6,28)             119.1057         estimate D2E/DX2                !
 ! A18   A(5,6,28)             119.5997         estimate D2E/DX2                !
 ! A19   A(3,7,8)              118.5718         estimate D2E/DX2                !
 ! A20   A(3,7,23)             105.5977         estimate D2E/DX2                !
 ! A21   A(8,7,23)             135.6974         estimate D2E/DX2                !
 ! A22   A(7,8,9)              116.7564         estimate D2E/DX2                !
 ! A23   A(7,8,11)             124.4488         estimate D2E/DX2                !
 ! A24   A(9,8,11)             118.7873         estimate D2E/DX2                !
 ! A25   A(8,9,10)             122.4267         estimate D2E/DX2                !
 ! A26   A(8,9,14)             118.716          estimate D2E/DX2                !
 ! A27   A(10,9,14)            118.8534         estimate D2E/DX2                !
 ! A28   A(4,10,9)             121.2932         estimate D2E/DX2                !
 ! A29   A(4,10,29)            120.2182         estimate D2E/DX2                !
 ! A30   A(9,10,29)            118.4827         estimate D2E/DX2                !
 ! A31   A(8,11,12)            119.4895         estimate D2E/DX2                !
 ! A32   A(8,11,15)            122.7625         estimate D2E/DX2                !
 ! A33   A(12,11,15)           117.7427         estimate D2E/DX2                !
 ! A34   A(11,12,13)           119.6795         estimate D2E/DX2                !
 ! A35   A(11,12,18)           119.6916         estimate D2E/DX2                !
 ! A36   A(13,12,18)           120.6225         estimate D2E/DX2                !
 ! A37   A(12,13,14)           121.253          estimate D2E/DX2                !
 ! A38   A(12,13,31)           118.2802         estimate D2E/DX2                !
 ! A39   A(14,13,31)           120.4571         estimate D2E/DX2                !
 ! A40   A(9,14,13)            121.9128         estimate D2E/DX2                !
 ! A41   A(9,14,30)            117.8104         estimate D2E/DX2                !
 ! A42   A(13,14,30)           120.2758         estimate D2E/DX2                !
 ! A43   A(11,15,16)           121.5345         estimate D2E/DX2                !
 ! A44   A(11,15,33)           119.3746         estimate D2E/DX2                !
 ! A45   A(16,15,33)           119.0668         estimate D2E/DX2                !
 ! A46   A(15,16,17)           120.379          estimate D2E/DX2                !
 ! A47   A(15,16,34)           119.6444         estimate D2E/DX2                !
 ! A48   A(17,16,34)           119.975          estimate D2E/DX2                !
 ! A49   A(16,17,18)           119.4523         estimate D2E/DX2                !
 ! A50   A(16,17,35)           120.227          estimate D2E/DX2                !
 ! A51   A(18,17,35)           120.3164         estimate D2E/DX2                !
 ! A52   A(12,18,17)           121.1653         estimate D2E/DX2                !
 ! A53   A(12,18,32)           118.5868         estimate D2E/DX2                !
 ! A54   A(17,18,32)           120.2459         estimate D2E/DX2                !
 ! A55   A(1,19,20)            118.9319         estimate D2E/DX2                !
 ! A56   A(1,19,26)            120.4457         estimate D2E/DX2                !
 ! A57   A(20,19,26)           119.8927         estimate D2E/DX2                !
 ! A58   A(19,20,21)           123.6979         estimate D2E/DX2                !
 ! A59   A(19,20,25)           117.9084         estimate D2E/DX2                !
 ! A60   A(21,20,25)           118.3757         estimate D2E/DX2                !
 ! A61   A(20,21,22)           118.8202         estimate D2E/DX2                !
 ! A62   A(20,21,24)           120.9947         estimate D2E/DX2                !
 ! A63   A(22,21,24)           119.4599         estimate D2E/DX2                !
 ! A64   A(2,22,21)            110.1144         estimate D2E/DX2                !
 ! A65   A(2,22,23)            101.4044         estimate D2E/DX2                !
 ! A66   A(2,22,37)            123.0655         estimate D2E/DX2                !
 ! A67   A(21,22,23)           129.0831         estimate D2E/DX2                !
 ! A68   A(21,22,37)           110.65           estimate D2E/DX2                !
 ! A69   A(23,22,37)            81.5566         estimate D2E/DX2                !
 ! A70   A(7,23,22)            109.4334         estimate D2E/DX2                !
 ! A71   A(7,23,36)            127.5984         estimate D2E/DX2                !
 ! A72   A(22,23,36)            90.1448         estimate D2E/DX2                !
 ! A73   A(23,36,37)            93.3975         estimate D2E/DX2                !
 ! A74   A(23,36,38)           132.6131         estimate D2E/DX2                !
 ! A75   A(37,36,38)           133.4287         estimate D2E/DX2                !
 ! A76   A(22,37,36)            94.2807         estimate D2E/DX2                !
 ! A77   A(22,37,39)           130.7672         estimate D2E/DX2                !
 ! A78   A(36,37,39)           134.8999         estimate D2E/DX2                !
 ! D1    D(5,1,2,3)            -14.7732         estimate D2E/DX2                !
 ! D2    D(5,1,2,22)          -176.3709         estimate D2E/DX2                !
 ! D3    D(19,1,2,3)           154.9146         estimate D2E/DX2                !
 ! D4    D(19,1,2,22)           -6.6832         estimate D2E/DX2                !
 ! D5    D(2,1,5,6)              6.2883         estimate D2E/DX2                !
 ! D6    D(2,1,5,27)          -175.9911         estimate D2E/DX2                !
 ! D7    D(19,1,5,6)          -162.1361         estimate D2E/DX2                !
 ! D8    D(19,1,5,27)           15.5845         estimate D2E/DX2                !
 ! D9    D(2,1,19,20)          -11.6284         estimate D2E/DX2                !
 ! D10   D(2,1,19,26)          178.1678         estimate D2E/DX2                !
 ! D11   D(5,1,19,20)          156.8342         estimate D2E/DX2                !
 ! D12   D(5,1,19,26)          -13.3695         estimate D2E/DX2                !
 ! D13   D(1,2,3,4)             13.9902         estimate D2E/DX2                !
 ! D14   D(1,2,3,7)           -162.9324         estimate D2E/DX2                !
 ! D15   D(22,2,3,4)           178.219          estimate D2E/DX2                !
 ! D16   D(22,2,3,7)             1.2965         estimate D2E/DX2                !
 ! D17   D(1,2,22,21)           24.7991         estimate D2E/DX2                !
 ! D18   D(1,2,22,23)          164.1572         estimate D2E/DX2                !
 ! D19   D(1,2,22,37)         -108.5605         estimate D2E/DX2                !
 ! D20   D(3,2,22,21)         -138.4583         estimate D2E/DX2                !
 ! D21   D(3,2,22,23)            0.8998         estimate D2E/DX2                !
 ! D22   D(3,2,22,37)           88.1822         estimate D2E/DX2                !
 ! D23   D(2,3,4,6)             -3.7485         estimate D2E/DX2                !
 ! D24   D(2,3,4,10)           178.0232         estimate D2E/DX2                !
 ! D25   D(7,3,4,6)            172.7869         estimate D2E/DX2                !
 ! D26   D(7,3,4,10)            -5.4414         estimate D2E/DX2                !
 ! D27   D(2,3,7,8)           -179.4865         estimate D2E/DX2                !
 ! D28   D(2,3,7,23)            -3.0341         estimate D2E/DX2                !
 ! D29   D(4,3,7,8)              3.7156         estimate D2E/DX2                !
 ! D30   D(4,3,7,23)          -179.832          estimate D2E/DX2                !
 ! D31   D(3,4,6,5)             -4.6998         estimate D2E/DX2                !
 ! D32   D(3,4,6,28)           178.8636         estimate D2E/DX2                !
 ! D33   D(10,4,6,5)           173.2624         estimate D2E/DX2                !
 ! D34   D(10,4,6,28)           -3.1743         estimate D2E/DX2                !
 ! D35   D(3,4,10,9)             2.5406         estimate D2E/DX2                !
 ! D36   D(3,4,10,29)         -178.3527         estimate D2E/DX2                !
 ! D37   D(6,4,10,9)          -175.4309         estimate D2E/DX2                !
 ! D38   D(6,4,10,29)            3.6757         estimate D2E/DX2                !
 ! D39   D(1,5,6,4)              3.414          estimate D2E/DX2                !
 ! D40   D(1,5,6,28)           179.8334         estimate D2E/DX2                !
 ! D41   D(27,5,6,4)          -174.297          estimate D2E/DX2                !
 ! D42   D(27,5,6,28)            2.1223         estimate D2E/DX2                !
 ! D43   D(3,7,8,9)              0.9332         estimate D2E/DX2                !
 ! D44   D(3,7,8,11)          -178.051          estimate D2E/DX2                !
 ! D45   D(23,7,8,9)          -174.1718         estimate D2E/DX2                !
 ! D46   D(23,7,8,11)            6.844          estimate D2E/DX2                !
 ! D47   D(3,7,23,22)            3.5112         estimate D2E/DX2                !
 ! D48   D(3,7,23,36)         -102.4548         estimate D2E/DX2                !
 ! D49   D(8,7,23,22)          179.0489         estimate D2E/DX2                !
 ! D50   D(8,7,23,36)           73.0829         estimate D2E/DX2                !
 ! D51   D(7,8,9,10)            -3.6172         estimate D2E/DX2                !
 ! D52   D(7,8,9,14)           177.1159         estimate D2E/DX2                !
 ! D53   D(11,8,9,10)          175.4271         estimate D2E/DX2                !
 ! D54   D(11,8,9,14)           -3.8398         estimate D2E/DX2                !
 ! D55   D(7,8,11,12)         -176.4324         estimate D2E/DX2                !
 ! D56   D(7,8,11,15)            4.4273         estimate D2E/DX2                !
 ! D57   D(9,8,11,12)            4.6025         estimate D2E/DX2                !
 ! D58   D(9,8,11,15)         -174.5378         estimate D2E/DX2                !
 ! D59   D(8,9,10,4)             1.8413         estimate D2E/DX2                !
 ! D60   D(8,9,10,29)         -177.2805         estimate D2E/DX2                !
 ! D61   D(14,9,10,4)         -178.8928         estimate D2E/DX2                !
 ! D62   D(14,9,10,29)           1.9854         estimate D2E/DX2                !
 ! D63   D(8,9,14,13)            0.6144         estimate D2E/DX2                !
 ! D64   D(8,9,14,30)         -179.0164         estimate D2E/DX2                !
 ! D65   D(10,9,14,13)        -178.6791         estimate D2E/DX2                !
 ! D66   D(10,9,14,30)           1.6901         estimate D2E/DX2                !
 ! D67   D(8,11,12,13)          -2.1789         estimate D2E/DX2                !
 ! D68   D(8,11,12,18)         178.7336         estimate D2E/DX2                !
 ! D69   D(15,11,12,13)        177.0042         estimate D2E/DX2                !
 ! D70   D(15,11,12,18)         -2.0832         estimate D2E/DX2                !
 ! D71   D(8,11,15,16)        -179.2662         estimate D2E/DX2                !
 ! D72   D(8,11,15,33)           2.5385         estimate D2E/DX2                !
 ! D73   D(12,11,15,16)          1.5793         estimate D2E/DX2                !
 ! D74   D(12,11,15,33)       -176.6159         estimate D2E/DX2                !
 ! D75   D(11,12,13,14)         -1.1239         estimate D2E/DX2                !
 ! D76   D(11,12,13,31)       -179.9945         estimate D2E/DX2                !
 ! D77   D(18,12,13,14)        177.9549         estimate D2E/DX2                !
 ! D78   D(18,12,13,31)         -0.9157         estimate D2E/DX2                !
 ! D79   D(11,12,18,17)          1.0496         estimate D2E/DX2                !
 ! D80   D(11,12,18,32)       -179.4561         estimate D2E/DX2                !
 ! D81   D(13,12,18,17)       -178.0291         estimate D2E/DX2                !
 ! D82   D(13,12,18,32)          1.4652         estimate D2E/DX2                !
 ! D83   D(12,13,14,9)           1.9224         estimate D2E/DX2                !
 ! D84   D(12,13,14,30)       -178.4557         estimate D2E/DX2                !
 ! D85   D(31,13,14,9)        -179.2315         estimate D2E/DX2                !
 ! D86   D(31,13,14,30)          0.3905         estimate D2E/DX2                !
 ! D87   D(11,15,16,17)          0.0062         estimate D2E/DX2                !
 ! D88   D(11,15,16,34)       -179.5295         estimate D2E/DX2                !
 ! D89   D(33,15,16,17)        178.2069         estimate D2E/DX2                !
 ! D90   D(33,15,16,34)         -1.3289         estimate D2E/DX2                !
 ! D91   D(15,16,17,18)         -1.1083         estimate D2E/DX2                !
 ! D92   D(15,16,17,35)        179.6481         estimate D2E/DX2                !
 ! D93   D(34,16,17,18)        178.4259         estimate D2E/DX2                !
 ! D94   D(34,16,17,35)         -0.8176         estimate D2E/DX2                !
 ! D95   D(16,17,18,12)          0.5697         estimate D2E/DX2                !
 ! D96   D(16,17,18,32)       -178.9163         estimate D2E/DX2                !
 ! D97   D(35,17,18,12)        179.8126         estimate D2E/DX2                !
 ! D98   D(35,17,18,32)          0.3265         estimate D2E/DX2                !
 ! D99   D(1,19,20,21)           9.5047         estimate D2E/DX2                !
 ! D100  D(1,19,20,25)        -168.9251         estimate D2E/DX2                !
 ! D101  D(26,19,20,21)        179.7638         estimate D2E/DX2                !
 ! D102  D(26,19,20,25)          1.334          estimate D2E/DX2                !
 ! D103  D(19,20,21,22)         10.963          estimate D2E/DX2                !
 ! D104  D(19,20,21,24)       -178.8471         estimate D2E/DX2                !
 ! D105  D(25,20,21,22)       -170.6141         estimate D2E/DX2                !
 ! D106  D(25,20,21,24)         -0.4243         estimate D2E/DX2                !
 ! D107  D(20,21,22,2)         -25.7237         estimate D2E/DX2                !
 ! D108  D(20,21,22,23)       -150.3855         estimate D2E/DX2                !
 ! D109  D(20,21,22,37)        113.6483         estimate D2E/DX2                !
 ! D110  D(24,21,22,2)         163.933          estimate D2E/DX2                !
 ! D111  D(24,21,22,23)         39.2712         estimate D2E/DX2                !
 ! D112  D(24,21,22,37)        -56.695          estimate D2E/DX2                !
 ! D113  D(2,22,23,7)           -2.7293         estimate D2E/DX2                !
 ! D114  D(2,22,23,36)         127.6523         estimate D2E/DX2                !
 ! D115  D(21,22,23,7)         125.2798         estimate D2E/DX2                !
 ! D116  D(21,22,23,36)       -104.3385         estimate D2E/DX2                !
 ! D117  D(37,22,23,7)        -124.9203         estimate D2E/DX2                !
 ! D118  D(37,22,23,36)          5.4614         estimate D2E/DX2                !
 ! D119  D(2,22,37,36)        -104.0376         estimate D2E/DX2                !
 ! D120  D(2,22,37,39)          78.331          estimate D2E/DX2                !
 ! D121  D(21,22,37,36)        122.8144         estimate D2E/DX2                !
 ! D122  D(21,22,37,39)        -54.817          estimate D2E/DX2                !
 ! D123  D(23,22,37,36)         -5.8804         estimate D2E/DX2                !
 ! D124  D(23,22,37,39)        176.4881         estimate D2E/DX2                !
 ! D125  D(7,23,36,37)         108.7109         estimate D2E/DX2                !
 ! D126  D(7,23,36,38)         -63.3315         estimate D2E/DX2                !
 ! D127  D(22,23,36,37)         -6.242          estimate D2E/DX2                !
 ! D128  D(22,23,36,38)       -178.2845         estimate D2E/DX2                !
 ! D129  D(23,36,37,22)          6.2914         estimate D2E/DX2                !
 ! D130  D(23,36,37,39)       -176.2412         estimate D2E/DX2                !
 ! D131  D(38,36,37,22)        178.2267         estimate D2E/DX2                !
 ! D132  D(38,36,37,39)         -4.3059         estimate D2E/DX2                !
 --------------------------------------------------------------------------------
 Trust Radius=3.00D-01 FncErr=1.00D-07 GrdErr=1.00D-06
 Number of steps in this run=    234 maximum allowed number of steps=    234.
 GradGradGradGradGradGradGradGradGradGradGradGradGradGradGradGradGradGrad

                          Input orientation:                          
 ---------------------------------------------------------------------
 Center     Atomic      Atomic             Coordinates (Angstroms)
 Number     Number       Type             X           Y           Z
 ---------------------------------------------------------------------
      1          6           0       -3.600990    0.606410   -0.061630
      2          6           0       -2.385680   -0.009500    0.194600
      3          6           0       -1.184500    0.708140    0.147860
      4          6           0       -1.163350    2.118510    0.129630
      5          6           0       -3.603720    2.042170   -0.048850
      6          6           0       -2.439460    2.767160    0.077560
      7          6           0       -0.038620   -0.129830    0.051900
      8          6           0        1.234440    0.471980    0.008120
      9          6           0        1.275390    1.920710    0.086460
     10          6           0        0.112840    2.705160    0.125900
     11          6           0        2.487480   -0.259020   -0.130180
     12          6           0        3.722150    0.450780   -0.086010
     13          6           0        3.715950    1.881400    0.046860
     14          6           0        2.555980    2.575780    0.108890
     15          6           0        2.539280   -1.656110   -0.326330
     16          6           0        3.743450   -2.326370   -0.439500
     17          6           0        4.955330   -1.625370   -0.360960
     18          6           0        4.937310   -0.255030   -0.192450
     19          6           0       -4.654510   -0.250380   -0.533320
     20          6           0       -4.336290   -1.565270   -0.937220
     21          6           0       -3.100850   -2.152900   -0.733350
     22          6           0       -2.117900   -1.470950    0.161060
     23          6           0       -0.546620   -1.498040    0.110380
     24          1           0       -2.898100   -3.160440   -1.078420
     25          1           0       -5.098920   -2.135220   -1.458640
     26          1           0       -5.642720    0.150320   -0.727970
     27          1           0       -4.545210    2.566310   -0.178960
     28          1           0       -2.480900    3.851410    0.080400
     29          1           0        0.217530    3.785430    0.139170
     30          1           0        2.569680    3.657970    0.184080
     31          1           0        4.669020    2.398880    0.078040
     32          1           0        5.867220    0.302450   -0.147640
     33          1           0        1.617040   -2.213310   -0.419290
     34          1           0        3.747370   -3.399070   -0.597340
     35          1           0        5.898050   -2.154110   -0.444310
     36          6           0       -0.521920   -2.407340    1.248050
     37          6           0       -1.861170   -2.321430    1.448750
     38          1           0        0.286950   -2.858640    1.808040
     39          1           0       -2.551170   -2.715930    2.185540
 ---------------------------------------------------------------------
                    Distance matrix (angstroms):
                    1          2          3          4          5
     1  C    0.000000
     2  C    1.386354   0.000000
     3  C    2.427686   1.400009   0.000000
     4  C    2.874911   2.454942   1.410646   0.000000
     5  C    1.435819   2.398383   2.769649   2.448079   0.000000
     6  C    2.457105   2.779646   2.412349   1.432451   1.377349
     7  C    3.639426   2.354471   1.422829   2.515172   4.175844
     8  C    4.837801   3.656756   2.434455   2.911224   5.086898
     9  C    5.052563   4.140150   2.743202   2.447129   4.882497
    10  C    4.269948   3.690081   2.381525   1.404576   3.779274
    11  C    6.150052   4.890341   3.807380   4.364483   6.511897
    12  C    7.324834   6.131573   4.918958   5.166811   7.496818
    13  C    7.427986   6.389618   5.039955   4.885759   7.322061
    14  C    6.466512   5.577726   4.181003   3.747391   6.184782
    15  C    6.549197   5.218996   4.436335   5.307082   7.175703
    16  C    7.917372   6.583024   5.817038   6.645115   8.556732
    17  C    8.847658   7.537248   6.587995   7.189963   9.316952
    18  C    8.582643   7.337321   6.206453   6.554043   8.845730
    19  C    1.437527   2.394886   3.663842   4.270754   2.568006
    20  C    2.454286   2.739766   4.034795   4.977545   3.786751
    21  C    2.883598   2.442688   3.554501   4.769023   4.280191
    22  C    2.562142   1.486159   2.370621   3.714347   3.820175
    23  C    3.713149   2.367485   2.296851   3.668809   4.680203
    24  H    3.964477   3.436798   4.405235   5.686480   5.350240
    25  H    3.422275   3.822769   5.097864   6.008788   4.655504
    26  H    2.195607   3.388951   4.577550   4.967294   2.863184
    27  H    2.178652   3.381999   3.854086   3.425307   1.085382
    28  H    3.435811   3.863772   3.400787   2.177454   2.133256
    29  H    4.972684   4.602311   3.381638   2.164611   4.204314
    30  H    6.888364   6.164904   4.774587   4.038368   6.385604
    31  H    8.463186   7.455379   6.093207   5.839333   8.281399
    32  H    9.473478   8.265882   7.069559   7.266627   9.629906
    33  H    5.941934   4.610359   4.087194   5.176538   6.745567
    34  H    8.386254   7.051997   6.461257   7.422085   9.162230
    35  H    9.899428   8.580661   7.661962   8.273334  10.394652
    36  C    4.503179   3.214498   3.369814   4.705913   5.565751
    37  C    3.725650   2.681981   3.365782   4.684026   4.931561
    38  H    5.533382   4.226552   4.200391   5.449078   6.527120
    39  H    4.146063   3.363925   4.212384   5.433656   5.360958
                    6          7          8          9         10
     6  C    0.000000
     7  C    3.762611   0.000000
     8  C    4.332461   1.408820   0.000000
     9  C    3.810074   2.435679   1.451424   0.000000
    10  C    2.553511   2.839997   2.501790   1.403011   0.000000
    11  C    5.785815   2.535946   1.457257   2.503461   3.806686
    12  C    6.584665   3.807823   2.489580   2.859558   4.260781
    13  C    6.218889   4.259327   2.854095   2.441198   3.696922
    14  C    4.999203   3.749070   2.486483   1.438586   2.446622
    15  C    6.672053   3.019629   2.518577   3.815947   5.011267
    16  C    8.027439   4.401172   3.785004   4.940207   6.230353
    17  C    8.612174   5.229401   4.287204   5.129993   6.514617
    18  C    7.976420   4.983499   3.778891   4.268641   5.669178
    19  C    3.792778   4.654402   5.957742   6.345193   5.647780
    20  C    4.837116   4.637760   6.006421   6.685128   6.257919
    21  C    5.030110   3.753223   5.121964   6.034721   5.887857
    22  C    4.251112   2.476676   3.877699   4.798264   4.734694
    23  C    4.666460   1.460645   2.657745   3.874035   4.254647
    24  H    6.056656   4.317273   5.608291   6.677803   6.702344
    25  H    5.784978   5.648890   7.004308   7.711662   7.287145
    26  H    4.213977   5.665035   6.923917   7.187338   6.354744
    27  H    2.130804   5.256598   6.150250   5.862306   4.670080
    28  H    1.085045   4.670740   5.022900   4.223429   2.836097
    29  H    2.846097   3.924601   3.468462   2.144534   1.085412
    30  H    5.088848   4.600884   3.458954   2.168591   2.635772
    31  H    7.118014   5.343869   3.938803   3.427162   4.566714
    32  H    8.667551   5.925000   4.638497   4.874266   6.241853
    33  H    6.442603   2.702613   2.745878   4.178831   5.172156
    34  H    8.760979   5.044122   4.654721   5.905788   7.141044
    35  H    9.695634   6.291898   5.371248   6.185051   7.576694
    36  C    5.641140   2.617519   3.593426   4.828212   5.272551
    37  C    5.301729   3.174270   4.411503   5.448816   5.559969
    38  H    6.486717   3.261354   3.902625   5.175233   5.815134
    39  H    5.875401   4.189659   5.406919   6.367663   6.381793
                   11         12         13         14         15
    11  C    0.000000
    12  C    1.424843   0.000000
    13  C    2.474243   1.436790   0.000000
    14  C    2.845688   2.431782   1.353345   0.000000
    15  C    1.411743   2.428152   3.746705   4.254244   0.000000
    16  C    2.438663   2.799638   4.235874   5.073647   1.382780
    17  C    2.830275   2.430376   3.741633   4.860792   2.416494
    18  C    2.450625   1.409295   2.472513   3.711472   2.780557
    19  C    7.153364   8.417847   8.657118   7.771150   7.332771
    20  C    6.994386   8.350298   8.813995   8.108392   6.903253
    21  C    5.931275   7.331543   7.959464   7.420883   5.676577
    22  C    4.771071   6.153070   6.729420   6.182548   4.686273
    23  C    3.286153   4.696687   5.440051   5.120756   3.120654
    24  H    6.190466   7.606149   8.392381   8.003806   5.691551
    25  H    7.927067   9.294234   9.803147   9.124043   7.736522
    26  H    8.162418   9.391655   9.548911   8.590802   8.388661
    27  H    7.579155   8.534246   8.292579   7.107028   8.248669
    28  H    6.451727   7.076002   6.502539   5.195980   7.463271
    29  H    4.645729   4.842825   3.984068   2.632968   5.934439
    30  H    3.930436   3.418655   2.118718   1.084885   5.338622
    31  H    3.444837   2.172227   1.084942   2.120656   4.598070
    32  H    3.426105   2.151075   2.675608   4.024692   3.865627
    33  H    2.158819   3.411736   4.624864   4.908764   1.081499
    34  H    3.415476   3.883740   5.319713   6.133270   2.137952
    35  H    3.914337   3.412971   4.613908   5.817845   3.397537
    36  C    3.946047   5.287787   6.147820   5.966795   3.523346
    37  C    5.065305   6.419821   7.122734   6.729718   4.791401
    38  H    3.918808   5.132279   6.109646   6.129317   3.327853
    39  H    6.065225   7.385292   8.061401   7.641836   5.774547
                   16         17         18         19         20
    16  C    0.000000
    17  C    1.402221   0.000000
    18  C    2.403494   1.380780   0.000000
    19  C    8.651258   9.709239   9.597876   0.000000
    20  C    8.130756   9.309666   9.395268   1.411855   0.000000
    21  C    6.852801   8.082017   8.276865   2.464438   1.383179
    22  C    5.953809   7.094148   7.167944   2.899370   2.477170
    23  C    4.403771   5.523570   5.631187   4.341171   3.932376
    24  H    6.724141   8.034149   8.403571   3.442464   2.152416
    25  H    8.902960  10.126835  10.289036   2.146238   1.085507
    26  H    9.711714  10.752043  10.601327   1.083978   2.166517
    27  H    9.628504  10.385739   9.893348   2.840996   4.205777
    28  H    8.785089   9.245942   8.483345   4.682511   5.815363
    29  H    7.079624   7.209274   6.221866   6.362136   7.108156
    30  H    6.130164   5.822549   4.589010   8.244925   8.731092
    31  H    4.842780   4.058236   2.681116   9.711877   9.891453
    32  H    3.392090   2.143254   1.085138  10.543300  10.403049
    33  H    2.129509   3.390170   3.861413   6.572552   6.010852
    34  H    1.084257   2.158948   3.385983   8.972733   8.296017
    35  H    2.161480   1.084082   2.143119  10.723275  10.263109
    36  C    4.587784   5.762001   6.042406   4.990396   4.475925
    37  C    5.914159   7.086905   7.292659   4.002574   3.520064
    38  H    4.157179   5.293325   5.692679   6.058301   5.530245
    39  H    6.831166   8.001345   8.233359   4.230269   3.776546
                   21         22         23         24         25
    21  C    0.000000
    22  C    1.493725   0.000000
    23  C    2.768540   1.572330   0.000000
    24  H    1.084121   2.235934   3.115490   0.000000
    25  H    2.125710   3.457045   4.857083   2.457489   0.000000
    26  H    3.430154   3.980358   5.421269   4.314729   2.460344
    27  H    4.966333   4.723020   5.708886   6.026414   4.903933
    28  H    6.090835   5.335334   5.688493   7.119197   6.712854
    29  H    6.858331   5.751890   5.338521   7.709396   8.116140
    30  H    8.170851   6.948364   6.025047   8.830699   9.750231
    31  H    9.041456   7.813115   6.510755   9.460695  10.878056
    32  H    9.316549   8.185498   6.666759   9.470417  11.310048
    33  H    4.728717   3.851971   2.339570   4.660257   6.796357
    34  H    6.962008   6.220467   4.749014   6.667132   8.977528
    35  H    9.003541   8.067753   6.501683   8.876207  11.043667
    36  C    3.262141   2.146049   1.456616   3.409671   5.324392
    37  C    2.515307   1.564408   2.048718   2.857578   4.355527
    38  H    4.293474   3.228239   2.329833   4.308976   6.340515
    39  H    3.023089   2.415826   3.131735   3.312308   4.484228
                   26         27         28         29         30
    26  H    0.000000
    27  H    2.709787   0.000000
    28  H    4.934434   2.445429   0.000000
    29  H    6.950431   4.926576   2.699876   0.000000
    30  H    8.976578   7.207300   5.055346   2.356029   0.000000
    31  H   10.584784   9.219334   7.295972   4.662834   2.450261
    32  H   11.525565  10.655737   9.074041   6.643223   4.716283
    33  H    7.641083   7.802298   7.336459   6.185094   5.978587
    34  H   10.039374  10.223878   9.582283   8.038610   7.197179
    35  H   11.772011  11.463614  10.322228   8.239350   6.727049
    36  C    6.055483   6.554419   6.661303   6.334572   6.890429
    37  C    5.014756   5.808917   6.352984   6.582532   7.548844
    38  H    7.116612   7.531801   7.461267   6.850811   7.093258
    39  H    5.124608   6.121202   6.896848   7.356698   8.417574
                   31         32         33         34         35
    31  H    0.000000
    32  H    2.425208   0.000000
    33  H    5.552857   4.946400   0.000000
    34  H    5.909467   4.289201   2.444593   0.000000
    35  H    4.744795   2.474601   4.281492   2.489733   0.000000
    36  C    7.170393   7.078985   2.718974   4.755610   6.644112
    37  C    8.173344   8.316322   3.949583   6.066590   7.988565
    38  H    7.059529   6.704967   2.673311   4.248814   6.087190
    39  H    9.095822   9.242491   4.940824   6.919733   8.866852
                   36         37         38         39
    36  C    0.000000
    37  C    1.356927   0.000000
    38  H    1.082373   2.243235   0.000000
    39  H    2.256540   1.083785   2.866670   0.000000
 Stoichiometry    C25H14(3)
 Framework group  C1[X(C25H14)]
 Deg. of freedom   111
 Full point group                 C1      NOp   1
 Largest Abelian subgroup         C1      NOp   1
 Largest concise Abelian subgroup C1      NOp   1
                         Standard orientation:                         
 ---------------------------------------------------------------------
 Center     Atomic      Atomic             Coordinates (Angstroms)
 Number     Number       Type             X           Y           Z
 ---------------------------------------------------------------------
      1          6           0       -3.600990    0.606409   -0.061630
      2          6           0       -2.385680   -0.009501    0.194600
      3          6           0       -1.184500    0.708140    0.147860
      4          6           0       -1.163350    2.118510    0.129630
      5          6           0       -3.603720    2.042169   -0.048850
      6          6           0       -2.439460    2.767159    0.077560
      7          6           0       -0.038620   -0.129830    0.051900
      8          6           0        1.234440    0.471980    0.008120
      9          6           0        1.275390    1.920710    0.086460
     10          6           0        0.112840    2.705160    0.125900
     11          6           0        2.487480   -0.259019   -0.130180
     12          6           0        3.722150    0.450781   -0.086010
     13          6           0        3.715950    1.881401    0.046860
     14          6           0        2.555980    2.575781    0.108890
     15          6           0        2.539281   -1.656109   -0.326330
     16          6           0        3.743451   -2.326369   -0.439500
     17          6           0        4.955331   -1.625369   -0.360960
     18          6           0        4.937310   -0.255029   -0.192450
     19          6           0       -4.654510   -0.250381   -0.533320
     20          6           0       -4.336289   -1.565271   -0.937220
     21          6           0       -3.100849   -2.152901   -0.733350
     22          6           0       -2.117899   -1.470951    0.161060
     23          6           0       -0.546619   -1.498040    0.110380
     24          1           0       -2.898099   -3.160441   -1.078420
     25          1           0       -5.098919   -2.135221   -1.458640
     26          1           0       -5.642720    0.150319   -0.727970
     27          1           0       -4.545210    2.566309   -0.178960
     28          1           0       -2.480901    3.851409    0.080400
     29          1           0        0.217529    3.785430    0.139170
     30          1           0        2.569679    3.657971    0.184080
     31          1           0        4.669020    2.398881    0.078040
     32          1           0        5.867220    0.302451   -0.147640
     33          1           0        1.617041   -2.213310   -0.419290
     34          1           0        3.747371   -3.399069   -0.597340
     35          1           0        5.898051   -2.154109   -0.444310
     36          6           0       -0.521919   -2.407340    1.248050
     37          6           0       -1.861169   -2.321430    1.448750
     38          1           0        0.286951   -2.858640    1.808040
     39          1           0       -2.551169   -2.715931    2.185540
 ---------------------------------------------------------------------
 Rotational constants (GHZ):      0.4759967      0.1777371      0.1353034
 Standard basis: 6-311+G(d,p) (5D, 7F)
 There are   659 symmetry adapted cartesian basis functions of A   symmetry.
 There are   634 symmetry adapted basis functions of A   symmetry.
   634 basis functions,  1012 primitive gaussians,   659 cartesian basis functions
    83 alpha electrons       81 beta electrons
       nuclear repulsion energy      1934.7439889497 Hartrees.
 NAtoms=   39 NActive=   39 NUniq=   39 SFac= 1.00D+00 NAtFMM=   60 NAOKFM=F Big=F
 Integral buffers will be    131072 words long.
 Raffenetti 2 integral format.
 Two-electron integral symmetry is turned on.
 One-electron integrals computed using PRISM.
 NBasis=   634 RedAO= T EigKep=  1.11D-06  NBF=   634
 NBsUse=   621 1.00D-06 EigRej=  9.35D-07 NBFU=   621
 ExpMin= 4.38D-02 ExpMax= 4.56D+03 ExpMxC= 6.82D+02 IAcc=2 IRadAn=         4 AccDes= 0.00D+00
 Harris functional with IExCor=  402 and IRadAn=       4 diagonalized for initial guess.
 HarFok:  IExCor=  402 AccDes= 0.00D+00 IRadAn=         4 IDoV= 1 UseB2=F ITyADJ=14
 ICtDFT=  3500011 ScaDFX=  1.000000  1.000000  1.000000  1.000000
 FoFCou: FMM=F IPFlag=           0 FMFlag=      100000 FMFlg1=           0
         NFxFlg=           0 DoJE=T BraDBF=F KetDBF=T FulRan=T
         wScrn=  0.000000 ICntrl=     500 IOpCl=  0 I1Cent=   200000004 NGrid=           0
         NMat0=    1 NMatS0=      1 NMatT0=    0 NMatD0=    1 NMtDS0=    0 NMtDT0=    0
 Petite list used in FoFCou.
 Initial guess <Sx>= 0.0000 <Sy>= 0.0000 <Sz>= 1.0000 <S**2>= 2.0000 S= 1.0000
 Requested convergence on RMS density matrix=1.00D-08 within 128 cycles.
 Requested convergence on MAX density matrix=1.00D-06.
 Requested convergence on             energy=1.00D-06.
 No special actions if energy rises.
 Restarting incremental Fock formation.
 SCF Done:  E(UB3LYP) =  -961.185819867     A.U. after   25 cycles
            NFock= 25  Conv=0.39D-08     -V/T= 2.0045
 <Sx>= 0.0000 <Sy>= 0.0000 <Sz>= 1.0000 <S**2>= 2.0436 S= 1.0145
 <L.S>= 0.000000000000E+00
 Annihilation of the first spin contaminant:
 S**2 before annihilation     2.0436,   after     2.0011

 **********************************************************************

            Population analysis using the SCF density.

 **********************************************************************

 Orbital symmetries:
 Alpha Orbitals:
       Occupied  (A) (A) (A) (A) (A) (A) (A) (A) (A) (A) (A) (A)
                 (A) (A) (A) (A) (A) (A) (A) (A) (A) (A) (A) (A)
                 (A) (A) (A) (A) (A) (A) (A) (A) (A) (A) (A) (A)
                 (A) (A) (A) (A) (A) (A) (A) (A) (A) (A) (A) (A)
                 (A) (A) (A) (A) (A) (A) (A) (A) (A) (A) (A) (A)
                 (A) (A) (A) (A) (A) (A) (A) (A) (A) (A) (A) (A)
                 (A) (A) (A) (A) (A) (A) (A) (A) (A) (A) (A)
       Virtual   (A) (A) (A) (A) (A) (A) (A) (A) (A) (A) (A) (A)
                 (A) (A) (A) (A) (A) (A) (A) (A) (A) (A) (A) (A)
                 (A) (A) (A) (A) (A) (A) (A) (A) (A) (A) (A) (A)
                 (A) (A) (A) (A) (A) (A) (A) (A) (A) (A) (A) (A)
                 (A) (A) (A) (A) (A) (A) (A) (A) (A) (A) (A) (A)
                 (A) (A) (A) (A) (A) (A) (A) (A) (A) (A) (A) (A)
                 (A) (A) (A) (A) (A) (A) (A) (A) (A) (A) (A) (A)
                 (A) (A) (A) (A) (A) (A) (A) (A) (A) (A) (A) (A)
                 (A) (A) (A) (A) (A) (A) (A) (A) (A) (A) (A) (A)
                 (A) (A) (A) (A) (A) (A) (A) (A) (A) (A) (A) (A)
                 (A) (A) (A) (A) (A) (A) (A) (A) (A) (A) (A) (A)
                 (A) (A) (A) (A) (A) (A) (A) (A) (A) (A) (A) (A)
                 (A) (A) (A) (A) (A) (A) (A) (A) (A) (A) (A) (A)
                 (A) (A) (A) (A) (A) (A) (A) (A) (A) (A) (A) (A)
                 (A) (A) (A) (A) (A) (A) (A) (A) (A) (A) (A) (A)
                 (A) (A) (A) (A) (A) (A) (A) (A) (A) (A) (A) (A)
                 (A) (A) (A) (A) (A) (A) (A) (A) (A) (A) (A) (A)
                 (A) (A) (A) (A) (A) (A) (A) (A) (A) (A) (A) (A)
                 (A) (A) (A) (A) (A) (A) (A) (A) (A) (A) (A) (A)
                 (A) (A) (A) (A) (A) (A) (A) (A) (A) (A) (A) (A)
                 (A) (A) (A) (A) (A) (A) (A) (A) (A) (A) (A) (A)
                 (A) (A) (A) (A) (A) (A) (A) (A) (A) (A) (A) (A)
                 (A) (A) (A) (A) (A) (A) (A) (A) (A) (A) (A) (A)
                 (A) (A) (A) (A) (A) (A) (A) (A) (A) (A) (A) (A)
                 (A) (A) (A) (A) (A) (A) (A) (A) (A) (A) (A) (A)
                 (A) (A) (A) (A) (A) (A) (A) (A) (A) (A) (A) (A)
                 (A) (A) (A) (A) (A) (A) (A) (A) (A) (A) (A) (A)
                 (A) (A) (A) (A) (A) (A) (A) (A) (A) (A) (A) (A)
                 (A) (A) (A) (A) (A) (A) (A) (A) (A) (A) (A) (A)
                 (A) (A) (A) (A) (A) (A) (A) (A) (A) (A) (A) (A)
                 (A) (A) (A) (A) (A) (A) (A) (A) (A) (A) (A) (A)
                 (A) (A) (A) (A) (A) (A) (A) (A) (A) (A) (A) (A)
                 (A) (A) (A) (A) (A) (A) (A) (A) (A) (A) (A) (A)
                 (A) (A) (A) (A) (A) (A) (A) (A) (A) (A) (A) (A)
                 (A) (A) (A) (A) (A) (A) (A) (A) (A) (A) (A) (A)
                 (A) (A) (A) (A) (A) (A) (A) (A) (A) (A) (A) (A)
                 (A) (A) (A) (A) (A) (A) (A) (A) (A) (A) (A) (A)
                 (A) (A) (A) (A) (A) (A) (A) (A) (A) (A) (A) (A)
                 (A) (A) (A) (A) (A) (A) (A) (A) (A) (A) (A) (A)
                 (A) (A) (A) (A) (A) (A) (A) (A) (A) (A) (A) (A)
                 (A) (A) (A) (A) (A) (A) (A) (A) (A) (A) (A) (A)
                 (A) (A) (A) (A) (A) (A) (A) (A) (A) (A) (A) (A)
                 (A) (A) (A) (A) (A) (A) (A) (A) (A) (A) (A) (A)
                 (A) (A) (A) (A) (A) (A) (A) (A) (A) (A) (A) (A)
                 (A) (A) (A) (A) (A) (A) (A) (A) (A) (A)
 Beta  Orbitals:
       Occupied  (A) (A) (A) (A) (A) (A) (A) (A) (A) (A) (A) (A)
                 (A) (A) (A) (A) (A) (A) (A) (A) (A) (A) (A) (A)
                 (A) (A) (A) (A) (A) (A) (A) (A) (A) (A) (A) (A)
                 (A) (A) (A) (A) (A) (A) (A) (A) (A) (A) (A) (A)
                 (A) (A) (A) (A) (A) (A) (A) (A) (A) (A) (A) (A)
                 (A) (A) (A) (A) (A) (A) (A) (A) (A) (A) (A) (A)
                 (A) (A) (A) (A) (A) (A) (A) (A) (A)
       Virtual   (A) (A) (A) (A) (A) (A) (A) (A) (A) (A) (A) (A)
                 (A) (A) (A) (A) (A) (A) (A) (A) (A) (A) (A) (A)
                 (A) (A) (A) (A) (A) (A) (A) (A) (A) (A) (A) (A)
                 (A) (A) (A) (A) (A) (A) (A) (A) (A) (A) (A) (A)
                 (A) (A) (A) (A) (A) (A) (A) (A) (A) (A) (A) (A)
                 (A) (A) (A) (A) (A) (A) (A) (A) (A) (A) (A) (A)
                 (A) (A) (A) (A) (A) (A) (A) (A) (A) (A) (A) (A)
                 (A) (A) (A) (A) (A) (A) (A) (A) (A) (A) (A) (A)
                 (A) (A) (A) (A) (A) (A) (A) (A) (A) (A) (A) (A)
                 (A) (A) (A) (A) (A) (A) (A) (A) (A) (A) (A) (A)
                 (A) (A) (A) (A) (A) (A) (A) (A) (A) (A) (A) (A)
                 (A) (A) (A) (A) (A) (A) (A) (A) (A) (A) (A) (A)
                 (A) (A) (A) (A) (A) (A) (A) (A) (A) (A) (A) (A)
                 (A) (A) (A) (A) (A) (A) (A) (A) (A) (A) (A) (A)
                 (A) (A) (A) (A) (A) (A) (A) (A) (A) (A) (A) (A)
                 (A) (A) (A) (A) (A) (A) (A) (A) (A) (A) (A) (A)
                 (A) (A) (A) (A) (A) (A) (A) (A) (A) (A) (A) (A)
                 (A) (A) (A) (A) (A) (A) (A) (A) (A) (A) (A) (A)
                 (A) (A) (A) (A) (A) (A) (A) (A) (A) (A) (A) (A)
                 (A) (A) (A) (A) (A) (A) (A) (A) (A) (A) (A) (A)
                 (A) (A) (A) (A) (A) (A) (A) (A) (A) (A) (A) (A)
                 (A) (A) (A) (A) (A) (A) (A) (A) (A) (A) (A) (A)
                 (A) (A) (A) (A) (A) (A) (A) (A) (A) (A) (A) (A)
                 (A) (A) (A) (A) (A) (A) (A) (A) (A) (A) (A) (A)
                 (A) (A) (A) (A) (A) (A) (A) (A) (A) (A) (A) (A)
                 (A) (A) (A) (A) (A) (A) (A) (A) (A) (A) (A) (A)
                 (A) (A) (A) (A) (A) (A) (A) (A) (A) (A) (A) (A)
                 (A) (A) (A) (A) (A) (A) (A) (A) (A) (A) (A) (A)
                 (A) (A) (A) (A) (A) (A) (A) (A) (A) (A) (A) (A)
                 (A) (A) (A) (A) (A) (A) (A) (A) (A) (A) (A) (A)
                 (A) (A) (A) (A) (A) (A) (A) (A) (A) (A) (A) (A)
                 (A) (A) (A) (A) (A) (A) (A) (A) (A) (A) (A) (A)
                 (A) (A) (A) (A) (A) (A) (A) (A) (A) (A) (A) (A)
                 (A) (A) (A) (A) (A) (A) (A) (A) (A) (A) (A) (A)
                 (A) (A) (A) (A) (A) (A) (A) (A) (A) (A) (A) (A)
                 (A) (A) (A) (A) (A) (A) (A) (A) (A) (A) (A) (A)
                 (A) (A) (A) (A) (A) (A) (A) (A) (A) (A) (A) (A)
                 (A) (A) (A) (A) (A) (A) (A) (A) (A) (A) (A) (A)
                 (A) (A) (A) (A) (A) (A) (A) (A) (A) (A) (A) (A)
                 (A) (A) (A) (A) (A) (A) (A) (A) (A) (A) (A) (A)
                 (A) (A) (A) (A) (A) (A) (A) (A) (A) (A) (A) (A)
                 (A) (A) (A) (A) (A) (A) (A) (A) (A) (A) (A) (A)
                 (A) (A) (A) (A) (A) (A) (A) (A) (A) (A) (A) (A)
                 (A) (A) (A) (A) (A) (A) (A) (A) (A) (A) (A) (A)
                 (A) (A) (A) (A) (A) (A) (A) (A) (A) (A) (A) (A)
 The electronic state is 3-A.
 Alpha  occ. eigenvalues --  -10.20846 -10.20469 -10.20113 -10.20026 -10.19666
 Alpha  occ. eigenvalues --  -10.19650 -10.19521 -10.19314 -10.19039 -10.19037
 Alpha  occ. eigenvalues --  -10.19031 -10.19022 -10.18976 -10.18648 -10.18593
 Alpha  occ. eigenvalues --  -10.18494 -10.18209 -10.18155 -10.18142 -10.18118
 Alpha  occ. eigenvalues --  -10.18031 -10.18027 -10.17966 -10.17917 -10.17798
 Alpha  occ. eigenvalues --   -0.92667  -0.88801  -0.87173  -0.85265  -0.82670
 Alpha  occ. eigenvalues --   -0.80513  -0.78990  -0.77857  -0.75331  -0.74310
 Alpha  occ. eigenvalues --   -0.72220  -0.71752  -0.67593  -0.64598  -0.64181
 Alpha  occ. eigenvalues --   -0.62520  -0.61761  -0.60402  -0.58810  -0.56836
 Alpha  occ. eigenvalues --   -0.55129  -0.53590  -0.51778  -0.51578  -0.50887
 Alpha  occ. eigenvalues --   -0.49533  -0.47744  -0.46883  -0.46533  -0.45728
 Alpha  occ. eigenvalues --   -0.44548  -0.43887  -0.43158  -0.42653  -0.42022
 Alpha  occ. eigenvalues --   -0.41581  -0.40854  -0.40498  -0.40182  -0.39249
 Alpha  occ. eigenvalues --   -0.38134  -0.37412  -0.36837  -0.36438  -0.35469
 Alpha  occ. eigenvalues --   -0.34518  -0.34154  -0.33762  -0.32899  -0.30963
 Alpha  occ. eigenvalues --   -0.29757  -0.28817  -0.27518  -0.25924  -0.23752
 Alpha  occ. eigenvalues --   -0.22807  -0.19716  -0.16845
 Alpha virt. eigenvalues --   -0.06441  -0.04801  -0.02631  -0.01225  -0.00507
 Alpha virt. eigenvalues --    0.00157   0.00608   0.00846   0.00990   0.01812
 Alpha virt. eigenvalues --    0.01884   0.02478   0.02605   0.03285   0.03561
 Alpha virt. eigenvalues --    0.03639   0.04151   0.04851   0.05277   0.05490
 Alpha virt. eigenvalues --    0.05587   0.05904   0.06458   0.06866   0.07302
 Alpha virt. eigenvalues --    0.07502   0.07906   0.08078   0.08492   0.08917
 Alpha virt. eigenvalues --    0.09573   0.09864   0.10302   0.10338   0.10848
 Alpha virt. eigenvalues --    0.11384   0.11630   0.11940   0.12150   0.12777
 Alpha virt. eigenvalues --    0.13215   0.13348   0.13909   0.14256   0.14406
 Alpha virt. eigenvalues --    0.14991   0.15344   0.15632   0.15857   0.16081
 Alpha virt. eigenvalues --    0.16156   0.16495   0.16887   0.17126   0.17263
 Alpha virt. eigenvalues --    0.17502   0.17678   0.17941   0.18214   0.18549
 Alpha virt. eigenvalues --    0.18595   0.18747   0.18909   0.19297   0.19597
 Alpha virt. eigenvalues --    0.19868   0.20146   0.20318   0.20570   0.20927
 Alpha virt. eigenvalues --    0.21134   0.21217   0.21437   0.21729   0.22103
 Alpha virt. eigenvalues --    0.22162   0.22450   0.22630   0.22848   0.23249
 Alpha virt. eigenvalues --    0.23540   0.23871   0.24257   0.24385   0.24598
 Alpha virt. eigenvalues --    0.24752   0.24958   0.25055   0.25769   0.25915
 Alpha virt. eigenvalues --    0.26074   0.26532   0.26596   0.26994   0.27317
 Alpha virt. eigenvalues --    0.27651   0.27865   0.28262   0.28478   0.28606
 Alpha virt. eigenvalues --    0.28904   0.29257   0.29567   0.29751   0.30065
 Alpha virt. eigenvalues --    0.30493   0.31251   0.31364   0.31561   0.31878
 Alpha virt. eigenvalues --    0.32473   0.32619   0.32914   0.33195   0.33546
 Alpha virt. eigenvalues --    0.34019   0.34722   0.35748   0.36201   0.36570
 Alpha virt. eigenvalues --    0.37222   0.37519   0.38259   0.38501   0.39260
 Alpha virt. eigenvalues --    0.39658   0.41041   0.41307   0.42175   0.42695
 Alpha virt. eigenvalues --    0.43080   0.43707   0.45089   0.45906   0.46729
 Alpha virt. eigenvalues --    0.47629   0.48127   0.49001   0.49862   0.50901
 Alpha virt. eigenvalues --    0.51455   0.51871   0.51984   0.52857   0.53565
 Alpha virt. eigenvalues --    0.53787   0.54515   0.54595   0.54813   0.55042
 Alpha virt. eigenvalues --    0.55717   0.55998   0.56228   0.57620   0.57842
 Alpha virt. eigenvalues --    0.58453   0.58691   0.58906   0.59332   0.60065
 Alpha virt. eigenvalues --    0.60831   0.61082   0.61661   0.62066   0.62289
 Alpha virt. eigenvalues --    0.62849   0.63422   0.63777   0.64245   0.64745
 Alpha virt. eigenvalues --    0.65023   0.65490   0.65968   0.66428   0.66745
 Alpha virt. eigenvalues --    0.67179   0.67921   0.68490   0.68639   0.68818
 Alpha virt. eigenvalues --    0.69410   0.69915   0.70225   0.70638   0.70745
 Alpha virt. eigenvalues --    0.71482   0.71703   0.71994   0.72093   0.72686
 Alpha virt. eigenvalues --    0.73112   0.73221   0.73751   0.74740   0.74929
 Alpha virt. eigenvalues --    0.75190   0.75455   0.75741   0.76154   0.76816
 Alpha virt. eigenvalues --    0.77616   0.79067   0.79604   0.80125   0.80433
 Alpha virt. eigenvalues --    0.80692   0.81407   0.83274   0.83496   0.83883
 Alpha virt. eigenvalues --    0.84438   0.85327   0.85697   0.86177   0.86869
 Alpha virt. eigenvalues --    0.87505   0.88268   0.89222   0.89893   0.90302
 Alpha virt. eigenvalues --    0.91223   0.91457   0.92113   0.92416   0.92963
 Alpha virt. eigenvalues --    0.94150   0.94482   0.94689   0.94921   0.94991
 Alpha virt. eigenvalues --    0.95486   0.96601   0.96971   0.97861   0.98026
 Alpha virt. eigenvalues --    0.98846   0.99882   1.00375   1.00648   1.01603
 Alpha virt. eigenvalues --    1.02445   1.02966   1.04002   1.04712   1.05657
 Alpha virt. eigenvalues --    1.05790   1.07632   1.07949   1.08651   1.09600
 Alpha virt. eigenvalues --    1.10202   1.10743   1.11693   1.12694   1.13361
 Alpha virt. eigenvalues --    1.13525   1.15133   1.16099   1.17565   1.17773
 Alpha virt. eigenvalues --    1.18885   1.19571   1.20906   1.21881   1.23453
 Alpha virt. eigenvalues --    1.25621   1.26684   1.27649   1.29126   1.32280
 Alpha virt. eigenvalues --    1.34383   1.34997   1.35950   1.37243   1.39645
 Alpha virt. eigenvalues --    1.41058   1.41534   1.44213   1.44756   1.45124
 Alpha virt. eigenvalues --    1.46010   1.46971   1.47513   1.48550   1.49138
 Alpha virt. eigenvalues --    1.49619   1.50360   1.50991   1.51311   1.51724
 Alpha virt. eigenvalues --    1.52654   1.53589   1.54469   1.55402   1.56370
 Alpha virt. eigenvalues --    1.56790   1.57195   1.57842   1.58325   1.59193
 Alpha virt. eigenvalues --    1.59657   1.60544   1.61309   1.61944   1.62702
 Alpha virt. eigenvalues --    1.63054   1.64652   1.65836   1.67418   1.68471
 Alpha virt. eigenvalues --    1.69106   1.69910   1.70785   1.70969   1.71742
 Alpha virt. eigenvalues --    1.73333   1.74071   1.74383   1.74861   1.75527
 Alpha virt. eigenvalues --    1.76130   1.77424   1.77639   1.78191   1.78761
 Alpha virt. eigenvalues --    1.80557   1.82023   1.82700   1.84500   1.84940
 Alpha virt. eigenvalues --    1.85121   1.85956   1.86993   1.87152   1.88170
 Alpha virt. eigenvalues --    1.88564   1.89855   1.90041   1.90578   1.91341
 Alpha virt. eigenvalues --    1.91764   1.92545   1.93222   1.93549   1.93895
 Alpha virt. eigenvalues --    1.94331   1.95518   1.95736   1.96376   1.96980
 Alpha virt. eigenvalues --    1.97838   1.98210   1.99261   2.00276   2.01607
 Alpha virt. eigenvalues --    2.02400   2.03087   2.04085   2.05195   2.05917
 Alpha virt. eigenvalues --    2.06513   2.07612   2.08191   2.09436   2.09711
 Alpha virt. eigenvalues --    2.10571   2.12582   2.13049   2.14159   2.15956
 Alpha virt. eigenvalues --    2.15987   2.17882   2.19323   2.20539   2.21935
 Alpha virt. eigenvalues --    2.22575   2.23886   2.24188   2.25935   2.27508
 Alpha virt. eigenvalues --    2.28361   2.31616   2.32881   2.33901   2.34703
 Alpha virt. eigenvalues --    2.36752   2.37336   2.38760   2.39741   2.41947
 Alpha virt. eigenvalues --    2.43212   2.43869   2.45195   2.46364   2.47454
 Alpha virt. eigenvalues --    2.48369   2.49106   2.51957   2.53986   2.54700
 Alpha virt. eigenvalues --    2.55743   2.57775   2.58782   2.60654   2.61988
 Alpha virt. eigenvalues --    2.64596   2.64906   2.66533   2.68595   2.68838
 Alpha virt. eigenvalues --    2.69420   2.69865   2.71248   2.71571   2.72142
 Alpha virt. eigenvalues --    2.72652   2.73095   2.73316   2.74406   2.74972
 Alpha virt. eigenvalues --    2.75331   2.75913   2.76921   2.77515   2.77739
 Alpha virt. eigenvalues --    2.78032   2.78653   2.79332   2.80875   2.81747
 Alpha virt. eigenvalues --    2.81851   2.82597   2.83367   2.83497   2.84276
 Alpha virt. eigenvalues --    2.84952   2.86710   2.86954   2.87649   2.88366
 Alpha virt. eigenvalues --    2.91100   2.91579   2.92094   2.92487   2.93245
 Alpha virt. eigenvalues --    2.93952   2.95221   2.99049   3.00307   3.00887
 Alpha virt. eigenvalues --    3.03100   3.05021   3.06119   3.09619   3.11153
 Alpha virt. eigenvalues --    3.11787   3.14971   3.16636   3.17423   3.18616
 Alpha virt. eigenvalues --    3.19434   3.22044   3.22756   3.24146   3.24857
 Alpha virt. eigenvalues --    3.25517   3.30365   3.32607   3.35051   3.36317
 Alpha virt. eigenvalues --    3.37769   3.38580   3.38881   3.40205   3.43598
 Alpha virt. eigenvalues --    3.45422   3.46025   3.47312   3.48159   3.51580
 Alpha virt. eigenvalues --    3.53498   3.55597   3.55953   3.57573   3.61688
 Alpha virt. eigenvalues --    3.63844   3.65680   3.68889   3.71450   3.76318
 Alpha virt. eigenvalues --    3.80410   3.87904   3.95521   4.01216   4.04252
 Alpha virt. eigenvalues --    4.05739   4.06453   4.07680   4.09613   4.10795
 Alpha virt. eigenvalues --    4.18700   4.21608   4.22845   4.25590   4.29871
 Alpha virt. eigenvalues --    4.35554   4.60618   4.65976   4.67702   4.79399
 Alpha virt. eigenvalues --    4.81399   4.84795   4.86269  23.44645  23.63344
 Alpha virt. eigenvalues --   23.72697  23.75204  23.82053  23.84785  23.89203
 Alpha virt. eigenvalues --   23.90326  23.90975  23.93117  23.95137  23.96723
 Alpha virt. eigenvalues --   23.98757  24.00343  24.02873  24.03212  24.06258
 Alpha virt. eigenvalues --   24.10518  24.11035  24.12425  24.13481  24.15426
 Alpha virt. eigenvalues --   24.19437  24.22592  24.28916
  Beta  occ. eigenvalues --  -10.20568 -10.19855 -10.19848 -10.19787 -10.19728
  Beta  occ. eigenvalues --  -10.19533 -10.19466 -10.19348 -10.19036 -10.18991
  Beta  occ. eigenvalues --  -10.18988 -10.18609 -10.18479 -10.18410 -10.18401
  Beta  occ. eigenvalues --  -10.18345 -10.18297 -10.18162 -10.18130 -10.18027
  Beta  occ. eigenvalues --  -10.18019 -10.17963 -10.17918 -10.17914 -10.17741
  Beta  occ. eigenvalues --   -0.91965  -0.88562  -0.86732  -0.84856  -0.82331
  Beta  occ. eigenvalues --   -0.80241  -0.78600  -0.77654  -0.75080  -0.73903
  Beta  occ. eigenvalues --   -0.71869  -0.71138  -0.66756  -0.64332  -0.63814
  Beta  occ. eigenvalues --   -0.62024  -0.61251  -0.60230  -0.58244  -0.56634
  Beta  occ. eigenvalues --   -0.54872  -0.53284  -0.51523  -0.51423  -0.50514
  Beta  occ. eigenvalues --   -0.49246  -0.47516  -0.46570  -0.46270  -0.45582
  Beta  occ. eigenvalues --   -0.44075  -0.43569  -0.42700  -0.42467  -0.41803
  Beta  occ. eigenvalues --   -0.41328  -0.40563  -0.40174  -0.39767  -0.38982
  Beta  occ. eigenvalues --   -0.37485  -0.36887  -0.36684  -0.35375  -0.34928
  Beta  occ. eigenvalues --   -0.34137  -0.33976  -0.33506  -0.32006  -0.30161
  Beta  occ. eigenvalues --   -0.28850  -0.27626  -0.27153  -0.25167  -0.22904
  Beta  occ. eigenvalues --   -0.21183
  Beta virt. eigenvalues --   -0.11705  -0.09313  -0.04986  -0.04156  -0.01682
  Beta virt. eigenvalues --   -0.00560   0.00036   0.00191   0.00649   0.00866
  Beta virt. eigenvalues --    0.01762   0.01854   0.02145   0.02633   0.03318
  Beta virt. eigenvalues --    0.03366   0.03669   0.03757   0.04184   0.05020
  Beta virt. eigenvalues --    0.05553   0.05594   0.05776   0.06242   0.06591
  Beta virt. eigenvalues --    0.07050   0.07418   0.07633   0.07996   0.08189
  Beta virt. eigenvalues --    0.08730   0.09050   0.09644   0.09956   0.10380
  Beta virt. eigenvalues --    0.10667   0.10915   0.11480   0.11717   0.12044
  Beta virt. eigenvalues --    0.12368   0.13013   0.13296   0.13490   0.14005
  Beta virt. eigenvalues --    0.14395   0.14478   0.15110   0.15514   0.15836
  Beta virt. eigenvalues --    0.15925   0.16262   0.16368   0.16624   0.17049
  Beta virt. eigenvalues --    0.17193   0.17345   0.17600   0.17801   0.18142
  Beta virt. eigenvalues --    0.18381   0.18612   0.18802   0.18929   0.19048
  Beta virt. eigenvalues --    0.19405   0.19864   0.20032   0.20240   0.20435
  Beta virt. eigenvalues --    0.20670   0.21051   0.21296   0.21404   0.21557
  Beta virt. eigenvalues --    0.21836   0.22179   0.22291   0.22580   0.22771
  Beta virt. eigenvalues --    0.22982   0.23386   0.23746   0.23980   0.24356
  Beta virt. eigenvalues --    0.24479   0.24768   0.24884   0.25129   0.25217
  Beta virt. eigenvalues --    0.25870   0.26017   0.26325   0.26667   0.26681
  Beta virt. eigenvalues --    0.27083   0.27491   0.27803   0.27945   0.28373
  Beta virt. eigenvalues --    0.28695   0.28715   0.29051   0.29333   0.29738
  Beta virt. eigenvalues --    0.29995   0.30189   0.30591   0.31444   0.31483
  Beta virt. eigenvalues --    0.31739   0.32030   0.32610   0.32726   0.33042
  Beta virt. eigenvalues --    0.33512   0.33740   0.34185   0.34933   0.35829
  Beta virt. eigenvalues --    0.36446   0.36737   0.37372   0.37763   0.38477
  Beta virt. eigenvalues --    0.38701   0.39470   0.39884   0.41227   0.41514
  Beta virt. eigenvalues --    0.42426   0.42869   0.43297   0.43914   0.45273
  Beta virt. eigenvalues --    0.46072   0.47116   0.47748   0.48583   0.49181
  Beta virt. eigenvalues --    0.50154   0.51202   0.51775   0.52058   0.52193
  Beta virt. eigenvalues --    0.52965   0.53710   0.53984   0.54750   0.54837
  Beta virt. eigenvalues --    0.55000   0.55246   0.55939   0.56272   0.56802
  Beta virt. eigenvalues --    0.57725   0.58187   0.58568   0.58942   0.59159
  Beta virt. eigenvalues --    0.59560   0.60328   0.60963   0.61371   0.61872
  Beta virt. eigenvalues --    0.62420   0.62615   0.62984   0.63712   0.63993
  Beta virt. eigenvalues --    0.64606   0.64982   0.65422   0.65721   0.66353
  Beta virt. eigenvalues --    0.66687   0.67008   0.67510   0.68281   0.68705
  Beta virt. eigenvalues --    0.68946   0.69078   0.69736   0.70145   0.70672
  Beta virt. eigenvalues --    0.71050   0.71152   0.71691   0.71993   0.72314
  Beta virt. eigenvalues --    0.72593   0.73016   0.73259   0.73432   0.73891
  Beta virt. eigenvalues --    0.74933   0.75060   0.75485   0.75722   0.76158
  Beta virt. eigenvalues --    0.76285   0.77205   0.77848   0.79420   0.79932
  Beta virt. eigenvalues --    0.80501   0.80740   0.80904   0.81644   0.83431
  Beta virt. eigenvalues --    0.83675   0.84037   0.84665   0.85793   0.85945
  Beta virt. eigenvalues --    0.86275   0.87433   0.87955   0.88457   0.89406
  Beta virt. eigenvalues --    0.90198   0.90554   0.91476   0.91653   0.92435
  Beta virt. eigenvalues --    0.92820   0.93098   0.94352   0.94670   0.94877
  Beta virt. eigenvalues --    0.95126   0.95177   0.95741   0.96978   0.97210
  Beta virt. eigenvalues --    0.98042   0.98378   0.99271   1.00236   1.00737
  Beta virt. eigenvalues --    1.00897   1.01864   1.02640   1.03178   1.04264
  Beta virt. eigenvalues --    1.04940   1.05971   1.06257   1.07752   1.08282
  Beta virt. eigenvalues --    1.09008   1.09932   1.10475   1.11033   1.11992
  Beta virt. eigenvalues --    1.13010   1.13610   1.13897   1.15368   1.16270
  Beta virt. eigenvalues --    1.17766   1.18090   1.19339   1.19883   1.21126
  Beta virt. eigenvalues --    1.22567   1.23723   1.25976   1.27110   1.28226
  Beta virt. eigenvalues --    1.29471   1.32577   1.34822   1.35412   1.36188
  Beta virt. eigenvalues --    1.37773   1.39937   1.41587   1.41772   1.44564
  Beta virt. eigenvalues --    1.45047   1.45371   1.46206   1.47234   1.47648
  Beta virt. eigenvalues --    1.48773   1.49272   1.49816   1.50631   1.51162
  Beta virt. eigenvalues --    1.51639   1.51928   1.52829   1.53854   1.54851
  Beta virt. eigenvalues --    1.55708   1.56586   1.57093   1.57344   1.58319
  Beta virt. eigenvalues --    1.58546   1.59444   1.60215   1.60860   1.61572
  Beta virt. eigenvalues --    1.62148   1.63115   1.63703   1.64885   1.65983
  Beta virt. eigenvalues --    1.67701   1.68710   1.69328   1.70340   1.71206
  Beta virt. eigenvalues --    1.71361   1.72125   1.73586   1.74250   1.74595
  Beta virt. eigenvalues --    1.75170   1.75687   1.76324   1.77644   1.77929
  Beta virt. eigenvalues --    1.78566   1.79199   1.80927   1.82408   1.83305
  Beta virt. eigenvalues --    1.84684   1.85287   1.85550   1.86420   1.87209
  Beta virt. eigenvalues --    1.87470   1.88601   1.88931   1.90044   1.90515
  Beta virt. eigenvalues --    1.90874   1.91635   1.92026   1.92777   1.93502
  Beta virt. eigenvalues --    1.93830   1.94498   1.94693   1.95808   1.96125
  Beta virt. eigenvalues --    1.96749   1.97298   1.98179   1.98516   1.99497
  Beta virt. eigenvalues --    2.00782   2.02039   2.02714   2.03251   2.04694
  Beta virt. eigenvalues --    2.05628   2.06110   2.06800   2.08036   2.08885
  Beta virt. eigenvalues --    2.09715   2.10048   2.10924   2.12962   2.13514
  Beta virt. eigenvalues --    2.14484   2.16230   2.16547   2.18296   2.19810
  Beta virt. eigenvalues --    2.20929   2.22270   2.22755   2.24248   2.24612
  Beta virt. eigenvalues --    2.26472   2.27823   2.28829   2.31984   2.33135
  Beta virt. eigenvalues --    2.34272   2.34942   2.37307   2.37755   2.38982
  Beta virt. eigenvalues --    2.40180   2.42223   2.43299   2.44011   2.45510
  Beta virt. eigenvalues --    2.46435   2.47862   2.48600   2.49647   2.52269
  Beta virt. eigenvalues --    2.54302   2.54851   2.55870   2.58038   2.59116
  Beta virt. eigenvalues --    2.61028   2.62243   2.64894   2.65231   2.66706
  Beta virt. eigenvalues --    2.68750   2.69090   2.69488   2.70013   2.71366
  Beta virt. eigenvalues --    2.71649   2.72296   2.72761   2.73127   2.73543
  Beta virt. eigenvalues --    2.74505   2.75113   2.75599   2.76092   2.77001
  Beta virt. eigenvalues --    2.77612   2.77886   2.78313   2.79002   2.79624
  Beta virt. eigenvalues --    2.81068   2.81991   2.82146   2.82917   2.83506
  Beta virt. eigenvalues --    2.83759   2.84511   2.85194   2.86870   2.87385
  Beta virt. eigenvalues --    2.87799   2.88509   2.91339   2.91854   2.92245
  Beta virt. eigenvalues --    2.93080   2.93496   2.95249   2.96135   2.99362
  Beta virt. eigenvalues --    3.00450   3.02280   3.04428   3.05231   3.06842
  Beta virt. eigenvalues --    3.09893   3.11609   3.12213   3.15345   3.17102
  Beta virt. eigenvalues --    3.18136   3.18818   3.19947   3.22216   3.23068
  Beta virt. eigenvalues --    3.24418   3.25052   3.25681   3.30625   3.32841
  Beta virt. eigenvalues --    3.35155   3.36397   3.37946   3.38781   3.39019
  Beta virt. eigenvalues --    3.40311   3.43780   3.45635   3.46295   3.47445
  Beta virt. eigenvalues --    3.48335   3.51715   3.53700   3.55922   3.56005
  Beta virt. eigenvalues --    3.57667   3.61762   3.63914   3.65993   3.69279
  Beta virt. eigenvalues --    3.71607   3.76524   3.80788   3.88049   3.95928
  Beta virt. eigenvalues --    4.01589   4.04292   4.05965   4.06510   4.07911
  Beta virt. eigenvalues --    4.09696   4.11502   4.18957   4.21954   4.23132
  Beta virt. eigenvalues --    4.25860   4.30411   4.35762   4.60918   4.66535
  Beta virt. eigenvalues --    4.68229   4.79595   4.81526   4.84847   4.86432
  Beta virt. eigenvalues --   23.44753  23.63450  23.73014  23.75419  23.82143
  Beta virt. eigenvalues --   23.84977  23.89380  23.90954  23.91122  23.93235
  Beta virt. eigenvalues --   23.95138  23.96757  23.99476  24.00404  24.02906
  Beta virt. eigenvalues --   24.03259  24.06318  24.10669  24.11058  24.12541
  Beta virt. eigenvalues --   24.13625  24.15485  24.19456  24.22602  24.29167
          Condensed to atoms (all electrons):
               1          2          3          4          5          6
     1  C   12.230997   0.485785   0.209060   0.449093  -1.759938  -1.467799
     2  C    0.485785  11.997815   1.691139  -1.021344  -1.069303   1.371965
     3  C    0.209060   1.691139   8.448000   0.854904   0.269078   0.509368
     4  C    0.449093  -1.021344   0.854904  11.597616  -1.198373  -1.497294
     5  C   -1.759938  -1.069303   0.269078  -1.198373   9.344527   1.557938
     6  C   -1.467799   1.371965   0.509368  -1.497294   1.557938  10.597754
     7  C    0.436150  -1.317618   0.350667   0.773275  -0.372026  -0.912427
     8  C   -0.392030  -0.633112  -0.725641  -0.862217   0.012757  -0.780650
     9  C   -0.668480  -0.624896  -0.347123  -0.269280   0.336228  -0.985790
    10  C   -0.439497  -1.006314   0.356461   2.015760  -0.022754  -1.864276
    11  C   -0.043398  -0.391133  -0.433174  -0.629883  -0.024002  -0.089785
    12  C   -0.072668  -0.022791  -0.121301  -0.128784   0.014635  -0.012204
    13  C   -0.007359  -0.017344  -0.242267   0.023681  -0.015227  -0.139749
    14  C   -0.327097  -0.073348  -1.327389  -1.125172   0.022966  -0.424681
    15  C    0.003747  -0.267798  -0.336518  -0.609360  -0.053164  -0.107724
    16  C    0.042374  -0.004001   0.435980  -0.082715  -0.016427  -0.006529
    17  C   -0.003088   0.011245  -0.099234  -0.027659   0.000992  -0.006660
    18  C   -0.012297  -0.026114  -0.180632  -0.034612   0.004016   0.007842
    19  C   -3.323810  -1.344723  -1.448561   1.356883  -0.426310  -0.596583
    20  C    0.601762   0.612794   0.144481  -0.519516  -0.746342   0.001517
    21  C   -0.519643   0.667676  -0.347883   0.654109   0.904430  -0.209842
    22  C    0.708618   0.775925  -0.493973  -1.651408  -1.041792   0.704774
    23  C   -0.190527  -3.298166  -0.914756  -2.304866   0.209027   0.594120
    24  H   -0.007994   0.021853   0.001867   0.000964  -0.004502  -0.000492
    25  H   -0.028181  -0.004445  -0.001758  -0.000164   0.005555   0.000147
    26  H   -0.077645   0.007090  -0.011809  -0.003808   0.035375   0.022919
    27  H   -0.123240   0.015444  -0.000685   0.015701   0.426079  -0.015182
    28  H   -0.016677  -0.039378   0.001521  -0.057955  -0.015982   0.328055
    29  H    0.003380   0.007067   0.018357  -0.023835   0.011020   0.028568
    30  H    0.000666   0.001576   0.015508   0.049857  -0.000189   0.009286
    31  H    0.000008   0.000151   0.001493   0.002900   0.000007   0.000307
    32  H   -0.000006   0.000011  -0.000216   0.000130   0.000001   0.000016
    33  H    0.000002   0.000784  -0.005773  -0.000229   0.000224  -0.000776
    34  H    0.000002   0.000317  -0.000920  -0.000200   0.000001  -0.000017
    35  H    0.000003   0.000027   0.000154   0.000065   0.000000   0.000002
    36  C   -0.178069   2.217140   0.192369   0.191895   0.076011  -0.158789
    37  C    0.178443  -2.825710  -0.327307  -0.362450  -0.231007   0.224846
    38  H    0.001125  -0.006630   0.001833  -0.001296  -0.000310   0.000243
    39  H    0.010204   0.028449   0.011874   0.005019   0.005276  -0.000161
               7          8          9         10         11         12
     1  C    0.436150  -0.392030  -0.668480  -0.439497  -0.043398  -0.072668
     2  C   -1.317618  -0.633112  -0.624896  -1.006314  -0.391133  -0.022791
     3  C    0.350667  -0.725641  -0.347123   0.356461  -0.433174  -0.121301
     4  C    0.773275  -0.862217  -0.269280   2.015760  -0.629883  -0.128784
     5  C   -0.372026   0.012757   0.336228  -0.022754  -0.024002   0.014635
     6  C   -0.912427  -0.780650  -0.985790  -1.864276  -0.089785  -0.012204
     7  C    9.576012   1.236695   0.400487   0.383126   0.734861  -0.013654
     8  C    1.236695   8.113382   1.239663   0.032841   2.591897  -0.574445
     9  C    0.400487   1.239663  13.195606   1.947293   0.059605   0.631415
    10  C    0.383126   0.032841   1.947293   9.170025  -0.738932  -0.623259
    11  C    0.734861   2.591897   0.059605  -0.738932  11.116851   0.579632
    12  C   -0.013654  -0.574445   0.631415  -0.623259   0.579632  11.841289
    13  C   -0.655796  -0.332998  -1.872075  -0.793240  -1.790427  -0.417498
    14  C   -0.893958   0.003951  -0.509501  -2.060709  -0.155949  -1.394642
    15  C   -0.087219  -0.993550  -2.105258  -0.105129  -0.171074  -1.821698
    16  C   -0.605039  -1.257406   0.087258   0.129265  -3.634364   2.129582
    17  C   -0.002650   0.174494  -0.294000  -0.117278   1.648617  -0.506513
    18  C   -0.075363  -1.068317  -1.194704  -0.061470  -2.590482  -2.195466
    19  C    0.083870  -0.057747  -0.305025   0.200179  -0.053945  -0.006988
    20  C   -0.176996  -0.045279  -0.017214  -0.136367   0.016610   0.000531
    21  C   -0.143691  -0.034856  -0.093888   0.187341  -0.141104  -0.018625
    22  C   -2.462682  -0.398326  -1.259210  -0.304893  -0.401419  -0.321497
    23  C   -0.426025   0.418311  -1.672652  -0.705333   0.155073  -0.936332
    24  H    0.011296   0.000377   0.001098  -0.000068   0.000814   0.000071
    25  H   -0.002499   0.000094  -0.000084   0.000091  -0.000070   0.000000
    26  H    0.000974  -0.000400  -0.000098  -0.000533  -0.000022  -0.000007
    27  H   -0.000217   0.001199   0.003284   0.005422   0.000137   0.000010
[...]
 003537,-0.00002488,0.00011443,0.00000257,-0.00000582,-0.00051323,-0.00
 084059,-0.00000208,-0.00159816,-0.00518048,-0.00155720,0.00145082,0.00
 016265,-0.00007507,0.00002967,-0.00057184,0.00001552,-0.00322934,-0.00
 080427,-0.00093037,-0.01497905,0.01155693,0.00144013,0.11675317,-0.124
 38782,-0.01357650,0.02901415,-0.01025103,-0.00238106,0.00000810,0.0000
 1857,0.00000852,0.00001337,-0.00001634,-0.00000080,-0.00001353,0.00000
 818,0.00000113,-0.00002165,0.00000472,-0.00002279,-0.00000628,-0.00001
 460,0.00005180,-0.00000076,0.00000184,0.00000039,0.00000226,0.00000247
 ,0.00000038,0.00000300,-0.00000004,0.00000116,0.00000354,-0.00000064,0
 .00000121,-0.00000098,-0.00000282,-0.00000080,-0.00000556,0.00000335,0
 .00000279,0.00014101,-0.00008549,0.00000331,-0.00004558,-0.00003187,-0
 .00001574,-0.00037243,0.00093737,0.00067594,-0.00073396,0.00036037,0.0
 0005805,0.00061889,0.00065985,0.00054691,-0.12634725,0.12830426,-0.000
 01359,0.00000338,0.00001617,0.00000813,-0.00000225,-0.00001023,-0.0000
 0716,0.00005942,0.00001627,-0.00000573,-0.00002652,-0.00002577,0.00001
 354,-0.00001808,-0.00000147,-0.00000098,0.00001503,0.00001669,0.000030
 69,-0.00006300,0.00006939,-0.00006458,0.00016042,-0.00090788,-0.000030
 18,0.00001724,0.00010641,0.00004025,0.00001335,0.00002875,-0.00012743,
 -0.00013144,-0.00084393,0.00010104,-0.00153037,0.00790926,0.00023364,-
 0.00003799,0.00021054,-0.00001737,-0.00004331,-0.00040781,-0.00036048,
 -0.00089333,0.00606335,-0.00157592,0.00080626,0.00312714,0.01946775,-0
 .01375197,-0.03857123,0.00364083,-0.00148169,0.00316301,0.00000396,0.0
 0000473,-0.00000285,-0.00000148,-0.00000250,-0.00000366,0.00001303,0.0
 0000863,0.00000039,0.00004612,0.00000891,0.00001909,-0.00001604,-0.000
 07395,-0.00011072,0.00000082,-0.00000152,0.00000161,-0.00000248,-0.000
 00034,0.00000167,-0.00000118,0.00000012,0.00000155,0.00000094,0.000001
 67,-0.00000478,0.00000008,-0.00000002,0.00000012,-0.00000025,-0.000001
 98,0.00000012,0.00001688,-0.00001055,-0.00001490,-0.00000749,-0.000009
 24,0.00006950,-0.00018115,0.00063889,-0.00438586,-0.00005965,0.0000312
 1,0.00009923,0.00001697,0.00062125,-0.00323778,-0.02113320,0.01568223,
 0.02752784,0.00346603,0.00365064,0.00156054,-0.00452699,0.00009834,-0.
 00108308,-0.00299245,0.00292889,-0.00121790,-0.00303012,-0.00136933,-0
 .00099632,-0.00135424,-0.00118595,-0.00011809,0.00160766,0.00037826,0.
 00032294,-0.00387641,-0.01293410,0.01827837,0.00138283,-0.00072019,0.0
 0051448,-0.00005169,0.00068319,-0.00104031,0.00203794,-0.00017695,-0.0
 0013379,0.00039497,-0.00046498,0.00018222,-0.00029881,-0.00003771,-0.0
 0024661,-0.00012092,0.00026699,0.00008247,0.00037954,0.00011465,0.0000
 3394,0.00075680,0.00013894,0.00016156,-0.00053386,-0.00004005,0.000110
 93,0.00001279,0.00034703,0.00002552,0.00017192,-0.00006756,-0.00001212
 ,-0.00144064,-0.00245933,-0.00079357,-0.00104964,-0.00015450,-0.001161
 50,-0.00072559,0.00277177,-0.00025984,-0.04497193,0.03392257,-0.033730
 09,-0.05337634,0.01025424,-0.04110287,-0.00010933,-0.00049799,-0.00052
 168,-0.00036881,0.00017033,-0.00007812,-0.00008526,-0.00006850,0.00009
 540,0.00000281,0.00021658,-0.00004326,-0.00001774,0.00004284,0.0000699
 7,0.00008632,0.00004077,0.00015109,-0.00000121,-0.00001699,0.00000626,
 -0.00003335,0.00000371,0.00000748,-0.00001845,-0.00000420,0.00002903,-
 0.00242187,-0.00049672,0.00095421,-0.00004822,0.00007131,0.00006735,-0
 .00000241,0.00000956,-0.00002305,0.76506332,0.00241699,0.00266649,0.00
 084501,0.00051109,0.00158511,0.00220139,-0.00408547,0.00281214,0.00035
 690,-0.00456457,-0.00245468,-0.00201021,-0.00125347,-0.00250740,-0.000
 41074,0.00244106,-0.00010651,0.00050336,-0.00945742,-0.03095774,0.0224
 3991,0.00902324,0.00241530,0.00094790,-0.00026872,-0.00149009,-0.00125
 808,0.00278496,0.00161601,0.00007991,-0.00230240,0.00171276,0.00088114
 ,0.00082307,0.00034848,-0.00004184,-0.00013526,-0.00024756,-0.00006009
 ,0.00028214,-0.00003423,0.00001601,-0.00061680,-0.00115522,0.00015665,
 0.00014191,0.00020807,-0.00002576,0.00021194,-0.00035265,-0.00003491,-
 0.00022990,0.00035381,-0.00000038,-0.00154862,-0.00302396,-0.00119350,
 -0.00131716,0.00219325,0.00004233,-0.00131774,-0.00220675,0.00150002,0
 .03083240,-0.00896495,0.02324873,0.00729082,-0.11603982,0.08153943,0.0
 0054690,0.00056215,0.00021916,0.00018223,0.00003033,-0.00014454,-0.000
 04712,-0.00010013,0.00014910,-0.00000579,-0.00013594,-0.00006018,0.000
 01763,-0.00000974,-0.00004669,-0.00000925,-0.00007073,0.00038309,-0.00
 002014,-0.00001002,-0.00000216,0.00001887,0.00001584,0.00000256,0.0000
 1205,0.00001045,-0.00000394,0.00020026,0.00034497,-0.00011312,-0.00000
 497,-0.00002873,-0.00006064,0.00001811,0.00000397,0.00002837,-0.155382
 61,0.29894145,-0.00437008,-0.00210188,-0.00099135,0.00094667,-0.001338
 24,-0.00015581,-0.00086273,-0.00494775,0.00175252,0.00483897,0.0012550
 6,0.00131536,0.00107435,0.00194240,0.00046301,-0.00254999,-0.00042755,
 -0.00038214,0.01242367,0.00121808,-0.01035907,-0.00122858,0.00035911,-
 0.00056999,0.00084009,-0.00121082,0.00013564,-0.00323756,-0.00025713,0
 .00007347,0.00061427,-0.00022887,-0.00013138,-0.00035399,0.00037079,0.
 00018587,0.00033889,-0.00042613,-0.00011285,-0.00051375,-0.00024273,0.
 00006558,-0.00029628,0.00074376,-0.00013208,-0.00059715,-0.00019210,-0
 .00033341,0.00000648,0.00041522,0.00000845,0.00020190,-0.00039068,-0.0
 0005630,0.00236048,0.00345505,0.00113996,0.00059760,-0.00167275,0.0002
 5794,0.00112204,0.00318672,-0.00052749,-0.03415008,0.02813597,-0.01967
 646,-0.03181444,0.10195087,-0.13531886,0.00012076,-0.00047482,0.000239
 18,-0.00021682,-0.00011532,0.00025328,0.00007368,0.00013002,-0.0001960
 6,0.00002386,0.00008807,-0.00005247,0.00013320,-0.00007907,-0.00016816
 ,-0.00004000,-0.00001285,-0.00015177,-0.00004379,-0.00002135,-0.000000
 87,-0.00000210,-0.00001675,0.00000160,-0.00001256,-0.00000101,-0.00000
 528,0.00219477,-0.00033052,-0.00003920,-0.00003822,0.00003672,0.000096
 96,-0.00004461,-0.00001912,0.00006237,0.11953882,-0.20242686,0.3618825
 9,-0.00452886,-0.00471164,-0.00154274,-0.00103861,0.01051852,-0.005972
 00,-0.00236940,-0.00510452,0.00062825,0.00683857,0.00247735,0.00146315
 ,0.00181156,0.00407153,0.00094477,-0.00436712,-0.00070805,-0.00076499,
 0.00977550,0.00600991,-0.00976806,-0.00391937,-0.00001970,-0.00198888,
 0.00185746,-0.00178452,0.00027469,-0.00561438,-0.00074425,0.00027204,0
 .00096219,-0.00068907,-0.00014754,-0.00061327,0.00058760,0.00022318,0.
 00055029,-0.00073499,-0.00011349,-0.00111196,-0.00006179,0.00010945,-0
 .00017127,0.00046720,-0.00002646,-0.00029809,-0.00003947,-0.00000097,0
 .00006748,0.00055918,0.00005508,0.00040351,-0.00057300,-0.00006045,0.0
 0308656,0.00637245,0.00250324,0.00326161,-0.00538327,0.00003291,-0.010
 39426,0.00628873,-0.02417204,-0.04012399,0.00639670,-0.00500271,-0.040
 72477,-0.04761868,0.08407973,0.00094186,0.00018313,0.00079180,-0.00043
 461,-0.00032895,0.00079306,0.00017666,0.00026608,-0.00034565,0.0000344
 9,0.00011005,0.00007829,0.00004676,-0.00005039,-0.00013316,-0.00007554
 ,0.00001024,-0.00026482,-0.00002277,-0.00001230,-0.00000512,-0.0000095
 6,-0.00000607,0.00000183,-0.00000972,-0.00000507,-0.00001095,0.0001629
 6,-0.00027877,0.00035766,-0.00004277,0.00002756,0.00003924,-0.00000598
 ,0.00001419,0.00000308,-0.43314358,0.04523939,0.02231743,0.69506286,-0
 .00363026,-0.00183282,-0.00133476,0.00036846,-0.01555248,0.01819099,0.
 00146935,0.00124918,-0.00047986,-0.00013134,-0.00149583,-0.00176353,0.
 00057873,0.00075510,-0.00022735,-0.00065260,-0.00021624,0.00010351,-0.
 00010516,-0.00073268,0.00500820,-0.00051275,-0.00025520,-0.00025468,-0
 .00004757,0.00044668,-0.00020868,0.00068082,-0.00024817,0.00000716,0.0
 0034675,-0.00022462,-0.00000563,-0.00013000,0.00001534,0.00002019,0.00
 005040,0.00012688,0.00005065,0.00002278,-0.00004562,-0.00001543,0.0001
 9158,-0.00003450,-0.00034494,-0.00012017,0.00004332,0.00000590,0.00000
 755,0.00009841,0.00003843,0.00005733,-0.00006463,-0.00001538,0.0013368
 4,0.00020745,0.00033615,-0.00240482,0.00023719,-0.00039948,0.00422499,
 0.00979748,-0.00387807,0.00108510,-0.07187481,0.02562698,-0.02674004,-
 0.00749733,0.03379913,0.00027412,0.00052732,-0.00089082,-0.00059935,-0
 .00009885,0.00068951,0.00007468,0.00017490,-0.00006085,0.00000559,-0.0
 0011043,0.00004860,-0.00001909,0.00002770,0.00014818,-0.00000575,-0.00
 000133,0.00009533,-0.00000471,0.00000423,-0.00000364,-0.00000580,0.000
 00184,-0.00001086,-0.00000349,0.00000642,0.00000030,0.00016313,-0.0000
 0248,0.00012833,-0.00002573,0.00001268,0.00000713,0.00001299,0.0000024
 5,-0.00000077,0.02994159,-0.05225734,0.00327645,0.04393744,0.20938564,
 0.00074783,-0.00075638,0.00047614,0.00049776,0.00939985,0.00954930,-0.
 00026635,-0.00052366,-0.00076170,-0.00140055,0.00144938,0.00001013,0.0
 0025590,-0.00129302,-0.00069702,0.00135487,-0.00014949,0.00023266,-0.0
 0268815,-0.00035003,0.00134589,0.00173986,0.00083925,0.00064653,-0.000
 18764,-0.00024063,-0.00016473,0.00033993,0.00045288,0.00024154,-0.0005
 8701,0.00056461,0.00033786,0.00032034,-0.00008671,-0.00005101,-0.00004
 001,-0.00004626,0.00000911,0.00004257,-0.00004452,-0.00002840,-0.00019
 641,-0.00033797,0.00027706,0.00031759,0.00007933,-0.00010262,0.0001174
 9,-0.00030822,-0.00005679,-0.00019012,0.00014310,-0.00001008,-0.002080
 49,0.00124139,0.00029414,0.00330821,-0.00358385,-0.00088585,-0.0164233
 2,0.00440635,-0.02842800,-0.00697059,0.01986214,-0.09382983,0.05571665
 ,0.03648757,-0.04283334,0.00031447,0.00011130,0.00102470,-0.00016912,-
 0.00027234,0.00058619,0.00009444,0.00000463,0.00004901,0.00000828,-0.0
 0032084,-0.00020508,-0.00001652,-0.00000031,-0.00006610,-0.00006102,-0
 .00004332,-0.00000389,0.00000567,0.00002318,-0.00001536,0.00002426,0.0
 0000437,-0.00000142,0.00002041,0.00000323,-0.00000710,-0.00003163,0.00
 018471,-0.00016385,0.00004075,-0.00004737,-0.00005803,0.00000670,-0.00
 001052,0.00003610,0.05551171,0.00054472,-0.07553224,-0.19960516,-0.154
 80289,0.39991879,0.00011974,0.00021880,-0.00006088,-0.00057464,-0.0001
 9375,-0.00103454,-0.00003543,-0.00004705,-0.00007966,0.00000915,0.0000
 0978,-0.00003577,-0.00004891,0.00001517,0.00005572,-0.00002111,0.00002
 761,-0.00001233,0.00040524,0.00021512,0.00023486,0.00000244,0.00000196
 ,-0.00003757,0.00002594,0.00002199,-0.00001841,-0.00002097,-0.00002903
 ,0.00000640,-0.00010905,-0.00001514,0.00009230,0.00011238,0.00000882,0
 .00001383,-0.00000112,-0.00000895,0.00000682,-0.00000641,0.00000118,-0
 .00000148,-0.00009711,-0.00010514,0.00005562,0.00008906,0.00003633,-0.
 00001336,-0.00008505,-0.00008346,-0.00000414,-0.00004116,0.00008089,0.
 00000684,0.00002291,-0.00000698,0.00003369,-0.00001564,-0.00007071,-0.
 00000432,0.00014362,0.00029541,-0.00020531,-0.00208202,0.00277936,-0.0
 0011920,0.00397656,-0.00168663,0.00221658,-0.00003588,-0.00004493,-0.0
 0004242,-0.00003365,-0.00000791,0.00002405,-0.00000255,0.00001078,-0.0
 0002915,-0.00000677,0.00003397,0.00001383,0.00000514,0.00000873,-0.000
 00351,0.00000402,0.00001048,0.00000816,-0.00000049,0.00000817,-0.00000
 236,0.00000630,0.00000215,-0.00000035,0.00000313,0.00000693,-0.0000026
 1,0.00011958,-0.00006343,0.00008467,0.00000163,0.00000445,0.00001287,0
 .00000940,-0.00000112,-0.00000612,-0.22015211,0.08955014,-0.10593306,-
 0.00319622,0.01004196,-0.01552548,0.22159135,0.00061693,0.00047656,-0.
 00002797,-0.00155886,0.00072313,-0.00142127,-0.00012600,-0.00002300,-0
 .00009889,-0.00012042,-0.00016371,-0.00004271,-0.00019570,0.00008165,0
 .00002234,-0.00002931,0.00004375,-0.00002487,-0.00036360,0.00024590,-0
 .00028070,0.00018918,-0.00023773,-0.00002031,0.00006438,-0.00012130,0.
 00003822,-0.00004778,-0.00001555,-0.00000323,-0.00017101,0.00000667,0.
 00003796,0.00000555,0.00002289,0.00000192,-0.00001106,-0.00005953,-0.0
 0001247,-0.00000941,0.00003193,-0.00000406,-0.00012146,-0.00011430,-0.
 00009352,-0.00006642,0.00011395,-0.00000602,-0.00002564,0.00002500,0.0
 0001968,0.00004452,0.00003334,0.00000432,-0.00001589,-0.00011102,-0.00
 007848,0.00025398,0.00063449,0.00034511,0.00176086,-0.00219229,0.00078
 651,0.00379200,0.00921116,0.00682670,0.01011349,0.00268163,-0.00235857
 ,-0.00011876,-0.00009819,-0.00000312,0.00022166,-0.00006521,-0.0000582
 4,-0.00002603,-0.00004376,0.00000870,-0.00000537,0.00005869,0.00003816
 ,-0.00000774,-0.00000120,0.00000609,0.00000089,0.00000762,0.00000426,-
 0.00000139,0.00000217,0.00000622,0.00000019,0.00000437,0.00000671,0.00
 000222,0.00000038,0.00000254,-0.00000531,0.00014890,0.00013971,0.00001
 947,-0.00000817,-0.00001875,0.00001548,0.00000459,-0.00000169,0.085602
 76,-0.09891660,0.07313281,0.00130006,0.00339968,0.00225769,-0.10070395
 ,0.08581616,0.00049641,0.00086661,0.00017575,-0.00252237,0.00041319,-0
 .00069039,-0.00030515,0.00042431,0.00007627,-0.00025382,-0.00007069,-0
 .00002319,-0.00028651,-0.00007123,-0.00003800,0.00008623,0.00008772,0.
 00000601,-0.00087192,-0.00045067,-0.00068324,0.00001586,0.00018944,0.0
 0008329,0.00000289,0.00004269,0.00000836,0.00015377,0.00007742,-0.0000
 0935,-0.00034424,0.00020648,0.00002374,0.00007010,-0.00004189,-0.00007
 832,0.00000928,0.00004767,0.00000117,-0.00001814,-0.00005345,-0.000009
 10,0.00042647,0.00004852,0.00049619,0.00005685,-0.00013020,0.00004995,
 0.00005636,-0.00006418,-0.00005696,-0.00010182,-0.00004630,0.00000466,
 0.00003330,-0.00015964,-0.00005985,-0.00001603,0.00022032,0.00002854,0
 .00053441,-0.00102949,0.00116868,0.00191710,0.00924592,0.00181496,-0.0
 1397843,0.00219398,-0.00337829,-0.00009916,-0.00012169,-0.00004175,0.0
 0008209,0.00001743,-0.00012783,-0.00004067,-0.00003080,0.00000947,-0.0
 0000863,0.00008932,-0.00001072,-0.00000824,0.00001338,0.00000929,0.000
 01250,0.00000672,0.00001300,0.00001235,0.00000185,0.00000301,0.0000015
 5,-0.00001627,0.00000065,-0.00000234,-0.00001415,0.00000694,-0.0004170
 4,0.00013238,-0.00053887,0.00006230,-0.00003204,-0.00002395,-0.0000259
 6,-0.00000840,-0.00000213,-0.11161015,0.06931552,-0.12677026,0.0072966
 4,-0.00231699,0.00812100,0.12007854,-0.07773214,0.12145761,-0.00021382
 ,-0.00008980,0.00003242,0.00052396,-0.00156415,-0.00010255,0.00033856,
 -0.00012565,0.00004333,0.00025928,0.00007876,-0.00000953,0.00011408,0.
 00012819,0.00003726,-0.00016516,0.00009505,-0.00002425,0.00057499,0.00
 150280,0.00093142,-0.00028875,-0.00020781,-0.00003121,0.00010110,0.000
 01883,-0.00002505,-0.00022134,-0.00019855,0.00000346,0.00012449,-0.000
 06444,-0.00000848,-0.00007437,0.00004622,-0.00000323,0.00002406,0.0000
 1176,0.00000469,-0.00000185,-0.00000916,-0.00001876,0.00012094,0.00005
 989,0.00001580,-0.00007042,-0.00004552,0.00000873,-0.00001069,0.000073
 17,0.00000591,0.00003301,-0.00005181,-0.00000302,-0.00001395,0.0001750
 9,-0.00010014,-0.00015208,0.00010003,0.00013593,0.00149369,0.00007930,
 0.00151124,0.00470830,0.00318809,-0.00696986,-0.00416716,-0.00235425,0
 .00215105,-0.00013773,-0.00003838,-0.00003608,-0.00001212,-0.00000519,
 -0.00001370,0.00000050,0.00000738,-0.00001300,0.00000894,0.00000872,-0
 .00001061,0.00000504,-0.00000504,0.00001817,0.00000651,0.00000553,-0.0
 0000943,-0.00000103,-0.00000653,0.00000206,-0.00000862,-0.00000487,0.0
 0000184,-0.00000821,-0.00000433,0.00000175,-0.00000760,-0.00004478,-0.
 00004566,-0.00000199,0.00000818,0.00000460,-0.00000828,0.00000078,-0.0
 0000224,-0.00061095,-0.00997778,0.01653784,-0.17282421,-0.05973354,0.1
 2565392,-0.00008134,-0.00027250,-0.00049440,0.17064420,-0.00080328,-0.
 00183990,-0.00053695,-0.00045132,0.00126039,-0.00025480,-0.00024665,-0
 .00030728,0.00004301,0.00113587,0.00008106,0.00018031,0.00066202,0.001
 34168,0.00016373,-0.00128826,-0.00008366,-0.00022181,0.00070426,0.0019
 1615,-0.00112687,-0.00088428,0.00008487,-0.00043959,0.00072940,-0.0004
 1063,0.00014238,-0.00122178,-0.00033977,-0.00001295,0.00021647,-0.0001
 6754,-0.00015823,-0.00017929,0.00018217,0.00003863,0.00012732,-0.00018
 888,-0.00002055,-0.00028040,0.00008924,0.00002038,-0.00002146,0.000018
 59,-0.00013203,-0.00013943,-0.00001149,0.00007186,-0.00000964,0.000205
 61,0.00003810,0.00015774,-0.00014569,0.00000321,0.00097755,0.00144831,
 0.00055102,0.00090565,-0.00077531,-0.00002742,-0.00015120,0.00127522,-
 0.00051546,-0.00744805,-0.00146626,0.00155203,0.00012683,0.00301318,0.
 00639872,0.00001331,-0.00002816,0.00010128,0.00001353,-0.00001299,0.00
 003232,0.00002074,0.00001974,0.00001030,0.00002310,0.00000822,0.000065
 08,-0.00002646,-0.00000944,0.00003945,-0.00001322,0.00000941,-0.000057
 82,0.00001151,-0.00000077,0.00000468,-0.00001334,-0.00000322,0.0000062
 0,-0.00000926,-0.00000636,-0.00000320,0.00004124,-0.00000332,0.0000498
 9,-0.00001091,0.00001723,0.00000809,-0.00000244,0.00001071,-0.00001860
 ,0.00442267,0.00525021,-0.00276281,-0.06598281,-0.07397451,0.08515865,
 -0.00032202,-0.00160304,-0.00125065,0.06921632,0.06514624,0.00002474,0
 .00018490,-0.00014126,0.00031282,-0.00123297,-0.00008379,0.00006794,0.
 00001648,-0.00016564,0.00004858,0.00008530,0.00001530,0.00011239,0.000
 05698,-0.00001023,-0.00004680,0.00015451,-0.00002244,0.00158865,0.0002
 7741,-0.00115844,-0.00007763,0.00052329,0.00003367,0.00041559,-0.00012
 193,0.00022033,-0.00019725,-0.00017928,-0.00001197,-0.00009309,-0.0000
 0825,-0.00016767,-0.00003677,0.00011002,-0.00000121,0.00006020,-0.0000
 3971,-0.00000965,-0.00009846,0.00006013,-0.00000599,0.00009911,0.00002
 521,-0.00001342,-0.00011694,-0.00004509,0.00005692,0.00000821,0.000096
 97,0.00002245,0.00005882,-0.00006840,0.00000694,-0.00016455,-0.0001033
 7,0.00003153,-0.00055809,0.00017713,0.00007159,0.00156555,-0.00005294,
 0.00161283,0.00999520,0.00075574,-0.00263262,0.00201431,0.00602513,0.0
 0090088,-0.00009284,-0.00015182,-0.00029848,-0.00007362,0.00002118,-0.
 00005629,0.00000636,-0.00000533,-0.00002295,0.00000017,0.00002917,-0.0
 0000235,0.00000249,0.00000652,0.00006452,0.00001047,0.00002249,-0.0000
 2343,0.00002017,0.00001079,-0.00000034,-0.00000308,-0.00000533,0.00000
 555,-0.00000328,-0.00000275,-0.00000021,-0.00002329,-0.00001454,-0.000
 01254,0.00000040,0.00000231,-0.00000107,-0.00000124,0.00000237,-0.0000
 1557,-0.00353192,0.00249242,0.00372969,0.12765969,0.07943348,-0.179253
 71,0.00022721,-0.00139867,-0.00101631,-0.13918024,-0.08713957,0.178355
 39\\0.00002691,-0.00000338,0.00000442,-0.00000211,-0.00000629,0.000017
 53,-0.00000494,0.00001216,0.00000138,-0.00000214,-0.00002401,-0.000002
 42,-0.00003277,-0.00001848,-0.00000054,0.00002718,0.00002162,0.0000049
 5,-0.00000906,-0.00000379,-0.00001013,0.00000634,0.00000920,0.00000716
 ,0.00002307,-0.00004437,-0.00000101,-0.00001165,0.00003070,0.00000395,
 0.00001658,0.00000631,-0.00000202,-0.00003426,-0.00001209,-0.00000248,
 0.00003553,-0.00002003,-0.00000578,-0.00003365,0.00002326,0.00000262,-
 0.00001439,0.00002087,-0.00000097,-0.00000149,-0.00000862,-0.00000289,
 0.00000551,-0.00000695,-0.00000277,0.00000675,0.00001836,-0.00000437,0
 .00000130,0.00001474,0.00000929,-0.00002745,-0.00000086,-0.00000711,0.
 00004672,0.00000703,0.00001125,-0.00001253,0.00000257,-0.00002251,-0.0
 0003157,-0.00001162,-0.00001232,-0.00001142,-0.00000040,-0.00000026,0.
 00000276,0.00000317,0.00000320,-0.00000092,-0.00000525,-0.00000149,0.0
 0000618,0.00000374,0.00000354,-0.00000592,-0.00000395,0.00000219,0.000
 00065,-0.00000445,0.00000127,0.00000670,-0.00000437,0.00000045,-0.0000
 0672,0.00000393,-0.00000029,-0.00000084,-0.00000699,-0.00000109,0.0000
 1170,-0.00000810,0.00000103,0.00000021,0.00000284,-0.00000507,-0.00000
 220,0.00000125,-0.00000541,0.00003832,0.00002344,0.00001208,-0.0000111
 7,-0.00000955,-0.00000164,-0.00000675,-0.00000471,0.00000100,0.0000015
 9,0.00000308,0.00000526\\\@


 TIME IS IN FACT THE HERO OF THE PLOT. THE TIME
 WITH WHICH WE HAVE TO DEAL IS OF THE ORDER OF TWO
 BILLION YEARS...GIVEN SO MUCH TIME, THE "IMPOSSIBLE"
 BECOMES POSSIBLE, THE POSSIBLE PROBABLE, THE PROBABLE
 VIRTUALLY CERTAIN.  ONE HAS ONLY TO WAIT, TIME
 ITSELF PERFORMS THE MIRACLES.
 "ORIGIN OF LIFE" LECTURES, GEORGE WALD, 1954
 Job cpu time:       4 days  9 hours 49 minutes 28.5 seconds.
 File lengths (MBytes):  RWF=  13058 Int=      0 D2E=      0 Chk=     41 Scr=      1
 Normal termination of Gaussian 09 at Sun Feb  2 11:06:27 2020.
