 Entering Gaussian System, Link 0=g09
 Initial command:
 /usr/local/Cluster-Apps/gaussian/g09/l1.exe "/rds/user/am2145/hpc-work/scratch/19189944/Gau-206450.inp" -scrdir="/rds/user/am2145/hpc-work/scratch/19189944/"
 Entering Link 1 = /usr/local/Cluster-Apps/gaussian/g09/l1.exe PID=    206451.
  
 Copyright (c) 1988,1990,1992,1993,1995,1998,2003,2009,2013,
            Gaussian, Inc.  All Rights Reserved.
  
 This is part of the Gaussian(R) 09 program.  It is based on
 the Gaussian(R) 03 system (copyright 2003, Gaussian, Inc.),
 the Gaussian(R) 98 system (copyright 1998, Gaussian, Inc.),
 the Gaussian(R) 94 system (copyright 1995, Gaussian, Inc.),
 the Gaussian 92(TM) system (copyright 1992, Gaussian, Inc.),
 the Gaussian 90(TM) system (copyright 1990, Gaussian, Inc.),
 the Gaussian 88(TM) system (copyright 1988, Gaussian, Inc.),
 the Gaussian 86(TM) system (copyright 1986, Carnegie Mellon
 University), and the Gaussian 82(TM) system (copyright 1983,
 Carnegie Mellon University). Gaussian is a federally registered
 trademark of Gaussian, Inc.
  
 This software contains proprietary and confidential information,
 including trade secrets, belonging to Gaussian, Inc.
  
 This software is provided under written license and may be
 used, copied, transmitted, or stored only in accord with that
 written license.
  
 The following legend is applicable only to US Government
 contracts under FAR:
  
                    RESTRICTED RIGHTS LEGEND
  
 Use, reproduction and disclosure by the US Government is
 subject to restrictions as set forth in subparagraphs (a)
 and (c) of the Commercial Computer Software - Restricted
 Rights clause in FAR 52.227-19.
  
 Gaussian, Inc.
 340 Quinnipiac St., Bldg. 40, Wallingford CT 06492
  
  
 ---------------------------------------------------------------
 Warning -- This program may not be used in any manner that
 competes with the business of Gaussian, Inc. or will provide
 assistance to any competitor of Gaussian, Inc.  The licensee
 of this program is prohibited from giving any competitor of
 Gaussian, Inc. access to this program.  By using this program,
 the user acknowledges that Gaussian, Inc. is engaged in the
 business of creating and licensing software in the field of
 computational chemistry and represents and warrants to the
 licensee that it is not a competitor of Gaussian, Inc. and that
 it will not use this program in any manner prohibited above.
 ---------------------------------------------------------------
  

 Cite this work as:
 Gaussian 09, Revision D.01,
 M. J. Frisch, G. W. Trucks, H. B. Schlegel, G. E. Scuseria, 
 M. A. Robb, J. R. Cheeseman, G. Scalmani, V. Barone, B. Mennucci, 
 G. A. Petersson, H. Nakatsuji, M. Caricato, X. Li, H. P. Hratchian, 
 A. F. Izmaylov, J. Bloino, G. Zheng, J. L. Sonnenberg, M. Hada, 
 M. Ehara, K. Toyota, R. Fukuda, J. Hasegawa, M. Ishida, T. Nakajima, 
 Y. Honda, O. Kitao, H. Nakai, T. Vreven, J. A. Montgomery, Jr., 
 J. E. Peralta, F. Ogliaro, M. Bearpark, J. J. Heyd, E. Brothers, 
 K. N. Kudin, V. N. Staroverov, T. Keith, R. Kobayashi, J. Normand, 
 K. Raghavachari, A. Rendell, J. C. Burant, S. S. Iyengar, J. Tomasi, 
 M. Cossi, N. Rega, J. M. Millam, M. Klene, J. E. Knox, J. B. Cross, 
 V. Bakken, C. Adamo, J. Jaramillo, R. Gomperts, R. E. Stratmann, 
 O. Yazyev, A. J. Austin, R. Cammi, C. Pomelli, J. W. Ochterski, 
 R. L. Martin, K. Morokuma, V. G. Zakrzewski, G. A. Voth, 
 P. Salvador, J. J. Dannenberg, S. Dapprich, A. D. Daniels, 
 O. Farkas, J. B. Foresman, J. V. Ortiz, J. Cioslowski, 
 and D. J. Fox, Gaussian, Inc., Wallingford CT, 2013.
 
 ******************************************
 Gaussian 09:  ES64L-G09RevD.01 24-Apr-2013
                 2-Feb-2020 
 ******************************************
 %NProcShared=20
 Will use up to   20 processors via shared memory.
 %mem=64GB
 %Chk=BS2b_Hmigclose.chk
 ------------------------------
 #n opt freq b3lyp/6-311+g(d,p)
 ------------------------------
 1/14=-1,18=20,19=15,26=3,38=1/1,3;
 2/9=110,12=2,17=6,18=5,40=1/2;
 3/5=4,6=6,7=111,11=2,16=1,25=1,30=1,71=1,74=-5/1,2,3;
 4//1;
 5/5=2,38=5/2;
 6/7=2,8=2,9=2,10=2,28=1/1;
 7//1,2,3,16;
 1/14=-1,18=20,19=15,26=3/3(2);
 2/9=110/2;
 99//99;
 2/9=110/2;
 3/5=4,6=6,7=111,11=2,16=1,25=1,30=1,71=1,74=-5/1,2,3;
 4/5=5,16=3,69=1/1;
 5/5=2,38=5/2;
 7//1,2,3,16;
 1/14=-1,18=20,19=15,26=3/3(-5);
 2/9=110/2;
 6/7=2,8=2,9=2,10=2,19=2,28=1/1;
 99/9=1/99;
 --------------
 BS2b_Hmigclose
 --------------
 Symbolic Z-matrix:
 Charge =  0 Multiplicity = 3
 C                    -3.82748   0.3863    0.00014 
 C                    -2.53131  -0.10883   0.00026 
 C                    -1.39132   0.70289   0.00026 
 C                    -1.48161   2.09149   0.00013 
 C                    -3.93432   1.82965   0.00011 
 C                    -2.82259   2.63598   0.0001 
 C                    -0.22101  -0.10126   0.00011 
 C                     1.0415    0.56174  -0.00001 
 C                     0.96952   2.01501  -0.00009 
 C                    -0.24312   2.74498  -0.00005 
 C                     2.34098  -0.08846  -0.00003 
 C                     3.50352   0.74169  -0.00011 
 C                     3.38718   2.16825  -0.00023 
 C                     2.1804    2.77534  -0.00022 
 C                     2.5572   -1.53808   0.00011 
 C                     3.90864  -2.00128   0.00026 
 C                     5.00864  -1.1638    0.00018 
 C                     4.81148   0.2029   -0.00003 
 C                    -4.84542  -0.60328  -0.00005 
 C                    -4.49699  -1.9527   -0.00018 
 C                    -3.15729  -2.41109  -0.00014 
 C                    -2.13506  -1.46442   0.00007 
 C                    -0.67519  -1.46406   0. 
 H                    -2.96125  -3.47804  -0.00031 
 H                    -5.2909   -2.69158  -0.00033 
 H                    -5.89237  -0.31913  -0.00013 
 H                    -4.91926   2.28527   0.00005 
 H                    -2.94891   3.71378   0.00004 
 H                    -0.18424   3.8286   -0.00015 
 H                     2.10685   3.85748  -0.00028 
 H                     4.30031   2.75313  -0.0003 
 H                     5.65284   0.88633  -0.00011 
 H                     4.06672  -3.07347   0.00041 
 H                     6.00938  -1.58062   0.00027 
 H                    -0.15498  -3.31813   0.8626 
 C                     1.625    -2.59249   0.00012 
 C                     0.1423   -2.69502  -0.00036 
 H                    -0.15448  -3.31726  -0.86415 
 H                     2.08834  -3.57491   0.0003 
 

 GradGradGradGradGradGradGradGradGradGradGradGradGradGradGradGradGradGrad
 Berny optimization.
 Initialization pass.
                           ----------------------------
                           !    Initial Parameters    !
                           ! (Angstroms and Degrees)  !
 --------------------------                            --------------------------
 ! Name  Definition              Value          Derivative Info.                !
 --------------------------------------------------------------------------------
 ! R1    R(1,2)                  1.3875         estimate D2E/DX2                !
 ! R2    R(1,5)                  1.4473         estimate D2E/DX2                !
 ! R3    R(1,19)                 1.4197         estimate D2E/DX2                !
 ! R4    R(2,3)                  1.3995         estimate D2E/DX2                !
 ! R5    R(2,22)                 1.4123         estimate D2E/DX2                !
 ! R6    R(3,4)                  1.3915         estimate D2E/DX2                !
 ! R7    R(3,7)                  1.42           estimate D2E/DX2                !
 ! R8    R(4,6)                  1.4473         estimate D2E/DX2                !
 ! R9    R(4,10)                 1.4003         estimate D2E/DX2                !
 ! R10   R(5,6)                  1.3734         estimate D2E/DX2                !
 ! R11   R(5,27)                 1.0852         estimate D2E/DX2                !
 ! R12   R(6,28)                 1.0852         estimate D2E/DX2                !
 ! R13   R(7,8)                  1.426          estimate D2E/DX2                !
 ! R14   R(7,23)                 1.4365         estimate D2E/DX2                !
 ! R15   R(8,9)                  1.4551         estimate D2E/DX2                !
 ! R16   R(8,11)                 1.4531         estimate D2E/DX2                !
 ! R17   R(9,10)                 1.4154         estimate D2E/DX2                !
 ! R18   R(9,14)                 1.4298         estimate D2E/DX2                !
 ! R19   R(10,29)                1.0852         estimate D2E/DX2                !
 ! R20   R(11,12)                1.4285         estimate D2E/DX2                !
 ! R21   R(11,15)                1.4657         estimate D2E/DX2                !
 ! R22   R(12,13)                1.4313         estimate D2E/DX2                !
 ! R23   R(12,18)                1.4146         estimate D2E/DX2                !
 ! R24   R(13,14)                1.3509         estimate D2E/DX2                !
 ! R25   R(13,31)                1.0844         estimate D2E/DX2                !
 ! R26   R(14,30)                1.0846         estimate D2E/DX2                !
 ! R27   R(15,16)                1.4286         estimate D2E/DX2                !
 ! R28   R(15,36)                1.4074         estimate D2E/DX2                !
 ! R29   R(16,17)                1.3825         estimate D2E/DX2                !
 ! R30   R(16,33)                1.0838         estimate D2E/DX2                !
 ! R31   R(17,18)                1.3808         estimate D2E/DX2                !
 ! R32   R(17,34)                1.0841         estimate D2E/DX2                !
 ! R33   R(18,32)                1.084          estimate D2E/DX2                !
 ! R34   R(19,20)                1.3937         estimate D2E/DX2                !
 ! R35   R(19,26)                1.0848         estimate D2E/DX2                !
 ! R36   R(20,21)                1.416          estimate D2E/DX2                !
 ! R37   R(20,25)                1.0845         estimate D2E/DX2                !
 ! R38   R(21,22)                1.3932         estimate D2E/DX2                !
 ! R39   R(21,24)                1.0848         estimate D2E/DX2                !
 ! R40   R(22,23)                1.4599         estimate D2E/DX2                !
 ! R41   R(23,37)                1.4777         estimate D2E/DX2                !
 ! R42   R(35,37)                1.1051         estimate D2E/DX2                !
 ! R43   R(36,37)                1.4862         estimate D2E/DX2                !
 ! R44   R(36,39)                1.0862         estimate D2E/DX2                !
 ! R45   R(37,38)                1.1052         estimate D2E/DX2                !
 ! A1    A(2,1,5)              115.14           estimate D2E/DX2                !
 ! A2    A(2,1,19)             114.9028         estimate D2E/DX2                !
 ! A3    A(5,1,19)             129.9572         estimate D2E/DX2                !
 ! A4    A(1,2,3)              123.641          estimate D2E/DX2                !
 ! A5    A(1,2,22)             127.2007         estimate D2E/DX2                !
 ! A6    A(3,2,22)             109.1584         estimate D2E/DX2                !
 ! A7    A(2,3,4)              121.7322         estimate D2E/DX2                !
 ! A8    A(2,3,7)              110.0536         estimate D2E/DX2                !
 ! A9    A(4,3,7)              128.2142         estimate D2E/DX2                !
 ! A10   A(3,4,6)              115.8193         estimate D2E/DX2                !
 ! A11   A(3,4,10)             114.0981         estimate D2E/DX2                !
 ! A12   A(6,4,10)             130.0825         estimate D2E/DX2                !
 ! A13   A(1,5,6)              121.7197         estimate D2E/DX2                !
 ! A14   A(1,5,27)             119.0581         estimate D2E/DX2                !
 ! A15   A(6,5,27)             119.2223         estimate D2E/DX2                !
 ! A16   A(4,6,5)              121.9478         estimate D2E/DX2                !
 ! A17   A(4,6,28)             118.7837         estimate D2E/DX2                !
 ! A18   A(5,6,28)             119.2684         estimate D2E/DX2                !
 ! A19   A(3,7,8)              117.8001         estimate D2E/DX2                !
 ! A20   A(3,7,23)             106.0623         estimate D2E/DX2                !
 ! A21   A(8,7,23)             136.1376         estimate D2E/DX2                !
 ! A22   A(7,8,9)              114.8704         estimate D2E/DX2                !
 ! A23   A(7,8,11)             125.7128         estimate D2E/DX2                !
 ! A24   A(9,8,11)             119.4168         estimate D2E/DX2                !
 ! A25   A(8,9,10)             123.8821         estimate D2E/DX2                !
 ! A26   A(8,9,14)             119.2898         estimate D2E/DX2                !
 ! A27   A(10,9,14)            116.8281         estimate D2E/DX2                !
 ! A28   A(4,10,9)             121.135          estimate D2E/DX2                !
 ! A29   A(4,10,29)            120.9286         estimate D2E/DX2                !
 ! A30   A(9,10,29)            117.9364         estimate D2E/DX2                !
 ! A31   A(8,11,12)            117.8887         estimate D2E/DX2                !
 ! A32   A(8,11,15)            125.0648         estimate D2E/DX2                !
 ! A33   A(12,11,15)           117.0465         estimate D2E/DX2                !
 ! A34   A(11,12,13)           120.8677         estimate D2E/DX2                !
 ! A35   A(11,12,18)           122.0817         estimate D2E/DX2                !
 ! A36   A(13,12,18)           117.0506         estimate D2E/DX2                !
 ! A37   A(12,13,14)           121.3677         estimate D2E/DX2                !
 ! A38   A(12,13,31)           117.9781         estimate D2E/DX2                !
 ! A39   A(14,13,31)           120.6541         estimate D2E/DX2                !
 ! A40   A(9,14,13)            121.1692         estimate D2E/DX2                !
 ! A41   A(9,14,30)            118.2371         estimate D2E/DX2                !
 ! A42   A(13,14,30)           120.5937         estimate D2E/DX2                !
 ! A43   A(11,15,16)           117.4024         estimate D2E/DX2                !
 ! A44   A(11,15,36)           130.0367         estimate D2E/DX2                !
 ! A45   A(16,15,36)           112.5609         estimate D2E/DX2                !
 ! A46   A(15,16,17)           123.7974         estimate D2E/DX2                !
 ! A47   A(15,16,33)           117.306          estimate D2E/DX2                !
 ! A48   A(17,16,33)           118.8966         estimate D2E/DX2                !
 ! A49   A(16,17,18)           119.0748         estimate D2E/DX2                !
 ! A50   A(16,17,34)           120.104          estimate D2E/DX2                !
 ! A51   A(18,17,34)           120.8212         estimate D2E/DX2                !
 ! A52   A(12,18,17)           120.5972         estimate D2E/DX2                !
 ! A53   A(12,18,32)           118.525          estimate D2E/DX2                !
 ! A54   A(17,18,32)           120.8778         estimate D2E/DX2                !
 ! A55   A(1,19,20)            119.7127         estimate D2E/DX2                !
 ! A56   A(1,19,26)            120.6246         estimate D2E/DX2                !
 ! A57   A(20,19,26)           119.6627         estimate D2E/DX2                !
 ! A58   A(19,20,21)           123.3668         estimate D2E/DX2                !
 ! A59   A(19,20,25)           118.4659         estimate D2E/DX2                !
 ! A60   A(21,20,25)           118.1673         estimate D2E/DX2                !
 ! A61   A(20,21,22)           118.3089         estimate D2E/DX2                !
 ! A62   A(20,21,24)           119.3002         estimate D2E/DX2                !
 ! A63   A(22,21,24)           122.3909         estimate D2E/DX2                !
 ! A64   A(2,22,21)            116.5082         estimate D2E/DX2                !
 ! A65   A(2,22,23)            106.2799         estimate D2E/DX2                !
 ! A66   A(21,22,23)           137.2119         estimate D2E/DX2                !
 ! A67   A(7,23,22)            108.4458         estimate D2E/DX2                !
 ! A68   A(7,23,37)            127.9799         estimate D2E/DX2                !
 ! A69   A(22,23,37)           123.5743         estimate D2E/DX2                !
 ! A70   A(15,36,37)           135.4355         estimate D2E/DX2                !
 ! A71   A(15,36,39)           113.2702         estimate D2E/DX2                !
 ! A72   A(37,36,39)           111.2943         estimate D2E/DX2                !
 ! A73   A(23,37,35)           108.7041         estimate D2E/DX2                !
 ! A74   A(23,37,36)           119.6327         estimate D2E/DX2                !
 ! A75   A(23,37,38)           108.7022         estimate D2E/DX2                !
 ! A76   A(35,37,36)           107.8785         estimate D2E/DX2                !
 ! A77   A(35,37,38)           102.7458         estimate D2E/DX2                !
 ! A78   A(36,37,38)           107.8781         estimate D2E/DX2                !
 ! D1    D(5,1,2,3)             -0.0043         estimate D2E/DX2                !
 ! D2    D(5,1,2,22)          -179.9876         estimate D2E/DX2                !
 ! D3    D(19,1,2,3)           179.9905         estimate D2E/DX2                !
 ! D4    D(19,1,2,22)            0.0073         estimate D2E/DX2                !
 ! D5    D(2,1,5,6)              0.0047         estimate D2E/DX2                !
 ! D6    D(2,1,5,27)          -179.998          estimate D2E/DX2                !
 ! D7    D(19,1,5,6)          -179.9892         estimate D2E/DX2                !
 ! D8    D(19,1,5,27)            0.008          estimate D2E/DX2                !
 ! D9    D(2,1,19,20)           -0.0037         estimate D2E/DX2                !
 ! D10   D(2,1,19,26)          179.9985         estimate D2E/DX2                !
 ! D11   D(5,1,19,20)          179.9902         estimate D2E/DX2                !
 ! D12   D(5,1,19,26)           -0.0076         estimate D2E/DX2                !
 ! D13   D(1,2,3,4)             -0.0003         estimate D2E/DX2                !
 ! D14   D(1,2,3,7)           -179.9876         estimate D2E/DX2                !
 ! D15   D(22,2,3,4)           179.9855         estimate D2E/DX2                !
 ! D16   D(22,2,3,7)            -0.0017         estimate D2E/DX2                !
 ! D17   D(1,2,22,21)           -0.0063         estimate D2E/DX2                !
 ! D18   D(1,2,22,23)          179.9873         estimate D2E/DX2                !
 ! D19   D(3,2,22,21)         -179.9915         estimate D2E/DX2                !
 ! D20   D(3,2,22,23)            0.0021         estimate D2E/DX2                !
 ! D21   D(2,3,4,6)              0.0046         estimate D2E/DX2                !
 ! D22   D(2,3,4,10)          -179.991          estimate D2E/DX2                !
 ! D23   D(7,3,4,6)            179.9894         estimate D2E/DX2                !
 ! D24   D(7,3,4,10)            -0.0062         estimate D2E/DX2                !
 ! D25   D(2,3,7,8)            179.9955         estimate D2E/DX2                !
 ! D26   D(2,3,7,23)             0.0006         estimate D2E/DX2                !
 ! D27   D(4,3,7,8)              0.0093         estimate D2E/DX2                !
 ! D28   D(4,3,7,23)          -179.9856         estimate D2E/DX2                !
 ! D29   D(3,4,6,5)             -0.0041         estimate D2E/DX2                !
 ! D30   D(3,4,6,28)           179.9976         estimate D2E/DX2                !
 ! D31   D(10,4,6,5)           179.9906         estimate D2E/DX2                !
 ! D32   D(10,4,6,28)           -0.0077         estimate D2E/DX2                !
 ! D33   D(3,4,10,9)             0.0            estimate D2E/DX2                !
 ! D34   D(3,4,10,29)         -179.9992         estimate D2E/DX2                !
 ! D35   D(6,4,10,9)          -179.9948         estimate D2E/DX2                !
 ! D36   D(6,4,10,29)            0.006          estimate D2E/DX2                !
 ! D37   D(1,5,6,4)             -0.0005         estimate D2E/DX2                !
 ! D38   D(1,5,6,28)           179.9977         estimate D2E/DX2                !
 ! D39   D(27,5,6,4)          -179.9978         estimate D2E/DX2                !
 ! D40   D(27,5,6,28)            0.0005         estimate D2E/DX2                !
 ! D41   D(3,7,8,9)             -0.0055         estimate D2E/DX2                !
 ! D42   D(3,7,8,11)           179.9932         estimate D2E/DX2                !
 ! D43   D(23,7,8,9)           179.9874         estimate D2E/DX2                !
 ! D44   D(23,7,8,11)           -0.0138         estimate D2E/DX2                !
 ! D45   D(3,7,23,22)            0.0007         estimate D2E/DX2                !
 ! D46   D(3,7,23,37)          179.9908         estimate D2E/DX2                !
 ! D47   D(8,7,23,22)         -179.9928         estimate D2E/DX2                !
 ! D48   D(8,7,23,37)           -0.0028         estimate D2E/DX2                !
 ! D49   D(7,8,9,10)             0.0002         estimate D2E/DX2                !
 ! D50   D(7,8,9,14)          -179.9996         estimate D2E/DX2                !
 ! D51   D(11,8,9,10)         -179.9986         estimate D2E/DX2                !
 ! D52   D(11,8,9,14)            0.0015         estimate D2E/DX2                !
 ! D53   D(7,8,11,12)         -179.9978         estimate D2E/DX2                !
 ! D54   D(7,8,11,15)           -0.0019         estimate D2E/DX2                !
 ! D55   D(9,8,11,12)            0.0008         estimate D2E/DX2                !
 ! D56   D(9,8,11,15)          179.9968         estimate D2E/DX2                !
 ! D57   D(8,9,10,4)             0.0027         estimate D2E/DX2                !
 ! D58   D(8,9,10,29)         -179.998          estimate D2E/DX2                !
 ! D59   D(14,9,10,4)         -179.9974         estimate D2E/DX2                !
 ! D60   D(14,9,10,29)           0.0018         estimate D2E/DX2                !
 ! D61   D(8,9,14,13)           -0.002          estimate D2E/DX2                !
 ! D62   D(8,9,14,30)          179.9999         estimate D2E/DX2                !
 ! D63   D(10,9,14,13)         179.9982         estimate D2E/DX2                !
 ! D64   D(10,9,14,30)           0.0            estimate D2E/DX2                !
 ! D65   D(8,11,12,13)          -0.0029         estimate D2E/DX2                !
 ! D66   D(8,11,12,18)         179.995          estimate D2E/DX2                !
 ! D67   D(15,11,12,13)       -179.9992         estimate D2E/DX2                !
 ! D68   D(15,11,12,18)         -0.0013         estimate D2E/DX2                !
 ! D69   D(8,11,15,16)        -179.9913         estimate D2E/DX2                !
 ! D70   D(8,11,15,36)           0.0089         estimate D2E/DX2                !
 ! D71   D(12,11,15,16)          0.0047         estimate D2E/DX2                !
 ! D72   D(12,11,15,36)       -179.9951         estimate D2E/DX2                !
 ! D73   D(11,12,13,14)          0.0026         estimate D2E/DX2                !
 ! D74   D(11,12,13,31)       -179.9992         estimate D2E/DX2                !
 ! D75   D(18,12,13,14)       -179.9954         estimate D2E/DX2                !
 ! D76   D(18,12,13,31)          0.0028         estimate D2E/DX2                !
 ! D77   D(11,12,18,17)         -0.0024         estimate D2E/DX2                !
 ! D78   D(11,12,18,32)        179.9992         estimate D2E/DX2                !
 ! D79   D(13,12,18,17)        179.9955         estimate D2E/DX2                !
 ! D80   D(13,12,18,32)         -0.0028         estimate D2E/DX2                !
 ! D81   D(12,13,14,9)          -0.0001         estimate D2E/DX2                !
 ! D82   D(12,13,14,30)        179.998          estimate D2E/DX2                !
 ! D83   D(31,13,14,9)        -179.9982         estimate D2E/DX2                !
 ! D84   D(31,13,14,30)         -0.0001         estimate D2E/DX2                !
 ! D85   D(11,15,16,17)         -0.005          estimate D2E/DX2                !
 ! D86   D(11,15,16,33)        179.9972         estimate D2E/DX2                !
 ! D87   D(36,15,16,17)        179.9949         estimate D2E/DX2                !
 ! D88   D(36,15,16,33)         -0.0029         estimate D2E/DX2                !
 ! D89   D(11,15,36,37)          0.02           estimate D2E/DX2                !
 ! D90   D(11,15,36,39)       -179.9966         estimate D2E/DX2                !
 ! D91   D(16,15,36,37)       -179.9799         estimate D2E/DX2                !
 ! D92   D(16,15,36,39)          0.0035         estimate D2E/DX2                !
 ! D93   D(15,16,17,18)          0.0013         estimate D2E/DX2                !
 ! D94   D(15,16,17,34)       -179.998          estimate D2E/DX2                !
 ! D95   D(33,16,17,18)        179.9991         estimate D2E/DX2                !
 ! D96   D(33,16,17,34)         -0.0002         estimate D2E/DX2                !
 ! D97   D(16,17,18,12)          0.0024         estimate D2E/DX2                !
 ! D98   D(16,17,18,32)       -179.9992         estimate D2E/DX2                !
 ! D99   D(34,17,18,12)       -179.9983         estimate D2E/DX2                !
 ! D100  D(34,17,18,32)          0.0001         estimate D2E/DX2                !
 ! D101  D(1,19,20,21)          -0.0003         estimate D2E/DX2                !
 ! D102  D(1,19,20,25)        -179.9997         estimate D2E/DX2                !
 ! D103  D(26,19,20,21)        179.9976         estimate D2E/DX2                !
 ! D104  D(26,19,20,25)         -0.0018         estimate D2E/DX2                !
 ! D105  D(19,20,21,22)          0.0015         estimate D2E/DX2                !
 ! D106  D(19,20,21,24)       -179.9963         estimate D2E/DX2                !
 ! D107  D(25,20,21,22)       -179.9992         estimate D2E/DX2                !
 ! D108  D(25,20,21,24)          0.0031         estimate D2E/DX2                !
 ! D109  D(20,21,22,2)           0.0015         estimate D2E/DX2                !
 ! D110  D(20,21,22,23)       -179.9894         estimate D2E/DX2                !
 ! D111  D(24,21,22,2)         179.9992         estimate D2E/DX2                !
 ! D112  D(24,21,22,23)          0.0082         estimate D2E/DX2                !
 ! D113  D(2,22,23,7)           -0.0017         estimate D2E/DX2                !
 ! D114  D(2,22,23,37)        -179.9923         estimate D2E/DX2                !
 ! D115  D(21,22,23,7)         179.9899         estimate D2E/DX2                !
 ! D116  D(21,22,23,37)         -0.0008         estimate D2E/DX2                !
 ! D117  D(7,23,37,35)         124.4696         estimate D2E/DX2                !
 ! D118  D(7,23,37,36)           0.0346         estimate D2E/DX2                !
 ! D119  D(7,23,37,38)        -124.3981         estimate D2E/DX2                !
 ! D120  D(22,23,37,35)        -55.5417         estimate D2E/DX2                !
 ! D121  D(22,23,37,36)       -179.9767         estimate D2E/DX2                !
 ! D122  D(22,23,37,38)         55.5906         estimate D2E/DX2                !
 ! D123  D(15,36,37,23)         -0.046          estimate D2E/DX2                !
 ! D124  D(15,36,37,35)       -124.8761         estimate D2E/DX2                !
 ! D125  D(15,36,37,38)        124.7811         estimate D2E/DX2                !
 ! D126  D(39,36,37,23)        179.9704         estimate D2E/DX2                !
 ! D127  D(39,36,37,35)         55.1403         estimate D2E/DX2                !
 ! D128  D(39,36,37,38)        -55.2025         estimate D2E/DX2                !
 --------------------------------------------------------------------------------
 Trust Radius=3.00D-01 FncErr=1.00D-07 GrdErr=1.00D-06
 Number of steps in this run=    234 maximum allowed number of steps=    234.
 GradGradGradGradGradGradGradGradGradGradGradGradGradGradGradGradGradGrad

                          Input orientation:                          
 ---------------------------------------------------------------------
 Center     Atomic      Atomic             Coordinates (Angstroms)
 Number     Number       Type             X           Y           Z
 ---------------------------------------------------------------------
      1          6           0       -3.827480    0.386300    0.000140
      2          6           0       -2.531310   -0.108830    0.000260
      3          6           0       -1.391320    0.702890    0.000260
      4          6           0       -1.481610    2.091490    0.000130
      5          6           0       -3.934320    1.829650    0.000110
      6          6           0       -2.822590    2.635980    0.000100
      7          6           0       -0.221010   -0.101260    0.000110
      8          6           0        1.041500    0.561740   -0.000010
      9          6           0        0.969520    2.015010   -0.000090
     10          6           0       -0.243120    2.744980   -0.000050
     11          6           0        2.340980   -0.088460   -0.000030
     12          6           0        3.503520    0.741690   -0.000110
     13          6           0        3.387180    2.168250   -0.000230
     14          6           0        2.180400    2.775340   -0.000220
     15          6           0        2.557200   -1.538080    0.000110
     16          6           0        3.908640   -2.001280    0.000260
     17          6           0        5.008640   -1.163800    0.000180
     18          6           0        4.811480    0.202900   -0.000030
     19          6           0       -4.845420   -0.603280   -0.000050
     20          6           0       -4.496990   -1.952700   -0.000180
     21          6           0       -3.157290   -2.411090   -0.000140
     22          6           0       -2.135060   -1.464420    0.000070
     23          6           0       -0.675190   -1.464060    0.000000
     24          1           0       -2.961250   -3.478040   -0.000310
     25          1           0       -5.290900   -2.691580   -0.000330
     26          1           0       -5.892370   -0.319130   -0.000130
     27          1           0       -4.919260    2.285270    0.000050
     28          1           0       -2.948910    3.713780    0.000040
     29          1           0       -0.184240    3.828600   -0.000150
     30          1           0        2.106850    3.857480   -0.000280
     31          1           0        4.300310    2.753130   -0.000300
     32          1           0        5.652840    0.886330   -0.000110
     33          1           0        4.066720   -3.073470    0.000410
     34          1           0        6.009380   -1.580620    0.000270
     35          1           0       -0.154980   -3.318130    0.862600
     36          6           0        1.625000   -2.592490    0.000120
     37          6           0        0.142300   -2.695020   -0.000360
     38          1           0       -0.154480   -3.317260   -0.864150
     39          1           0        2.088340   -3.574910    0.000300
 ---------------------------------------------------------------------
                    Distance matrix (angstroms):
                    1          2          3          4          5
     1  C    0.000000
     2  C    1.387520   0.000000
     3  C    2.456645   1.399452   0.000000
     4  C    2.900134   2.437884   1.391532   0.000000
     5  C    1.447299   2.392936   2.781445   2.466647   0.000000
     6  C    2.463912   2.760222   2.405280   1.447307   1.373358
     7  C    3.639277   2.310312   1.419959   2.529282   4.185342
     8  C    4.872140   3.635194   2.436911   2.950630   5.134820
     9  C    5.065956   4.094693   2.700967   2.452323   4.907342
    10  C    4.290805   3.657874   2.342754   1.400324   3.802997
    11  C    6.186703   4.872333   3.815272   4.400497   6.561900
    12  C    7.339609   6.094469   4.894994   5.164638   7.516989
    13  C    7.431465   6.341421   4.998134   4.869395   7.329326
    14  C    6.465457   5.524369   4.129435   3.725315   6.187417
    15  C    6.668386   5.285422   4.540127   5.430080   7.313100
    16  C    8.096178   6.712252   5.949967   6.767981   8.728576
    17  C    8.971055   7.613397   6.666635   7.260872   9.430656
    18  C    8.640907   7.349404   6.222919   6.570369   8.895804
    19  C    1.419673   2.366344   3.692816   4.310105   2.597932
    20  C    2.432933   2.695135   4.086238   5.044600   3.823973
    21  C    2.876551   2.385844   3.579877   4.804282   4.311340
    22  C    2.507878   1.412317   2.291371   3.615452   3.753430
    23  C    3.655238   2.298223   2.282217   3.645854   4.633622
    24  H    3.960237   3.396531   4.465966   5.762725   5.396150
    25  H    3.408070   3.779674   5.170024   6.114609   4.720363
    26  H    2.182064   3.367633   4.615623   5.026519   2.907097
    27  H    2.190450   3.381423   3.866560   3.443107   1.085217
    28  H    3.441513   3.845353   3.389918   2.187417   2.126259
    29  H    5.012248   4.583895   3.350687   2.168114   4.249577
    30  H    6.874981   6.102798   4.710481   3.999471   6.372427
    31  H    8.465392   7.406878   6.049639   5.819653   8.286250
    32  H    9.493498   8.244432   7.046548   7.235523   9.633457
    33  H    8.619072   7.233470   6.637100   7.580289   9.383881
    34  H   10.031580   8.666577   7.744984   8.342621  10.512236
    35  H    5.287144   4.085362   4.294272   5.636292   6.444140
    36  C    6.213109   4.841847   4.467406   5.620560   7.103616
    37  C    5.025305   3.719754   3.727973   5.054479   6.090277
    38  H    5.287181   4.085407   4.294017   5.635852   6.443975
    39  H    7.119558   5.775368   5.514309   6.697211   8.092077
                    6          7          8          9         10
     6  C    0.000000
     7  C    3.776334   0.000000
     8  C    4.385620   1.426009   0.000000
     9  C    3.842617   2.428160   1.455051   0.000000
    10  C    2.581772   2.846326   2.533137   1.415398   0.000000
    11  C    5.838238   2.562022   1.453069   2.511073   3.834834
    12  C    6.603636   3.818729   2.468588   2.835930   4.248586
    13  C    6.227360   4.262594   2.843077   2.422512   3.675826
    14  C    5.004931   3.747212   2.489401   1.429801   2.423710
    15  C    6.809179   3.127763   2.589709   3.891680   5.117264
    16  C    8.173961   4.545777   3.845720   4.976848   6.305878
    17  C    8.704395   5.336500   4.326163   5.139973   6.546720
    18  C    8.012422   5.041673   3.787019   4.247870   5.657840
    19  C    3.818985   4.651580   6.001091   6.377223   5.691398
    20  C    4.884629   4.659596   6.082539   6.754662   6.337476
    21  C    5.058156   3.735914   5.144663   6.051522   5.922621
    22  C    4.157641   2.349849   3.767739   4.663137   4.615028
    23  C    4.628353   1.436490   2.655351   3.848246   4.231158
    24  H    6.115592   4.348742   5.686988   6.754595   6.790744
    25  H    5.871580   5.693289   7.119226   7.832295   7.418643
    26  H    4.261012   5.675543   6.989598   7.248017   6.426725
    27  H    2.125799   5.269637   6.204935   5.894978   4.698683
    28  H    1.085177   4.689986   5.085148   4.270821   2.873999
    29  H    2.895381   3.930032   3.489242   2.149482   1.085218
    30  H    5.078527   4.592445   3.463650   2.165229   2.600003
    31  H    7.123863   5.346950   3.927090   3.411595   4.543437
    32  H    8.654143   5.956295   4.622750   4.817406   6.181984
    33  H    8.947648   5.217151   4.729345   5.956952   7.240793
    34  H    9.786900   6.403613   5.410133   6.191021   7.602932
    35  H    6.581145   3.331141   4.150789   5.518253   6.124805
    36  C    6.864252   3.100642   3.207747   4.653892   5.654950
    37  C    6.100011   2.619081   3.378616   4.782120   5.453636
    38  H    6.580791   3.330770   4.150150   5.517525   6.124155
    39  H    7.917852   4.171252   4.267054   5.700786   6.736224
                   11         12         13         14         15
    11  C    0.000000
    12  C    1.428513   0.000000
    13  C    2.487423   1.431296   0.000000
    14  C    2.868299   2.426186   1.350880   0.000000
    15  C    1.465657   2.468375   3.798124   4.329846   0.000000
    16  C    2.473143   2.772726   4.202012   5.079657   1.428616
    17  C    2.876242   2.428225   3.705629   4.849306   2.479847
    18  C    2.487622   1.414586   2.427186   3.679678   2.848296
    19  C    7.204817   8.456580   8.686604   7.795975   7.461410
    20  C    7.087540   8.442032   8.896199   8.181803   7.066364
    21  C    5.968717   7.369288   7.987518   7.442445   5.780791
    22  C    4.682756   6.054792   6.609949   6.049691   4.692838
    23  C    3.315050   4.725140   5.449452   5.111449   3.233237
    24  H    6.293083   7.720063   8.496067   8.095760   5.849507
    25  H    8.063611   9.440824   9.946206   9.257837   7.932417
    26  H    8.236581   9.455585   9.607138   8.645540   8.537041
    27  H    7.638434   8.563052   8.307264   7.116554   8.397348
    28  H    6.514596   7.104025   6.521863   5.214450   7.609158
    29  H    4.660482   4.809219   3.938503   2.588606   6.026338
    30  H    3.952880   3.414504   2.119609   1.084637   5.414322
    31  H    3.451609   2.163508   1.084385   2.120026   4.631729
    32  H    3.452337   2.154181   2.603178   3.952999   3.932016
    33  H    3.447965   3.856506   5.285585   6.145468   2.153154
    34  H    3.960265   3.416498   4.574927   5.799610   3.452442
    35  H    4.171896   5.532723   6.587241   6.582464   3.356842
    36  C    2.604380   3.826956   5.076409   5.396487   1.407401
    37  C    3.410036   4.807159   5.846421   5.837696   2.677733
    38  H    4.171232   5.531962   6.586390   6.581627   3.356432
    39  H    3.495592   4.542661   5.888198   6.350917   2.090097
                   16         17         18         19         20
    16  C    0.000000
    17  C    1.382524   0.000000
    18  C    2.381917   1.380848   0.000000
    19  C    8.864986   9.869989   9.690492   0.000000
    20  C    8.405770   9.538310   9.554801   1.393678   0.000000
    21  C    7.077804   8.260638   8.386551   2.473451   1.415951
    22  C    6.067498   7.150023   7.143835   2.843873   2.411873
    23  C    4.615203   5.691755   5.734309   4.258140   3.852911
    24  H    7.026821   8.299088   8.600270   3.437200   2.164523
    25  H    9.225402  10.412235  10.508858   2.135287   1.084544
    26  H    9.944316  10.933686  10.716572   1.084825   2.148403
    27  H    9.813579  10.509961   9.951059   2.889494   4.258955
    28  H    8.926808   9.333455   8.517625   4.715269   5.874142
    29  H    7.123143   7.203476   6.172756   6.431808   7.212714
    30  H    6.129561   5.799452   4.546535   8.260293   8.795959
    31  H    4.770516   3.980461   2.600955   9.742169   9.976839
    32  H    3.373503   2.148959   1.083957  10.603415  10.539409
    33  H    1.083781   2.129332   3.359951   9.248139   8.636739
    34  H    2.142443   1.084075   2.148466  10.898710  10.512956
    35  H    4.357836   5.661084   6.148781   5.487696   4.632692
    36  C    2.358928   3.672897   4.238851   6.769290   6.155330
    37  C    3.829699   5.101559   5.495378   5.408579   4.698303
    38  H    4.357517   5.660589   6.148088   5.487921   4.633127
    39  H    2.406201   3.787031   4.656967   7.543713   6.782193
                   21         22         23         24         25
    21  C    0.000000
    22  C    1.393247   0.000000
    23  C    2.656631   1.459870   0.000000
    24  H    1.084811   2.176524   3.046668   0.000000
    25  H    2.151968   3.386037   4.776147   2.458819   0.000000
    26  H    3.443394   3.927985   5.341332   4.309313   2.447506
    27  H    5.016008   4.670326   5.663003   6.086834   4.990707
    28  H    6.128414   5.241766   5.655071   7.191831   6.820085
    29  H    6.911784   5.641078   5.315382   7.816570   8.281952
    30  H    8.185728   6.805617   6.004876   8.916024   9.880126
    31  H    9.071106   7.694265   6.522292   9.568581  11.028879
    32  H    9.406985   8.134950   6.750429   9.656618  11.513769
    33  H    7.254314   6.407115   5.007585   7.039605   9.365409
    34  H    9.204212   8.145269   6.685586   9.169101  11.354759
    35  H    3.252831   2.846211   2.110041   2.940295   5.245464
    36  C    4.785729   3.925633   2.562075   4.670962   6.916610
    37  C    3.311784   2.588580   1.477685   3.200803   5.433201
    38  H    3.253387   2.846505   2.110034   2.941093   5.245996
    39  H    5.373184   4.721364   3.477468   5.050519   7.431921
                   26         27         28         29         30
    26  H    0.000000
    27  H    2.780259   0.000000
    28  H    4.992827   2.433705   0.000000
    29  H    7.055949   4.980189   2.767053   0.000000
    30  H    9.023945   7.199866   5.057802   2.291272   0.000000
    31  H   10.645633   9.231433   7.312595   4.611705   2.455780
    32  H   11.607972  10.664255   9.054533   6.536701   4.626206
    33  H   10.332950  10.462501   9.761446   8.106123   7.202719
    34  H   11.968417  11.592251  10.405846   8.223174   6.693480
    35  H    6.531152   7.405434   7.615630   7.198677   7.572966
    36  C    7.853599   8.162100   7.790359   6.671113   6.467943
    37  C    6.485530   7.100893   7.115356   6.531787   6.840666
    38  H    6.531362   7.405289   7.615194   7.197965   7.572105
    39  H    8.619271   9.134997   8.859960   7.744455   7.432413
                   31         32         33         34         35
    31  H    0.000000
    32  H    2.305272   0.000000
    33  H    5.831281   4.265653   0.000000
    34  H    4.658574   2.492582   2.450006   0.000000
    35  H    7.579868   7.221671   4.315783   6.462344   0.000000
    36  C    5.977703   5.322188   2.488642   4.499630   2.106835
    37  C    6.853567   6.572071   3.942626   5.971978   1.105143
    38  H    7.578986   7.220921   4.315719   6.461912   1.726750
    39  H    6.703499   5.710370   2.040938   4.399062   2.417019
                   36         37         38         39
    36  C    0.000000
    37  C    1.486241   0.000000
    38  H    2.106847   1.105167   0.000000
    39  H    1.086201   2.135715   2.417416   0.000000
 Stoichiometry    C25H14(3)
 Framework group  C1[X(C25H14)]
 Deg. of freedom   111
 Full point group                 C1      NOp   1
 Largest Abelian subgroup         C1      NOp   1
 Largest concise Abelian subgroup C1      NOp   1
                         Standard orientation:                         
 ---------------------------------------------------------------------
 Center     Atomic      Atomic             Coordinates (Angstroms)
 Number     Number       Type             X           Y           Z
 ---------------------------------------------------------------------
      1          6           0        3.827480    0.386301   -0.000140
      2          6           0        2.531310   -0.108830   -0.000260
      3          6           0        1.391319    0.702890   -0.000260
      4          6           0        1.481609    2.091490   -0.000130
      5          6           0        3.934319    1.829651   -0.000110
      6          6           0        2.822589    2.635980   -0.000100
      7          6           0        0.221010   -0.101261   -0.000110
      8          6           0       -1.041501    0.561739    0.000010
      9          6           0       -0.969521    2.015009    0.000090
     10          6           0        0.243119    2.744979    0.000050
     11          6           0       -2.340980   -0.088462    0.000030
     12          6           0       -3.503521    0.741688    0.000110
     13          6           0       -3.387181    2.168248    0.000230
     14          6           0       -2.180401    2.775338    0.000220
     15          6           0       -2.557200   -1.538082   -0.000110
     16          6           0       -3.908639   -2.001283   -0.000260
     17          6           0       -5.008640   -1.163803   -0.000180
     18          6           0       -4.811480    0.202897    0.000030
     19          6           0        4.845420   -0.603279    0.000050
     20          6           0        4.496991   -1.952699    0.000180
     21          6           0        3.157291   -2.411090    0.000140
     22          6           0        2.135060   -1.464420   -0.000070
     23          6           0        0.675190   -1.464061    0.000000
     24          1           0        2.961251   -3.478040    0.000310
     25          1           0        5.290901   -2.691579    0.000330
     26          1           0        5.892370   -0.319128    0.000130
     27          1           0        4.919259    2.285271   -0.000050
     28          1           0        2.948908    3.713780   -0.000040
     29          1           0        0.184238    3.828599    0.000150
     30          1           0       -2.106852    3.857478    0.000280
     31          1           0       -4.300311    2.753127    0.000300
     32          1           0       -5.652841    0.886327    0.000110
     33          1           0       -4.066719   -3.073473   -0.000410
     34          1           0       -6.009380   -1.580623   -0.000270
     35          1           0        0.154981   -3.318131   -0.862600
     36          6           0       -1.624999   -2.592492   -0.000120
     37          6           0       -0.142299   -2.695021    0.000360
     38          1           0        0.154481   -3.317261    0.864150
     39          1           0       -2.088339   -3.574912   -0.000300
 ---------------------------------------------------------------------
 Rotational constants (GHZ):      0.4857731      0.1796388      0.1312447
 Standard basis: 6-311+G(d,p) (5D, 7F)
 There are   659 symmetry adapted cartesian basis functions of A   symmetry.
 There are   634 symmetry adapted basis functions of A   symmetry.
   634 basis functions,  1012 primitive gaussians,   659 cartesian basis functions
    83 alpha electrons       81 beta electrons
       nuclear repulsion energy      1935.1172328301 Hartrees.
 NAtoms=   39 NActive=   39 NUniq=   39 SFac= 1.00D+00 NAtFMM=   60 NAOKFM=F Big=F
 Integral buffers will be    131072 words long.
 Raffenetti 2 integral format.
 Two-electron integral symmetry is turned on.
 One-electron integrals computed using PRISM.
 NBasis=   634 RedAO= T EigKep=  1.23D-06  NBF=   634
 NBsUse=   615 1.00D-06 EigRej=  9.84D-07 NBFU=   615
 ExpMin= 4.38D-02 ExpMax= 4.56D+03 ExpMxC= 6.82D+02 IAcc=2 IRadAn=         4 AccDes= 0.00D+00
 Harris functional with IExCor=  402 and IRadAn=       4 diagonalized for initial guess.
 HarFok:  IExCor=  402 AccDes= 0.00D+00 IRadAn=         4 IDoV= 1 UseB2=F ITyADJ=14
 ICtDFT=  3500011 ScaDFX=  1.000000  1.000000  1.000000  1.000000
 FoFCou: FMM=F IPFlag=           0 FMFlag=      100000 FMFlg1=           0
         NFxFlg=           0 DoJE=T BraDBF=F KetDBF=T FulRan=T
         wScrn=  0.000000 ICntrl=     500 IOpCl=  0 I1Cent=   200000004 NGrid=           0
         NMat0=    1 NMatS0=      1 NMatT0=    0 NMatD0=    1 NMtDS0=    0 NMtDT0=    0
 Petite list used in FoFCou.
 Initial guess <Sx>= 0.0000 <Sy>= 0.0000 <Sz>= 1.0000 <S**2>= 2.0000 S= 1.0000
 Requested convergence on RMS density matrix=1.00D-08 within 128 cycles.
 Requested convergence on MAX density matrix=1.00D-06.
 Requested convergence on             energy=1.00D-06.
 No special actions if energy rises.
 Restarting incremental Fock formation.
 SCF Done:  E(UB3LYP) =  -961.287200279     A.U. after   24 cycles
            NFock= 24  Conv=0.38D-08     -V/T= 2.0044
 <Sx>= 0.0000 <Sy>= 0.0000 <Sz>= 1.0000 <S**2>= 2.0436 S= 1.0145
 <L.S>= 0.000000000000E+00
 Annihilation of the first spin contaminant:
 S**2 before annihilation     2.0436,   after     2.0011

 **********************************************************************

            Population analysis using the SCF density.

 **********************************************************************

 Orbital symmetries:
 Alpha Orbitals:
       Occupied  (A) (A) (A) (A) (A) (A) (A) (A) (A) (A) (A) (A)
                 (A) (A) (A) (A) (A) (A) (A) (A) (A) (A) (A) (A)
                 (A) (A) (A) (A) (A) (A) (A) (A) (A) (A) (A) (A)
                 (A) (A) (A) (A) (A) (A) (A) (A) (A) (A) (A) (A)
                 (A) (A) (A) (A) (A) (A) (A) (A) (A) (A) (A) (A)
                 (A) (A) (A) (A) (A) (A) (A) (A) (A) (A) (A) (A)
                 (A) (A) (A) (A) (A) (A) (A) (A) (A) (A) (A)
       Virtual   (A) (A) (A) (A) (A) (A) (A) (A) (A) (A) (A) (A)
                 (A) (A) (A) (A) (A) (A) (A) (A) (A) (A) (A) (A)
                 (A) (A) (A) (A) (A) (A) (A) (A) (A) (A) (A) (A)
                 (A) (A) (A) (A) (A) (A) (A) (A) (A) (A) (A) (A)
                 (A) (A) (A) (A) (A) (A) (A) (A) (A) (A) (A) (A)
                 (A) (A) (A) (A) (A) (A) (A) (A) (A) (A) (A) (A)
                 (A) (A) (A) (A) (A) (A) (A) (A) (A) (A) (A) (A)
                 (A) (A) (A) (A) (A) (A) (A) (A) (A) (A) (A) (A)
                 (A) (A) (A) (A) (A) (A) (A) (A) (A) (A) (A) (A)
                 (A) (A) (A) (A) (A) (A) (A) (A) (A) (A) (A) (A)
                 (A) (A) (A) (A) (A) (A) (A) (A) (A) (A) (A) (A)
                 (A) (A) (A) (A) (A) (A) (A) (A) (A) (A) (A) (A)
                 (A) (A) (A) (A) (A) (A) (A) (A) (A) (A) (A) (A)
                 (A) (A) (A) (A) (A) (A) (A) (A) (A) (A) (A) (A)
                 (A) (A) (A) (A) (A) (A) (A) (A) (A) (A) (A) (A)
                 (A) (A) (A) (A) (A) (A) (A) (A) (A) (A) (A) (A)
                 (A) (A) (A) (A) (A) (A) (A) (A) (A) (A) (A) (A)
                 (A) (A) (A) (A) (A) (A) (A) (A) (A) (A) (A) (A)
                 (A) (A) (A) (A) (A) (A) (A) (A) (A) (A) (A) (A)
                 (A) (A) (A) (A) (A) (A) (A) (A) (A) (A) (A) (A)
                 (A) (A) (A) (A) (A) (A) (A) (A) (A) (A) (A) (A)
                 (A) (A) (A) (A) (A) (A) (A) (A) (A) (A) (A) (A)
                 (A) (A) (A) (A) (A) (A) (A) (A) (A) (A) (A) (A)
                 (A) (A) (A) (A) (A) (A) (A) (A) (A) (A) (A) (A)
                 (A) (A) (A) (A) (A) (A) (A) (A) (A) (A) (A) (A)
                 (A) (A) (A) (A) (A) (A) (A) (A) (A) (A) (A) (A)
                 (A) (A) (A) (A) (A) (A) (A) (A) (A) (A) (A) (A)
                 (A) (A) (A) (A) (A) (A) (A) (A) (A) (A) (A) (A)
                 (A) (A) (A) (A) (A) (A) (A) (A) (A) (A) (A) (A)
                 (A) (A) (A) (A) (A) (A) (A) (A) (A) (A) (A) (A)
                 (A) (A) (A) (A) (A) (A) (A) (A) (A) (A) (A) (A)
                 (A) (A) (A) (A) (A) (A) (A) (A) (A) (A) (A) (A)
                 (A) (A) (A) (A) (A) (A) (A) (A) (A) (A) (A) (A)
                 (A) (A) (A) (A) (A) (A) (A) (A) (A) (A) (A) (A)
                 (A) (A) (A) (A) (A) (A) (A) (A) (A) (A) (A) (A)
                 (A) (A) (A) (A) (A) (A) (A) (A) (A) (A) (A) (A)
                 (A) (A) (A) (A) (A) (A) (A) (A) (A) (A) (A) (A)
                 (A) (A) (A) (A) (A) (A) (A) (A) (A) (A) (A) (A)
                 (A) (A) (A) (A) (A) (A) (A) (A) (A) (A) (A) (A)
                 (A) (A) (A) (A) (A) (A) (A) (A) (A) (A) (A) (A)
                 (A) (A) (A) (A) (A) (A) (A) (A) (A) (A) (A) (A)
                 (A) (A) (A) (A) (A) (A) (A) (A) (A) (A) (A) (A)
                 (A) (A) (A) (A) (A) (A) (A) (A) (A) (A) (A) (A)
                 (A) (A) (A) (A) (A) (A) (A) (A) (A) (A) (A) (A)
                 (A) (A) (A) (A)
 Beta  Orbitals:
       Occupied  (A) (A) (A) (A) (A) (A) (A) (A) (A) (A) (A) (A)
                 (A) (A) (A) (A) (A) (A) (A) (A) (A) (A) (A) (A)
                 (A) (A) (A) (A) (A) (A) (A) (A) (A) (A) (A) (A)
                 (A) (A) (A) (A) (A) (A) (A) (A) (A) (A) (A) (A)
                 (A) (A) (A) (A) (A) (A) (A) (A) (A) (A) (A) (A)
                 (A) (A) (A) (A) (A) (A) (A) (A) (A) (A) (A) (A)
                 (A) (A) (A) (A) (A) (A) (A) (A) (A)
       Virtual   (A) (A) (A) (A) (A) (A) (A) (A) (A) (A) (A) (A)
                 (A) (A) (A) (A) (A) (A) (A) (A) (A) (A) (A) (A)
                 (A) (A) (A) (A) (A) (A) (A) (A) (A) (A) (A) (A)
                 (A) (A) (A) (A) (A) (A) (A) (A) (A) (A) (A) (A)
                 (A) (A) (A) (A) (A) (A) (A) (A) (A) (A) (A) (A)
                 (A) (A) (A) (A) (A) (A) (A) (A) (A) (A) (A) (A)
                 (A) (A) (A) (A) (A) (A) (A) (A) (A) (A) (A) (A)
                 (A) (A) (A) (A) (A) (A) (A) (A) (A) (A) (A) (A)
                 (A) (A) (A) (A) (A) (A) (A) (A) (A) (A) (A) (A)
                 (A) (A) (A) (A) (A) (A) (A) (A) (A) (A) (A) (A)
                 (A) (A) (A) (A) (A) (A) (A) (A) (A) (A) (A) (A)
                 (A) (A) (A) (A) (A) (A) (A) (A) (A) (A) (A) (A)
                 (A) (A) (A) (A) (A) (A) (A) (A) (A) (A) (A) (A)
                 (A) (A) (A) (A) (A) (A) (A) (A) (A) (A) (A) (A)
                 (A) (A) (A) (A) (A) (A) (A) (A) (A) (A) (A) (A)
                 (A) (A) (A) (A) (A) (A) (A) (A) (A) (A) (A) (A)
                 (A) (A) (A) (A) (A) (A) (A) (A) (A) (A) (A) (A)
                 (A) (A) (A) (A) (A) (A) (A) (A) (A) (A) (A) (A)
                 (A) (A) (A) (A) (A) (A) (A) (A) (A) (A) (A) (A)
                 (A) (A) (A) (A) (A) (A) (A) (A) (A) (A) (A) (A)
                 (A) (A) (A) (A) (A) (A) (A) (A) (A) (A) (A) (A)
                 (A) (A) (A) (A) (A) (A) (A) (A) (A) (A) (A) (A)
                 (A) (A) (A) (A) (A) (A) (A) (A) (A) (A) (A) (A)
                 (A) (A) (A) (A) (A) (A) (A) (A) (A) (A) (A) (A)
                 (A) (A) (A) (A) (A) (A) (A) (A) (A) (A) (A) (A)
                 (A) (A) (A) (A) (A) (A) (A) (A) (A) (A) (A) (A)
                 (A) (A) (A) (A) (A) (A) (A) (A) (A) (A) (A) (A)
                 (A) (A) (A) (A) (A) (A) (A) (A) (A) (A) (A) (A)
                 (A) (A) (A) (A) (A) (A) (A) (A) (A) (A) (A) (A)
                 (A) (A) (A) (A) (A) (A) (A) (A) (A) (A) (A) (A)
                 (A) (A) (A) (A) (A) (A) (A) (A) (A) (A) (A) (A)
                 (A) (A) (A) (A) (A) (A) (A) (A) (A) (A) (A) (A)
                 (A) (A) (A) (A) (A) (A) (A) (A) (A) (A) (A) (A)
                 (A) (A) (A) (A) (A) (A) (A) (A) (A) (A) (A) (A)
                 (A) (A) (A) (A) (A) (A) (A) (A) (A) (A) (A) (A)
                 (A) (A) (A) (A) (A) (A) (A) (A) (A) (A) (A) (A)
                 (A) (A) (A) (A) (A) (A) (A) (A) (A) (A) (A) (A)
                 (A) (A) (A) (A) (A) (A) (A) (A) (A) (A) (A) (A)
                 (A) (A) (A) (A) (A) (A) (A) (A) (A) (A) (A) (A)
                 (A) (A) (A) (A) (A) (A) (A) (A) (A) (A) (A) (A)
                 (A) (A) (A) (A) (A) (A) (A) (A) (A) (A) (A) (A)
                 (A) (A) (A) (A) (A) (A) (A) (A) (A) (A) (A) (A)
                 (A) (A) (A) (A) (A) (A) (A) (A) (A) (A) (A) (A)
                 (A) (A) (A) (A) (A) (A) (A) (A) (A) (A) (A) (A)
                 (A) (A) (A) (A) (A) (A)
 The electronic state is 3-A.
 Alpha  occ. eigenvalues --  -10.20434 -10.20425 -10.19981 -10.19888 -10.19428
 Alpha  occ. eigenvalues --  -10.19388 -10.19215 -10.19159 -10.18897 -10.18884
 Alpha  occ. eigenvalues --  -10.18877 -10.18836 -10.18712 -10.18648 -10.18496
 Alpha  occ. eigenvalues --  -10.18366 -10.18254 -10.18143 -10.18103 -10.18072
 Alpha  occ. eigenvalues --  -10.17945 -10.17784 -10.17706 -10.17114 -10.16592
 Alpha  occ. eigenvalues --   -0.91568  -0.88522  -0.85810  -0.84569  -0.83093
 Alpha  occ. eigenvalues --   -0.80718  -0.79140  -0.78046  -0.75526  -0.74972
 Alpha  occ. eigenvalues --   -0.73368  -0.71282  -0.68585  -0.66785  -0.64426
 Alpha  occ. eigenvalues --   -0.63009  -0.61868  -0.59382  -0.58495  -0.56863
 Alpha  occ. eigenvalues --   -0.55946  -0.52448  -0.52122  -0.51266  -0.50044
 Alpha  occ. eigenvalues --   -0.48229  -0.47508  -0.46968  -0.46389  -0.46127
 Alpha  occ. eigenvalues --   -0.45070  -0.43859  -0.43367  -0.42313  -0.42177
 Alpha  occ. eigenvalues --   -0.41550  -0.41079  -0.40453  -0.40424  -0.39440
 Alpha  occ. eigenvalues --   -0.39223  -0.36923  -0.36880  -0.36496  -0.35520
 Alpha  occ. eigenvalues --   -0.34514  -0.34507  -0.33476  -0.33472  -0.32808
 Alpha  occ. eigenvalues --   -0.31243  -0.29627  -0.26589  -0.25968  -0.24425
 Alpha  occ. eigenvalues --   -0.21661  -0.18808  -0.17434
 Alpha virt. eigenvalues --   -0.06680  -0.04599  -0.02289  -0.00290  -0.00035
 Alpha virt. eigenvalues --    0.00524   0.00670   0.01340   0.01724   0.01836
 Alpha virt. eigenvalues --    0.02358   0.03049   0.03290   0.03353   0.03669
 Alpha virt. eigenvalues --    0.04432   0.04918   0.05165   0.05546   0.05668
 Alpha virt. eigenvalues --    0.05884   0.06580   0.06970   0.07498   0.07694
 Alpha virt. eigenvalues --    0.07930   0.08460   0.08550   0.09392   0.09709
 Alpha virt. eigenvalues --    0.10219   0.10421   0.10498   0.11640   0.12107
 Alpha virt. eigenvalues --    0.12286   0.12570   0.12595   0.13121   0.13172
 Alpha virt. eigenvalues --    0.13394   0.13748   0.14016   0.14564   0.15182
 Alpha virt. eigenvalues --    0.15587   0.15996   0.16261   0.16528   0.16545
 Alpha virt. eigenvalues --    0.16769   0.17448   0.17507   0.17694   0.17936
 Alpha virt. eigenvalues --    0.18065   0.18414   0.18480   0.18717   0.18977
 Alpha virt. eigenvalues --    0.19171   0.19589   0.19771   0.20046   0.20320
 Alpha virt. eigenvalues --    0.20487   0.21094   0.21095   0.21491   0.21671
 Alpha virt. eigenvalues --    0.21978   0.22076   0.22664   0.22721   0.22909
 Alpha virt. eigenvalues --    0.22947   0.23472   0.23722   0.23923   0.24317
 Alpha virt. eigenvalues --    0.24502   0.24687   0.24778   0.24858   0.25422
 Alpha virt. eigenvalues --    0.26212   0.26456   0.26563   0.26804   0.27045
 Alpha virt. eigenvalues --    0.27760   0.27990   0.28577   0.28845   0.28888
 Alpha virt. eigenvalues --    0.29223   0.29392   0.29447   0.29967   0.30525
 Alpha virt. eigenvalues --    0.30618   0.30949   0.31217   0.31721   0.32010
 Alpha virt. eigenvalues --    0.32246   0.32892   0.33159   0.33414   0.33831
 Alpha virt. eigenvalues --    0.34440   0.35108   0.36272   0.37305   0.37637
 Alpha virt. eigenvalues --    0.38251   0.38686   0.39781   0.40003   0.40616
 Alpha virt. eigenvalues --    0.41330   0.42735   0.43611   0.44402   0.44742
 Alpha virt. eigenvalues --    0.44927   0.46043   0.46931   0.47043   0.47512
 Alpha virt. eigenvalues --    0.47839   0.48579   0.50338   0.51541   0.52427
 Alpha virt. eigenvalues --    0.52692   0.53072   0.53231   0.53541   0.53868
 Alpha virt. eigenvalues --    0.54443   0.54707   0.55379   0.55472   0.55694
 Alpha virt. eigenvalues --    0.56553   0.56920   0.57459   0.57531   0.57729
 Alpha virt. eigenvalues --    0.58025   0.58342   0.59048   0.59087   0.59658
 Alpha virt. eigenvalues --    0.60183   0.60500   0.60957   0.60991   0.61610
 Alpha virt. eigenvalues --    0.62146   0.62627   0.63505   0.63900   0.63969
 Alpha virt. eigenvalues --    0.64498   0.64868   0.65413   0.65499   0.66332
 Alpha virt. eigenvalues --    0.66729   0.66881   0.67184   0.67727   0.68956
 Alpha virt. eigenvalues --    0.70017   0.70294   0.70424   0.71193   0.71279
 Alpha virt. eigenvalues --    0.71635   0.71902   0.71917   0.72215   0.72621
 Alpha virt. eigenvalues --    0.72982   0.74038   0.74052   0.74271   0.75462
 Alpha virt. eigenvalues --    0.75602   0.76184   0.76524   0.76956   0.77882
 Alpha virt. eigenvalues --    0.77900   0.80160   0.80572   0.82044   0.83293
 Alpha virt. eigenvalues --    0.83498   0.84626   0.85279   0.86163   0.86906
 Alpha virt. eigenvalues --    0.87895   0.88101   0.88949   0.89935   0.90654
 Alpha virt. eigenvalues --    0.91167   0.92106   0.92639   0.93249   0.93570
 Alpha virt. eigenvalues --    0.94291   0.94496   0.94936   0.95383   0.95780
 Alpha virt. eigenvalues --    0.96024   0.96480   0.96868   0.97467   0.98073
 Alpha virt. eigenvalues --    0.98720   0.98886   0.99435   1.00616   1.01471
 Alpha virt. eigenvalues --    1.01569   1.02070   1.02176   1.03348   1.03576
 Alpha virt. eigenvalues --    1.04359   1.04592   1.06342   1.06410   1.06904
 Alpha virt. eigenvalues --    1.06936   1.07593   1.08712   1.09190   1.10229
 Alpha virt. eigenvalues --    1.10776   1.11171   1.13440   1.13986   1.14011
 Alpha virt. eigenvalues --    1.15341   1.15585   1.15884   1.17357   1.17621
 Alpha virt. eigenvalues --    1.19247   1.21612   1.23449   1.26163   1.27346
 Alpha virt. eigenvalues --    1.30155   1.31889   1.32824   1.33430   1.33493
 Alpha virt. eigenvalues --    1.37188   1.38538   1.38640   1.40117   1.40980
 Alpha virt. eigenvalues --    1.42383   1.43643   1.44811   1.45794   1.46507
 Alpha virt. eigenvalues --    1.47565   1.47612   1.48794   1.48891   1.49203
 Alpha virt. eigenvalues --    1.50012   1.50339   1.50450   1.51460   1.52150
 Alpha virt. eigenvalues --    1.52665   1.54622   1.55907   1.56283   1.56416
 Alpha virt. eigenvalues --    1.56556   1.57459   1.58339   1.58487   1.60188
 Alpha virt. eigenvalues --    1.60785   1.61635   1.63467   1.64012   1.64560
 Alpha virt. eigenvalues --    1.65625   1.66183   1.66530   1.67747   1.68345
 Alpha virt. eigenvalues --    1.69181   1.69729   1.71606   1.72051   1.73177
 Alpha virt. eigenvalues --    1.73402   1.73924   1.74231   1.75530   1.75712
 Alpha virt. eigenvalues --    1.77284   1.78700   1.79514   1.79913   1.80944
 Alpha virt. eigenvalues --    1.82035   1.83029   1.84336   1.84605   1.84973
 Alpha virt. eigenvalues --    1.85945   1.86681   1.87470   1.87588   1.88804
 Alpha virt. eigenvalues --    1.89280   1.89827   1.90789   1.90879   1.91599
 Alpha virt. eigenvalues --    1.92101   1.93106   1.93677   1.94523   1.94817
 Alpha virt. eigenvalues --    1.95273   1.96709   1.97496   1.99277   1.99366
 Alpha virt. eigenvalues --    2.00401   2.00747   2.03650   2.03678   2.04078
 Alpha virt. eigenvalues --    2.04716   2.05586   2.05672   2.06846   2.07536
 Alpha virt. eigenvalues --    2.09295   2.10143   2.11305   2.12219   2.13153
 Alpha virt. eigenvalues --    2.14066   2.14605   2.14888   2.17012   2.18411
 Alpha virt. eigenvalues --    2.18557   2.21354   2.21833   2.22373   2.23370
 Alpha virt. eigenvalues --    2.24678   2.26418   2.27317   2.28364   2.30669
 Alpha virt. eigenvalues --    2.30816   2.32987   2.36094   2.36580   2.38208
 Alpha virt. eigenvalues --    2.40094   2.40538   2.41859   2.43716   2.44059
 Alpha virt. eigenvalues --    2.44948   2.45850   2.46390   2.49766   2.52322
 Alpha virt. eigenvalues --    2.52490   2.54881   2.55172   2.56413   2.57224
 Alpha virt. eigenvalues --    2.58101   2.60104   2.60740   2.60849   2.62786
 Alpha virt. eigenvalues --    2.64513   2.64649   2.66678   2.67253   2.69191
 Alpha virt. eigenvalues --    2.69943   2.70659   2.71105   2.71209   2.72398
 Alpha virt. eigenvalues --    2.72911   2.73667   2.73872   2.74763   2.76228
 Alpha virt. eigenvalues --    2.76282   2.76283   2.76691   2.77250   2.77481
 Alpha virt. eigenvalues --    2.79026   2.79345   2.79712   2.81787   2.81934
 Alpha virt. eigenvalues --    2.82390   2.83235   2.83943   2.85633   2.86066
 Alpha virt. eigenvalues --    2.86287   2.88200   2.88205   2.89216   2.89452
 Alpha virt. eigenvalues --    2.90989   2.91368   2.92018   2.93272   2.95211
 Alpha virt. eigenvalues --    2.97819   2.98894   3.01171   3.02303   3.02904
 Alpha virt. eigenvalues --    3.04793   3.06570   3.06835   3.09667   3.12246
 Alpha virt. eigenvalues --    3.13229   3.16663   3.19923   3.20480   3.22362
 Alpha virt. eigenvalues --    3.24119   3.25023   3.26274   3.29129   3.32744
 Alpha virt. eigenvalues --    3.34658   3.36495   3.37255   3.38974   3.39858
 Alpha virt. eigenvalues --    3.40483   3.41508   3.43823   3.45350   3.47663
 Alpha virt. eigenvalues --    3.48951   3.49507   3.50380   3.52735   3.55182
 Alpha virt. eigenvalues --    3.56454   3.58290   3.59443   3.61174   3.65700
 Alpha virt. eigenvalues --    3.67099   3.72104   3.74682   3.77288   3.81800
 Alpha virt. eigenvalues --    3.83930   3.88424   3.99335   4.03732   4.06660
 Alpha virt. eigenvalues --    4.07438   4.07668   4.11730   4.12056   4.14099
 Alpha virt. eigenvalues --    4.23860   4.28900   4.35302   4.39930   4.58892
 Alpha virt. eigenvalues --    4.76319   4.78503   4.81416   4.82005   4.82948
 Alpha virt. eigenvalues --    4.84132   4.88398  23.40730  23.60879  23.74651
 Alpha virt. eigenvalues --   23.80724  23.81658  23.86836  23.88553  23.89509
 Alpha virt. eigenvalues --   23.93011  23.94934  23.95406  23.96622  23.99689
 Alpha virt. eigenvalues --   24.00198  24.04232  24.05207  24.05717  24.06813
 Alpha virt. eigenvalues --   24.08970  24.11188  24.14896  24.16127  24.18664
 Alpha virt. eigenvalues --   24.19593  24.24052
  Beta  occ. eigenvalues --  -10.20270 -10.20103 -10.19788 -10.19652 -10.19520
  Beta  occ. eigenvalues --  -10.19429 -10.19221 -10.18904 -10.18896 -10.18715
  Beta  occ. eigenvalues --  -10.18676 -10.18652 -10.18566 -10.18504 -10.18308
  Beta  occ. eigenvalues --  -10.18295 -10.18220 -10.18203 -10.17954 -10.17930
  Beta  occ. eigenvalues --  -10.17849 -10.17706 -10.17678 -10.16929 -10.16510
  Beta  occ. eigenvalues --   -0.91180  -0.88231  -0.85407  -0.84049  -0.82854
  Beta  occ. eigenvalues --   -0.80013  -0.78808  -0.77622  -0.75244  -0.74679
  Beta  occ. eigenvalues --   -0.72997  -0.71079  -0.67578  -0.66178  -0.64198
  Beta  occ. eigenvalues --   -0.62705  -0.61660  -0.59099  -0.58079  -0.56455
  Beta  occ. eigenvalues --   -0.55683  -0.52118  -0.51950  -0.51116  -0.49785
  Beta  occ. eigenvalues --   -0.48043  -0.47293  -0.46754  -0.46217  -0.44798
  Beta  occ. eigenvalues --   -0.44447  -0.43711  -0.43220  -0.42191  -0.41406
  Beta  occ. eigenvalues --   -0.41381  -0.40911  -0.40174  -0.39677  -0.39235
  Beta  occ. eigenvalues --   -0.39043  -0.36634  -0.36286  -0.36057  -0.35241
  Beta  occ. eigenvalues --   -0.34459  -0.33669  -0.33317  -0.32788  -0.32641
  Beta  occ. eigenvalues --   -0.29652  -0.28528  -0.25390  -0.25316  -0.23015
  Beta  occ. eigenvalues --   -0.20807
  Beta virt. eigenvalues --   -0.12066  -0.09413  -0.05536  -0.03435  -0.01704
  Beta virt. eigenvalues --   -0.00220   0.00542   0.00686   0.01083   0.01748
  Beta virt. eigenvalues --    0.01849   0.02449   0.03106   0.03214   0.03311
  Beta virt. eigenvalues --    0.03386   0.03787   0.04842   0.04933   0.05201
  Beta virt. eigenvalues --    0.05598   0.05723   0.06241   0.06670   0.07454
  Beta virt. eigenvalues --    0.07526   0.07720   0.08093   0.08629   0.08664
  Beta virt. eigenvalues --    0.09754   0.09898   0.10260   0.10461   0.10700
  Beta virt. eigenvalues --    0.12143   0.12168   0.12577   0.12667   0.12804
  Beta virt. eigenvalues --    0.13241   0.13368   0.13488   0.13805   0.14231
  Beta virt. eigenvalues --    0.14659   0.15379   0.15663   0.16051   0.16304
  Beta virt. eigenvalues --    0.16644   0.16686   0.16857   0.17622   0.17683
  Beta virt. eigenvalues --    0.17862   0.17982   0.18488   0.18600   0.18602
  Beta virt. eigenvalues --    0.18904   0.19264   0.19324   0.19675   0.20108
  Beta virt. eigenvalues --    0.20120   0.20409   0.20563   0.21210   0.21617
  Beta virt. eigenvalues --    0.21755   0.21788   0.22060   0.22211   0.22779
  Beta virt. eigenvalues --    0.23055   0.23064   0.23235   0.23640   0.23795
  Beta virt. eigenvalues --    0.24227   0.24404   0.24744   0.24794   0.24935
  Beta virt. eigenvalues --    0.25010   0.25516   0.26304   0.26552   0.26632
  Beta virt. eigenvalues --    0.26984   0.27162   0.28053   0.28105   0.28713
  Beta virt. eigenvalues --    0.28942   0.29046   0.29388   0.29452   0.29522
  Beta virt. eigenvalues --    0.30188   0.30694   0.30757   0.31076   0.31369
  Beta virt. eigenvalues --    0.31875   0.32111   0.32310   0.32978   0.33209
  Beta virt. eigenvalues --    0.33499   0.34027   0.34513   0.35243   0.36407
  Beta virt. eigenvalues --    0.37454   0.37996   0.38448   0.38848   0.39910
  Beta virt. eigenvalues --    0.40148   0.40754   0.41478   0.42977   0.43742
  Beta virt. eigenvalues --    0.44548   0.44928   0.45134   0.46171   0.47134
  Beta virt. eigenvalues --    0.47654   0.48029   0.48068   0.48747   0.50616
  Beta virt. eigenvalues --    0.51755   0.52491   0.53053   0.53203   0.53705
  Beta virt. eigenvalues --    0.53757   0.54122   0.54728   0.55205   0.55574
  Beta virt. eigenvalues --    0.55932   0.56182   0.56734   0.57542   0.57675
  Beta virt. eigenvalues --    0.57690   0.58100   0.58474   0.58491   0.59366
  Beta virt. eigenvalues --    0.59809   0.59847   0.60377   0.60584   0.61087
  Beta virt. eigenvalues --    0.61184   0.62330   0.62678   0.62864   0.63760
  Beta virt. eigenvalues --    0.64101   0.64579   0.64592   0.64948   0.65531
  Beta virt. eigenvalues --    0.65848   0.66839   0.66898   0.67187   0.67814
  Beta virt. eigenvalues --    0.67952   0.69349   0.70366   0.70621   0.70698
  Beta virt. eigenvalues --    0.71440   0.71462   0.71988   0.72058   0.72368
  Beta virt. eigenvalues --    0.72544   0.72766   0.73190   0.74185   0.74306
  Beta virt. eigenvalues --    0.74412   0.75577   0.75696   0.76499   0.76675
  Beta virt. eigenvalues --    0.77223   0.78109   0.78302   0.80677   0.80750
  Beta virt. eigenvalues --    0.82096   0.83402   0.83946   0.84894   0.85456
  Beta virt. eigenvalues --    0.86478   0.87006   0.88048   0.88285   0.89163
  Beta virt. eigenvalues --    0.90178   0.90851   0.91479   0.92279   0.92820
  Beta virt. eigenvalues --    0.93507   0.93649   0.94801   0.94813   0.95088
  Beta virt. eigenvalues --    0.95851   0.96172   0.96202   0.96693   0.97342
  Beta virt. eigenvalues --    0.97698   0.98330   0.98955   0.99212   0.99856
  Beta virt. eigenvalues --    1.00871   1.01594   1.02017   1.02248   1.02732
  Beta virt. eigenvalues --    1.03746   1.03786   1.04859   1.05082   1.06556
  Beta virt. eigenvalues --    1.06645   1.07127   1.07708   1.08027   1.08883
  Beta virt. eigenvalues --    1.09571   1.10709   1.11162   1.11357   1.13784
  Beta virt. eigenvalues --    1.14204   1.14561   1.15756   1.15830   1.16152
  Beta virt. eigenvalues --    1.17571   1.17833   1.19452   1.21858   1.23709
  Beta virt. eigenvalues --    1.26514   1.27609   1.30452   1.32147   1.33040
  Beta virt. eigenvalues --    1.33731   1.34549   1.37414   1.38799   1.39937
  Beta virt. eigenvalues --    1.40291   1.41533   1.42587   1.43911   1.45083
  Beta virt. eigenvalues --    1.45968   1.47312   1.47702   1.47971   1.49040
  Beta virt. eigenvalues --    1.49274   1.49294   1.50174   1.50752   1.50896
  Beta virt. eigenvalues --    1.51695   1.52454   1.53236   1.54845   1.56149
  Beta virt. eigenvalues --    1.56498   1.56561   1.56846   1.57988   1.58604
  Beta virt. eigenvalues --    1.59024   1.60638   1.60865   1.62146   1.63753
  Beta virt. eigenvalues --    1.64252   1.64900   1.65773   1.66557   1.67007
  Beta virt. eigenvalues --    1.68467   1.68565   1.69375   1.69854   1.71934
  Beta virt. eigenvalues --    1.72184   1.73344   1.73605   1.74211   1.74431
  Beta virt. eigenvalues --    1.75711   1.75898   1.77742   1.79067   1.79620
  Beta virt. eigenvalues --    1.80630   1.81831   1.82245   1.83397   1.84600
  Beta virt. eigenvalues --    1.84951   1.85487   1.86214   1.87088   1.87923
  Beta virt. eigenvalues --    1.88161   1.89114   1.89547   1.90153   1.91158
  Beta virt. eigenvalues --    1.91448   1.91947   1.92519   1.93198   1.93885
  Beta virt. eigenvalues --    1.94877   1.94901   1.95466   1.97465   1.97660
  Beta virt. eigenvalues --    1.99476   1.99829   2.00560   2.00977   2.03831
  Beta virt. eigenvalues --    2.04368   2.04762   2.05780   2.05782   2.06296
  Beta virt. eigenvalues --    2.07343   2.07628   2.09458   2.10520   2.11446
  Beta virt. eigenvalues --    2.12380   2.13399   2.14181   2.15027   2.15240
  Beta virt. eigenvalues --    2.17219   2.18748   2.19009   2.21542   2.22166
  Beta virt. eigenvalues --    2.22539   2.23903   2.25269   2.27072   2.27602
  Beta virt. eigenvalues --    2.28503   2.31248   2.31252   2.33295   2.36469
  Beta virt. eigenvalues --    2.36739   2.38610   2.40358   2.40843   2.42026
  Beta virt. eigenvalues --    2.44164   2.44237   2.45120   2.46018   2.46768
  Beta virt. eigenvalues --    2.50035   2.52558   2.53459   2.55150   2.55769
  Beta virt. eigenvalues --    2.56621   2.57486   2.58205   2.60267   2.61062
  Beta virt. eigenvalues --    2.61700   2.63380   2.64723   2.65113   2.66823
  Beta virt. eigenvalues --    2.67840   2.69420   2.70432   2.70739   2.71135
  Beta virt. eigenvalues --    2.72039   2.72428   2.72996   2.73711   2.73972
  Beta virt. eigenvalues --    2.74848   2.76341   2.76361   2.76726   2.76874
  Beta virt. eigenvalues --    2.77572   2.78202   2.79116   2.79453   2.79780
  Beta virt. eigenvalues --    2.81849   2.82705   2.82996   2.83302   2.84066
  Beta virt. eigenvalues --    2.86150   2.86361   2.86954   2.88299   2.88864
  Beta virt. eigenvalues --    2.89546   2.90505   2.91517   2.91568   2.92143
  Beta virt. eigenvalues --    2.93390   2.96682   2.97980   2.99530   3.01737
  Beta virt. eigenvalues --    3.02549   3.04290   3.05676   3.07177   3.07232
  Beta virt. eigenvalues --    3.10112   3.12654   3.13644   3.16798   3.20008
  Beta virt. eigenvalues --    3.20623   3.22480   3.24265   3.25190   3.26404
  Beta virt. eigenvalues --    3.29264   3.32924   3.34762   3.36643   3.37387
  Beta virt. eigenvalues --    3.39040   3.39977   3.40562   3.41577   3.43982
  Beta virt. eigenvalues --    3.45492   3.47761   3.49147   3.49635   3.50504
  Beta virt. eigenvalues --    3.52811   3.55280   3.56528   3.58516   3.59556
  Beta virt. eigenvalues --    3.61305   3.65937   3.67407   3.72318   3.74892
  Beta virt. eigenvalues --    3.77886   3.82026   3.84139   3.88632   3.99747
  Beta virt. eigenvalues --    4.04040   4.06911   4.07616   4.08015   4.11812
  Beta virt. eigenvalues --    4.12373   4.14413   4.24079   4.29178   4.35848
  Beta virt. eigenvalues --    4.40213   4.59495   4.76829   4.78732   4.81710
  Beta virt. eigenvalues --    4.82399   4.83151   4.84479   4.88545  23.40842
  Beta virt. eigenvalues --   23.61007  23.74789  23.80919  23.81824  23.87133
  Beta virt. eigenvalues --   23.88891  23.89651  23.93160  23.94948  23.95469
  Beta virt. eigenvalues --   23.96660  23.99715  24.00214  24.04350  24.05560
  Beta virt. eigenvalues --   24.06210  24.06972  24.09060  24.11281  24.14978
  Beta virt. eigenvalues --   24.16154  24.18744  24.19711  24.24050
          Condensed to atoms (all electrons):
               1          2          3          4          5          6
     1  C    9.150932   1.325555   0.312345   0.082845  -0.575462  -0.489557
     2  C    1.325555   6.175355   0.508422   0.222704  -0.038284   0.152533
     3  C    0.312345   0.508422   6.615991   1.189050   0.154302   0.071347
     4  C    0.082845   0.222704   1.189050   8.766780  -1.015262   0.254270
     5  C   -0.575462  -0.038284   0.154302  -1.015262   8.246819   1.440968
     6  C   -0.489557   0.152533   0.071347   0.254270   1.440968   8.219863
     7  C    0.105436  -0.217814   0.014816  -0.156407  -0.412539  -0.448042
     8  C   -0.400980  -0.077317  -0.054501  -0.879794  -0.002893  -0.612708
     9  C   -0.674486  -0.263411  -0.823526  -0.643059   0.100771  -0.393551
    10  C   -0.598869  -0.162906   0.629868   1.166674  -0.031837  -0.726876
    11  C   -0.012925  -0.177047  -0.229566  -0.733834  -0.023753  -0.182132
    12  C   -0.070682   0.044044  -0.522895  -0.168624   0.030516  -0.007282
    13  C    0.042095   0.050697   0.031838   0.052918  -0.047864  -0.083470
    14  C   -0.144103   0.020064  -1.117529  -1.116005  -0.153761  -0.454683
    15  C    0.021285  -0.069894  -0.142594  -0.364619  -0.036334  -0.104368
    16  C    0.037821  -0.017632   0.223556   0.002422  -0.007590  -0.001636
    17  C   -0.001891  -0.011069  -0.049927  -0.026700  -0.000051  -0.003427
    18  C   -0.007404   0.022802  -0.200391  -0.008226   0.002016  -0.003692
    19  C   -1.970245  -1.571728  -0.414406  -0.329604  -0.704072   0.152514
    20  C    0.542311   0.595257  -0.089769  -0.153260  -0.223790  -0.038994
    21  C   -0.130120   0.099722   0.187654   0.077420   0.052032  -0.098963
    22  C   -0.504149   0.047828   0.018001  -0.474592  -0.545944  -0.360103
    23  C   -0.034298  -0.174673  -0.027843  -0.455034  -0.195083  -0.364295
    24  H   -0.016209   0.033826  -0.005014   0.002437  -0.005498  -0.001686
    25  H   -0.001838  -0.007255   0.000506   0.002274   0.007628   0.000438
    26  H   -0.068483   0.027762  -0.012017   0.001322   0.037705   0.017061
    27  H   -0.096772   0.005627  -0.004487   0.025000   0.369760  -0.029582
    28  H   -0.031843  -0.007111   0.005510  -0.087593  -0.034504   0.380267
    29  H    0.001911  -0.005349   0.007555  -0.044322   0.014018   0.027895
    30  H    0.001045   0.001758   0.014351   0.065040   0.000392   0.011306
    31  H    0.000033   0.000108   0.001504   0.004246   0.000013   0.000327
    32  H   -0.000006   0.000019  -0.000368   0.000409   0.000003   0.000028
    33  H   -0.000024  -0.000018  -0.000166  -0.000131  -0.000003  -0.000005
    34  H    0.000002   0.000020   0.000141   0.000093   0.000000   0.000003
    35  H   -0.000266  -0.000226  -0.001817  -0.002255  -0.000084  -0.000221
    36  C    0.014417  -0.136050   0.053869   0.184730   0.003076   0.015785
    37  C   -0.033144  -0.408481  -0.166670   0.292429  -0.035482  -0.023894
    38  H   -0.000292  -0.000230  -0.001780  -0.002254  -0.000090  -0.000220
    39  H    0.000330   0.002207   0.001520  -0.000422  -0.000017  -0.000017
               7          8          9         10         11         12
     1  C    0.105436  -0.400980  -0.674486  -0.598869  -0.012925  -0.070682
     2  C   -0.217814  -0.077317  -0.263411  -0.162906  -0.177047   0.044044
     3  C    0.014816  -0.054501  -0.823526   0.629868  -0.229566  -0.522895
     4  C   -0.156407  -0.879794  -0.643059   1.166674  -0.733834  -0.168624
     5  C   -0.412539  -0.002893   0.100771  -0.031837  -0.023753   0.030516
     6  C   -0.448042  -0.612708  -0.393551  -0.726876  -0.182132  -0.007282
     7  C    6.832138   0.161840   0.361849  -0.024916   0.260390   0.282316
     8  C    0.161840   6.762718   0.118659   0.111250   0.773917  -0.277559
     9  C    0.361849   0.118659  13.923177   1.253335  -1.225010   0.998705
    10  C   -0.024916   0.111250   1.253335   8.157285  -0.632559  -0.908232
    11  C    0.260390   0.773917  -1.225010  -0.632559   6.613089   0.102880
    12  C    0.282316  -0.277559   0.998705  -0.908232   0.102880  10.095432
    13  C   -0.539180   0.118917  -2.162888  -0.220262  -0.487747  -0.339890
    14  C   -0.253732   0.508405  -1.684957  -2.166309   0.791496  -0.022422
    15  C    0.080616   0.144239  -1.041171  -0.118042   1.534077  -2.194740
    16  C   -0.490524  -0.028301   0.396838   0.059561  -0.726099   1.249480
    17  C    0.084063  -0.288437  -0.359917  -0.077995   0.330064  -0.560088
    18  C    0.135327  -0.227207  -1.271179  -0.192148   0.431945  -1.083940
    19  C    0.407421  -0.091981   0.002126  -0.055660   0.006352  -0.001716
    20  C   -0.313184  -0.015031  -0.133444  -0.064148  -0.028972  -0.007966
    21  C   -0.319789   0.081754   0.100710  -0.024181   0.038968  -0.010998
    22  C    0.365424  -0.016748  -0.673256  -0.184303  -0.127552  -0.065338
    23  C   -0.577707   0.153956  -1.153680   0.111949   0.057265  -0.691632
    24  H   -0.012203   0.001309  -0.000828  -0.000046  -0.000132  -0.000032
    25  H    0.003171  -0.000219   0.000234   0.000326   0.000041  -0.000002
    26  H    0.001238  -0.000269  -0.000670  -0.000076   0.000009  -0.000006
    27  H    0.001631   0.000099   0.002934   0.001975   0.000034  -0.000008
    28  H   -0.010163   0.006995   0.035391   0.072990  -0.000005   0.000585
    29  H   -0.010911  -0.012589  -0.071958   0.337224  -0.006206   0.009342
    30  H   -0.013237  -0.015402  -0.086065   0.142710  -0.035489  -0.046560
    31  H   -0.001002  -0.010507   0.009979   0.014260  -0.008580  -0.110933
    32  H    0.004456  -0.012589   0.019811   0.000414   0.005697  -0.104158
    33  H    0.000549  -0.004414   0.000833   0.000409   0.006219   0.008153
    34  H    0.000009   0.003020   0.004184   0.000345  -0.010161   0.051371
[...]
 01267201,-0.00029777,-0.00014653,-0.00006863,0.00001215,-0.00001204,-0
 .00000273,0.00000897,-0.00000797,-0.00000129,-0.00000068,-0.00000579,-
 0.00000365,-0.00000347,-0.00000197,-0.00002455,-0.00000628,-0.00001976
 ,0.00000787,0.00000866,-0.00001397,-0.00000343,0.00000241,-0.00000864,
 0.00001003,0.00001356,-0.00001225,-0.00002516,-0.00008051,0.00010278,-
 0.00002334,-0.00008619,-0.00002872,0.00010620,0.06966909,-0.00013662,0
 .00014009,0.00000115,0.00003038,-0.00091695,-0.00017041,0.00016242,-0.
 00122987,-0.00103326,0.00016266,0.00016607,-0.00007598,-0.00000820,-0.
 00010785,0.00001007,0.00008823,-0.00003069,0.00006642,0.00323629,0.000
 10884,0.00066088,-0.00018402,0.00000649,0.00013681,-0.00007423,0.00011
 063,0.00000395,0.00004837,-0.00017198,-0.00003031,0.00018479,-0.000399
 92,0.00023733,0.00013875,-0.00001285,0.00001647,-0.00011274,-0.0000192
 9,-0.00002573,0.00003891,0.00004437,0.00001122,0.00007420,0.00142120,0
 .00041995,-0.00057266,-0.00019609,-0.00025095,-0.00015499,0.00027580,-
 0.00002725,0.00014055,0.00003639,0.00000052,0.00003488,-0.00012262,-0.
 00002506,-0.00005208,0.00024367,-0.00001667,0.00062154,0.00038344,0.00
 011317,-0.00162958,0.00091195,-0.00101988,-0.00373217,-0.02392840,0.02
 043598,0.00009862,0.00008726,0.00011390,0.00000061,0.00000751,0.000004
 82,0.00000856,0.00000722,0.00001200,0.00001186,0.00000462,0.00001168,0
 .00003658,-0.00002263,0.00003344,-0.00000338,-0.00000996,-0.00001451,-
 0.00001001,-0.00001073,0.00001128,-0.00001226,-0.00000637,-0.00000093,
 -0.00001634,-0.00000858,-0.00000094,0.00001481,0.00000622,0.00000779,-
 0.00001460,-0.00001435,0.00002677,0.03495294,0.12758549,0.00012086,-0.
 00000701,-0.00002241,-0.00019819,0.00046255,-0.00015665,-0.00019612,0.
 00001410,-0.00000472,0.00000046,-0.00008323,0.00010174,-0.00005557,0.0
 0002900,-0.00000255,0.00001068,-0.00005942,0.00000452,-0.00032104,-0.0
 0126963,-0.00104798,0.00021188,0.00001754,-0.00005776,-0.00005535,-0.0
 0004824,0.00006386,0.00002121,0.00003951,-0.00000991,-0.00011161,0.000
 31549,-0.00015492,-0.00002237,-0.00009016,0.00004611,-0.00003605,0.000
 02132,0.00000407,0.00004933,-0.00000102,-0.00000019,-0.00113463,-0.001
 41073,-0.00111174,0.00044667,0.00009698,-0.00010300,-0.00010542,-0.000
 23604,0.00008567,0.00000817,0.00016067,0.00001141,0.00000374,0.0000475
 5,0.00000545,-0.00001075,-0.00034145,0.00003632,-0.00018798,0.00033899
 ,-0.00006661,0.00089256,0.00028226,0.00106092,-0.00273834,0.00089135,0
 .00256026,-0.00027174,-0.00029421,-0.00014126,-0.00000636,0.00000226,0
 .00000103,0.00000296,-0.00002865,-0.00000582,-0.00000434,-0.00000197,0
 .00000237,-0.00000583,0.00000402,0.00000246,-0.00000158,0.00000297,-0.
 00001087,-0.00000198,0.00000616,0.00000115,0.00000598,0.00000107,0.000
 00116,0.00000185,0.00000466,-0.00000746,0.00002674,0.00000615,0.000009
 93,0.00000358,-0.00000357,-0.00000988,-0.05369102,-0.11375393,0.203481
 34,0.00032412,0.00133390,0.00000025,0.00071917,0.00078561,0.00000047,-
 0.00335306,0.00173118,0.00000028,-0.00226244,-0.00351090,0.00000032,-0
 .00064364,-0.00105875,-0.00000007,0.00085113,-0.00014516,-0.00000002,0
 .00389898,-0.00279667,0.00000071,-0.00332252,0.00308840,-0.00000115,-0
 .00365136,-0.00088591,0.00000026,0.00427117,-0.00037907,-0.00000033,0.
 01289263,-0.02132711,0.00000502,0.01267761,0.00253528,0.00000069,-0.00
 200930,0.00359934,-0.00000041,0.00472689,0.00092519,-0.00000035,-0.163
 67700,-0.07706319,-0.00001497,-0.07773174,-0.02542045,-0.00000843,0.00
 209310,0.01619667,-0.00000195,-0.00689643,-0.00440657,0.00000090,-0.00
 011549,-0.00085015,-0.00000006,-0.00082110,0.00043490,-0.00000010,0.00
 071246,0.00033171,0.00000018,0.00073374,-0.00010474,-0.00000223,-0.018
 02665,0.00572451,-0.00000618,-0.00009527,-0.00012106,0.00000004,0.0000
 2535,0.00002776,0.,0.00000336,-0.00004178,0.00000001,0.00000385,-0.000
 02082,0.,0.00001590,-0.00001604,-0.00000002,0.00003903,-0.00001926,0.0
 0000007,-0.00001887,-0.00003602,0.00000001,-0.00003051,0.00032529,-0.0
 0000008,0.00015485,-0.00012430,0.00000005,-0.00143856,-0.00376262,0.00
 000008,-0.00083239,-0.00053008,0.00000026,-0.01732695,-0.00735879,0.00
 215716,0.60945142,-0.00000193,0.00073084,0.00000006,0.00238292,0.00069
 455,-0.00000063,-0.00231452,0.00330653,-0.00000017,-0.00261231,-0.0039
 3026,0.00000035,-0.00048397,-0.00094020,-0.00000002,0.00069883,-0.0000
 6534,-0.00000002,0.00204434,0.00014660,-0.00000047,-0.00734085,0.00331
 340,-0.00000024,-0.00510755,-0.00103615,0.00000023,0.00484566,-0.00024
 356,-0.00000027,-0.02038885,-0.04787681,0.00000480,0.02047309,-0.00484
 822,0.00000163,-0.00369182,0.00353170,-0.00000030,0.00518922,0.0004527
 6,-0.00000030,-0.07597287,-0.20123016,0.00000628,-0.04130504,0.0111144
 4,-0.00000772,0.00969584,0.01080693,-0.00000047,-0.00951127,-0.0037053
 7,0.00000067,-0.00001618,-0.00073895,-0.00000009,-0.00068448,0.0008734
 9,0.00000017,0.00105446,0.00002736,0.00000005,-0.00025160,-0.00549881,
 -0.00000180,0.03722966,0.00843970,0.00001420,0.00025530,0.00039891,0.,
 0.00006177,0.00000795,0.00000001,-0.00001063,-0.00000399,-0.00000002,-
 0.00000133,-0.00006758,0.00000005,-0.00003089,0.00001221,-0.00000001,0
 .00003104,0.00000543,0.00000008,0.00008287,-0.00002860,-0.00000003,0.0
 0001160,-0.00039878,0.00000003,-0.00002305,0.00009170,-0.00000008,0.00
 329969,-0.00027828,-0.00000018,0.00080423,0.00072202,0.00000009,-0.021
 45083,-0.00348755,-0.00093153,0.02108654,0.60138042,-0.00000009,0.0000
 0011,-0.00013936,0.00000135,-0.00000004,0.00051595,0.00000040,-0.00000
 044,-0.00018817,-0.00000105,-0.00000040,0.00005912,-0.00000044,-0.0000
 0019,-0.00008708,0.00000061,-0.00000025,0.00002422,-0.00000162,0.00000
 022,-0.00098171,0.00000397,-0.00000134,0.00017388,-0.00000145,0.000001
 65,-0.00027392,0.00000166,-0.00000060,0.00002616,0.00000144,0.00001103
 ,0.00222456,-0.00000047,-0.00000051,0.00317926,-0.00000074,0.00000039,
 0.00017064,0.00000064,0.00000015,-0.00000752,-0.00003237,-0.00000892,-
 0.04244095,0.00000526,-0.00000482,0.00753458,-0.00000553,-0.00000545,0
 .00341034,0.00000064,0.00000520,-0.00102260,0.00000014,-0.00000014,0.0
 0008467,-0.00000011,-0.00000021,-0.00011607,-0.00000022,0.00000003,0.0
 0004710,0.00000016,-0.00000289,0.00118918,0.00000908,0.00000493,-0.000
 86894,-0.00000035,-0.00000012,-0.00014314,0.00000004,-0.00000001,-0.00
 001490,0.00000001,-0.00000002,0.00000702,0.,-0.00000008,0.00000713,0.,
 0.00000001,0.00001295,0.00000002,0.,-0.00001300,-0.00000006,0.00000003
 ,0.00001416,0.,0.00000004,0.00002794,-0.00000005,-0.00000011,-0.000423
 35,-0.00000012,-0.00000097,-0.00216860,-0.00000037,-0.00000037,0.00027
 219,0.02248606,0.00254625,0.00352055,0.00013598,-0.00003641,0.10265983
 ,0.00073141,0.00150844,-0.00000002,-0.00629301,-0.00172523,0.00000004,
 -0.00087418,-0.00351795,-0.00000015,0.00098318,0.00022637,0.00000015,-
 0.00030305,0.00010293,-0.00000014,-0.00026419,-0.00006682,0.00000009,0
 .01172241,-0.00698146,-0.00000540,0.00058391,0.00046192,0.00000018,0.0
 0124062,-0.00097503,0.00000022,-0.00104355,0.00012373,0.,0.00123953,0.
 00130216,0.00000018,-0.00257270,0.00056266,0.,0.00060908,-0.00068042,0
 .00000001,-0.00083888,0.00006462,0.00000012,-0.01176042,-0.00111222,-0
 .00000475,0.00101275,-0.00196730,-0.00000125,0.00025300,0.00095162,0.0
 0000018,0.00166567,-0.00087498,0.00000012,-0.00004615,-0.00075828,0.00
 000003,-0.00069460,0.00113187,-0.00000010,0.00319955,0.00072777,0.0000
 0010,-0.01498264,0.02900616,0.00001026,-0.14038751,0.07419011,0.000029
 07,0.00011442,-0.00033309,0.00000002,-0.00008111,-0.00000777,0.0000000
 2,-0.00003368,-0.00001101,0.00000003,-0.00000081,0.00018754,-0.0000000
 7,0.00011442,-0.00004226,0.00000005,-0.00002543,0.00002211,-0.00000007
 ,-0.00000826,0.00000984,0.,-0.00001339,0.00003860,-0.00000001,0.000019
 78,-0.00003838,-0.00000008,0.00022214,-0.00012559,-0.00000018,-0.00000
 695,-0.00004329,0.00000013,-0.05742613,-0.02953400,0.04839567,-0.23189
 569,-0.00512471,-0.00006194,0.51884942,0.00198506,0.00101766,-0.000000
 31,-0.00464527,0.00197969,0.00000107,-0.00288292,-0.00272083,-0.000000
 83,0.00118381,0.00058480,-0.00000015,-0.00007736,0.00004757,-0.0000001
 1,-0.00025350,0.00003326,0.00000019,0.01716833,-0.02016298,-0.00000841
 ,-0.00095640,0.00273222,0.00000008,0.00348984,-0.00247491,0.00000014,-
 0.00259727,0.00097930,0.00000011,0.00193091,0.00092148,-0.00000030,-0.
 00427390,0.00145535,0.00000012,0.00141083,-0.00139739,0.00000017,-0.00
 203616,0.00004222,0.00000008,-0.02079646,0.00699560,-0.00001027,-0.001
 27334,-0.00412084,0.00000021,0.00048048,0.00414648,-0.00000039,0.00304
 910,-0.00305629,0.00000034,-0.00105199,-0.00053317,-0.00000003,0.00010
 306,-0.00044310,-0.00000027,-0.00231023,-0.00027301,0.00000029,0.00817
 915,0.00501559,0.00000253,0.06453654,-0.19743938,-0.00003584,-0.000169
 31,-0.00013401,-0.00000040,-0.00014135,0.00003231,-0.00000002,-0.00001
 658,-0.00000048,0.00000006,-0.00001451,0.00013685,0.,0.00007385,-0.000
 01296,0.00000008,-0.00004913,0.00004393,-0.00000009,0.00005268,0.00004
 309,0.,-0.00000167,0.00002827,0.00000003,0.00004674,-0.00001101,-0.000
 00005,-0.00060339,0.00091457,0.00000010,-0.00024008,-0.00014438,0.0000
 0008,-0.02977452,-0.10939333,0.10289721,-0.00483643,-0.09212494,0.0000
 0580,-0.02466761,0.51407673,0.00000164,0.00000013,0.00079023,-0.000002
 68,0.00000011,0.00231881,0.00000045,0.00000082,0.00413150,0.00000091,0
 .00000123,0.00043365,0.00000043,0.00000048,-0.00009973,-0.00000072,0.0
 0000030,-0.00031467,0.00000179,-0.00000182,0.00571074,-0.00000315,0.00
 000192,-0.00159196,0.00000442,-0.00000350,-0.00009508,-0.00000383,0.00
 000094,-0.00003659,0.00000295,-0.00000365,-0.00155074,-0.00000524,0.00
 000225,-0.00015555,0.00000208,-0.00000200,0.00002132,-0.00000280,0.000
 00013,-0.00005003,0.00000903,0.00000611,0.00297415,-0.00000555,0.00000
 020,0.00567646,0.00000379,0.00000643,-0.00004439,0.00000368,-0.0000058
 8,-0.00000533,-0.00000095,-0.00000110,-0.00000961,-0.00000042,0.000001
 12,-0.00027632,-0.00000007,-0.00000068,-0.00101298,0.00000230,-0.00000
 039,0.00087111,0.00001960,-0.00002545,-0.05670786,0.00000078,0.0000004
 2,0.00067093,-0.00000010,0.00000003,0.00002005,0.,0.00000006,0.0000443
 4,0.00000003,0.00000007,-0.00012359,-0.00000003,-0.00000001,-0.0001624
 2,-0.00000005,0.00000008,0.00013082,0.00000007,0.00000005,-0.00002635,
 0.,0.00000006,-0.00001503,0.00000009,-0.00000002,0.00011676,-0.0000001
 5,0.00000004,-0.00005251,0.00000016,0.00000013,-0.00042161,0.05017041,
 0.10533720,-0.18110183,-0.00005185,0.00000079,-0.05162779,-0.00002537,
 -0.00005083,0.45056405,-0.00062265,-0.00064001,0.00001150,0.00036033,-
 0.00021742,-0.00005860,0.00012237,0.00026848,-0.00040416,0.00075691,0.
 00042810,-0.00005669,0.00030516,0.00036329,-0.00000489,-0.00044886,-0.
 00002257,0.00003946,-0.00063234,0.00082440,0.00016895,-0.00071729,0.00
 008829,-0.00020049,0.00028822,-0.00014776,0.00000555,-0.00069164,0.000
 09493,-0.00000959,0.00026299,-0.00053701,-0.00005453,-0.00013064,0.000
 22910,0.00004537,0.00022023,-0.00011658,-0.00000250,-0.00024066,-0.000
 15462,0.00001170,-0.00096300,0.00346529,-0.00107324,-0.00127632,-0.000
 76738,0.00118425,0.00029439,0.00077663,-0.00007481,-0.00014895,-0.0007
 0945,0.00002169,0.00032118,0.00050661,0.00002380,0.00018871,-0.0002291
 9,-0.00002965,0.00008274,0.00028415,-0.00002453,-0.00091178,0.00018441
 ,-0.00029134,0.00581089,0.00851968,0.01267978,-0.00029636,-0.00014638,
 0.00006850,0.00001211,-0.00001205,0.00000273,0.00000897,-0.00000795,0.
 00000127,-0.00000069,-0.00000577,0.00000367,-0.00000345,-0.00000197,0.
 00002455,-0.00000630,-0.00001977,-0.00000786,0.00000866,-0.00001398,0.
 00000342,0.00000242,-0.00000861,-0.00001002,0.00001360,-0.00001225,0.0
 0002515,-0.00008055,0.00010268,0.00002325,-0.00008608,-0.00002861,-0.0
 0010621,0.00262613,0.00346600,0.00620075,-0.01732265,-0.02142872,-0.02
 251309,-0.05734441,-0.02965955,-0.05011840,0.06958560,-0.00013633,0.00
 014003,-0.00000097,0.00003024,-0.00091784,0.00017072,0.00016434,-0.001
 22931,0.00103352,0.00016238,0.00016653,0.00007583,-0.00000819,-0.00010
 782,-0.00001005,0.00008833,-0.00003063,-0.00006645,0.00323257,0.000111
 35,-0.00065907,-0.00018498,0.00000605,-0.00013689,-0.00007386,0.000110
 58,-0.00000407,0.00004805,-0.00017216,0.00003032,0.00018480,-0.0004002
 4,-0.00023691,0.00013806,-0.00001287,-0.00001652,-0.00011270,-0.000019
 48,0.00002569,0.00003865,0.00004450,-0.00001117,0.00007467,0.00141865,
 -0.00041758,-0.00057274,-0.00019581,0.00025120,-0.00015474,0.00027625,
 0.00002710,0.00014118,0.00003594,-0.00000050,0.00003489,-0.00012303,0.
 00002504,-0.00005251,0.00024351,0.00001659,0.00062172,0.00038424,-0.00
 011323,-0.00162978,0.00091085,0.00101842,-0.00371328,-0.02391221,-0.02
 046158,0.00009835,0.00008691,-0.00011338,0.00000059,0.00000753,-0.0000
 0483,0.00000857,0.00000717,-0.00001197,0.00001187,0.00000461,-0.000011
 72,0.00003654,-0.00002262,-0.00003346,-0.00000338,-0.00000993,0.000014
 53,-0.00001000,-0.00001071,-0.00001128,-0.00001226,-0.00000636,0.00000
 092,-0.00001633,-0.00000859,0.00000095,0.00001489,0.00000620,-0.000007
 88,-0.00001456,-0.00001432,-0.00002678,0.00346444,0.00801488,0.0131055
 3,-0.00736289,-0.00348300,-0.00255701,-0.02941448,-0.10916133,-0.10526
 524,0.03482420,0.12733699,-0.00012176,0.00000664,-0.00002231,0.0001985
 7,-0.00046402,-0.00015655,0.00019790,-0.00001641,-0.00000442,0.0000006
 2,0.00008438,0.00010190,0.00005580,-0.00002895,-0.00000256,-0.00001080
 ,0.00005933,0.00000449,0.00032419,0.00127365,-0.00104875,-0.00021446,-
 0.00001821,-0.00005820,0.00005450,0.00004909,0.00006396,-0.00002135,-0
 .00004008,-0.00000990,0.00011234,-0.00031841,-0.00015537,0.00002378,0.
 00009004,0.00004614,0.00003565,-0.00002089,0.00000410,-0.00004879,0.00
 000093,-0.00000017,0.00113784,0.00141627,-0.00111334,-0.00045028,-0.00
 009737,-0.00010253,0.00010576,0.00023737,0.00008573,-0.00000900,-0.000
 16118,0.00001148,-0.00000335,-0.00004700,0.00000546,0.00001111,0.00034
 093,0.00003662,0.00018812,-0.00033815,-0.00006661,-0.00089419,-0.00028
 202,0.00106109,0.00273918,-0.00091994,0.00254920,0.00027116,0.00029405
 ,-0.00014161,0.00000638,-0.00000225,0.00000100,-0.00000293,0.00002864,
 -0.00000585,0.00000435,0.00000196,0.00000235,0.00000587,-0.00000405,0.
 00000244,0.00000158,-0.00000302,-0.00001089,0.00000197,-0.00000620,0.0
 0000114,-0.00000599,-0.00000109,0.00000116,-0.00000186,-0.00000467,-0.
 00000747,-0.00002676,-0.00000608,0.00000990,-0.00000365,0.00000355,-0.
 00000995,-0.00617888,-0.01306813,-0.02771103,-0.00218890,0.00090891,0.
 00350613,-0.04833219,-0.10281438,-0.18134029,0.05363454,0.11368004,0.2
 0374733,-0.00003352,0.00008371,0.00000005,-0.00067224,-0.00004567,0.00
 000021,0.00001929,0.00014743,0.,0.00009940,0.00000249,0.,-0.00000470,0
 .00002403,-0.00000003,-0.00006803,0.00002155,0.00000002,0.00023374,-0.
 00021150,0.00000004,-0.00058280,0.00017466,-0.00000007,-0.00000749,0.0
 0001284,0.00000009,-0.00001391,0.00002903,0.,-0.00258008,-0.00200829,-
 0.00000107,0.00046516,-0.00085143,0.00000008,-0.00026608,0.00000211,0.
 00000008,0.00005427,-0.00001878,0.,0.00712707,-0.01786843,0.00000232,-
 0.00297159,-0.00568291,0.00000089,0.00026775,0.00023517,-0.00000005,-0
 .00017561,-0.00028713,0.00000004,0.00002175,0.00007942,0.00000002,0.00
 000488,-0.00007079,-0.00000007,0.00004716,0.00017160,0.00000008,-0.000
 21361,0.00163863,0.00000048,-0.00526330,-0.00385909,-0.00000422,0.0000
 0086,-0.00005380,-0.00000001,-0.00004065,-0.00000130,0.,-0.00001500,0.
 00000320,0.,-0.00001250,0.00002820,-0.00000002,-0.00000204,0.00001123,
 0.,0.00000881,0.00000250,0.,0.00001075,-0.00000015,-0.00000001,0.00002
 758,-0.00009224,0.,-0.00000645,0.00004123,0.,-0.00183416,-0.00077494,-
 0.00000024,0.00000155,0.00002171,-0.00000006,0.00065315,0.00005472,0.0
 0059602,-0.10212311,0.10850636,-0.00002740,-0.01566458,0.02963855,-0.0
 0000326,0.00065300,0.00005367,-0.00059608,0.12285527,-0.00001163,0.000
 01154,-0.00000003,0.00007907,0.00002434,0.,-0.00005721,0.00010159,0.00
 000004,-0.00002053,-0.00004103,0.00000002,0.00001307,-0.00000088,0.,-0
 .00001156,0.00001398,-0.00000002,-0.00009953,0.00014824,-0.00000002,-0
 .00029373,0.00019058,0.00000005,0.00009708,-0.00005913,-0.00000004,-0.
 00000620,-0.00004109,0.,-0.00379389,0.00004909,0.00000056,0.00097349,-
 0.00125066,0.00000010,-0.00046093,-0.00003650,-0.00000003,0.00003797,0
 .00001693,0.,0.00942949,-0.02460775,0.00000381,0.00329876,-0.00073974,
 -0.00000003,-0.00068572,0.00081127,-0.00000012,0.00012680,0.00033244,-
 0.00000007,0.00000879,-0.00000216,-0.00000001,0.00001416,0.00001712,0.
 ,0.00002766,-0.00003170,-0.00000006,-0.00018396,0.00005073,0.00000034,
 -0.00050153,0.00101338,-0.00000032,-0.00001264,0.00000132,0.00000002,0
 .00001222,0.00000253,0.,0.00000753,-0.00000160,0.,0.00000706,-0.000002
 48,0.,0.00000147,-0.00000765,0.,0.00001429,-0.00001881,0.,0.00001053,-
 0.00002119,0.,-0.00000822,-0.00014899,0.00000002,-0.00006690,0.0000893
 9,-0.00000002,-0.00105988,0.00160319,-0.00000016,-0.00008546,-0.000082
 37,0.00000004,0.00046035,0.00052787,-0.00018653,0.10405251,-0.27607038
 ,0.00004545,-0.00261657,0.00237737,-0.00000052,0.00046138,0.00052547,0
 .00018672,-0.10915758,0.29525576,0.00000004,0.00000019,-0.00006289,-0.
 00000026,0.00000002,-0.00011217,-0.00000005,0.00000008,0.00003525,-0.0
 0000022,-0.00000027,-0.00005066,-0.00000009,-0.00000014,-0.00000056,0.
 00000012,0.00000003,0.00000908,-0.00000021,-0.00000023,-0.00001070,0.0
 0000027,-0.00000010,-0.00006107,-0.00000047,0.00000049,-0.00019948,0.0
 0000057,-0.00000004,0.00000045,-0.00000094,0.00000082,0.00538502,0.000
 00009,-0.00000036,0.00029930,-0.00000022,0.00000024,-0.00041126,0.0000
 0032,-0.00000001,0.00006559,-0.00000122,-0.00000084,0.00383012,0.00000
 089,-0.00000079,-0.00363116,-0.00000028,-0.00000094,0.00029571,-0.0000
 0043,0.00000047,0.00018457,0.00000002,0.00000002,0.00000718,-0.0000000
 1,-0.00000009,-0.00003069,-0.00000007,0.00000004,-0.00003485,0.0000003
 9,0.00000088,0.00031089,-0.00000139,-0.00000354,0.00175182,0.,-0.00000
 002,0.00003197,-0.00000001,0.,0.00001438,0.,0.,0.00000350,0.,0.0000000
 1,0.00000652,0.,0.,0.00000201,0.00000001,0.,-0.00000039,0.,0.,0.000050
 51,0.,0.,-0.00002793,0.,0.,-0.00005337,-0.00000011,-0.00000014,0.00016
 843,0.,0.00000003,0.00010753,-0.00085906,-0.00070508,0.00072625,-0.000
 02564,0.00004237,-0.02815045,-0.00000495,0.00001398,0.00234733,0.00086
 073,0.00070215,0.00072618,0.00003219,-0.00004923,0.01647802\\-0.000113
 43,0.00002677,-0.00000021,0.00005208,0.00002539,0.00000334,-0.00000325
 ,-0.00005328,0.00000286,0.00003619,0.00011886,-0.00000014,0.00007602,0
 .00006817,-0.00000120,-0.00009187,-0.00005376,-0.00000114,0.00003170,0
 .00002093,0.00000046,0.00001702,-0.00004943,-0.00000073,-0.00004397,0.
 00012659,-0.00000038,-0.00001404,-0.00008381,-0.00000051,-0.00005978,0
 .00001244,0.00000016,0.00009841,0.00006085,0.00000013,-0.00006535,0.00
 003969,-0.00000008,0.00007237,-0.00003110,-0.00000004,0.00000008,-0.00
 007707,-0.00000031,0.00004583,0.00001646,-0.00000011,0.00001136,0.0000
 1955,-0.00000003,0.00001169,-0.00005061,-0.00000007,0.00001055,-0.0000
 6507,-0.00000112,-0.00000552,-0.00000050,0.00000004,-0.00006798,-0.000
 00797,-0.00000104,0.00003696,-0.00006358,0.00000142,-0.00002310,0.0000
 0129,-0.00000281,0.00002444,-0.00001319,-0.00000002,-0.00000924,-0.000
 01457,0.00000009,-0.00001428,0.00002222,0.00000016,-0.00002997,-0.0000
 1665,0.00000033,0.00002227,0.00001932,0.00000022,0.00000150,0.00001715
 ,0.00000006,-0.00002251,0.00001462,0.00000012,0.00002496,-0.00000874,0
 .00000019,0.00000514,0.00002066,-0.00000004,-0.00000004,-0.00000553,0.
 ,0.00001423,-0.00000525,-0.00000005,-0.00001205,-0.00000854,-0.0000005
 5,-0.00006365,-0.00000559,0.00000042,0.00007760,-0.00000172,0.00000015
 ,-0.00001242,-0.00000849,0.00000022,-0.00001791,-0.00000654,0.00000021
 \\\@


 THE MORE POWERFUL THE METHOD, THE MORE CATASTROPHIC THE ERRORS.
     -- M.D. KAMEN
 Job cpu time:       1 days 20 hours  8 minutes  0.6 seconds.
 File lengths (MBytes):  RWF=   5008 Int=      0 D2E=      0 Chk=     41 Scr=      1
 Normal termination of Gaussian 09 at Sun Feb  2 19:20:36 2020.
