 Entering Gaussian System, Link 0=/share/apps/gaussian16/g16/g16
 Initial command:
 /share/apps/gaussian16/g16/l1.exe "/home/amen01//scratch/587/Gau-36989.inp" -scrdir="/home/amen01//scratch/587/"
 Entering Link 1 = /share/apps/gaussian16/g16/l1.exe PID=     36990.
  
 Copyright (c) 1988-2017, Gaussian, Inc.  All Rights Reserved.
  
 This is part of the Gaussian(R) 16 program.  It is based on
 the Gaussian(R) 09 system (copyright 2009, Gaussian, Inc.),
 the Gaussian(R) 03 system (copyright 2003, Gaussian, Inc.),
 the Gaussian(R) 98 system (copyright 1998, Gaussian, Inc.),
 the Gaussian(R) 94 system (copyright 1995, Gaussian, Inc.),
 the Gaussian 92(TM) system (copyright 1992, Gaussian, Inc.),
 the Gaussian 90(TM) system (copyright 1990, Gaussian, Inc.),
 the Gaussian 88(TM) system (copyright 1988, Gaussian, Inc.),
 the Gaussian 86(TM) system (copyright 1986, Carnegie Mellon
 University), and the Gaussian 82(TM) system (copyright 1983,
 Carnegie Mellon University). Gaussian is a federally registered
 trademark of Gaussian, Inc.
  
 This software contains proprietary and confidential information,
 including trade secrets, belonging to Gaussian, Inc.
  
 This software is provided under written license and may be
 used, copied, transmitted, or stored only in accord with that
 written license.
  
 The following legend is applicable only to US Government
 contracts under FAR:
  
                    RESTRICTED RIGHTS LEGEND
  
 Use, reproduction and disclosure by the US Government is
 subject to restrictions as set forth in subparagraphs (a)
 and (c) of the Commercial Computer Software - Restricted
 Rights clause in FAR 52.227-19.
  
 Gaussian, Inc.
 340 Quinnipiac St., Bldg. 40, Wallingford CT 06492
  
  
 ---------------------------------------------------------------
 Warning -- This program may not be used in any manner that
 competes with the business of Gaussian, Inc. or will provide
 assistance to any competitor of Gaussian, Inc.  The licensee
 of this program is prohibited from giving any competitor of
 Gaussian, Inc. access to this program.  By using this program,
 the user acknowledges that Gaussian, Inc. is engaged in the
 business of creating and licensing software in the field of
 computational chemistry and represents and warrants to the
 licensee that it is not a competitor of Gaussian, Inc. and that
 it will not use this program in any manner prohibited above.
 ---------------------------------------------------------------
  

 Cite this work as:
 Gaussian 16, Revision B.01,
 M. J. Frisch, G. W. Trucks, H. B. Schlegel, G. E. Scuseria, 
 M. A. Robb, J. R. Cheeseman, G. Scalmani, V. Barone, 
 G. A. Petersson, H. Nakatsuji, X. Li, M. Caricato, A. V. Marenich, 
 J. Bloino, B. G. Janesko, R. Gomperts, B. Mennucci, H. P. Hratchian, 
 J. V. Ortiz, A. F. Izmaylov, J. L. Sonnenberg, D. Williams-Young, 
 F. Ding, F. Lipparini, F. Egidi, J. Goings, B. Peng, A. Petrone, 
 T. Henderson, D. Ranasinghe, V. G. Zakrzewski, J. Gao, N. Rega, 
 G. Zheng, W. Liang, M. Hada, M. Ehara, K. Toyota, R. Fukuda, 
 J. Hasegawa, M. Ishida, T. Nakajima, Y. Honda, O. Kitao, H. Nakai, 
 T. Vreven, K. Throssell, J. A. Montgomery, Jr., J. E. Peralta, 
 F. Ogliaro, M. J. Bearpark, J. J. Heyd, E. N. Brothers, K. N. Kudin, 
 V. N. Staroverov, T. A. Keith, R. Kobayashi, J. Normand, 
 K. Raghavachari, A. P. Rendell, J. C. Burant, S. S. Iyengar, 
 J. Tomasi, M. Cossi, J. M. Millam, M. Klene, C. Adamo, R. Cammi, 
 J. W. Ochterski, R. L. Martin, K. Morokuma, O. Farkas, 
 J. B. Foresman, and D. J. Fox, Gaussian, Inc., Wallingford CT, 2016.
 
 ******************************************
 Gaussian 16:  ES64L-G16RevB.01 20-Dec-2017
                21-Jun-2019 
 ******************************************
 %nprocshared=20
 Will use up to   20 processors via shared memory.
 %mem=100GB
 %chk=7-HACAsite2-4bnew.chk
 -------------------------------------------
 # opt freq b3lyp/6-311+g(d,p) int=grid=fine
 -------------------------------------------
 1/18=20,19=15,26=3,38=1/1,3;
 2/9=110,12=2,17=6,18=5,40=1/2;
 3/5=4,6=6,7=111,11=2,25=1,30=1,71=1,74=-5,75=-4/1,2,3;
 4//1;
 5/5=2,38=5/2;
 6/7=2,8=2,9=2,10=2,28=1/1;
 7//1,2,3,16;
 1/18=20,19=15,26=3/3(2);
 2/9=110/2;
 99//99;
 2/9=110/2;
 3/5=4,6=6,7=111,11=2,25=1,30=1,71=1,74=-5,75=-4/1,2,3;
 4/5=5,16=3,69=1/1;
 5/5=2,38=5/2;
 7//1,2,3,16;
 1/18=20,19=15,26=3/3(-5);
 2/9=110/2;
 6/7=2,8=2,9=2,10=2,19=2,28=1/1;
 99/9=1/99;
 -----------------
 7-HACAsite2-4bnew
 -----------------
 Symbolic Z-matrix:
 Charge =  0 Multiplicity = 3
 C                    -3.77912  -0.113     0.10824 
 C                    -2.45695   0.23742   0.00173 
 C                    -1.41223  -0.65605   0.06788 
 C                    -1.58229  -2.00567   0.21232 
 C                    -4.01279  -1.50194   0.29784 
 C                    -2.93339  -2.43328   0.34063 
 C                    -0.19957   0.00119  -0.07357 
 C                     1.00525  -0.7023   -0.01196 
 C                     0.86116  -2.13399   0.02438 
 C                    -0.40267  -2.76691   0.16709 
 C                     2.27515  -0.04311  -0.03813 
 C                     3.3976   -0.89043  -0.24807 
 C                     3.25222  -2.28707  -0.28397 
 C                     2.01294  -2.90145  -0.10577 
 C                     2.54742   1.35431   0.17625 
 C                     3.85601   1.8531    0.02776 
 C                     4.91281   1.01028  -0.28361 
 C                     4.68533  -0.35434  -0.39418 
 C                    -4.6989    0.94707  -0.00182 
 C                    -4.23839   2.26442  -0.2331 
 C                    -2.86742   2.57774  -0.36363 
 C                    -1.97962   1.51639  -0.22961 
 C                    -0.46836   1.45995  -0.36105 
 H                    -2.52444   3.58645  -0.56209 
 H                    -4.96937   3.06624  -0.32604 
 H                    -5.76556   0.75618   0.07634 
 H                    -5.03246  -1.86832   0.39153 
 H                    -3.15331  -3.4917    0.46077 
 H                    -0.46914  -3.8506    0.22326 
 H                     1.96137  -3.98775  -0.10551 
 H                     4.12413  -2.92525  -0.42061 
 H                     5.53637  -1.00627  -0.58339 
 H                     4.06416   2.91068   0.17982 
 H                     5.91765   1.40874  -0.39257 
 H                    -0.22505   1.67339  -1.41044 
 C                     1.59126   2.32739   0.75002 
 C                     0.26867   2.37961   0.54468 
 H                    -0.29985   3.15502   1.05074 
 H                     2.0271    3.06647   1.42083 
 

 GradGradGradGradGradGradGradGradGradGradGradGradGradGradGradGradGradGrad
 Berny optimization.
 Initialization pass.
                           ----------------------------
                           !    Initial Parameters    !
                           ! (Angstroms and Degrees)  !
 --------------------------                            --------------------------
 ! Name  Definition              Value          Derivative Info.                !
 --------------------------------------------------------------------------------
 ! R1    R(1,2)                  1.372          estimate D2E/DX2                !
 ! R2    R(1,5)                  1.4212         estimate D2E/DX2                !
 ! R3    R(1,19)                 1.4078         estimate D2E/DX2                !
 ! R4    R(2,3)                  1.3763         estimate D2E/DX2                !
 ! R5    R(2,22)                 1.3846         estimate D2E/DX2                !
 ! R6    R(3,4)                  1.3679         estimate D2E/DX2                !
 ! R7    R(3,7)                  1.3865         estimate D2E/DX2                !
 ! R8    R(4,6)                  1.4229         estimate D2E/DX2                !
 ! R9    R(4,10)                 1.4046         estimate D2E/DX2                !
 ! R10   R(5,6)                  1.4263         estimate D2E/DX2                !
 ! R11   R(5,27)                 1.0875         estimate D2E/DX2                !
 ! R12   R(6,28)                 1.0877         estimate D2E/DX2                !
 ! R13   R(7,8)                  1.3965         estimate D2E/DX2                !
 ! R14   R(7,23)                 1.5109         estimate D2E/DX2                !
 ! R15   R(8,9)                  1.4394         estimate D2E/DX2                !
 ! R16   R(8,11)                 1.431          estimate D2E/DX2                !
 ! R17   R(9,10)                 1.4206         estimate D2E/DX2                !
 ! R18   R(9,14)                 1.3902         estimate D2E/DX2                !
 ! R19   R(10,29)                1.0872         estimate D2E/DX2                !
 ! R20   R(11,12)                1.4219         estimate D2E/DX2                !
 ! R21   R(11,15)                1.4397         estimate D2E/DX2                !
 ! R22   R(12,13)                1.4046         estimate D2E/DX2                !
 ! R23   R(12,18)                1.4025         estimate D2E/DX2                !
 ! R24   R(13,14)                1.3946         estimate D2E/DX2                !
 ! R25   R(13,31)                1.0891         estimate D2E/DX2                !
 ! R26   R(14,30)                1.0875         estimate D2E/DX2                !
 ! R27   R(15,16)                1.4083         estimate D2E/DX2                !
 ! R28   R(15,36)                1.48           estimate D2E/DX2                !
 ! R29   R(16,17)                1.3871         estimate D2E/DX2                !
 ! R30   R(16,33)                1.0885         estimate D2E/DX2                !
 ! R31   R(17,18)                1.3879         estimate D2E/DX2                !
 ! R32   R(17,34)                1.0864         estimate D2E/DX2                !
 ! R33   R(18,32)                1.0886         estimate D2E/DX2                !
 ! R34   R(19,20)                1.4146         estimate D2E/DX2                !
 ! R35   R(19,26)                1.0864         estimate D2E/DX2                !
 ! R36   R(20,21)                1.4124         estimate D2E/DX2                !
 ! R37   R(20,25)                1.089          estimate D2E/DX2                !
 ! R38   R(21,22)                1.3902         estimate D2E/DX2                !
 ! R39   R(21,24)                1.0838         estimate D2E/DX2                !
 ! R40   R(22,23)                1.518          estimate D2E/DX2                !
 ! R41   R(23,35)                1.0982         estimate D2E/DX2                !
 ! R42   R(23,37)                1.4864         estimate D2E/DX2                !
 ! R43   R(36,37)                1.3395         estimate D2E/DX2                !
 ! R44   R(36,39)                1.0891         estimate D2E/DX2                !
 ! R45   R(37,38)                1.0865         estimate D2E/DX2                !
 ! A1    A(2,1,5)              114.7359         estimate D2E/DX2                !
 ! A2    A(2,1,19)             115.5465         estimate D2E/DX2                !
 ! A3    A(5,1,19)             129.7126         estimate D2E/DX2                !
 ! A4    A(1,2,3)              124.1944         estimate D2E/DX2                !
 ! A5    A(1,2,22)             125.5301         estimate D2E/DX2                !
 ! A6    A(3,2,22)             110.2434         estimate D2E/DX2                !
 ! A7    A(2,3,4)              123.4501         estimate D2E/DX2                !
 ! A8    A(2,3,7)              110.5649         estimate D2E/DX2                !
 ! A9    A(4,3,7)              125.9559         estimate D2E/DX2                !
 ! A10   A(3,4,6)              115.0904         estimate D2E/DX2                !
 ! A11   A(3,4,10)             115.27           estimate D2E/DX2                !
 ! A12   A(6,4,10)             129.601          estimate D2E/DX2                !
 ! A13   A(1,5,6)              121.1809         estimate D2E/DX2                !
 ! A14   A(1,5,27)             119.6635         estimate D2E/DX2                !
 ! A15   A(6,5,27)             119.143          estimate D2E/DX2                !
 ! A16   A(4,6,5)              121.3081         estimate D2E/DX2                !
 ! A17   A(4,6,28)             119.628          estimate D2E/DX2                !
 ! A18   A(5,6,28)             119.0589         estimate D2E/DX2                !
 ! A19   A(3,7,8)              120.7472         estimate D2E/DX2                !
 ! A20   A(3,7,23)             108.7519         estimate D2E/DX2                !
 ! A21   A(8,7,23)             130.4079         estimate D2E/DX2                !
 ! A22   A(7,8,9)              114.5698         estimate D2E/DX2                !
 ! A23   A(7,8,11)             122.1903         estimate D2E/DX2                !
 ! A24   A(9,8,11)             123.1938         estimate D2E/DX2                !
 ! A25   A(8,9,10)             122.3255         estimate D2E/DX2                !
 ! A26   A(8,9,14)             117.6335         estimate D2E/DX2                !
 ! A27   A(10,9,14)            120.0346         estimate D2E/DX2                !
 ! A28   A(4,10,9)             120.5899         estimate D2E/DX2                !
 ! A29   A(4,10,29)            119.1564         estimate D2E/DX2                !
 ! A30   A(9,10,29)            120.243          estimate D2E/DX2                !
 ! A31   A(8,11,12)            115.3853         estimate D2E/DX2                !
 ! A32   A(8,11,15)            127.7479         estimate D2E/DX2                !
 ! A33   A(12,11,15)           116.8127         estimate D2E/DX2                !
 ! A34   A(11,12,13)           120.9685         estimate D2E/DX2                !
 ! A35   A(11,12,18)           120.8233         estimate D2E/DX2                !
 ! A36   A(13,12,18)           118.1921         estimate D2E/DX2                !
 ! A37   A(12,13,14)           121.7842         estimate D2E/DX2                !
 ! A38   A(12,13,31)           120.1967         estimate D2E/DX2                !
 ! A39   A(14,13,31)           117.9877         estimate D2E/DX2                !
 ! A40   A(9,14,13)            120.3306         estimate D2E/DX2                !
 ! A41   A(9,14,30)            120.8062         estimate D2E/DX2                !
 ! A42   A(13,14,30)           118.8292         estimate D2E/DX2                !
 ! A43   A(11,15,16)           120.2513         estimate D2E/DX2                !
 ! A44   A(11,15,36)           125.0098         estimate D2E/DX2                !
 ! A45   A(16,15,36)           114.1002         estimate D2E/DX2                !
 ! A46   A(15,16,17)           121.0909         estimate D2E/DX2                !
 ! A47   A(15,16,33)           120.4684         estimate D2E/DX2                !
 ! A48   A(17,16,33)           118.424          estimate D2E/DX2                !
 ! A49   A(16,17,18)           119.3692         estimate D2E/DX2                !
 ! A50   A(16,17,34)           120.2857         estimate D2E/DX2                !
 ! A51   A(18,17,34)           120.2798         estimate D2E/DX2                !
 ! A52   A(12,18,17)           121.2005         estimate D2E/DX2                !
 ! A53   A(12,18,32)           120.4636         estimate D2E/DX2                !
 ! A54   A(17,18,32)           118.3297         estimate D2E/DX2                !
 ! A55   A(1,19,20)            120.0889         estimate D2E/DX2                !
 ! A56   A(1,19,26)            120.2343         estimate D2E/DX2                !
 ! A57   A(20,19,26)           119.6713         estimate D2E/DX2                !
 ! A58   A(19,20,21)           122.5284         estimate D2E/DX2                !
 ! A59   A(19,20,25)           118.7593         estimate D2E/DX2                !
 ! A60   A(21,20,25)           118.7081         estimate D2E/DX2                !
 ! A61   A(20,21,22)           116.2078         estimate D2E/DX2                !
 ! A62   A(20,21,24)           122.0463         estimate D2E/DX2                !
 ! A63   A(22,21,24)           121.7452         estimate D2E/DX2                !
 ! A64   A(2,22,21)            120.077          estimate D2E/DX2                !
 ! A65   A(2,22,23)            108.8645         estimate D2E/DX2                !
 ! A66   A(21,22,23)           130.9816         estimate D2E/DX2                !
 ! A67   A(7,23,22)            101.334          estimate D2E/DX2                !
 ! A68   A(7,23,35)            109.2719         estimate D2E/DX2                !
 ! A69   A(7,23,37)            113.1545         estimate D2E/DX2                !
 ! A70   A(22,23,35)           107.2228         estimate D2E/DX2                !
 ! A71   A(22,23,37)           114.701          estimate D2E/DX2                !
 ! A72   A(35,23,37)           110.62           estimate D2E/DX2                !
 ! A73   A(15,36,37)           127.1662         estimate D2E/DX2                !
 ! A74   A(15,36,39)           115.2408         estimate D2E/DX2                !
 ! A75   A(37,36,39)           117.5875         estimate D2E/DX2                !
 ! A76   A(23,37,36)           123.9801         estimate D2E/DX2                !
 ! A77   A(23,37,38)           117.7691         estimate D2E/DX2                !
 ! A78   A(36,37,38)           118.2339         estimate D2E/DX2                !
 ! D1    D(5,1,2,3)              0.0153         estimate D2E/DX2                !
 ! D2    D(5,1,2,22)           177.7538         estimate D2E/DX2                !
 ! D3    D(19,1,2,3)          -179.2535         estimate D2E/DX2                !
 ! D4    D(19,1,2,22)           -1.515          estimate D2E/DX2                !
 ! D5    D(2,1,5,6)             -1.2529         estimate D2E/DX2                !
 ! D6    D(2,1,5,27)          -179.9506         estimate D2E/DX2                !
 ! D7    D(19,1,5,6)           177.8895         estimate D2E/DX2                !
 ! D8    D(19,1,5,27)           -0.8081         estimate D2E/DX2                !
 ! D9    D(2,1,19,20)            1.1745         estimate D2E/DX2                !
 ! D10   D(2,1,19,26)         -179.686          estimate D2E/DX2                !
 ! D11   D(5,1,19,20)         -177.9622         estimate D2E/DX2                !
 ! D12   D(5,1,19,26)            1.1773         estimate D2E/DX2                !
 ! D13   D(1,2,3,4)              1.8308         estimate D2E/DX2                !
 ! D14   D(1,2,3,7)            179.9725         estimate D2E/DX2                !
 ! D15   D(22,2,3,4)          -176.2077         estimate D2E/DX2                !
 ! D16   D(22,2,3,7)             1.9339         estimate D2E/DX2                !
 ! D17   D(1,2,22,21)            0.539          estimate D2E/DX2                !
 ! D18   D(1,2,22,23)         -176.6099         estimate D2E/DX2                !
 ! D19   D(3,2,22,21)          178.5454         estimate D2E/DX2                !
 ! D20   D(3,2,22,23)            1.3965         estimate D2E/DX2                !
 ! D21   D(2,3,4,6)             -2.1894         estimate D2E/DX2                !
 ! D22   D(2,3,4,10)           175.7704         estimate D2E/DX2                !
 ! D23   D(7,3,4,6)            179.9602         estimate D2E/DX2                !
 ! D24   D(7,3,4,10)            -2.08           estimate D2E/DX2                !
 ! D25   D(2,3,7,8)            178.7027         estimate D2E/DX2                !
 ! D26   D(2,3,7,23)            -4.4553         estimate D2E/DX2                !
 ! D27   D(4,3,7,8)             -3.2129         estimate D2E/DX2                !
 ! D28   D(4,3,7,23)           173.6292         estimate D2E/DX2                !
 ! D29   D(3,4,6,5)              0.8998         estimate D2E/DX2                !
 ! D30   D(3,4,6,28)          -179.9183         estimate D2E/DX2                !
 ! D31   D(10,4,6,5)          -176.7055         estimate D2E/DX2                !
 ! D32   D(10,4,6,28)            2.4764         estimate D2E/DX2                !
 ! D33   D(3,4,10,9)             1.9797         estimate D2E/DX2                !
 ! D34   D(3,4,10,29)         -176.8387         estimate D2E/DX2                !
 ! D35   D(6,4,10,9)           179.5815         estimate D2E/DX2                !
 ! D36   D(6,4,10,29)            0.7631         estimate D2E/DX2                !
 ! D37   D(1,5,6,4)              0.8093         estimate D2E/DX2                !
 ! D38   D(1,5,6,28)          -178.3771         estimate D2E/DX2                !
 ! D39   D(27,5,6,4)           179.5136         estimate D2E/DX2                !
 ! D40   D(27,5,6,28)            0.3272         estimate D2E/DX2                !
 ! D41   D(3,7,8,9)              7.907          estimate D2E/DX2                !
 ! D42   D(3,7,8,11)          -174.4909         estimate D2E/DX2                !
 ! D43   D(23,7,8,9)          -168.1648         estimate D2E/DX2                !
 ! D44   D(23,7,8,11)            9.4373         estimate D2E/DX2                !
 ! D45   D(3,7,23,22)            4.8816         estimate D2E/DX2                !
 ! D46   D(3,7,23,35)         -108.072          estimate D2E/DX2                !
 ! D47   D(3,7,23,37)          128.1973         estimate D2E/DX2                !
 ! D48   D(8,7,23,22)         -178.6831         estimate D2E/DX2                !
 ! D49   D(8,7,23,35)           68.3632         estimate D2E/DX2                !
 ! D50   D(8,7,23,37)          -55.3674         estimate D2E/DX2                !
 ! D51   D(7,8,9,10)            -8.0273         estimate D2E/DX2                !
 ! D52   D(7,8,9,14)           171.0504         estimate D2E/DX2                !
 ! D53   D(11,8,9,10)          174.3977         estimate D2E/DX2                !
 ! D54   D(11,8,9,14)           -6.5247         estimate D2E/DX2                !
 ! D55   D(7,8,11,12)         -167.447          estimate D2E/DX2                !
 ! D56   D(7,8,11,15)           15.333          estimate D2E/DX2                !
 ! D57   D(9,8,11,12)            9.9468         estimate D2E/DX2                !
 ! D58   D(9,8,11,15)         -167.2732         estimate D2E/DX2                !
 ! D59   D(8,9,10,4)             3.2063         estimate D2E/DX2                !
 ! D60   D(8,9,10,29)         -177.9882         estimate D2E/DX2                !
 ! D61   D(14,9,10,4)         -175.8499         estimate D2E/DX2                !
 ! D62   D(14,9,10,29)           2.9557         estimate D2E/DX2                !
 ! D63   D(8,9,14,13)           -0.9097         estimate D2E/DX2                !
 ! D64   D(8,9,14,30)         -178.7651         estimate D2E/DX2                !
 ! D65   D(10,9,14,13)         178.19           estimate D2E/DX2                !
 ! D66   D(10,9,14,30)           0.3346         estimate D2E/DX2                !
 ! D67   D(8,11,12,13)          -6.2953         estimate D2E/DX2                !
 ! D68   D(8,11,12,18)         175.188          estimate D2E/DX2                !
 ! D69   D(15,11,12,13)        171.2419         estimate D2E/DX2                !
 ! D70   D(15,11,12,18)         -7.2748         estimate D2E/DX2                !
 ! D71   D(8,11,15,16)        -175.85           estimate D2E/DX2                !
 ! D72   D(8,11,15,36)          13.8667         estimate D2E/DX2                !
 ! D73   D(12,11,15,16)          6.9642         estimate D2E/DX2                !
 ! D74   D(12,11,15,36)       -163.3191         estimate D2E/DX2                !
 ! D75   D(11,12,13,14)         -0.5403         estimate D2E/DX2                !
 ! D76   D(11,12,13,31)       -178.4613         estimate D2E/DX2                !
 ! D77   D(18,12,13,14)        178.0145         estimate D2E/DX2                !
 ! D78   D(18,12,13,31)          0.0935         estimate D2E/DX2                !
 ! D79   D(11,12,18,17)          2.7015         estimate D2E/DX2                !
 ! D80   D(11,12,18,32)       -178.2229         estimate D2E/DX2                !
 ! D81   D(13,12,18,17)       -175.8555         estimate D2E/DX2                !
 ! D82   D(13,12,18,32)          3.2201         estimate D2E/DX2                !
 ! D83   D(12,13,14,9)           4.3757         estimate D2E/DX2                !
 ! D84   D(12,13,14,30)       -177.7268         estimate D2E/DX2                !
 ! D85   D(31,13,14,9)        -177.659          estimate D2E/DX2                !
 ! D86   D(31,13,14,30)          0.2384         estimate D2E/DX2                !
 ! D87   D(11,15,16,17)         -2.0854         estimate D2E/DX2                !
 ! D88   D(11,15,16,33)        179.4218         estimate D2E/DX2                !
 ! D89   D(36,15,16,17)        169.2043         estimate D2E/DX2                !
 ! D90   D(36,15,16,33)         -9.2885         estimate D2E/DX2                !
 ! D91   D(11,15,36,37)        -37.4281         estimate D2E/DX2                !
 ! D92   D(11,15,36,39)        141.6988         estimate D2E/DX2                !
 ! D93   D(16,15,36,37)        151.7623         estimate D2E/DX2                !
 ! D94   D(16,15,36,39)        -29.1108         estimate D2E/DX2                !
 ! D95   D(15,16,17,18)         -2.772          estimate D2E/DX2                !
 ! D96   D(15,16,17,34)       -179.84           estimate D2E/DX2                !
 ! D97   D(33,16,17,18)        175.7509         estimate D2E/DX2                !
 ! D98   D(33,16,17,34)         -1.3172         estimate D2E/DX2                !
 ! D99   D(16,17,18,12)          2.5008         estimate D2E/DX2                !
 ! D100  D(16,17,18,32)       -176.594          estimate D2E/DX2                !
 ! D101  D(34,17,18,12)        179.569          estimate D2E/DX2                !
 ! D102  D(34,17,18,32)          0.4743         estimate D2E/DX2                !
 ! D103  D(1,19,20,21)           0.0558         estimate D2E/DX2                !
 ! D104  D(1,19,20,25)         179.303          estimate D2E/DX2                !
 ! D105  D(26,19,20,21)       -179.0887         estimate D2E/DX2                !
 ! D106  D(26,19,20,25)          0.1586         estimate D2E/DX2                !
 ! D107  D(19,20,21,22)         -1.0446         estimate D2E/DX2                !
 ! D108  D(19,20,21,24)        178.6497         estimate D2E/DX2                !
 ! D109  D(25,20,21,22)        179.7078         estimate D2E/DX2                !
 ! D110  D(25,20,21,24)         -0.5979         estimate D2E/DX2                !
 ! D111  D(20,21,22,2)           0.7689         estimate D2E/DX2                !
 ! D112  D(20,21,22,23)        177.1942         estimate D2E/DX2                !
 ! D113  D(24,21,22,2)        -178.9264         estimate D2E/DX2                !
 ! D114  D(24,21,22,23)         -2.5011         estimate D2E/DX2                !
 ! D115  D(2,22,23,7)           -3.7676         estimate D2E/DX2                !
 ! D116  D(2,22,23,35)         110.7235         estimate D2E/DX2                !
 ! D117  D(2,22,23,37)        -126.0179         estimate D2E/DX2                !
 ! D118  D(21,22,23,7)         179.501          estimate D2E/DX2                !
 ! D119  D(21,22,23,35)        -66.0079         estimate D2E/DX2                !
 ! D120  D(21,22,23,37)         57.2508         estimate D2E/DX2                !
 ! D121  D(7,23,37,36)          52.6803         estimate D2E/DX2                !
 ! D122  D(7,23,37,38)        -128.8452         estimate D2E/DX2                !
 ! D123  D(22,23,37,36)        168.2739         estimate D2E/DX2                !
 ! D124  D(22,23,37,38)        -13.2516         estimate D2E/DX2                !
 ! D125  D(35,23,37,36)        -70.3073         estimate D2E/DX2                !
 ! D126  D(35,23,37,38)        108.1673         estimate D2E/DX2                !
 ! D127  D(15,36,37,23)         -2.1377         estimate D2E/DX2                !
 ! D128  D(15,36,37,38)        179.3944         estimate D2E/DX2                !
 ! D129  D(39,36,37,23)        178.7534         estimate D2E/DX2                !
 ! D130  D(39,36,37,38)          0.2855         estimate D2E/DX2                !
 --------------------------------------------------------------------------------
 Trust Radius=3.00D-01 FncErr=1.00D-07 GrdErr=1.00D-06 EigMax=2.50D+02 EigMin=1.00D-04
 Number of steps in this run=    234 maximum allowed number of steps=    234.
 GradGradGradGradGradGradGradGradGradGradGradGradGradGradGradGradGradGrad

                          Input orientation:                          
 ---------------------------------------------------------------------
 Center     Atomic      Atomic             Coordinates (Angstroms)
 Number     Number       Type             X           Y           Z
 ---------------------------------------------------------------------
      1          6           0       -3.779120   -0.113000    0.108240
      2          6           0       -2.456950    0.237420    0.001730
      3          6           0       -1.412230   -0.656050    0.067880
      4          6           0       -1.582290   -2.005670    0.212320
      5          6           0       -4.012790   -1.501940    0.297840
      6          6           0       -2.933390   -2.433280    0.340630
      7          6           0       -0.199570    0.001190   -0.073570
      8          6           0        1.005250   -0.702300   -0.011960
      9          6           0        0.861160   -2.133990    0.024380
     10          6           0       -0.402670   -2.766910    0.167090
     11          6           0        2.275150   -0.043110   -0.038130
     12          6           0        3.397600   -0.890430   -0.248070
     13          6           0        3.252220   -2.287070   -0.283970
     14          6           0        2.012940   -2.901450   -0.105770
     15          6           0        2.547420    1.354310    0.176250
     16          6           0        3.856010    1.853100    0.027760
     17          6           0        4.912810    1.010280   -0.283610
     18          6           0        4.685330   -0.354340   -0.394180
     19          6           0       -4.698900    0.947070   -0.001820
     20          6           0       -4.238390    2.264420   -0.233100
     21          6           0       -2.867420    2.577740   -0.363630
     22          6           0       -1.979620    1.516390   -0.229610
     23          6           0       -0.468360    1.459950   -0.361050
     24          1           0       -2.524440    3.586450   -0.562090
     25          1           0       -4.969370    3.066240   -0.326040
     26          1           0       -5.765560    0.756180    0.076340
     27          1           0       -5.032460   -1.868320    0.391530
     28          1           0       -3.153310   -3.491700    0.460770
     29          1           0       -0.469140   -3.850600    0.223260
     30          1           0        1.961370   -3.987750   -0.105510
     31          1           0        4.124130   -2.925250   -0.420610
     32          1           0        5.536370   -1.006270   -0.583390
     33          1           0        4.064160    2.910680    0.179820
     34          1           0        5.917650    1.408740   -0.392570
     35          1           0       -0.225050    1.673390   -1.410440
     36          6           0        1.591260    2.327390    0.750020
     37          6           0        0.268670    2.379610    0.544680
     38          1           0       -0.299850    3.155020    1.050740
     39          1           0        2.027100    3.066470    1.420830
 ---------------------------------------------------------------------
                    Distance matrix (angstroms):
                    1          2          3          4          5
     1  C    0.000000
     2  C    1.371959   0.000000
     3  C    2.428724   1.376265   0.000000
     4  C    2.901568   2.416781   1.367939   0.000000
     5  C    1.421163   2.352380   2.744326   2.483624   0.000000
     6  C    2.480517   2.733951   2.355179   1.422949   1.426299
     7  C    3.585983   2.270956   1.386549   2.453800   4.115579
     8  C    4.822024   3.587491   2.419240   2.905932   5.090788
     9  C    5.061979   4.078474   2.711918   2.454024   4.922363
    10  C    4.295011   3.643269   2.341962   1.404648   3.827559
    11  C    6.056442   4.740576   3.739479   4.335229   6.463687
    12  C    7.227494   5.967428   4.825891   5.123966   7.455591
    13  C    7.370221   6.248944   4.953899   4.868057   7.330437
    14  C    6.431890   5.462964   4.099240   3.718774   6.199270
    15  C    6.494824   5.130460   4.442085   5.324028   7.156068
    16  C    7.884620   6.516484   5.835392   6.670778   8.558461
    17  C    8.772967   7.415665   6.550293   7.178316   9.290623
    18  C    8.482782   7.177680   6.122480   6.509823   8.800748
    19  C    1.407784   2.351586   3.657465   4.298580   2.560897
    20  C    2.445315   2.708764   4.075158   5.048459   3.810283
    21  C    2.879920   2.403970   3.572279   4.794885   4.288730
    22  C    2.450970   1.384603   2.264934   3.571845   3.677268
    23  C    3.695340   2.362346   2.356338   3.685121   4.665824
    24  H    3.963520   3.396829   4.430878   5.723562   5.370882
    25  H    3.422406   3.797619   5.163706   6.122615   4.708773
    26  H    2.168510   3.349862   4.576674   5.014584   2.867119
    27  H    2.175376   3.349528   3.831503   3.457550   1.087538
    28  H    3.454205   3.821253   3.350617   2.176721   2.173568
    29  H    4.993881   4.551085   3.334473   2.154760   4.251967
    30  H    6.929113   6.114337   4.744625   4.072737   6.483250
    31  H    8.405343   7.313786   6.003264   5.814590   8.291649
    32  H    9.383743   8.110629   6.987836   7.232377   9.602537
    33  H    8.406236   7.050029   6.536432   7.486919   9.204470
    34  H    9.828217   8.465305   7.629057   8.262759  10.371228
    35  H    4.257815   3.006262   3.003517   4.243929   5.229523
    36  C    5.933664   4.616916   4.288028   5.397773   6.802471
    37  C    4.773698   3.508957   3.502570   4.771498   5.784312
    38  H    4.865550   3.777022   4.089946   5.383337   6.003337
    39  H    6.748638   5.488540   5.245629   6.341514   7.655831
                    6          7          8          9         10
     6  C    0.000000
     7  C    3.684017   0.000000
     8  C    4.316653   1.396526   0.000000
     9  C    3.819450   2.386155   1.439381   0.000000
    10  C    2.558509   2.785955   2.505377   1.420641   0.000000
    11  C    5.743280   2.475370   1.431035   2.524887   3.825169
    12  C    6.542812   3.710131   2.411323   2.837992   4.258590
    13  C    6.218784   4.146716   2.763034   2.415715   3.713748
    14  C    4.988450   3.649871   2.420847   1.390155   2.434692
    15  C    6.664243   3.072344   2.577471   3.877470   5.068291
    16  C    8.035353   4.459548   3.828639   4.986584   6.284923
    17  C    8.591312   5.215248   4.275015   5.137817   6.536407
    18  C    7.931383   4.908303   3.716202   4.238705   5.658910
    19  C    3.828977   4.598240   5.937832   6.356720   5.681529
    20  C    4.909234   4.632464   6.028772   6.739267   6.339336
    21  C    5.060697   3.720238   5.087230   6.021068   5.909479
    22  C    4.103016   2.342810   3.725507   4.632474   4.581572
    23  C    4.661112   1.510918   2.639832   3.851309   4.260234
    24  H    6.100762   4.300902   5.581642   6.673055   6.737863
    25  H    5.902066   5.675321   7.070829   7.820503   7.424525
    26  H    4.273604   5.618961   6.926675   7.229744   6.417241
    27  H    2.174366   5.202712   6.162495   5.911018   4.721524
    28  H    1.087682   4.605473   5.029697   4.260256   2.859648
    29  H    2.845189   3.872604   3.484386   2.180826   1.087179
    30  H    5.155007   4.536775   3.423025   2.159574   2.674593
    31  H    7.115484   5.232482   3.851742   3.386899   4.567536
    32  H    8.638692   5.846016   4.577115   4.847548   6.239813
    33  H    8.806218   5.168049   4.737862   5.977630   7.224110
    34  H    9.676756   6.285168   5.360320   6.188124   7.595770
    35  H    5.221694   2.141057   3.018822   4.211259   4.715550
    36  C    6.580580   3.049029   3.178528   4.578593   5.501587
    37  C    5.784353   2.501672   3.217230   4.581958   5.203839
    38  H    6.218431   3.349742   4.208507   5.511351   5.988377
    39  H    7.484687   4.072743   4.159410   5.509471   6.442357
                   11         12         13         14         15
    11  C    0.000000
    12  C    1.421942   0.000000
    13  C    2.459768   1.404645   0.000000
    14  C    2.871139   2.445758   1.394644   0.000000
    15  C    1.439747   2.437563   3.737405   4.298453   0.000000
    16  C    2.469630   2.795206   4.195563   5.101028   1.408279
    17  C    2.850814   2.431013   3.691893   4.872628   2.434111
    18  C    2.456136   1.402494   2.408609   3.703055   2.795628
    19  C    7.044086   8.306043   8.588340   7.737616   7.259938
    20  C    6.912952   8.262061   8.765152   8.110583   6.858796
    21  C    5.781075   7.161846   7.818102   7.342066   5.577521
    22  C    4.535612   5.891317   6.468494   5.955937   4.548086
    23  C    3.144887   4.525781   5.280986   5.024324   3.065091
    24  H    6.040224   7.430452   8.242899   7.930252   5.590291
    25  H    7.888854   9.255674   9.810925   9.187736   7.725615
    26  H    8.081150   9.315582   9.524261   8.597470   8.335069
    27  H    7.544346   8.510656   8.322714   7.138090   8.239312
    28  H    6.450570   7.084030   6.560228   5.230631   7.487529
    29  H    4.700684   4.892488   4.068222   2.677661   6.016056
    30  H    3.957674   3.417085   2.142535   1.087523   5.381491
    31  H    3.445540   2.167512   1.089115   2.134670   4.599662
    32  H    3.443914   2.167993   2.635800   4.029192   3.883711
    33  H    3.460193   3.882761   5.281189   6.170083   2.173201
    34  H    3.937169   3.414340   4.557995   5.822950   3.418328
    35  H    3.328755   4.587796   5.389396   5.257369   3.210294
    36  C    2.590011   3.822749   5.012102   5.315163   1.479979
    37  C    3.199250   4.594760   5.600548   5.599568   2.525803
    38  H    4.247858   5.632380   6.634380   6.585389   3.480551
    39  H    3.443774   4.507833   5.750448   6.160096   2.179726
                   16         17         18         19         20
    16  C    0.000000
    17  C    1.387128   0.000000
    18  C    2.395537   1.387862   0.000000
    19  C    8.602805   9.616048   9.482162   0.000000
    20  C    8.109041   9.236876   9.301432   1.414557   0.000000
    21  C    6.773684   7.936959   8.101979   2.478772   1.412362
    22  C    5.850999   6.911198   6.924469   2.787561   2.379412
    23  C    4.359578   5.400481   5.463814   4.276630   3.857029
    24  H    6.637964   7.875715   8.218200   3.465329   2.189434
    25  H    8.915392  10.093872  10.242961   2.160823   1.088983
    26  H    9.684018  10.687456  10.520254   1.086421   2.168592
    27  H    9.642935  10.375478   9.866353   2.862238   4.254439
    28  H    8.825245   9.267374   8.486356   4.722872   5.898455
    29  H    7.160820   7.269832   6.258884   6.399935   7.197845
    30  H    6.141901   5.807153   4.550270   8.289897   8.805847
    31  H    4.806824   4.016115   2.631582   9.644486   9.843758
    32  H    3.372404   2.131940   1.088615  10.436212  10.313392
    33  H    1.088542   2.132251   3.372786   8.982203   8.337895
    34  H    2.150463   1.086437   2.151062  10.633765  10.193271
    35  H    4.330793   5.301610   5.408910   4.746271   4.224020
    36  C    2.423985   3.719659   4.251369   6.483568   5.912302
    37  C    3.662435   4.912145   5.278525   5.198806   4.575128
    38  H    4.473551   5.792428   6.265415   5.033345   4.237158
    39  H    2.599581   3.931966   4.697062   7.194085   6.529558
                   21         22         23         24         25
    21  C    0.000000
    22  C    1.390185   0.000000
    23  C    2.646687   1.518015   0.000000
    24  H    1.083752   2.166223   2.964774   0.000000
    25  H    2.158295   3.368967   4.779172   2.510781   0.000000
    26  H    3.451213   3.873612   5.361616   4.350044   2.476329
    27  H    5.002511   4.600207   5.698664   6.078986   4.986860
    28  H    6.131841   5.189907   5.692379   7.179271   6.850089
    29  H    6.886199   5.593856   5.342599   7.755691   8.270216
    30  H    8.154109   6.770699   5.970454   8.814730   9.891540
    31  H    8.897635   7.551186   6.350157   9.307295  10.890300
    32  H    9.138770   7.935936   6.495264   9.277402  11.270410
    33  H    6.960818   6.216024   4.789665   6.664589   9.049020
    34  H    8.862553   7.899685   6.386293   8.720094  11.012672
    35  H    2.982579   2.120737   1.098169   3.109130   5.062067
    36  C    4.602469   3.790591   2.495789   4.499539   6.689220
    37  C    3.270985   2.529720   1.486383   3.237725   5.354127
    38  H    2.987660   2.673206   2.212422   2.781394   4.869068
    39  H    5.232541   4.602228   3.461694   4.991880   7.211251
                   26         27         28         29         30
    26  H    0.000000
    27  H    2.743133   0.000000
    28  H    5.001612   2.484223   0.000000
    29  H    7.021116   4.978116   2.718453   0.000000
    30  H    9.068814   7.324800   5.169786   2.456477   0.000000
    31  H   10.564367   9.253097   7.352471   4.729585   2.430170
    32  H   11.457534  10.648651   9.098251   6.693807   4.679553
    33  H   10.063596  10.277751   9.652009   8.140492   7.217442
    34  H   11.710812  11.456825  10.345280   8.296444   6.697511
    35  H    5.809392   6.237147   6.225294   5.765676   6.207397
    36  C    7.552837   7.848959   7.513749   6.533780   6.383565
    37  C    6.266323   6.794876   6.796269   6.281974   6.620518
    38  H    6.047964   6.932972   7.257354   7.056351   7.580844
    39  H    8.238364   8.674618   8.412369   7.450587   7.217760
                   31         32         33         34         35
    31  H    0.000000
    32  H    2.388180   0.000000
    33  H    5.867043   4.253515   0.000000
    34  H    4.690519   2.452358   2.453340   0.000000
    35  H    6.406451   6.407695   4.738896   6.232083   0.000000
    36  C    5.947775   5.334338   2.603957   4.568050   2.897289
    37  C    6.628567   6.362813   3.849793   5.807926   2.136586
    38  H    7.661994   7.351747   4.456769   6.617397   2.873714
    39  H    6.609776   5.737516   2.390395   4.601398   3.876718
                   36         37         38         39
    36  C    0.000000
    37  C    1.339454   0.000000
    38  H    2.086073   1.086541   0.000000
    39  H    1.089120   2.081224   2.357860   0.000000
 Stoichiometry    C25H14(3)
 Framework group  C1[X(C25H14)]
 Deg. of freedom   111
 Full point group                 C1      NOp   1
 Largest Abelian subgroup         C1      NOp   1
 Largest concise Abelian subgroup C1      NOp   1
                         Standard orientation:                         
 ---------------------------------------------------------------------
 Center     Atomic      Atomic             Coordinates (Angstroms)
 Number     Number       Type             X           Y           Z
 ---------------------------------------------------------------------
      1          6           0        3.761975    0.320152    0.030632
      2          6           0        2.461057   -0.108235   -0.049178
      3          6           0        1.366740    0.722056    0.035622
      4          6           0        1.459348    2.079833    0.173909
      5          6           0        3.916619    1.721090    0.212740
      6          6           0        2.784992    2.587057    0.274788
      7          6           0        0.192611   -0.006245   -0.080638
      8          6           0       -1.050331    0.624912    0.003159
      9          6           0       -0.990609    2.062729    0.033707
     10          6           0        0.236056    2.769784    0.150272
     11          6           0       -2.279228   -0.108351    0.003284
     12          6           0       -3.453767    0.670381   -0.186331
     13          6           0       -3.392088    2.073054   -0.227962
     14          6           0       -2.188137    2.760263   -0.075393
     15          6           0       -2.464028   -1.518736    0.225852
     16          6           0       -3.743422   -2.094564    0.104109
     17          6           0       -4.854148   -1.316766   -0.188195
     18          6           0       -4.710086    0.058561   -0.306027
     19          6           0        4.740607   -0.683981   -0.095273
     20          6           0        4.354512   -2.027012   -0.314748
     21          6           0        3.002225   -2.421330   -0.417693
     22          6           0        2.055901   -1.413949   -0.268462
     23          6           0        0.541678   -1.447462   -0.370326
     24          1           0        2.715790   -3.449203   -0.607298
     25          1           0        5.129750   -2.784466   -0.420364
     26          1           0        5.795408   -0.430054   -0.038462
     27          1           0        4.914431    2.147467    0.285639
     28          1           0        2.944136    3.657018    0.388402
     29          1           0        0.239306    3.855684    0.202889
     30          1           0       -2.201001    3.847707   -0.078388
     31          1           0       -4.302760    2.658076   -0.348777
     32          1           0       -5.601767    0.658374   -0.479840
     33          1           0       -3.885568   -3.162112    0.262409
     34          1           0       -5.835555   -1.774339   -0.276585
     35          1           0        0.291048   -1.678307   -1.414295
     36          6           0       -1.440922   -2.431675    0.782750
     37          6           0       -0.121811   -2.406200    0.551594
     38          1           0        0.501383   -3.144973    1.047996
     39          1           0       -1.819077   -3.193084    1.463511
 ---------------------------------------------------------------------
 Rotational constants (GHZ):           0.4912399           0.1866287           0.1373901
 Standard basis: 6-311+G(d,p) (5D, 7F)
 There are   659 symmetry adapted cartesian basis functions of A   symmetry.
 There are   634 symmetry adapted basis functions of A   symmetry.
   634 basis functions,  1012 primitive gaussians,   659 cartesian basis functions
    83 alpha electrons       81 beta electrons
       nuclear repulsion energy      1958.8015500616 Hartrees.
 NAtoms=   39 NActive=   39 NUniq=   39 SFac= 1.00D+00 NAtFMM=   60 NAOKFM=F Big=F
 Integral buffers will be    131072 words long.
 Raffenetti 2 integral format.
 Two-electron integral symmetry is turned on.
 One-electron integrals computed using PRISM.
 NBasis=   634 RedAO= T EigKep=  1.18D-06  NBF=   634
 NBsUse=   619 1.00D-06 EigRej=  8.90D-07 NBFU=   619
 ExpMin= 4.38D-02 ExpMax= 4.56D+03 ExpMxC= 6.82D+02 IAcc=2 IRadAn=         4 AccDes= 0.00D+00
 Harris functional with IExCor=  402 and IRadAn=       4 diagonalized for initial guess.
 HarFok:  IExCor=  402 AccDes= 0.00D+00 IRadAn=         4 IDoV= 1 UseB2=F ITyADJ=14
 ICtDFT=  3500011 ScaDFX=  1.000000  1.000000  1.000000  1.000000
 FoFCou: FMM=F IPFlag=           0 FMFlag=      100000 FMFlg1=           0
         NFxFlg=           0 DoJE=T BraDBF=F KetDBF=T FulRan=T
         wScrn=  0.000000 ICntrl=       500 IOpCl=  0 I1Cent=   200000004 NGrid=           0
         NMat0=    1 NMatS0=      1 NMatT0=    0 NMatD0=    1 NMtDS0=    0 NMtDT0=    0
 Petite list used in FoFCou.
 Initial guess <Sx>= 0.0000 <Sy>= 0.0000 <Sz>= 1.0000 <S**2>= 2.0000 S= 1.0000
 Requested convergence on RMS density matrix=1.00D-08 within 128 cycles.
 Requested convergence on MAX density matrix=1.00D-06.
 Requested convergence on             energy=1.00D-06.
 No special actions if energy rises.
 Restarting incremental Fock formation.
 SCF Done:  E(UB3LYP) =  -961.238008174     A.U. after   28 cycles
            NFock= 28  Conv=0.90D-08     -V/T= 2.0038
 <Sx>= 0.0000 <Sy>= 0.0000 <Sz>= 1.0000 <S**2>= 2.0270 S= 1.0090
 <L.S>=  0.00000000000    
 Annihilation of the first spin contaminant:
 S**2 before annihilation     2.0270,   after     2.0004

 **********************************************************************

            Population analysis using the SCF Density.

 **********************************************************************

 Orbital symmetries:
 Alpha Orbitals:
       Occupied  (A) (A) (A) (A) (A) (A) (A) (A) (A) (A) (A) (A)
                 (A) (A) (A) (A) (A) (A) (A) (A) (A) (A) (A) (A)
                 (A) (A) (A) (A) (A) (A) (A) (A) (A) (A) (A) (A)
                 (A) (A) (A) (A) (A) (A) (A) (A) (A) (A) (A) (A)
                 (A) (A) (A) (A) (A) (A) (A) (A) (A) (A) (A) (A)
                 (A) (A) (A) (A) (A) (A) (A) (A) (A) (A) (A) (A)
                 (A) (A) (A) (A) (A) (A) (A) (A) (A) (A) (A)
       Virtual   (A) (A) (A) (A) (A) (A) (A) (A) (A) (A) (A) (A)
                 (A) (A) (A) (A) (A) (A) (A) (A) (A) (A) (A) (A)
                 (A) (A) (A) (A) (A) (A) (A) (A) (A) (A) (A) (A)
                 (A) (A) (A) (A) (A) (A) (A) (A) (A) (A) (A) (A)
                 (A) (A) (A) (A) (A) (A) (A) (A) (A) (A) (A) (A)
                 (A) (A) (A) (A) (A) (A) (A) (A) (A) (A) (A) (A)
                 (A) (A) (A) (A) (A) (A) (A) (A) (A) (A) (A) (A)
                 (A) (A) (A) (A) (A) (A) (A) (A) (A) (A) (A) (A)
                 (A) (A) (A) (A) (A) (A) (A) (A) (A) (A) (A) (A)
                 (A) (A) (A) (A) (A) (A) (A) (A) (A) (A) (A) (A)
                 (A) (A) (A) (A) (A) (A) (A) (A) (A) (A) (A) (A)
                 (A) (A) (A) (A) (A) (A) (A) (A) (A) (A) (A) (A)
                 (A) (A) (A) (A) (A) (A) (A) (A) (A) (A) (A) (A)
                 (A) (A) (A) (A) (A) (A) (A) (A) (A) (A) (A) (A)
                 (A) (A) (A) (A) (A) (A) (A) (A) (A) (A) (A) (A)
                 (A) (A) (A) (A) (A) (A) (A) (A) (A) (A) (A) (A)
                 (A) (A) (A) (A) (A) (A) (A) (A) (A) (A) (A) (A)
                 (A) (A) (A) (A) (A) (A) (A) (A) (A) (A) (A) (A)
                 (A) (A) (A) (A) (A) (A) (A) (A) (A) (A) (A) (A)
                 (A) (A) (A) (A) (A) (A) (A) (A) (A) (A) (A) (A)
                 (A) (A) (A) (A) (A) (A) (A) (A) (A) (A) (A) (A)
                 (A) (A) (A) (A) (A) (A) (A) (A) (A) (A) (A) (A)
                 (A) (A) (A) (A) (A) (A) (A) (A) (A) (A) (A) (A)
                 (A) (A) (A) (A) (A) (A) (A) (A) (A) (A) (A) (A)
                 (A) (A) (A) (A) (A) (A) (A) (A) (A) (A) (A) (A)
                 (A) (A) (A) (A) (A) (A) (A) (A) (A) (A) (A) (A)
                 (A) (A) (A) (A) (A) (A) (A) (A) (A) (A) (A) (A)
                 (A) (A) (A) (A) (A) (A) (A) (A) (A) (A) (A) (A)
                 (A) (A) (A) (A) (A) (A) (A) (A) (A) (A) (A) (A)
                 (A) (A) (A) (A) (A) (A) (A) (A) (A) (A) (A) (A)
                 (A) (A) (A) (A) (A) (A) (A) (A) (A) (A) (A) (A)
                 (A) (A) (A) (A) (A) (A) (A) (A) (A) (A) (A) (A)
                 (A) (A) (A) (A) (A) (A) (A) (A) (A) (A) (A) (A)
                 (A) (A) (A) (A) (A) (A) (A) (A) (A) (A) (A) (A)
                 (A) (A) (A) (A) (A) (A) (A) (A) (A) (A) (A) (A)
                 (A) (A) (A) (A) (A) (A) (A) (A) (A) (A) (A) (A)
                 (A) (A) (A) (A) (A) (A) (A) (A) (A) (A) (A) (A)
                 (A) (A) (A) (A) (A) (A) (A) (A) (A) (A) (A) (A)
                 (A) (A) (A) (A) (A) (A) (A) (A) (A) (A) (A) (A)
                 (A) (A) (A) (A) (A) (A) (A) (A) (A) (A) (A) (A)
                 (A) (A) (A) (A) (A) (A) (A) (A) (A) (A) (A) (A)
                 (A) (A) (A) (A) (A) (A) (A) (A) (A) (A) (A) (A)
                 (A) (A) (A) (A) (A) (A) (A) (A) (A) (A) (A) (A)
                 (A) (A) (A) (A) (A) (A) (A) (A) (A) (A) (A) (A)
                 (A) (A) (A) (A) (A) (A) (A) (A)
 Beta  Orbitals:
       Occupied  (A) (A) (A) (A) (A) (A) (A) (A) (A) (A) (A) (A)
                 (A) (A) (A) (A) (A) (A) (A) (A) (A) (A) (A) (A)
                 (A) (A) (A) (A) (A) (A) (A) (A) (A) (A) (A) (A)
                 (A) (A) (A) (A) (A) (A) (A) (A) (A) (A) (A) (A)
                 (A) (A) (A) (A) (A) (A) (A) (A) (A) (A) (A) (A)
                 (A) (A) (A) (A) (A) (A) (A) (A) (A) (A) (A) (A)
                 (A) (A) (A) (A) (A) (A) (A) (A) (A)
       Virtual   (A) (A) (A) (A) (A) (A) (A) (A) (A) (A) (A) (A)
                 (A) (A) (A) (A) (A) (A) (A) (A) (A) (A) (A) (A)
                 (A) (A) (A) (A) (A) (A) (A) (A) (A) (A) (A) (A)
                 (A) (A) (A) (A) (A) (A) (A) (A) (A) (A) (A) (A)
                 (A) (A) (A) (A) (A) (A) (A) (A) (A) (A) (A) (A)
                 (A) (A) (A) (A) (A) (A) (A) (A) (A) (A) (A) (A)
                 (A) (A) (A) (A) (A) (A) (A) (A) (A) (A) (A) (A)
                 (A) (A) (A) (A) (A) (A) (A) (A) (A) (A) (A) (A)
                 (A) (A) (A) (A) (A) (A) (A) (A) (A) (A) (A) (A)
                 (A) (A) (A) (A) (A) (A) (A) (A) (A) (A) (A) (A)
                 (A) (A) (A) (A) (A) (A) (A) (A) (A) (A) (A) (A)
                 (A) (A) (A) (A) (A) (A) (A) (A) (A) (A) (A) (A)
                 (A) (A) (A) (A) (A) (A) (A) (A) (A) (A) (A) (A)
                 (A) (A) (A) (A) (A) (A) (A) (A) (A) (A) (A) (A)
                 (A) (A) (A) (A) (A) (A) (A) (A) (A) (A) (A) (A)
                 (A) (A) (A) (A) (A) (A) (A) (A) (A) (A) (A) (A)
                 (A) (A) (A) (A) (A) (A) (A) (A) (A) (A) (A) (A)
                 (A) (A) (A) (A) (A) (A) (A) (A) (A) (A) (A) (A)
                 (A) (A) (A) (A) (A) (A) (A) (A) (A) (A) (A) (A)
                 (A) (A) (A) (A) (A) (A) (A) (A) (A) (A) (A) (A)
                 (A) (A) (A) (A) (A) (A) (A) (A) (A) (A) (A) (A)
                 (A) (A) (A) (A) (A) (A) (A) (A) (A) (A) (A) (A)
                 (A) (A) (A) (A) (A) (A) (A) (A) (A) (A) (A) (A)
                 (A) (A) (A) (A) (A) (A) (A) (A) (A) (A) (A) (A)
                 (A) (A) (A) (A) (A) (A) (A) (A) (A) (A) (A) (A)
                 (A) (A) (A) (A) (A) (A) (A) (A) (A) (A) (A) (A)
                 (A) (A) (A) (A) (A) (A) (A) (A) (A) (A) (A) (A)
                 (A) (A) (A) (A) (A) (A) (A) (A) (A) (A) (A) (A)
                 (A) (A) (A) (A) (A) (A) (A) (A) (A) (A) (A) (A)
                 (A) (A) (A) (A) (A) (A) (A) (A) (A) (A) (A) (A)
                 (A) (A) (A) (A) (A) (A) (A) (A) (A) (A) (A) (A)
                 (A) (A) (A) (A) (A) (A) (A) (A) (A) (A) (A) (A)
                 (A) (A) (A) (A) (A) (A) (A) (A) (A) (A) (A) (A)
                 (A) (A) (A) (A) (A) (A) (A) (A) (A) (A) (A) (A)
                 (A) (A) (A) (A) (A) (A) (A) (A) (A) (A) (A) (A)
                 (A) (A) (A) (A) (A) (A) (A) (A) (A) (A) (A) (A)
                 (A) (A) (A) (A) (A) (A) (A) (A) (A) (A) (A) (A)
                 (A) (A) (A) (A) (A) (A) (A) (A) (A) (A) (A) (A)
                 (A) (A) (A) (A) (A) (A) (A) (A) (A) (A) (A) (A)
                 (A) (A) (A) (A) (A) (A) (A) (A) (A) (A) (A) (A)
                 (A) (A) (A) (A) (A) (A) (A) (A) (A) (A) (A) (A)
                 (A) (A) (A) (A) (A) (A) (A) (A) (A) (A) (A) (A)
                 (A) (A) (A) (A) (A) (A) (A) (A) (A) (A) (A) (A)
                 (A) (A) (A) (A) (A) (A) (A) (A) (A) (A) (A) (A)
                 (A) (A) (A) (A) (A) (A) (A) (A) (A) (A)
 The electronic state is 3-A.
 Alpha  occ. eigenvalues --  -10.19880 -10.19790 -10.19658 -10.19513 -10.19364
 Alpha  occ. eigenvalues --  -10.19030 -10.18833 -10.18783 -10.18776 -10.18774
 Alpha  occ. eigenvalues --  -10.18550 -10.18447 -10.18381 -10.18378 -10.18319
 Alpha  occ. eigenvalues --  -10.18279 -10.18278 -10.18243 -10.18170 -10.18163
 Alpha  occ. eigenvalues --  -10.18126 -10.18117 -10.17898 -10.17144 -10.16799
 Alpha  occ. eigenvalues --   -0.92710  -0.89308  -0.86404  -0.84913  -0.83410
 Alpha  occ. eigenvalues --   -0.80518  -0.79348  -0.78179  -0.76083  -0.74698
 Alpha  occ. eigenvalues --   -0.73255  -0.71664  -0.69074  -0.65838  -0.64936
 Alpha  occ. eigenvalues --   -0.62979  -0.62130  -0.60069  -0.59345  -0.57028
 Alpha  occ. eigenvalues --   -0.55368  -0.52776  -0.52332  -0.51672  -0.50424
 Alpha  occ. eigenvalues --   -0.48703  -0.48173  -0.47470  -0.46671  -0.45819
 Alpha  occ. eigenvalues --   -0.44629  -0.44187  -0.44135  -0.42347  -0.42041
 Alpha  occ. eigenvalues --   -0.41514  -0.40988  -0.40906  -0.40343  -0.39842
 Alpha  occ. eigenvalues --   -0.39209  -0.37685  -0.37002  -0.36297  -0.35495
 Alpha  occ. eigenvalues --   -0.34871  -0.34304  -0.33702  -0.33363  -0.31673
 Alpha  occ. eigenvalues --   -0.30327  -0.30182  -0.27192  -0.26619  -0.24391
 Alpha  occ. eigenvalues --   -0.22272  -0.21649  -0.11836
 Alpha virt. eigenvalues --   -0.07029  -0.04094  -0.02703  -0.01793  -0.00208
 Alpha virt. eigenvalues --    0.00019   0.00663   0.00776   0.01828   0.01867
 Alpha virt. eigenvalues --    0.01945   0.02351   0.03046   0.03317   0.03636
 Alpha virt. eigenvalues --    0.03778   0.04706   0.05186   0.05257   0.05420
 Alpha virt. eigenvalues --    0.06112   0.06645   0.06964   0.07416   0.07514
 Alpha virt. eigenvalues --    0.07805   0.07942   0.08281   0.09008   0.09362
 Alpha virt. eigenvalues --    0.10138   0.10175   0.10788   0.11239   0.11731
 Alpha virt. eigenvalues --    0.12104   0.12209   0.12522   0.12690   0.13026
 Alpha virt. eigenvalues --    0.13292   0.14097   0.14374   0.14453   0.14902
 Alpha virt. eigenvalues --    0.15199   0.15630   0.15990   0.16242   0.16414
 Alpha virt. eigenvalues --    0.16737   0.16938   0.17142   0.17429   0.17678
 Alpha virt. eigenvalues --    0.17768   0.18020   0.18276   0.18757   0.18991
 Alpha virt. eigenvalues --    0.19144   0.19530   0.19647   0.20041   0.20258
 Alpha virt. eigenvalues --    0.20437   0.20626   0.20772   0.21088   0.21358
 Alpha virt. eigenvalues --    0.21610   0.21882   0.22185   0.22481   0.22601
 Alpha virt. eigenvalues --    0.22947   0.23077   0.23309   0.23853   0.24030
 Alpha virt. eigenvalues --    0.24218   0.24409   0.24931   0.25018   0.25477
 Alpha virt. eigenvalues --    0.25676   0.25769   0.26130   0.26236   0.26508
 Alpha virt. eigenvalues --    0.26899   0.27320   0.27637   0.27793   0.28061
 Alpha virt. eigenvalues --    0.28221   0.28920   0.29027   0.29472   0.29620
 Alpha virt. eigenvalues --    0.29818   0.29987   0.30291   0.30787   0.31104
 Alpha virt. eigenvalues --    0.31695   0.31798   0.32377   0.32736   0.32991
 Alpha virt. eigenvalues --    0.33060   0.33546   0.34292   0.34446   0.34863
 Alpha virt. eigenvalues --    0.35713   0.36075   0.36581   0.37518   0.37807
 Alpha virt. eigenvalues --    0.38349   0.39168   0.39646   0.40250   0.40846
 Alpha virt. eigenvalues --    0.41519   0.41959   0.43130   0.43998   0.45007
 Alpha virt. eigenvalues --    0.45609   0.45820   0.46790   0.47302   0.48276
 Alpha virt. eigenvalues --    0.49069   0.50166   0.50694   0.50802   0.51700
 Alpha virt. eigenvalues --    0.52523   0.53240   0.53980   0.54423   0.54778
 Alpha virt. eigenvalues --    0.54873   0.55296   0.55710   0.55842   0.56586
 Alpha virt. eigenvalues --    0.56755   0.57499   0.58066   0.58201   0.58805
 Alpha virt. eigenvalues --    0.59231   0.59430   0.60052   0.60227   0.60649
 Alpha virt. eigenvalues --    0.61019   0.61754   0.62344   0.62789   0.63275
 Alpha virt. eigenvalues --    0.63553   0.63746   0.64173   0.65304   0.65724
 Alpha virt. eigenvalues --    0.65915   0.66297   0.67309   0.67391   0.67799
 Alpha virt. eigenvalues --    0.67978   0.68298   0.68492   0.69224   0.69681
 Alpha virt. eigenvalues --    0.70223   0.70283   0.70717   0.71276   0.71709
 Alpha virt. eigenvalues --    0.72110   0.72505   0.72817   0.73573   0.73971
 Alpha virt. eigenvalues --    0.74376   0.74689   0.75108   0.75466   0.75851
 Alpha virt. eigenvalues --    0.76339   0.76878   0.77157   0.77803   0.78622
 Alpha virt. eigenvalues --    0.80919   0.81550   0.81890   0.82406   0.82835
 Alpha virt. eigenvalues --    0.84027   0.84533   0.84873   0.85673   0.86553
 Alpha virt. eigenvalues --    0.87308   0.88469   0.88759   0.89578   0.89976
 Alpha virt. eigenvalues --    0.90603   0.91151   0.91659   0.92522   0.93277
 Alpha virt. eigenvalues --    0.93515   0.94028   0.94390   0.94849   0.95414
 Alpha virt. eigenvalues --    0.95664   0.95742   0.97014   0.97405   0.97580
 Alpha virt. eigenvalues --    0.98132   0.98969   0.99246   1.00238   1.00504
 Alpha virt. eigenvalues --    1.01137   1.01869   1.03004   1.03399   1.03831
 Alpha virt. eigenvalues --    1.04969   1.05257   1.05436   1.06135   1.07504
 Alpha virt. eigenvalues --    1.07830   1.09612   1.10193   1.10549   1.10868
 Alpha virt. eigenvalues --    1.11770   1.12609   1.13301   1.14323   1.15623
 Alpha virt. eigenvalues --    1.16181   1.17325   1.18115   1.19420   1.19995
 Alpha virt. eigenvalues --    1.21020   1.23639   1.27088   1.27309   1.28534
 Alpha virt. eigenvalues --    1.30816   1.32976   1.33543   1.35443   1.37407
 Alpha virt. eigenvalues --    1.37583   1.38879   1.39818   1.40570   1.42140
 Alpha virt. eigenvalues --    1.43388   1.45211   1.45724   1.47217   1.47604
 Alpha virt. eigenvalues --    1.48520   1.48949   1.49980   1.50176   1.50771
 Alpha virt. eigenvalues --    1.51662   1.51727   1.52519   1.53226   1.54664
 Alpha virt. eigenvalues --    1.55179   1.55850   1.57084   1.57308   1.57528
 Alpha virt. eigenvalues --    1.58469   1.58695   1.59802   1.60574   1.62412
 Alpha virt. eigenvalues --    1.62589   1.63624   1.63855   1.64554   1.65532
 Alpha virt. eigenvalues --    1.66729   1.67533   1.69251   1.69678   1.70206
 Alpha virt. eigenvalues --    1.71085   1.71651   1.72178   1.73842   1.74772
 Alpha virt. eigenvalues --    1.75307   1.75496   1.76158   1.76232   1.77720
 Alpha virt. eigenvalues --    1.79430   1.80442   1.80864   1.82396   1.82475
 Alpha virt. eigenvalues --    1.83374   1.84060   1.85120   1.85713   1.85985
 Alpha virt. eigenvalues --    1.87143   1.87699   1.88788   1.89178   1.89693
 Alpha virt. eigenvalues --    1.90590   1.91192   1.91534   1.91765   1.92822
 Alpha virt. eigenvalues --    1.93144   1.93874   1.94846   1.95096   1.95218
 Alpha virt. eigenvalues --    1.95327   1.96450   1.98785   1.99243   2.00943
 Alpha virt. eigenvalues --    2.01526   2.02103   2.02924   2.04654   2.04963
 Alpha virt. eigenvalues --    2.05486   2.06201   2.06247   2.07358   2.08614
 Alpha virt. eigenvalues --    2.09806   2.11452   2.12166   2.13681   2.14761
 Alpha virt. eigenvalues --    2.16008   2.16397   2.17098   2.17691   2.19432
 Alpha virt. eigenvalues --    2.20427   2.21548   2.22654   2.23967   2.25057
 Alpha virt. eigenvalues --    2.25433   2.26542   2.29395   2.29512   2.33503
 Alpha virt. eigenvalues --    2.34395   2.35680   2.36067   2.37226   2.39088
 Alpha virt. eigenvalues --    2.40248   2.42485   2.43128   2.43631   2.45039
 Alpha virt. eigenvalues --    2.46681   2.47316   2.49305   2.50333   2.53929
 Alpha virt. eigenvalues --    2.54965   2.57097   2.57901   2.59066   2.59849
 Alpha virt. eigenvalues --    2.61327   2.61794   2.64481   2.64828   2.65691
 Alpha virt. eigenvalues --    2.67415   2.68419   2.69783   2.70787   2.70973
 Alpha virt. eigenvalues --    2.71967   2.72286   2.73171   2.73905   2.74006
 Alpha virt. eigenvalues --    2.74314   2.74608   2.75475   2.75800   2.76781
 Alpha virt. eigenvalues --    2.76869   2.77154   2.78020   2.78119   2.78715
 Alpha virt. eigenvalues --    2.79568   2.80114   2.81319   2.82187   2.83129
 Alpha virt. eigenvalues --    2.83531   2.84176   2.84652   2.85834   2.87519
 Alpha virt. eigenvalues --    2.88028   2.88539   2.89109   2.89592   2.90774
 Alpha virt. eigenvalues --    2.92221   2.92634   2.94202   2.95199   2.96217
 Alpha virt. eigenvalues --    2.98582   3.01123   3.02819   3.04880   3.07336
 Alpha virt. eigenvalues --    3.08963   3.11615   3.12640   3.14273   3.17904
 Alpha virt. eigenvalues --    3.18624   3.20390   3.21570   3.22521   3.23202
 Alpha virt. eigenvalues --    3.24947   3.27227   3.29146   3.32691   3.35776
 Alpha virt. eigenvalues --    3.37163   3.39069   3.40458   3.41301   3.42099
 Alpha virt. eigenvalues --    3.42987   3.44378   3.46242   3.47320   3.48280
 Alpha virt. eigenvalues --    3.49545   3.51031   3.51963   3.54775   3.57306
 Alpha virt. eigenvalues --    3.58349   3.62420   3.64030   3.65536   3.67457
 Alpha virt. eigenvalues --    3.71133   3.74295   3.81638   3.84828   3.90911
 Alpha virt. eigenvalues --    3.96103   4.00850   4.04676   4.06208   4.07041
 Alpha virt. eigenvalues --    4.07651   4.10730   4.13013   4.13745   4.22946
 Alpha virt. eigenvalues --    4.26077   4.32002   4.37902   4.51651   4.58403
 Alpha virt. eigenvalues --    4.71429   4.79701   4.81854   4.83245   4.83661
 Alpha virt. eigenvalues --    4.90142  23.44489  23.63864  23.75289  23.78820
 Alpha virt. eigenvalues --   23.84726  23.90047  23.93395  23.95419  23.96100
 Alpha virt. eigenvalues --   23.98022  23.99141  24.00554  24.01147  24.04217
 Alpha virt. eigenvalues --   24.05465  24.06155  24.07019  24.09467  24.10265
 Alpha virt. eigenvalues --   24.11929  24.15668  24.17908  24.20018  24.26446
 Alpha virt. eigenvalues --   24.27245
  Beta  occ. eigenvalues --  -10.19994 -10.19684 -10.19586 -10.19519 -10.19479
  Beta  occ. eigenvalues --  -10.18814 -10.18704 -10.18560 -10.18553 -10.18393
  Beta  occ. eigenvalues --  -10.18361 -10.18252 -10.18186 -10.18161 -10.18151
  Beta  occ. eigenvalues --  -10.18139 -10.18129 -10.18110 -10.18094 -10.18086
  Beta  occ. eigenvalues --  -10.18022 -10.17934 -10.17888 -10.17141 -10.16676
  Beta  occ. eigenvalues --   -0.92255  -0.88951  -0.85945  -0.84492  -0.83056
  Beta  occ. eigenvalues --   -0.80266  -0.78761  -0.77653  -0.75669  -0.74435
  Beta  occ. eigenvalues --   -0.72943  -0.70679  -0.68778  -0.65396  -0.64516
  Beta  occ. eigenvalues --   -0.62721  -0.61811  -0.59483  -0.59124  -0.56732
  Beta  occ. eigenvalues --   -0.55062  -0.52577  -0.52036  -0.51493  -0.50243
  Beta  occ. eigenvalues --   -0.48521  -0.47876  -0.47212  -0.46426  -0.45426
  Beta  occ. eigenvalues --   -0.44450  -0.43933  -0.43899  -0.42175  -0.41438
  Beta  occ. eigenvalues --   -0.41119  -0.40687  -0.40409  -0.39796  -0.39622
  Beta  occ. eigenvalues --   -0.38881  -0.37193  -0.36232  -0.35947  -0.35312
  Beta  occ. eigenvalues --   -0.34720  -0.33629  -0.33299  -0.32824  -0.30729
  Beta  occ. eigenvalues --   -0.29264  -0.27944  -0.26314  -0.25224  -0.23443
  Beta  occ. eigenvalues --   -0.20891
  Beta virt. eigenvalues --   -0.15621  -0.06207  -0.05554  -0.03160  -0.01741
  Beta virt. eigenvalues --   -0.00725   0.00065   0.00665   0.00819   0.01448
  Beta virt. eigenvalues --    0.01869   0.01920   0.02277   0.02698   0.03117
  Beta virt. eigenvalues --    0.03393   0.03751   0.04406   0.04773   0.05277
  Beta virt. eigenvalues --    0.05373   0.05640   0.06424   0.06873   0.07263
  Beta virt. eigenvalues --    0.07651   0.07706   0.07883   0.08067   0.08454
  Beta virt. eigenvalues --    0.09084   0.09520   0.10347   0.10529   0.10941
  Beta virt. eigenvalues --    0.11479   0.12024   0.12238   0.12512   0.12583
  Beta virt. eigenvalues --    0.12842   0.13134   0.13436   0.14215   0.14527
  Beta virt. eigenvalues --    0.14592   0.15038   0.15388   0.15716   0.16130
  Beta virt. eigenvalues --    0.16353   0.16474   0.16832   0.17132   0.17259
  Beta virt. eigenvalues --    0.17547   0.17781   0.18136   0.18168   0.18314
  Beta virt. eigenvalues --    0.18986   0.19095   0.19262   0.19587   0.19828
  Beta virt. eigenvalues --    0.20144   0.20377   0.20660   0.20832   0.20898
  Beta virt. eigenvalues --    0.21241   0.21464   0.21730   0.22030   0.22367
  Beta virt. eigenvalues --    0.22593   0.22766   0.23043   0.23226   0.23543
  Beta virt. eigenvalues --    0.24029   0.24295   0.24422   0.24708   0.25024
  Beta virt. eigenvalues --    0.25119   0.25628   0.25760   0.25940   0.26207
  Beta virt. eigenvalues --    0.26357   0.26574   0.27044   0.27438   0.27736
  Beta virt. eigenvalues --    0.27964   0.28250   0.28315   0.29046   0.29171
  Beta virt. eigenvalues --    0.29597   0.29808   0.29936   0.30105   0.30416
  Beta virt. eigenvalues --    0.30926   0.31247   0.31821   0.31933   0.32547
  Beta virt. eigenvalues --    0.32835   0.33148   0.33155   0.33651   0.34458
  Beta virt. eigenvalues --    0.34575   0.35003   0.35828   0.36211   0.36731
  Beta virt. eigenvalues --    0.37680   0.38002   0.38452   0.39367   0.39826
  Beta virt. eigenvalues --    0.40436   0.41032   0.41687   0.42196   0.43327
  Beta virt. eigenvalues --    0.44108   0.45326   0.45848   0.46192   0.47061
  Beta virt. eigenvalues --    0.47518   0.48568   0.49307   0.50457   0.50867
  Beta virt. eigenvalues --    0.51106   0.52119   0.53158   0.53956   0.54189
  Beta virt. eigenvalues --    0.54646   0.55064   0.55240   0.55619   0.55966
  Beta virt. eigenvalues --    0.56191   0.56935   0.57190   0.57890   0.58374
  Beta virt. eigenvalues --    0.58562   0.59018   0.59562   0.59641   0.60379
  Beta virt. eigenvalues --    0.60643   0.61224   0.61372   0.61979   0.62600
  Beta virt. eigenvalues --    0.63130   0.63621   0.63770   0.64182   0.64404
  Beta virt. eigenvalues --    0.65569   0.66039   0.66301   0.66570   0.67492
  Beta virt. eigenvalues --    0.67604   0.68049   0.68235   0.68546   0.68938
  Beta virt. eigenvalues --    0.69560   0.69998   0.70307   0.70802   0.71011
  Beta virt. eigenvalues --    0.71508   0.71875   0.72334   0.72711   0.72951
  Beta virt. eigenvalues --    0.73798   0.74172   0.74597   0.74814   0.75331
  Beta virt. eigenvalues --    0.75739   0.76036   0.76586   0.77192   0.77333
  Beta virt. eigenvalues --    0.78042   0.78829   0.81091   0.81762   0.82094
  Beta virt. eigenvalues --    0.82584   0.83049   0.84254   0.84692   0.85077
  Beta virt. eigenvalues --    0.85822   0.86823   0.87566   0.88724   0.88967
  Beta virt. eigenvalues --    0.89909   0.90397   0.90924   0.91399   0.91912
  Beta virt. eigenvalues --    0.92855   0.93568   0.93721   0.94262   0.94630
  Beta virt. eigenvalues --    0.95081   0.95719   0.95863   0.96040   0.97252
  Beta virt. eigenvalues --    0.97600   0.97800   0.98531   0.99363   0.99629
  Beta virt. eigenvalues --    1.00676   1.00956   1.01421   1.02396   1.03620
  Beta virt. eigenvalues --    1.03848   1.04265   1.05299   1.05457   1.05860
  Beta virt. eigenvalues --    1.06466   1.07835   1.08332   1.10069   1.10557
  Beta virt. eigenvalues --    1.10819   1.11554   1.12146   1.13080   1.13664
  Beta virt. eigenvalues --    1.14667   1.16071   1.16575   1.17698   1.18438
  Beta virt. eigenvalues --    1.19803   1.20324   1.21326   1.23846   1.27405
  Beta virt. eigenvalues --    1.27599   1.28815   1.31013   1.33330   1.33798
  Beta virt. eigenvalues --    1.35757   1.37742   1.37783   1.39188   1.40220
  Beta virt. eigenvalues --    1.40984   1.42506   1.43776   1.45310   1.45930
  Beta virt. eigenvalues --    1.47521   1.47956   1.48991   1.49216   1.50133
  Beta virt. eigenvalues --    1.50507   1.51268   1.51910   1.51971   1.52817
  Beta virt. eigenvalues --    1.53803   1.54856   1.55363   1.56070   1.57461
  Beta virt. eigenvalues --    1.57524   1.57783   1.58827   1.59057   1.60113
  Beta virt. eigenvalues --    1.60875   1.62767   1.62975   1.63916   1.64140
  Beta virt. eigenvalues --    1.64847   1.65651   1.66955   1.67894   1.69706
  Beta virt. eigenvalues --    1.69858   1.70395   1.71252   1.71900   1.72524
  Beta virt. eigenvalues --    1.74070   1.74990   1.75637   1.75780   1.76446
  Beta virt. eigenvalues --    1.76516   1.77962   1.79638   1.80823   1.81157
  Beta virt. eigenvalues --    1.82620   1.82691   1.83795   1.84729   1.85349
  Beta virt. eigenvalues --    1.86238   1.86643   1.87500   1.88280   1.89147
  Beta virt. eigenvalues --    1.89544   1.89928   1.90879   1.91624   1.91890
  Beta virt. eigenvalues --    1.92137   1.93281   1.93617   1.94230   1.95152
  Beta virt. eigenvalues --    1.95478   1.95580   1.95680   1.96754   1.99137
  Beta virt. eigenvalues --    1.99485   2.01201   2.01899   2.02650   2.03159
  Beta virt. eigenvalues --    2.05033   2.05269   2.05812   2.06368   2.06899
  Beta virt. eigenvalues --    2.07626   2.08913   2.10033   2.11864   2.12489
  Beta virt. eigenvalues --    2.13960   2.15051   2.16256   2.16648   2.17789
  Beta virt. eigenvalues --    2.18074   2.19683   2.20790   2.21731   2.22929
  Beta virt. eigenvalues --    2.24424   2.25339   2.25871   2.26929   2.29706
  Beta virt. eigenvalues --    2.29852   2.33862   2.34712   2.36016   2.36429
  Beta virt. eigenvalues --    2.37358   2.39361   2.40694   2.42646   2.43244
  Beta virt. eigenvalues --    2.43778   2.45347   2.46989   2.47554   2.49578
  Beta virt. eigenvalues --    2.50931   2.54200   2.55187   2.57451   2.58135
  Beta virt. eigenvalues --    2.59256   2.60228   2.61560   2.62011   2.65146
  Beta virt. eigenvalues --    2.65301   2.66232   2.67709   2.69060   2.69986
  Beta virt. eigenvalues --    2.70982   2.71370   2.72103   2.72496   2.73264
  Beta virt. eigenvalues --    2.73977   2.74097   2.74420   2.74775   2.75885
  Beta virt. eigenvalues --    2.76357   2.76902   2.77024   2.77345   2.78120
  Beta virt. eigenvalues --    2.78414   2.78972   2.79810   2.80985   2.81806
  Beta virt. eigenvalues --    2.82590   2.83358   2.83972   2.84596   2.84976
  Beta virt. eigenvalues --    2.85932   2.88260   2.88650   2.88904   2.89444
  Beta virt. eigenvalues --    2.89827   2.90972   2.92837   2.93324   2.94500
  Beta virt. eigenvalues --    2.96012   2.96430   2.99048   3.01955   3.03524
  Beta virt. eigenvalues --    3.05471   3.07608   3.09364   3.12383   3.12845
  Beta virt. eigenvalues --    3.14744   3.18386   3.18969   3.20498   3.21725
  Beta virt. eigenvalues --    3.22625   3.23277   3.25039   3.27447   3.29309
  Beta virt. eigenvalues --    3.32856   3.35952   3.37328   3.39183   3.40573
  Beta virt. eigenvalues --    3.41411   3.42256   3.43102   3.44483   3.46395
  Beta virt. eigenvalues --    3.47450   3.48519   3.49757   3.51203   3.52164
  Beta virt. eigenvalues --    3.54927   3.57376   3.58481   3.62582   3.64345
  Beta virt. eigenvalues --    3.65748   3.67664   3.71568   3.74480   3.81896
  Beta virt. eigenvalues --    3.85057   3.91118   3.96294   4.01008   4.04820
  Beta virt. eigenvalues --    4.06360   4.07277   4.08072   4.11302   4.13210
  Beta virt. eigenvalues --    4.13951   4.23577   4.26365   4.32349   4.38273
  Beta virt. eigenvalues --    4.51767   4.58794   4.71943   4.80068   4.82165
  Beta virt. eigenvalues --    4.83602   4.84114   4.90560  23.44639  23.63965
  Beta virt. eigenvalues --   23.75383  23.78920  23.84884  23.90243  23.93635
  Beta virt. eigenvalues --   23.95493  23.96117  23.98122  23.99394  24.00698
  Beta virt. eigenvalues --   24.01239  24.04423  24.05625  24.06480  24.07217
  Beta virt. eigenvalues --   24.09594  24.10538  24.12036  24.15959  24.17992
  Beta virt. eigenvalues --   24.20141  24.26456  24.27322
          Condensed to atoms (all electrons):
               1          2          3          4          5          6
     1  C   10.121669   1.143689  -0.896597   0.298678  -2.243887   0.281749
     2  C    1.143689   7.646558   0.594877   0.181296  -0.031361   0.712231
     3  C   -0.896597   0.594877   7.181576   0.378236   1.360757  -0.650527
     4  C    0.298678   0.181296   0.378236   9.195130  -0.983420  -0.619860
     5  C   -2.243887  -0.031361   1.360757  -0.983420   9.603768   0.114572
     6  C    0.281749   0.712231  -0.650527  -0.619860   0.114572  10.684162
     7  C    0.057051  -1.525255  -0.233970   0.369433  -0.221411  -1.209968
     8  C   -0.717853  -0.148156   0.287076  -1.176777   0.282980  -1.007171
     9  C    0.069331  -0.050015  -0.482722  -0.090785  -0.328735   0.035372
    10  C   -0.267107  -0.294476   0.239967   1.103286  -0.256211  -0.766910
    11  C    0.140203  -0.275030   0.112734  -0.774434  -0.071123  -0.206790
    12  C    0.003374   0.259413  -0.090003   0.319101  -0.035652   0.236022
    13  C   -0.030237  -0.085653  -0.244655  -0.284899   0.005819  -0.281275
    14  C   -0.076371  -0.008747  -0.613118  -0.632915  -0.083116  -0.308209
    15  C   -0.213997  -0.392384  -0.308069  -0.467477   0.045137  -0.136720
    16  C    0.023330  -0.024366   0.040037   0.018379  -0.007366   0.013338
    17  C   -0.000643  -0.000955  -0.037065  -0.037926   0.000456  -0.009089
    18  C   -0.000411   0.048846  -0.013938   0.117172   0.000557   0.020024
    19  C   -1.332150  -1.863641  -0.986793   0.070349  -0.819689   0.388692
    20  C    0.201435   0.776866  -0.123488  -0.146598  -0.368412  -0.044486
    21  C    0.213576   0.093560  -0.028404   0.146149  -0.240680  -0.011113
    22  C    0.672723   0.678090  -0.358252   0.056539  -0.734862  -0.158947
    23  C   -1.593858  -1.822113   0.773676  -1.286183   0.972959  -1.020629
    24  H   -0.008336   0.029282   0.001741   0.001933  -0.002055  -0.001564
    25  H    0.008286  -0.013617   0.002395   0.001632   0.011056  -0.001157
    26  H   -0.082627   0.033210  -0.011532   0.002976   0.037877   0.013407
    27  H   -0.091033   0.000779  -0.003649   0.034185   0.373496  -0.045533
    28  H   -0.032572  -0.002158   0.029558  -0.068365   0.008081   0.323939
    29  H    0.007433  -0.007918   0.004983  -0.063668   0.004237   0.031180
    30  H    0.000330   0.001478   0.007258   0.046761   0.000855   0.008020
    31  H    0.000038   0.000042   0.001441   0.004341   0.000020   0.000296
    32  H   -0.000009   0.000017  -0.000404   0.000497   0.000002   0.000040
    33  H   -0.000027   0.000102  -0.000660  -0.000122   0.000005  -0.000016
    34  H    0.000001  -0.000005  -0.000005   0.000050   0.000000   0.000001
    35  H   -0.003856  -0.028894  -0.007913  -0.010262  -0.000719  -0.009215
    36  C    0.195751   0.300768  -0.060689   0.079763   0.007372  -0.173568
    37  C   -0.147684   0.092047   0.199416  -0.169148  -0.051921   0.214997
    38  H   -0.003559  -0.001260  -0.001391  -0.000017   0.000680  -0.000617
    39  H   -0.000360  -0.002638  -0.001041  -0.000759  -0.000143   0.000070
               7          8          9         10         11         12
     1  C    0.057051  -0.717853   0.069331  -0.267107   0.140203   0.003374
     2  C   -1.525255  -0.148156  -0.050015  -0.294476  -0.275030   0.259413
     3  C   -0.233970   0.287076  -0.482722   0.239967   0.112734  -0.090003
     4  C    0.369433  -1.176777  -0.090785   1.103286  -0.774434   0.319101
     5  C   -0.221411   0.282980  -0.328735  -0.256211  -0.071123  -0.035652
     6  C   -1.209968  -1.007171   0.035372  -0.766910  -0.206790   0.236022
     7  C   10.619601   0.144920  -0.092568   0.337751   0.096927   0.080125
     8  C    0.144920   9.231453  -2.321470   0.042572   1.388816  -2.156264
     9  C   -0.092568  -2.321470  14.625131   0.719578  -1.010397   2.211354
    10  C    0.337751   0.042572   0.719578   8.415308  -0.821847  -0.822216
    11  C    0.096927   1.388816  -1.010397  -0.821847   8.677075  -0.101616
    12  C    0.080125  -2.156264   2.211354  -0.822216  -0.101616  12.748551
    13  C   -0.695478   1.220601  -3.076788  -0.535613  -0.861142  -2.084344
    14  C   -0.676373   0.165897   0.370697  -1.385941  -0.210302  -1.389237
    15  C    0.348279   1.259777  -2.102864  -0.045151   0.865852  -1.635917
    16  C   -0.545953  -0.819414   0.489267   0.075431  -1.340627   1.549202
    17  C    0.068778   0.121551  -0.566269  -0.128238   1.142249  -1.254170
    18  C    0.181398  -0.695224   0.081167   0.097952  -0.587331   0.050648
    19  C    0.423435  -0.077836   0.120201   0.088517   0.027533   0.007220
    20  C   -0.382364  -0.054319  -0.115404  -0.050087   0.007500  -0.003077
    21  C    0.009731   0.026724   0.129601  -0.045386   0.029787  -0.035047
    22  C   -1.561302  -0.596358   0.051018  -0.162355   0.538752   0.033296
    23  C    0.518864   1.430453  -2.670067   0.197069  -0.493655  -0.972596
    24  H   -0.006185   0.001270  -0.000884  -0.000068  -0.001656  -0.000053
    25  H    0.006034   0.000002   0.000117   0.000253  -0.000069  -0.000011
    26  H    0.002261  -0.000433  -0.000430   0.000162   0.000030  -0.000008
    27  H    0.003432   0.000487   0.003781   0.005638   0.000081  -0.000007
    28  H   -0.013134   0.011503   0.021573   0.045027   0.000385  -0.000244
[...]
 -0.00725287,-0.01315928,0.02853840,-0.00319924,0.00113222,-0.00019174,
 -0.00001076,-0.00124020,-0.00117447,0.00012949,0.00065454,-0.00007594,
 0.00068831,0.00171539,0.00066019,0.00001725,-0.00076092,0.00003571,0.0
 0114758,0.00095606,-0.00031844,-0.00171192,-0.00073555,0.00029765,0.00
 001922,-0.00049764,-0.00046182,0.00068519,0.00051492,-0.00000105,-0.00
 020101,0.00014656,0.00007858,0.00021386,0.00019427,-0.00009253,0.00003
 197,0.00069787,-0.00016702,-0.00064084,-0.00040587,0.00022603,0.000739
 53,0.00045742,0.00004573,-0.00005345,0.00102379,-0.00327493,-0.0121786
 5,-0.05153209,0.05015778,0.00008601,-0.00018371,0.00002860,0.00000495,
 -0.00001458,0.00000500,-0.00001430,0.00001352,0.00004164,-0.00000981,0
 .00000821,0.00002339,-0.00003997,0.00000879,0.00015929,-0.00000288,-0.
 00002354,0.00003242,0.00002149,-0.00001116,0.00023555,0.00001240,0.000
 04115,0.00000883,-0.00001313,0.00000498,-0.00002067,0.00005677,0.00001
 661,-0.00001050,0.00000148,0.00001539,0.00000644,0.01712712,0.06198326
 ,0.00009760,0.00091779,-0.00028139,0.00009549,-0.00083200,-0.00027166,
 -0.00133605,-0.00015695,-0.00075129,0.00073675,0.00028355,-0.00019532,
 0.00043433,-0.00078949,0.00012793,-0.00076499,0.00021492,0.00002287,-0
 .00022909,0.00757714,-0.00276665,0.00149969,-0.00047509,0.00101271,-0.
 00008946,0.00056574,-0.00003127,-0.00038901,-0.00017398,0.00011570,-0.
 00127059,-0.00008383,-0.00072161,-0.00009115,-0.00025587,0.00024794,-0
 .00053752,0.00005863,0.00019458,0.00037259,-0.00002381,-0.00015456,-0.
 00158721,0.00152841,-0.00056409,0.00123500,0.00022916,0.00007832,-0.00
 026219,0.00036927,0.00018165,0.00023037,0.00000429,-0.00010236,-0.0001
 0623,-0.00095486,0.00009339,0.00107240,0.00059974,-0.00002119,-0.00102
 074,0.00029017,0.00086973,0.00360218,0.00011254,-0.00048549,0.06152727
 ,0.05001560,-0.25387885,0.00009413,-0.00013931,-0.00028400,0.00003768,
 0.00001462,0.00000491,0.00000487,-0.00002098,-0.00002353,0.00000652,-0
 .00001598,0.00001971,-0.00001103,0.00000446,0.00000545,-0.00000216,-0.
 00000103,-0.00002323,0.00000665,0.00000656,-0.00000360,-0.00000821,0.0
 0000091,-0.00001417,-0.00001339,0.00001186,-0.00001547,0.00002758,-0.0
 0001647,-0.00006574,-0.00001564,0.00000610,-0.00000662,-0.06347339,-0.
 05339757,0.27961848,-0.00096207,-0.00352094,0.00025418,0.00096767,-0.0
 0071229,0.00076087,-0.00180978,-0.00223591,-0.00146578,-0.00496891,0.0
 0257690,0.00006563,-0.00229220,0.00369965,-0.00045380,0.00404570,-0.00
 081705,0.00002726,-0.00299594,0.00148455,-0.00601452,-0.00006025,-0.00
 529161,-0.00059570,0.00009138,0.00489456,-0.00034402,0.00191503,-0.001
 96211,-0.00005646,0.01225103,0.00417542,0.00556799,0.00502591,-0.00193
 405,0.00049353,-0.00194384,-0.00360443,0.00023185,0.00449805,0.0009107
 2,-0.00046791,-0.13278452,0.04817697,0.01719506,-0.05789523,0.02280180
 ,0.01396053,0.00051247,-0.01083538,-0.00110438,-0.00276040,0.00234321,
 0.00081963,-0.00054111,0.00169157,-0.00023730,-0.00119277,-0.00130611,
 0.00047355,0.00155592,-0.00024629,-0.00030817,-0.00000404,-0.00052144,
 -0.00052701,-0.01598388,-0.01034163,-0.00140736,-0.00004317,0.00001780
 ,-0.00013709,-0.00005376,-0.00001211,-0.00001181,0.00001185,0.00001244
 ,-0.00002277,-0.00000294,0.00007970,0.00007487,0.00002767,-0.00003664,
 0.00003617,0.00000807,-0.00002520,0.00004809,0.00007781,-0.00006406,-0
 .00003700,-0.00007669,-0.00037517,-0.00021103,0.00013494,0.00011718,0.
 00004702,-0.00025721,0.00271218,0.00047237,-0.00082961,0.00061893,0.00
 031171,0.00071265,0.00072024,0.00294055,0.79627706,0.00119953,0.002373
 74,0.00027135,-0.00201605,0.00050710,-0.00010349,0.00078678,0.00113552
 ,0.00005621,0.00373234,-0.00165794,0.00003487,0.00172823,-0.00261105,0
 .00021552,-0.00303383,0.00040390,0.00013520,0.00021967,0.00242324,0.00
 181817,-0.00089226,0.00347570,-0.00006125,0.00052461,-0.00361293,0.000
 55543,-0.00146629,0.00152034,-0.00001957,0.01946715,-0.01826953,-0.012
 40408,-0.00548428,-0.00444247,-0.00125873,0.00310823,0.00245333,-0.000
 40482,-0.00393485,-0.00112979,0.00042764,0.05197129,-0.15575470,-0.042
 92847,0.01414740,0.01095674,-0.00020149,-0.00689225,0.00505335,-0.0004
 9469,0.00139232,-0.00236820,-0.00066735,0.00005060,-0.00088393,0.00007
 875,0.00036316,0.00086553,-0.00003311,-0.00118131,-0.00037216,0.000527
 95,0.00041612,-0.00263384,-0.00302703,-0.02214818,0.00468249,-0.010634
 44,-0.00013311,0.00019746,-0.00024499,-0.00005830,-0.00000749,0.000047
 84,-0.00001574,0.00000517,-0.00002087,-0.00001689,-0.00012213,-0.00009
 023,-0.00002968,0.00003149,0.00003815,0.00000908,0.00000129,-0.0001114
 5,-0.00008127,0.00004752,0.00004987,0.00000432,-0.00025475,0.00019324,
 0.00005045,0.00005731,0.00025177,-0.00171286,-0.00035738,0.00195945,-0
 .00080124,0.00061327,0.00028007,-0.00125184,-0.00000888,-0.00210191,-0
 .02527071,0.43132421,0.00038682,0.00104299,-0.00002319,-0.00163646,-0.
 00007073,0.00026596,-0.00012852,-0.00009221,0.00068216,0.00164453,-0.0
 0074121,0.00002755,0.00085298,-0.00132016,0.00015600,-0.00147925,0.000
 12001,-0.00007548,-0.00051747,0.00135462,0.00114457,-0.00212532,0.0021
 5923,-0.00218312,0.00043326,-0.00186761,-0.00005551,-0.00071140,0.0008
 9234,0.00011843,0.00509109,-0.00270808,-0.00060984,-0.00037623,-0.0027
 5125,0.00606752,0.00154417,0.00117265,-0.00001047,-0.00181413,-0.00055
 299,0.00025953,0.03079377,-0.05117632,-0.08800671,0.01376942,-0.001017
 43,0.00303638,-0.00183931,0.00140583,0.00617737,-0.00039919,-0.0010612
 0,-0.00113398,-0.00007629,-0.00061040,0.00003207,0.00045467,0.00049751
 ,0.00008963,-0.00095394,-0.00007353,0.00038985,0.00163121,-0.00270885,
 -0.00231161,-0.02410342,-0.00066073,-0.00571697,-0.00003476,0.00007695
 ,-0.00021940,-0.00007285,-0.00000477,0.00000449,-0.00001136,-0.0000107
 9,-0.00001842,-0.00000911,-0.00007208,0.00002102,-0.00002741,-0.000003
 80,-0.00001194,0.00004383,0.00000662,-0.00002781,-0.00002058,0.0000400
 0,0.00002029,-0.00007731,-0.00005858,-0.00017914,-0.00015232,0.0000820
 0,-0.00078305,-0.00181700,-0.00009565,-0.00268076,-0.00026918,0.000156
 86,0.00025081,-0.00172143,-0.00043379,0.00114715,0.11260722,0.20370287
 ,0.29908123,0.00049101,0.00219475,0.00117224,-0.00439657,0.00169961,-0
 .00071474,0.00087443,0.00385279,-0.00070069,0.00437192,-0.00216744,-0.
 00026314,0.00140270,-0.00276792,0.00025405,-0.00306040,0.00087392,-0.0
 0006192,0.00758258,-0.00658204,0.00904202,-0.00165589,0.00502133,-0.00
 076631,-0.00057112,-0.00342964,0.00029456,-0.00156952,0.00127844,0.000
 04585,0.00021945,-0.00249104,-0.00389952,-0.00327639,-0.00106924,0.000
 54445,0.00208754,0.00232177,-0.00016447,-0.00327201,-0.00058228,0.0002
 9213,-0.03816629,0.01071226,0.00739393,0.01349719,0.00372605,0.0003915
 1,-0.00259088,0.00442506,0.00190763,0.00135433,-0.00171071,-0.00069672
 ,0.00025714,-0.00158362,0.00003081,0.00110499,0.00093980,0.00064894,0.
 00003524,-0.00103983,0.00061185,-0.01890742,-0.02121138,-0.02043106,-0
 .11281037,-0.02353482,-0.04629402,-0.00007024,0.00035556,-0.00040685,0
 .00000623,0.00004353,0.00005433,-0.00001498,-0.00001450,-0.00010192,-0
 .00001014,-0.00015789,-0.00002332,0.00004516,0.00004879,0.00005923,0.0
 0000230,0.00004146,-0.00004735,-0.00007447,0.00007828,0.00005432,0.000
 04074,0.00001745,0.00013778,-0.00005415,0.00007341,-0.00022754,0.00004
 065,-0.00013836,-0.00059035,-0.00019265,0.00017219,0.00007418,0.002218
 15,0.00211149,-0.00191186,-0.48784681,0.02976368,-0.07721345,0.7777572
 9,-0.00024006,0.00172745,-0.00037850,0.00141012,0.00041847,-0.00171538
 ,0.00116700,-0.00191066,0.00114426,0.00186951,-0.00089944,0.00087076,0
 .00119326,-0.00195027,0.00031986,-0.00215136,0.00045090,0.00001631,-0.
 01227984,-0.02852698,-0.01524508,0.00097639,0.00360219,0.00013490,-0.0
 0103193,-0.00199137,0.00129133,-0.00068186,0.00085001,-0.00005186,0.00
 079752,0.00113479,-0.00156672,-0.00181024,-0.00044187,-0.00008489,0.00
 123454,0.00125575,-0.00005846,-0.00159440,0.00018831,0.00007953,0.0151
 5670,0.00504726,0.00569351,0.00615115,-0.00323528,-0.00202640,0.000208
 98,0.00241921,0.00070446,0.00125477,-0.00053515,-0.00025206,0.00102346
 ,-0.00090789,0.00017829,0.00060479,0.00059155,-0.00041356,0.00131382,0
 .00025873,-0.00060850,-0.00602040,0.00221107,0.00421765,-0.03142311,-0
 .11377454,-0.06120326,0.00005447,-0.00008677,0.00044776,0.00018893,0.0
 0002379,-0.00003080,0.00000020,-0.00000093,-0.00000082,0.00002520,0.00
 003874,0.00000322,-0.00005851,-0.00000193,-0.00016210,-0.00002381,0.00
 002976,-0.00002407,-0.00014495,0.00003232,-0.00012612,0.00001816,-0.00
 001999,0.00006000,-0.00003243,0.00000001,-0.00009644,0.00030289,0.0005
 2924,-0.00006337,0.00032663,-0.00022327,-0.00010093,0.00129990,0.00410
 063,-0.00223828,0.05187436,-0.09690678,-0.02049878,-0.11080443,0.41801
 551,-0.00091930,0.00021330,-0.00025398,0.00279241,0.00068284,-0.000985
 22,0.00084323,0.00237125,0.00012165,-0.00000359,-0.00021561,-0.0002744
 1,-0.00017284,0.00031280,0.00009340,0.00038897,0.00032717,-0.00015384,
 0.00293829,-0.00880396,0.00216752,0.00022362,0.00084593,0.00056706,-0.
 00094027,0.00083422,0.00018317,0.00009787,-0.00042677,0.00000477,0.001
 55126,-0.00067108,-0.00096296,-0.00024602,0.00118456,-0.00070339,-0.00
 042111,-0.00085714,0.00016770,0.00128928,0.00083593,-0.00024813,0.0143
 0074,0.00031328,0.00770467,-0.00076122,-0.00385284,0.00088817,0.001220
 99,-0.00048075,-0.00035437,-0.00000234,-0.00023431,0.00011356,0.000386
 94,-0.00045106,0.00007747,0.00038897,-0.00010133,-0.00034827,0.0010182
 7,0.00041538,0.00023305,-0.00501610,0.00429040,0.00268739,-0.04148474,
 -0.05731833,-0.12025524,0.00020903,-0.00022488,0.00055182,0.00016567,0
 .00001761,-0.00004652,0.00004200,-0.00001447,0.00005497,0.00004059,0.0
 0009955,-0.00003465,0.00006580,0.00003692,-0.00001036,-0.00002839,0.00
 005212,0.00002387,-0.00003975,0.00000563,-0.00005024,-0.00001369,-0.00
 006943,0.00002961,0.00001698,-0.00003932,0.00005201,0.00009404,0.00027
 623,0.00002459,0.00022603,-0.00015043,-0.00019292,-0.01694428,-0.02113
 196,-0.02261943,-0.07341065,-0.01880393,-0.08406266,0.07316787,0.20233
 923,0.31811724,0.00015411,0.00021516,-0.00010757,-0.00006906,-0.000176
 56,-0.00015624,-0.00004276,-0.00036008,0.00065348,0.00038218,-0.000141
 52,0.00015229,0.00024984,-0.00032832,0.00008063,-0.00045096,-0.0000077
 9,-0.00003904,-0.00065520,-0.00011406,-0.00181262,-0.00021747,0.000055
 19,-0.00002518,0.00020378,-0.00020724,0.00007024,-0.00027384,0.0002215
 4,0.00001849,-0.00039160,0.00035824,0.00009621,0.00003180,-0.00003345,
 0.00026448,-0.00012353,0.00009286,0.00002754,-0.00014272,-0.00009625,0
 .00000177,-0.00336071,-0.00104898,-0.00300915,0.00056379,0.00119419,0.
 00018719,-0.00048285,0.00007794,0.00032950,0.00005560,-0.00009675,-0.0
 0008096,0.00013017,-0.00003317,-0.00000081,-0.00018142,0.00011493,0.00
 014217,0.00014265,0.00012266,0.00017295,0.00133850,-0.00069151,-0.0002
 8812,0.00688628,-0.01302508,-0.00898247,-0.00010556,0.00010547,-0.0002
 5609,0.00001502,-0.00000837,-0.00002899,0.00000088,0.00001643,-0.00002
 146,0.00000476,-0.00000623,0.00001493,-0.00001867,-0.00000028,-0.00003
 720,0.00000261,0.00000152,0.00000476,0.00000313,0.00000653,-0.00001393
 ,-0.00000716,0.00003004,-0.00001113,-0.00001885,0.00002095,-0.00003279
 ,-0.00002341,-0.00007888,-0.00011728,-0.00010263,0.00007801,0.00004481
 ,-0.00017846,-0.00043832,-0.00070653,-0.01444497,0.02441605,0.01393972
 ,-0.12152328,0.10228557,0.06043226,0.13248366,0.00033642,0.00034488,-0
 .00013998,-0.00050921,-0.00025771,0.00008849,0.00030300,-0.00016328,0.
 00046651,0.00051825,-0.00037989,0.00005922,0.00026326,-0.00049306,0.00
 006945,-0.00056665,0.00004910,-0.00000546,-0.00098876,0.00010927,-0.00
 161328,-0.00043487,0.00042795,-0.00009827,0.00006400,-0.00054550,0.000
 11491,-0.00021975,0.00034184,0.00002225,-0.00065865,0.00108932,0.00019
 614,-0.00018506,-0.00048947,0.00051621,0.00038954,0.00046218,-0.000070
 05,-0.00068862,-0.00024399,0.00009987,-0.00086042,0.00495803,-0.004511
 01,0.00252042,-0.00057114,-0.00010654,-0.00015990,0.00092058,0.0006341
 0,0.00011029,-0.00015521,-0.00017030,0.00006721,-0.00002291,-0.0000195
 8,-0.00013330,0.00023593,0.00002833,-0.00070438,0.00021662,0.00026259,
 0.00185295,0.00064471,0.00043076,0.00711589,-0.00899550,-0.00909499,-0
 .00007938,0.00013537,-0.00013056,-0.00002015,-0.00000727,-0.00000954,-
 0.00001180,0.00000883,-0.00000865,-0.00000690,-0.00001317,0.00000883,-
 0.00002403,-0.00000703,-0.00002216,-0.00001185,-0.00001296,-0.00000853
 ,-0.00001446,-0.00000787,-0.00000930,0.00000144,0.00001563,-0.00001097
 ,-0.00001201,0.00000040,-0.00005793,0.00004256,0.00002515,-0.00013632,
 0.00003634,-0.00001727,-0.00004020,-0.00036719,-0.00146648,-0.00049632
 ,0.00100391,0.00075478,-0.00432016,0.10492263,-0.19567641,-0.10167024,
 -0.11196116,0.20042866,-0.00009617,-0.00114786,0.00016514,0.00034187,-
 0.00008539,0.00013775,0.00051535,-0.00056349,-0.00059078,-0.00156547,0
 .00032617,0.00014343,-0.00072384,0.00124608,-0.00013044,0.00137410,-0.
 00035553,0.00005433,-0.00222114,0.00005566,-0.00197078,0.00059828,-0.0
 0130268,0.00074575,0.00020695,0.00102780,-0.00006249,0.00048937,-0.000
 35621,-0.00004338,0.00016117,-0.00167041,-0.00057175,0.00036332,0.0005
 4210,-0.00053316,-0.00058734,-0.00071509,0.00008038,0.00094556,0.00010
 467,-0.00011110,0.00020106,-0.00344875,0.00636409,-0.00336163,0.000583
 22,0.00060529,0.00026308,-0.00124887,-0.00085527,-0.00018797,0.0003928
 0,0.00021336,-0.00012017,0.00077211,-0.00011109,-0.00071485,-0.0002840
 0,0.00011881,0.00041581,-0.00025591,0.00009484,0.00096357,0.00040127,0
 .00070719,0.00821527,-0.01323674,-0.00239531,-0.00025419,0.00029867,-0
 .00021698,-0.00003143,-0.00001804,0.00000930,0.00000771,0.00003765,-0.
 00000775,-0.00000660,0.00001723,-0.00002694,-0.00001122,-0.00001654,-0
 .00000607,0.00000214,-0.00001360,0.00001407,0.00003156,-0.00002179,-0.
 00001410,-0.00000187,-0.00000731,0.00000063,0.00002378,-0.00000447,0.0
 0008558,-0.00000997,-0.00004008,0.00017000,-0.00005072,0.00002646,0.00
 001621,-0.00060033,-0.00030861,-0.00136703,-0.00716976,0.00413701,0.00
 689849,0.06373984,-0.10396865,-0.10219381,-0.06210420,0.11525461,0.098
 68411,-0.00003576,-0.00026424,0.00013859,-0.00022559,-0.00005816,0.000
 14344,-0.00025029,-0.00013350,-0.00006206,-0.00035532,0.00015142,0.000
 00110,-0.00016696,0.00027746,-0.00002953,0.00030886,-0.00009376,0.0000
 0091,-0.00012417,0.00113419,-0.00012948,0.00021235,-0.00057135,0.00028
 281,0.00015972,0.00028919,-0.00012298,0.00009181,-0.00010577,0.0000134
 8,-0.00285353,0.00060283,0.00107947,0.00027932,0.00092970,-0.00040295,
 -0.00057070,-0.00016428,0.00002609,0.00035956,-0.00001803,-0.00004557,
 0.00765675,0.01579203,0.01132665,-0.00143333,0.00268543,0.00135037,0.0
 0058510,-0.00086039,0.00012604,0.00003171,0.00050666,0.00016831,-0.000
 14163,0.00008725,-0.00001848,-0.00005054,-0.00006816,0.00009352,-0.000
 06753,-0.00009966,0.00010295,0.00036291,-0.00063296,-0.00105734,-0.004
 10163,0.00229535,-0.00050092,0.00000284,0.00001554,-0.00007509,-0.0000
 4319,-0.00000103,-0.00000347,-0.00000656,-0.00000431,-0.00001161,-0.00
 000913,-0.00001292,-0.00000368,-0.00000118,-0.00001161,0.00000142,0.00
 001440,-0.00000393,0.00001207,0.00001735,0.00000082,-0.00000510,0.0000
 2426,0.00009346,0.00001100,-0.00002394,-0.00002801,-0.00008793,-0.0006
 9036,-0.00006454,-0.00001622,0.00000708,-0.00002254,-0.00000886,-0.000
 03408,-0.00014675,-0.00019524,-0.09836311,-0.07693006,-0.06560497,-0.0
 1332545,-0.02244102,-0.02149684,0.00016634,-0.00092963,0.00095908,0.11
 259361,-0.00010850,-0.00017790,0.00000669,0.00017866,-0.00001832,0.000
 01979,-0.00009431,-0.00003708,-0.00017826,-0.00029993,0.00014711,-0.00
 002908,-0.00015607,0.00022257,-0.00001603,0.00024832,-0.00002905,-0.00
 000352,0.00008858,0.00051007,0.00009692,0.00008920,-0.00023870,0.00007
 255,-0.00007711,0.00037064,-0.00000176,0.00010438,-0.00016748,-0.00000
 415,0.00291115,0.00054259,-0.00186392,-0.00014269,-0.00061320,0.000198
 69,0.00008764,-0.00031115,0.00010703,0.00032085,0.00009643,-0.00006024
 ,-0.00438663,-0.01702716,-0.01405928,-0.00322533,-0.00015018,0.0017198
 3,0.00073075,-0.00066275,0.00026943,-0.00015876,0.00033658,-0.00001097
 ,-0.00001519,0.00003471,-0.00000978,-0.00002801,-0.00003003,-0.0000057
 4,0.00004208,-0.00004185,0.00002561,0.00013445,0.00036011,0.00000545,0
 .00173801,0.00373950,-0.00283406,0.00002051,0.00000480,0.00001903,-0.0
 0000362,0.00000010,-0.00000519,-0.00000184,0.00000029,0.00000389,-0.00
 000279,0.00000706,-0.00000191,0.00000095,-0.00000456,0.00001256,-0.000
 01367,-0.00001415,0.00000329,-0.00000096,-0.00002209,-0.00000761,-0.00
 000118,-0.00011139,0.00000103,0.00002832,0.00005034,-0.00008842,0.0003
 1103,0.00101775,-0.00038089,0.00004039,-0.00002428,-0.00005889,-0.0004
 1665,-0.00069076,-0.00063772,-0.08079895,-0.17748953,-0.11979938,0.004
 61093,0.00416388,0.00006347,-0.00055927,-0.00164313,0.00384650,0.07880
 527,0.18790020,0.00003844,-0.00000962,0.00006862,-0.00030458,0.0000021
 8,-0.00007652,0.00000161,0.00007134,0.00020736,0.00005484,-0.00008472,
 0.00004340,-0.00001101,-0.00005447,0.00001237,-0.00004349,0.00002351,-
 0.00001386,-0.00001253,-0.00039491,0.00005654,0.00071526,0.00037731,-0
 .00009103,-0.00009791,-0.00012210,-0.00003852,0.00001666,0.00003700,-0
 .00000516,0.00190624,-0.00135590,0.00008891,-0.00087376,-0.00045972,0.
 00045001,0.00026126,0.00001021,-0.00012039,0.00000355,0.00001627,0.000
 02423,-0.00796405,-0.00680641,-0.00227096,-0.00028766,-0.00009713,0.00
 025987,0.00014463,0.00057812,0.00015851,0.00009374,0.00003234,-0.00000
 488,0.00001130,-0.00000024,0.00000625,-0.00000344,0.00003504,0.0000254
 5,-0.00008965,-0.00001326,-0.00005670,-0.00014673,-0.00064796,-0.00026
 031,-0.00242158,-0.00296574,0.00680394,-0.00002790,0.00000852,-0.00002
 994,-0.00001780,0.00000333,0.00000755,-0.00000819,-0.00000230,-0.00000
 908,-0.00000674,-0.00000958,-0.00000468,-0.00000087,-0.00000689,-0.000
 01292,-0.00000512,-0.00000668,0.00000472,-0.00000529,-0.00000786,0.000
 00666,-0.00000894,-0.00007325,-0.00003070,0.00002953,0.00006029,-0.000
 02294,0.00077556,0.00047814,-0.00002631,0.00001773,-0.00001901,-0.0000
 1871,0.00083545,0.00107650,0.00090804,-0.06240559,-0.12116942,-0.13776
 046,-0.00540230,-0.00658606,-0.00011330,0.00119833,0.00449806,-0.00410
 051,0.07404100,0.13358507,0.13593549\\-0.00000233,-0.00000747,0.000002
 01,-0.00000200,-0.00000077,-0.00000982,0.00001053,0.00001057,-0.000008
 78,-0.00000501,-0.00000710,0.00000292,0.00000040,0.00001004,0.00000452
 ,0.00000395,0.00000287,0.00000287,-0.00001012,-0.00000226,0.00000255,0
 .00000520,-0.00000486,0.00000004,-0.00000497,0.00000560,-0.00000093,-0
 .00000323,0.00000457,-0.00000029,-0.00000773,0.00000681,0.00000124,0.0
 0000334,-0.00001846,-0.00000489,-0.00000224,0.00000966,0.00000207,-0.0
 0000013,-0.00000389,-0.00000189,-0.00000238,-0.00000832,0.00000491,0.0
 0000879,0.00000194,-0.00000387,-0.00000317,-0.00000342,-0.00000048,-0.
 00000026,0.00000210,-0.00000064,0.00000124,0.00000606,0.00000473,-0.00
 000144,0.00000005,0.00000465,0.00000451,0.,0.00000486,0.00000851,0.000
 00232,-0.00000022,-0.00001094,-0.00000653,-0.00000099,0.00000043,0.000
 00170,0.00000178,0.00000221,0.00000323,0.00000194,-0.00000042,0.000002
 09,0.00000162,-0.00000175,0.00000263,0.00000060,-0.00000156,0.00000171
 ,0.00000030,-0.00000042,0.00000013,-0.00000109,-0.00000190,-0.00000014
 ,0.00000007,-0.00000104,-0.00000295,-0.00000361,-0.00000054,-0.0000035
 7,-0.00000428,0.00000183,-0.00000291,0.00000036,0.00000082,-0.00000320
 ,-0.00000339,0.00000325,0.00000148,0.00000154,0.00000078,-0.00000322,-
 0.00000607,0.00000410,0.00000583,0.00000500,0.00000125,-0.00000165,0.0
 0000070,0.00000242,-0.00000068,-0.00000008\\\@


 IF YOU PERCEIVE THAT THERE ARE FOUR POSSIBLE WAYS IN
 WHICH A PROCEDURE CAN GO WRONG AND CIRCUMVENT THESE, 
 THEN A FIFTH WAY WILL DEVELOP.

                              -- MURPHY'S TWELFTH LAW
 Job cpu time:       1 days  1 hours 58 minutes 19.8 seconds.
 Elapsed time:       0 days  1 hours 18 minutes  8.2 seconds.
 File lengths (MBytes):  RWF=   2748 Int=      0 D2E=      0 Chk=     45 Scr=      1
 Normal termination of Gaussian 16 at Fri Jun 21 18:15:05 2019.
