 Entering Gaussian System, Link 0=g09
 Initial command:
 /usr/local/Cluster-Apps/gaussian/g09/l1.exe "/rds/user/am2145/hpc-work/scratch/19189942/Gau-12593.inp" -scrdir="/rds/user/am2145/hpc-work/scratch/19189942/"
 Entering Link 1 = /usr/local/Cluster-Apps/gaussian/g09/l1.exe PID=     12594.
  
 Copyright (c) 1988,1990,1992,1993,1995,1998,2003,2009,2013,
            Gaussian, Inc.  All Rights Reserved.
  
 This is part of the Gaussian(R) 09 program.  It is based on
 the Gaussian(R) 03 system (copyright 2003, Gaussian, Inc.),
 the Gaussian(R) 98 system (copyright 1998, Gaussian, Inc.),
 the Gaussian(R) 94 system (copyright 1995, Gaussian, Inc.),
 the Gaussian 92(TM) system (copyright 1992, Gaussian, Inc.),
 the Gaussian 90(TM) system (copyright 1990, Gaussian, Inc.),
 the Gaussian 88(TM) system (copyright 1988, Gaussian, Inc.),
 the Gaussian 86(TM) system (copyright 1986, Carnegie Mellon
 University), and the Gaussian 82(TM) system (copyright 1983,
 Carnegie Mellon University). Gaussian is a federally registered
 trademark of Gaussian, Inc.
  
 This software contains proprietary and confidential information,
 including trade secrets, belonging to Gaussian, Inc.
  
 This software is provided under written license and may be
 used, copied, transmitted, or stored only in accord with that
 written license.
  
 The following legend is applicable only to US Government
 contracts under FAR:
  
                    RESTRICTED RIGHTS LEGEND
  
 Use, reproduction and disclosure by the US Government is
 subject to restrictions as set forth in subparagraphs (a)
 and (c) of the Commercial Computer Software - Restricted
 Rights clause in FAR 52.227-19.
  
 Gaussian, Inc.
 340 Quinnipiac St., Bldg. 40, Wallingford CT 06492
  
  
 ---------------------------------------------------------------
 Warning -- This program may not be used in any manner that
 competes with the business of Gaussian, Inc. or will provide
 assistance to any competitor of Gaussian, Inc.  The licensee
 of this program is prohibited from giving any competitor of
 Gaussian, Inc. access to this program.  By using this program,
 the user acknowledges that Gaussian, Inc. is engaged in the
 business of creating and licensing software in the field of
 computational chemistry and represents and warrants to the
 licensee that it is not a competitor of Gaussian, Inc. and that
 it will not use this program in any manner prohibited above.
 ---------------------------------------------------------------
  

 Cite this work as:
 Gaussian 09, Revision D.01,
 M. J. Frisch, G. W. Trucks, H. B. Schlegel, G. E. Scuseria, 
 M. A. Robb, J. R. Cheeseman, G. Scalmani, V. Barone, B. Mennucci, 
 G. A. Petersson, H. Nakatsuji, M. Caricato, X. Li, H. P. Hratchian, 
 A. F. Izmaylov, J. Bloino, G. Zheng, J. L. Sonnenberg, M. Hada, 
 M. Ehara, K. Toyota, R. Fukuda, J. Hasegawa, M. Ishida, T. Nakajima, 
 Y. Honda, O. Kitao, H. Nakai, T. Vreven, J. A. Montgomery, Jr., 
 J. E. Peralta, F. Ogliaro, M. Bearpark, J. J. Heyd, E. Brothers, 
 K. N. Kudin, V. N. Staroverov, T. Keith, R. Kobayashi, J. Normand, 
 K. Raghavachari, A. Rendell, J. C. Burant, S. S. Iyengar, J. Tomasi, 
 M. Cossi, N. Rega, J. M. Millam, M. Klene, J. E. Knox, J. B. Cross, 
 V. Bakken, C. Adamo, J. Jaramillo, R. Gomperts, R. E. Stratmann, 
 O. Yazyev, A. J. Austin, R. Cammi, C. Pomelli, J. W. Ochterski, 
 R. L. Martin, K. Morokuma, V. G. Zakrzewski, G. A. Voth, 
 P. Salvador, J. J. Dannenberg, S. Dapprich, A. D. Daniels, 
 O. Farkas, J. B. Foresman, J. V. Ortiz, J. Cioslowski, 
 and D. J. Fox, Gaussian, Inc., Wallingford CT, 2013.
 
 ******************************************
 Gaussian 09:  ES64L-G09RevD.01 24-Apr-2013
                 2-Feb-2020 
 ******************************************
 %NProcShared=20
 Will use up to   20 processors via shared memory.
 %mem=64GB
 %Chk=BS2a_Hmigclose.chk
 ------------------------------
 #n opt freq b3lyp/6-311+g(d,p)
 ------------------------------
 1/14=-1,18=20,19=15,26=3,38=1/1,3;
 2/9=110,12=2,17=6,18=5,40=1/2;
 3/5=4,6=6,7=111,11=2,16=1,25=1,30=1,71=1,74=-5/1,2,3;
 4//1;
 5/5=2,38=5/2;
 6/7=2,8=2,9=2,10=2,28=1/1;
 7//1,2,3,16;
 1/14=-1,18=20,19=15,26=3/3(2);
 2/9=110/2;
 99//99;
 2/9=110/2;
 3/5=4,6=6,7=111,11=2,16=1,25=1,30=1,71=1,74=-5/1,2,3;
 4/5=5,16=3,69=1/1;
 5/5=2,38=5/2;
 7//1,2,3,16;
 1/14=-1,18=20,19=15,26=3/3(-5);
 2/9=110/2;
 6/7=2,8=2,9=2,10=2,19=2,28=1/1;
 99/9=1/99;
 --------------
 BS2a_Hmigclose
 --------------
 Symbolic Z-matrix:
 Charge =  0 Multiplicity = 3
 C                     3.83815   0.36749  -0.11623 
 C                     2.52761  -0.1245   -0.02688 
 C                     1.41922   0.68627   0.10855 
 C                     1.51368   2.06445   0.1479 
 C                     3.95837   1.78999  -0.05188 
 C                     2.84034   2.60336   0.07429 
 C                     0.21915  -0.13052   0.16183 
 C                    -1.06163   0.56456   0.16786 
 C                    -0.983     1.99851   0.16839 
 C                     0.26018   2.73456   0.21471 
 C                    -2.34181  -0.07435   0.06412 
 C                    -3.50571   0.75432  -0.17045 
 C                    -3.38743   2.16021  -0.14091 
 C                    -2.17168   2.75979   0.05468 
 C                    -2.5661   -1.49803   0.16467 
 C                    -3.81777  -2.00361  -0.11905 
 C                    -4.92084  -1.18679  -0.44964 
 C                    -4.77036   0.17153  -0.4357 
 C                     4.84109  -0.62872  -0.26347 
 C                     4.47408  -1.96479  -0.31032 
 C                     3.12159  -2.4168   -0.21788 
 C                     2.12051  -1.48117  -0.07474 
 C                     0.63616  -1.48497   0.07325 
 H                     2.92023  -3.48182  -0.26454 
 H                     5.25149  -2.71277  -0.42274 
 H                     5.88713  -0.35253  -0.34144 
 H                     4.94069   2.24714  -0.10837 
 H                     2.97475   3.67972   0.10949 
 H                     0.20652   3.81728   0.24227 
 H                    -2.0971    3.84174   0.0745 
 H                    -4.27867   2.76079  -0.28643 
 H                    -5.61018   0.82903  -0.63272 
 H                    -1.47733  -2.24451   1.81797 
 H                    -3.97109  -3.07537  -0.0514 
 H                    -5.87913  -1.63996  -0.67589 
 C                    -0.1851   -2.59963   0.18945 
 C                    -1.56897  -2.49431   0.74638 
 H                     0.23465  -3.59158   0.06594 
 H                    -2.04025  -3.4783    0.7198 
 

 GradGradGradGradGradGradGradGradGradGradGradGradGradGradGradGradGradGrad
 Berny optimization.
 Initialization pass.
                           ----------------------------
                           !    Initial Parameters    !
                           ! (Angstroms and Degrees)  !
 --------------------------                            --------------------------
 ! Name  Definition              Value          Derivative Info.                !
 --------------------------------------------------------------------------------
 ! R1    R(1,2)                  1.4027         estimate D2E/DX2                !
 ! R2    R(1,5)                  1.429          estimate D2E/DX2                !
 ! R3    R(1,19)                 1.4213         estimate D2E/DX2                !
 ! R4    R(2,3)                  1.3799         estimate D2E/DX2                !
 ! R5    R(2,22)                 1.4172         estimate D2E/DX2                !
 ! R6    R(3,4)                  1.382          estimate D2E/DX2                !
 ! R7    R(3,7)                  1.4526         estimate D2E/DX2                !
 ! R8    R(4,6)                  1.4338         estimate D2E/DX2                !
 ! R9    R(4,10)                 1.4229         estimate D2E/DX2                !
 ! R10   R(5,6)                  1.3883         estimate D2E/DX2                !
 ! R11   R(5,27)                 1.085          estimate D2E/DX2                !
 ! R12   R(6,28)                 1.0853         estimate D2E/DX2                !
 ! R13   R(7,8)                  1.4572         estimate D2E/DX2                !
 ! R14   R(7,23)                 1.42           estimate D2E/DX2                !
 ! R15   R(8,9)                  1.4361         estimate D2E/DX2                !
 ! R16   R(8,11)                 1.4345         estimate D2E/DX2                !
 ! R17   R(9,10)                 1.4455         estimate D2E/DX2                !
 ! R18   R(9,14)                 1.4161         estimate D2E/DX2                !
 ! R19   R(10,29)                1.0844         estimate D2E/DX2                !
 ! R20   R(11,12)                1.4479         estimate D2E/DX2                !
 ! R21   R(11,15)                1.4447         estimate D2E/DX2                !
 ! R22   R(12,13)                1.4112         estimate D2E/DX2                !
 ! R23   R(12,18)                1.4175         estimate D2E/DX2                !
 ! R24   R(13,14)                1.3696         estimate D2E/DX2                !
 ! R25   R(13,31)                1.0845         estimate D2E/DX2                !
 ! R26   R(14,30)                1.0847         estimate D2E/DX2                !
 ! R27   R(15,16)                1.3794         estimate D2E/DX2                !
 ! R28   R(15,37)                1.5249         estimate D2E/DX2                !
 ! R29   R(16,17)                1.4118         estimate D2E/DX2                !
 ! R30   R(16,34)                1.0848         estimate D2E/DX2                !
 ! R31   R(17,18)                1.3667         estimate D2E/DX2                !
 ! R32   R(17,35)                1.0839         estimate D2E/DX2                !
 ! R33   R(18,32)                1.0846         estimate D2E/DX2                !
 ! R34   R(19,20)                1.3864         estimate D2E/DX2                !
 ! R35   R(19,26)                1.0847         estimate D2E/DX2                !
 ! R36   R(20,21)                1.429          estimate D2E/DX2                !
 ! R37   R(20,25)                1.0847         estimate D2E/DX2                !
 ! R38   R(21,22)                1.3777         estimate D2E/DX2                !
 ! R39   R(21,24)                1.0849         estimate D2E/DX2                !
 ! R40   R(22,23)                1.4917         estimate D2E/DX2                !
 ! R41   R(23,36)                1.3894         estimate D2E/DX2                !
 ! R42   R(33,37)                1.1041         estimate D2E/DX2                !
 ! R43   R(36,37)                1.4954         estimate D2E/DX2                !
 ! R44   R(36,38)                1.0842         estimate D2E/DX2                !
 ! R45   R(37,39)                1.0914         estimate D2E/DX2                !
 ! A1    A(2,1,5)              115.1429         estimate D2E/DX2                !
 ! A2    A(2,1,19)             114.8381         estimate D2E/DX2                !
 ! A3    A(5,1,19)             130.0182         estimate D2E/DX2                !
 ! A4    A(1,2,3)              123.4097         estimate D2E/DX2                !
 ! A5    A(1,2,22)             127.0119         estimate D2E/DX2                !
 ! A6    A(3,2,22)             109.5739         estimate D2E/DX2                !
 ! A7    A(2,3,4)              122.2641         estimate D2E/DX2                !
 ! A8    A(2,3,7)              109.6821         estimate D2E/DX2                !
 ! A9    A(4,3,7)              128.0363         estimate D2E/DX2                !
 ! A10   A(3,4,6)              115.8873         estimate D2E/DX2                !
 ! A11   A(3,4,10)             114.2528         estimate D2E/DX2                !
 ! A12   A(6,4,10)             129.828          estimate D2E/DX2                !
 ! A13   A(1,5,6)              121.3007         estimate D2E/DX2                !
 ! A14   A(1,5,27)             119.5548         estimate D2E/DX2                !
 ! A15   A(6,5,27)             119.1435         estimate D2E/DX2                !
 ! A16   A(4,6,5)              121.977          estimate D2E/DX2                !
 ! A17   A(4,6,28)             119.0574         estimate D2E/DX2                !
 ! A18   A(5,6,28)             118.9634         estimate D2E/DX2                !
 ! A19   A(3,7,8)              117.261          estimate D2E/DX2                !
 ! A20   A(3,7,23)             106.944          estimate D2E/DX2                !
 ! A21   A(8,7,23)             135.5081         estimate D2E/DX2                !
 ! A22   A(7,8,9)              115.3499         estimate D2E/DX2                !
 ! A23   A(7,8,11)             124.8623         estimate D2E/DX2                !
 ! A24   A(9,8,11)             119.5778         estimate D2E/DX2                !
 ! A25   A(8,9,10)             123.7483         estimate D2E/DX2                !
 ! A26   A(8,9,14)             119.392          estimate D2E/DX2                !
 ! A27   A(10,9,14)            116.7914         estimate D2E/DX2                !
 ! A28   A(4,10,9)             121.0861         estimate D2E/DX2                !
 ! A29   A(4,10,29)            120.9966         estimate D2E/DX2                !
 ! A30   A(9,10,29)            117.8187         estimate D2E/DX2                !
 ! A31   A(8,11,12)            118.3063         estimate D2E/DX2                !
 ! A32   A(8,11,15)            124.9179         estimate D2E/DX2                !
 ! A33   A(12,11,15)           116.7736         estimate D2E/DX2                !
 ! A34   A(11,12,13)           119.9617         estimate D2E/DX2                !
 ! A35   A(11,12,18)           120.8094         estimate D2E/DX2                !
 ! A36   A(13,12,18)           119.2285         estimate D2E/DX2                !
 ! A37   A(12,13,14)           120.8994         estimate D2E/DX2                !
 ! A38   A(12,13,31)           118.6865         estimate D2E/DX2                !
 ! A39   A(14,13,31)           120.4113         estimate D2E/DX2                !
 ! A40   A(9,14,13)            121.4143         estimate D2E/DX2                !
 ! A41   A(9,14,30)            118.4918         estimate D2E/DX2                !
 ! A42   A(13,14,30)           120.0206         estimate D2E/DX2                !
 ! A43   A(11,15,16)           119.1914         estimate D2E/DX2                !
 ! A44   A(11,15,37)           124.6709         estimate D2E/DX2                !
 ! A45   A(16,15,37)           115.6169         estimate D2E/DX2                !
 ! A46   A(15,16,17)           123.029          estimate D2E/DX2                !
 ! A47   A(15,16,34)           118.5248         estimate D2E/DX2                !
 ! A48   A(17,16,34)           118.4105         estimate D2E/DX2                !
 ! A49   A(16,17,18)           119.117          estimate D2E/DX2                !
 ! A50   A(16,17,35)           119.8509         estimate D2E/DX2                !
 ! A51   A(18,17,35)           120.9971         estimate D2E/DX2                !
 ! A52   A(12,18,17)           120.5809         estimate D2E/DX2                !
 ! A53   A(12,18,32)           118.3955         estimate D2E/DX2                !
 ! A54   A(17,18,32)           121.0225         estimate D2E/DX2                !
 ! A55   A(1,19,20)            119.4851         estimate D2E/DX2                !
 ! A56   A(1,19,26)            120.63           estimate D2E/DX2                !
 ! A57   A(20,19,26)           119.8848         estimate D2E/DX2                !
 ! A58   A(19,20,21)           123.5871         estimate D2E/DX2                !
 ! A59   A(19,20,25)           118.5777         estimate D2E/DX2                !
 ! A60   A(21,20,25)           117.8352         estimate D2E/DX2                !
 ! A61   A(20,21,22)           118.6611         estimate D2E/DX2                !
 ! A62   A(20,21,24)           118.9075         estimate D2E/DX2                !
 ! A63   A(22,21,24)           122.4313         estimate D2E/DX2                !
 ! A64   A(2,22,21)            116.416          estimate D2E/DX2                !
 ! A65   A(2,22,23)            106.554          estimate D2E/DX2                !
 ! A66   A(21,22,23)           137.0226         estimate D2E/DX2                !
 ! A67   A(7,23,22)            107.2167         estimate D2E/DX2                !
 ! A68   A(7,23,36)            125.9049         estimate D2E/DX2                !
 ! A69   A(22,23,36)           126.7634         estimate D2E/DX2                !
 ! A70   A(23,36,37)           121.4419         estimate D2E/DX2                !
 ! A71   A(23,36,38)           119.7124         estimate D2E/DX2                !
 ! A72   A(37,36,38)           117.7194         estimate D2E/DX2                !
 ! A73   A(15,37,33)           106.0631         estimate D2E/DX2                !
 ! A74   A(15,37,36)           120.6016         estimate D2E/DX2                !
 ! A75   A(15,37,39)           107.3021         estimate D2E/DX2                !
 ! A76   A(33,37,36)           107.4919         estimate D2E/DX2                !
 ! A77   A(33,37,39)           105.2757         estimate D2E/DX2                !
 ! A78   A(36,37,39)           109.0894         estimate D2E/DX2                !
 ! D1    D(5,1,2,3)              0.2354         estimate D2E/DX2                !
 ! D2    D(5,1,2,22)           179.3851         estimate D2E/DX2                !
 ! D3    D(19,1,2,3)          -179.4747         estimate D2E/DX2                !
 ! D4    D(19,1,2,22)           -0.325          estimate D2E/DX2                !
 ! D5    D(2,1,5,6)             -0.7208         estimate D2E/DX2                !
 ! D6    D(2,1,5,27)           179.648          estimate D2E/DX2                !
 ! D7    D(19,1,5,6)           178.9357         estimate D2E/DX2                !
 ! D8    D(19,1,5,27)           -0.6955         estimate D2E/DX2                !
 ! D9    D(2,1,19,20)            0.1431         estimate D2E/DX2                !
 ! D10   D(2,1,19,26)         -179.9976         estimate D2E/DX2                !
 ! D11   D(5,1,19,20)         -179.5142         estimate D2E/DX2                !
 ! D12   D(5,1,19,26)            0.3451         estimate D2E/DX2                !
 ! D13   D(1,2,3,4)              0.9624         estimate D2E/DX2                !
 ! D14   D(1,2,3,7)            179.5553         estimate D2E/DX2                !
 ! D15   D(22,2,3,4)          -178.317          estimate D2E/DX2                !
 ! D16   D(22,2,3,7)             0.276          estimate D2E/DX2                !
 ! D17   D(1,2,22,21)            0.3455         estimate D2E/DX2                !
 ! D18   D(1,2,22,23)          179.521          estimate D2E/DX2                !
 ! D19   D(3,2,22,21)          179.5922         estimate D2E/DX2                !
 ! D20   D(3,2,22,23)           -1.2323         estimate D2E/DX2                !
 ! D21   D(2,3,4,6)             -1.565          estimate D2E/DX2                !
 ! D22   D(2,3,4,10)           176.5857         estimate D2E/DX2                !
 ! D23   D(7,3,4,6)           -179.8828         estimate D2E/DX2                !
 ! D24   D(7,3,4,10)            -1.7322         estimate D2E/DX2                !
 ! D25   D(2,3,7,8)           -173.9521         estimate D2E/DX2                !
 ! D26   D(2,3,7,23)             0.8472         estimate D2E/DX2                !
 ! D27   D(4,3,7,8)              4.5372         estimate D2E/DX2                !
 ! D28   D(4,3,7,23)           179.3366         estimate D2E/DX2                !
 ! D29   D(3,4,6,5)              1.0649         estimate D2E/DX2                !
 ! D30   D(3,4,6,28)          -179.479          estimate D2E/DX2                !
 ! D31   D(10,4,6,5)          -176.7395         estimate D2E/DX2                !
 ! D32   D(10,4,6,28)            2.7167         estimate D2E/DX2                !
 ! D33   D(3,4,10,9)            -3.1947         estimate D2E/DX2                !
 ! D34   D(3,4,10,29)         -179.5046         estimate D2E/DX2                !
 ! D35   D(6,4,10,9)           174.6388         estimate D2E/DX2                !
 ! D36   D(6,4,10,29)           -1.6712         estimate D2E/DX2                !
 ! D37   D(1,5,6,4)              0.0708         estimate D2E/DX2                !
 ! D38   D(1,5,6,28)          -179.3859         estimate D2E/DX2                !
 ! D39   D(27,5,6,4)           179.7034         estimate D2E/DX2                !
 ! D40   D(27,5,6,28)            0.2467         estimate D2E/DX2                !
 ! D41   D(3,7,8,9)             -2.1536         estimate D2E/DX2                !
 ! D42   D(3,7,8,11)           172.5353         estimate D2E/DX2                !
 ! D43   D(23,7,8,9)          -175.0464         estimate D2E/DX2                !
 ! D44   D(23,7,8,11)           -0.3575         estimate D2E/DX2                !
 ! D45   D(3,7,23,22)           -1.5645         estimate D2E/DX2                !
 ! D46   D(3,7,23,36)          174.742          estimate D2E/DX2                !
 ! D47   D(8,7,23,22)          171.8333         estimate D2E/DX2                !
 ! D48   D(8,7,23,36)          -11.8602         estimate D2E/DX2                !
 ! D49   D(7,8,9,10)            -2.4469         estimate D2E/DX2                !
 ! D50   D(7,8,9,14)           174.4479         estimate D2E/DX2                !
 ! D51   D(11,8,9,10)         -177.4367         estimate D2E/DX2                !
 ! D52   D(11,8,9,14)           -0.542          estimate D2E/DX2                !
 ! D53   D(7,8,11,12)         -168.4517         estimate D2E/DX2                !
 ! D54   D(7,8,11,15)           10.9854         estimate D2E/DX2                !
 ! D55   D(9,8,11,12)            6.0288         estimate D2E/DX2                !
 ! D56   D(9,8,11,15)         -174.5341         estimate D2E/DX2                !
 ! D57   D(8,9,10,4)             5.4563         estimate D2E/DX2                !
 ! D58   D(8,9,10,29)         -178.12           estimate D2E/DX2                !
 ! D59   D(14,9,10,4)         -171.5129         estimate D2E/DX2                !
 ! D60   D(14,9,10,29)           4.9108         estimate D2E/DX2                !
 ! D61   D(8,9,14,13)           -4.1907         estimate D2E/DX2                !
 ! D62   D(8,9,14,30)          178.9223         estimate D2E/DX2                !
 ! D63   D(10,9,14,13)         172.917          estimate D2E/DX2                !
 ! D64   D(10,9,14,30)          -3.9699         estimate D2E/DX2                !
 ! D65   D(8,11,12,13)          -7.1388         estimate D2E/DX2                !
 ! D66   D(8,11,12,18)         172.6445         estimate D2E/DX2                !
 ! D67   D(15,11,12,13)        173.3782         estimate D2E/DX2                !
 ! D68   D(15,11,12,18)         -6.8385         estimate D2E/DX2                !
 ! D69   D(8,11,15,16)        -171.9095         estimate D2E/DX2                !
 ! D70   D(8,11,15,37)          16.7468         estimate D2E/DX2                !
 ! D71   D(12,11,15,16)          7.5353         estimate D2E/DX2                !
 ! D72   D(12,11,15,37)       -163.8084         estimate D2E/DX2                !
 ! D73   D(11,12,13,14)          2.6298         estimate D2E/DX2                !
 ! D74   D(11,12,13,31)       -177.98           estimate D2E/DX2                !
 ! D75   D(18,12,13,14)       -177.1569         estimate D2E/DX2                !
 ! D76   D(18,12,13,31)          2.2333         estimate D2E/DX2                !
 ! D77   D(11,12,18,17)          1.2704         estimate D2E/DX2                !
 ! D78   D(11,12,18,32)       -178.3425         estimate D2E/DX2                !
 ! D79   D(13,12,18,17)       -178.9447         estimate D2E/DX2                !
 ! D80   D(13,12,18,32)          1.4424         estimate D2E/DX2                !
 ! D81   D(12,13,14,9)           3.1401         estimate D2E/DX2                !
 ! D82   D(12,13,14,30)        179.9801         estimate D2E/DX2                !
 ! D83   D(31,13,14,9)        -176.2396         estimate D2E/DX2                !
 ! D84   D(31,13,14,30)          0.6004         estimate D2E/DX2                !
 ! D85   D(11,15,16,17)         -2.917          estimate D2E/DX2                !
 ! D86   D(11,15,16,34)        179.2922         estimate D2E/DX2                !
 ! D87   D(37,15,16,17)        169.1928         estimate D2E/DX2                !
 ! D88   D(37,15,16,34)         -8.598          estimate D2E/DX2                !
 ! D89   D(11,15,37,33)         65.6638         estimate D2E/DX2                !
 ! D90   D(11,15,37,36)        -56.5913         estimate D2E/DX2                !
 ! D91   D(11,15,37,39)        177.8029         estimate D2E/DX2                !
 ! D92   D(16,15,37,33)       -105.9575         estimate D2E/DX2                !
 ! D93   D(16,15,37,36)        131.7874         estimate D2E/DX2                !
 ! D94   D(16,15,37,39)          6.1815         estimate D2E/DX2                !
 ! D95   D(15,16,17,18)         -2.9096         estimate D2E/DX2                !
 ! D96   D(15,16,17,35)        179.2186         estimate D2E/DX2                !
 ! D97   D(34,16,17,18)        174.8836         estimate D2E/DX2                !
 ! D98   D(34,16,17,35)         -2.9882         estimate D2E/DX2                !
 ! D99   D(16,17,18,12)          3.6852         estimate D2E/DX2                !
 ! D100  D(16,17,18,32)       -176.7121         estimate D2E/DX2                !
 ! D101  D(35,17,18,12)       -178.4681         estimate D2E/DX2                !
 ! D102  D(35,17,18,32)          1.1346         estimate D2E/DX2                !
 ! D103  D(1,19,20,21)          -0.011          estimate D2E/DX2                !
 ! D104  D(1,19,20,25)        -179.9835         estimate D2E/DX2                !
 ! D105  D(26,19,20,21)       -179.8713         estimate D2E/DX2                !
 ! D106  D(26,19,20,25)          0.1561         estimate D2E/DX2                !
 ! D107  D(19,20,21,22)          0.0275         estimate D2E/DX2                !
 ! D108  D(19,20,21,24)        179.9235         estimate D2E/DX2                !
 ! D109  D(25,20,21,22)       -179.9998         estimate D2E/DX2                !
 ! D110  D(25,20,21,24)         -0.1038         estimate D2E/DX2                !
 ! D111  D(20,21,22,2)          -0.1743         estimate D2E/DX2                !
 ! D112  D(20,21,22,23)       -179.015          estimate D2E/DX2                !
 ! D113  D(24,21,22,2)         179.9335         estimate D2E/DX2                !
 ! D114  D(24,21,22,23)          1.0928         estimate D2E/DX2                !
 ! D115  D(2,22,23,7)            1.7384         estimate D2E/DX2                !
 ! D116  D(2,22,23,36)        -174.5272         estimate D2E/DX2                !
 ! D117  D(21,22,23,7)        -179.3448         estimate D2E/DX2                !
 ! D118  D(21,22,23,36)          4.3896         estimate D2E/DX2                !
 ! D119  D(7,23,36,37)         -14.8162         estimate D2E/DX2                !
 ! D120  D(7,23,36,38)         177.593          estimate D2E/DX2                !
 ! D121  D(22,23,36,37)        160.7787         estimate D2E/DX2                !
 ! D122  D(22,23,36,38)         -6.812          estimate D2E/DX2                !
 ! D123  D(23,36,37,15)         53.6664         estimate D2E/DX2                !
 ! D124  D(23,36,37,33)        -67.8969         estimate D2E/DX2                !
 ! D125  D(23,36,37,39)        178.4391         estimate D2E/DX2                !
 ! D126  D(38,36,37,15)       -138.5049         estimate D2E/DX2                !
 ! D127  D(38,36,37,33)         99.9318         estimate D2E/DX2                !
 ! D128  D(38,36,37,39)        -13.7323         estimate D2E/DX2                !
 --------------------------------------------------------------------------------
 Trust Radius=3.00D-01 FncErr=1.00D-07 GrdErr=1.00D-06
 Number of steps in this run=    234 maximum allowed number of steps=    234.
 GradGradGradGradGradGradGradGradGradGradGradGradGradGradGradGradGradGrad

                          Input orientation:                          
 ---------------------------------------------------------------------
 Center     Atomic      Atomic             Coordinates (Angstroms)
 Number     Number       Type             X           Y           Z
 ---------------------------------------------------------------------
      1          6           0        3.838150    0.367490   -0.116230
      2          6           0        2.527610   -0.124500   -0.026880
      3          6           0        1.419220    0.686270    0.108550
      4          6           0        1.513680    2.064450    0.147900
      5          6           0        3.958370    1.789990   -0.051880
      6          6           0        2.840340    2.603360    0.074290
      7          6           0        0.219150   -0.130520    0.161830
      8          6           0       -1.061630    0.564560    0.167860
      9          6           0       -0.983000    1.998510    0.168390
     10          6           0        0.260180    2.734560    0.214710
     11          6           0       -2.341810   -0.074350    0.064120
     12          6           0       -3.505710    0.754320   -0.170450
     13          6           0       -3.387430    2.160210   -0.140910
     14          6           0       -2.171680    2.759790    0.054680
     15          6           0       -2.566100   -1.498030    0.164670
     16          6           0       -3.817770   -2.003610   -0.119050
     17          6           0       -4.920840   -1.186790   -0.449640
     18          6           0       -4.770360    0.171530   -0.435700
     19          6           0        4.841090   -0.628720   -0.263470
     20          6           0        4.474080   -1.964790   -0.310320
     21          6           0        3.121590   -2.416800   -0.217880
     22          6           0        2.120510   -1.481170   -0.074740
     23          6           0        0.636160   -1.484970    0.073250
     24          1           0        2.920230   -3.481820   -0.264540
     25          1           0        5.251490   -2.712770   -0.422740
     26          1           0        5.887130   -0.352530   -0.341440
     27          1           0        4.940690    2.247140   -0.108370
     28          1           0        2.974750    3.679720    0.109490
     29          1           0        0.206520    3.817280    0.242270
     30          1           0       -2.097100    3.841740    0.074500
     31          1           0       -4.278670    2.760790   -0.286430
     32          1           0       -5.610180    0.829030   -0.632720
     33          1           0       -1.477330   -2.244510    1.817970
     34          1           0       -3.971090   -3.075370   -0.051400
     35          1           0       -5.879130   -1.639960   -0.675890
     36          6           0       -0.185100   -2.599630    0.189450
     37          6           0       -1.568970   -2.494310    0.746380
     38          1           0        0.234650   -3.591580    0.065940
     39          1           0       -2.040250   -3.478300    0.719800
 ---------------------------------------------------------------------
                    Distance matrix (angstroms):
                    1          2          3          4          5
     1  C    0.000000
     2  C    1.402695   0.000000
     3  C    2.450177   1.379934   0.000000
     4  C    2.890086   2.418699   1.381974   0.000000
     5  C    1.429021   2.390182   2.773305   2.468147   0.000000
     6  C    2.455817   2.747591   2.386627   1.433830   1.388337
     7  C    3.663672   2.316168   1.452636   2.548312   4.209014
     8  C    4.911964   3.659969   2.484542   2.980317   5.172075
     9  C    5.097521   4.107272   2.737922   2.497635   4.950670
    10  C    4.302838   3.657025   2.355873   1.422945   3.826211
    11  C    6.198359   4.870528   3.837429   4.409795   6.571262
    12  C    7.354241   6.098679   4.933296   5.197313   7.536522
    13  C    7.444693   6.341971   5.033747   4.910546   7.355662
    14  C    6.470732   5.514445   4.146921   3.751542   6.207204
    15  C    6.676338   5.279125   4.545007   5.416286   7.309356
    16  C    8.014689   6.618413   5.891801   6.711537   8.652414
    17  C    8.902070   7.535688   6.634477   7.233994   9.373356
    18  C    8.616664   7.315404   6.234747   6.588846   8.885801
    19  C    1.421268   2.379580   3.684670   4.300471   2.583432
    20  C    2.425203   2.693650   4.066416   5.020827   3.798832
    21  C    2.876815   2.375696   3.554387   4.775015   4.292416
    22  C    2.523797   1.417242   2.285432   3.604058   3.752165
    23  C    3.704086   2.332057   2.308400   3.657047   4.666701
    24  H    3.960020   3.388544   4.445807   5.736689   5.377261
    25  H    3.402864   3.778276   5.149955   6.092511   4.699420
    26  H    2.183453   3.381911   4.609101   5.020788   2.897301
    27  H    2.179160   3.384416   3.857994   3.441431   1.084956
    28  H    3.430346   3.832835   3.373487   2.178371   2.136499
    29  H    5.021784   4.582306   3.360319   2.188604   4.274670
    30  H    6.879970   6.093380   4.724686   4.025156   6.394870
    31  H    8.464019   7.397142   6.076643   5.850201   8.297367
    32  H    9.473686   8.215832   7.069818   7.272208   9.634208
    33  H    6.230409   4.892592   4.461120   5.504763   7.022846
    34  H    8.534736   7.137320   6.575026   7.519320   9.303121
    35  H    9.938240   8.566861   7.700169   8.309929  10.436970
    36  C    5.008371   3.678568   3.657530   4.963993   6.041138
    37  C    6.178264   4.795404   4.410464   5.535630   7.038745
    38  H    5.356551   4.157755   4.439034   5.799423   6.545324
    39  H    7.074223   5.715842   5.448413   6.609052   8.020836
                    6          7          8          9         10
     6  C    0.000000
     7  C    3.788456   0.000000
     8  C    4.403502   1.457247   0.000000
     9  C    3.872031   2.444990   1.436104   0.000000
    10  C    2.587307   2.865862   2.541314   1.445480   0.000000
    11  C    5.833088   2.563439   1.434513   2.480723   3.831841
    12  C    6.614469   3.842907   2.474670   2.833176   4.272192
    13  C    6.247224   4.283283   2.837390   2.429629   3.709636
    14  C    5.014499   3.752525   2.462530   1.416135   2.437250
    15  C    6.786690   3.102855   2.552982   3.838230   5.089713
    16  C    8.098888   4.459157   3.778111   4.912790   6.260298
    17  C    8.653072   5.282906   4.282760   5.102419   6.531563
    18  C    8.006038   5.034231   3.778020   4.248162   5.683176
    19  C    3.816205   4.668127   6.037555   6.403816   5.703073
    20  C    4.866726   4.657457   6.104945   6.761408   6.333759
    21  C    5.036514   3.714218   5.151372   6.040846   5.908579
    22  C    4.150151   2.344225   3.790763   4.668946   4.617032
    23  C    4.644659   1.419957   2.663084   3.842573   4.238609
    24  H    6.095130   4.325371   5.693450   6.742155   6.778564
    25  H    5.858491   5.686315   7.137590   7.836738   7.415721
    26  H    4.265331   5.694609   7.027496   7.279148   6.442204
    27  H    2.138160   5.293318   6.239810   5.935362   4.716899
    28  H    1.085291   4.702552   5.099019   4.300433   2.876333
    29  H    2.904966   3.948640   3.491981   2.174475   1.084399
    30  H    5.090373   4.599075   3.438142   2.155813   2.608117
    31  H    7.129881   5.365724   3.921626   3.413118   4.566507
    32  H    8.663683   5.960968   4.626033   4.839448   6.229792
    33  H    6.721944   3.176444   3.284287   4.579159   5.511853
    34  H    8.869011   5.125985   4.664989   5.892474   7.192339
    35  H    9.726134   6.337918   5.364711   6.158195   7.590831
    36  C    6.019772   2.502136   3.283423   4.666903   5.352803
    37  C    6.773475   3.021022   3.154166   4.567589   5.565029
    38  H    6.720638   3.462423   4.354794   5.722086   6.327941
    39  H    7.824540   4.077236   4.196076   5.605112   6.644300
                   11         12         13         14         15
    11  C    0.000000
    12  C    1.447888   0.000000
    13  C    2.475604   1.411166   0.000000
    14  C    2.839257   2.419138   1.369598   0.000000
    15  C    1.444743   2.463382   3.761739   4.277464   0.000000
    16  C    2.435991   2.776005   4.186056   5.042794   1.379415
    17  C    2.855323   2.418356   3.694465   4.836084   2.453375
    18  C    2.491612   1.417512   2.440132   3.700365   2.829600
    19  C    7.211705   8.461118   8.689171   7.795009   7.470306
    20  C    7.083101   8.431499   8.879621   8.162169   7.071606
    21  C    5.951079   7.347065   7.957530   7.408784   5.774106
    22  C    4.680889   6.054827   6.603138   6.035345   4.692751
    23  C    3.295184   4.714753   5.433459   5.089430   3.203591
    24  H    6.277574   7.697171   8.463709   8.061460   5.849740
    25  H    8.053353   9.421938   9.922515   9.234733   7.933181
    26  H    8.243623   9.459376   9.611011   8.647998   8.545491
    27  H    7.645513   8.577531   8.328637   7.132685   8.393613
    28  H    6.508526   7.115665   6.545911   5.228290   7.583743
    29  H    4.655159   4.830395   3.976077   2.609466   5.995495
    30  H    3.923742   3.402403   2.130469   1.084698   5.361085
    31  H    3.451424   2.153332   1.084519   2.134424   4.612368
    32  H    3.461780   2.155938   2.637145   4.002953   3.913753
    33  H    2.921114   4.130511   5.185292   5.351106   2.115669
    34  H    3.416726   3.859699   5.268773   6.107227   2.123366
    35  H    3.938449   3.408984   4.575594   5.799717   3.420943
    36  C    3.323273   4.733388   5.746315   5.717346   2.623604
    37  C    2.630393   3.891675   5.075297   5.333599   1.524870
    38  H    4.359938   5.738730   6.800393   6.791940   3.498128
    39  H    3.479616   4.566748   5.860760   6.274825   2.122771
                   16         17         18         19         20
    16  C    0.000000
    17  C    1.411824   0.000000
    18  C    2.395606   1.366701   0.000000
    19  C    8.768525   9.779641   9.646245   0.000000
    20  C    8.294147   9.428108   9.488902   1.386353   0.000000
    21  C    6.952353   8.139246   8.308416   2.481127   1.429016
    22  C    5.961382   7.057466   7.095477   2.857244   2.414266
    23  C    4.488147   5.589506   5.677454   4.304414   3.886770
    24  H    6.899777   8.172136   8.515952   3.439460   2.172079
    25  H    9.102011  10.286187  10.428654   2.130037   1.084656
    26  H    9.846858  10.840660  10.670783   1.084693   2.144076
    27  H    9.735482  10.447876   9.935784   2.881761   4.242507
    28  H    8.859503   9.291711   8.520056   4.710093   5.855316
    29  H    7.085776   7.197866   6.206486   6.442199   7.207618
    30  H    6.096416   5.790885   4.569143   8.260612   8.777487
    31  H    4.789567   4.002800   2.639755   9.729303   9.946975
    32  H    3.391230   2.138279   1.084629  10.558903  10.469082
    33  H    3.047579   4.256593   4.664796   6.845846   6.326701
    34  H    1.084782   2.151129   3.365840   9.147983   8.521815
    35  H    2.165991   1.083915   2.137419  10.775705  10.364753
    36  C    3.694144   4.983150   5.393955   5.417768   4.728715
    37  C    2.459036   3.791452   4.330463   6.751970   6.157553
    38  H    4.356372   5.712085   6.281940   5.486924   4.556400
    39  H    2.457226   3.862176   4.702121   7.512640   6.766709
                   21         22         23         24         25
    21  C    0.000000
    22  C    1.377699   0.000000
    23  C    2.670286   1.491714   0.000000
    24  H    1.084892   2.162909   3.052620   0.000000
    25  H    2.160102   3.382452   4.801538   2.459926   0.000000
    26  H    3.453214   3.941114   5.387678   4.312872   2.445686
    27  H    5.007340   4.674916   5.700053   6.076811   4.979572
    28  H    6.107069   5.234353   5.669598   7.171508   6.806669
    29  H    6.897327   5.642466   5.322313   7.803713   8.278618
    30  H    8.154111   6.792928   5.987032   8.883866   9.859545
    31  H    9.031943   7.680400   6.504721   9.528632  10.991014
    32  H    9.324769   8.087764   6.698489   9.564877  11.426474
    33  H    5.032339   4.136362   2.843904   5.020589   7.107536
    34  H    7.125134   6.296794   4.875619   6.906585   9.237172
    35  H    9.045784   8.023767   6.560049   8.999466  11.185066
    36  C    3.336696   2.576157   1.389402   3.259976   5.472119
    37  C    4.789275   3.913177   2.516837   4.706384   6.923384
    38  H    3.129710   2.833741   2.144544   2.708063   5.116620
    39  H    5.352627   4.683134   3.399200   5.057203   7.420304
                   26         27         28         29         30
    26  H    0.000000
    27  H    2.776392   0.000000
    28  H    4.994430   2.442267   0.000000
    29  H    7.070881   5.000065   2.774824   0.000000
    30  H    9.028446   7.218496   5.074558   2.309851   0.000000
    31  H   10.631993   9.235374   7.322109   4.638170   2.461295
    32  H   11.561534  10.658651   9.076251   6.597670   4.681700
    33  H    7.904297   8.067012   7.605026   6.485636   6.361308
    34  H   10.231446  10.380375   9.690295   8.065190   7.167573
    35  H   11.841208  11.510870  10.358910   8.225547   6.701930
    36  C    6.496405   7.060708   7.030027   6.429066   6.720134
    37  C    7.833518   8.098618   7.692182   6.575915   6.393424
    38  H    6.527475   7.501190   7.770576   7.411011   7.790467
    39  H    8.587201   9.066424   8.761276   7.648627   7.348648
                   31         32         33         34         35
    31  H    0.000000
    32  H    2.371610   0.000000
    33  H    6.109749   5.703769   0.000000
    34  H    5.848984   4.274212   3.225478   0.000000
    35  H    4.698910   2.483970   5.095161   2.467996   0.000000
    36  C    6.761500   6.470175   2.109039   3.823357   5.838815
    37  C    6.002104   5.410904   1.104130   2.596972   4.618468
    38  H    7.800438   7.361519   2.795547   4.238926   6.460452
    39  H    6.704421   5.755589   1.745020   2.117840   4.479335
                   36         37         38         39
    36  C    0.000000
    37  C    1.495446   0.000000
    38  H    1.084163   2.218117   0.000000
    39  H    2.120121   1.091351   2.369712   0.000000
 Stoichiometry    C25H14(3)
 Framework group  C1[X(C25H14)]
 Deg. of freedom   111
 Full point group                 C1      NOp   1
 Largest Abelian subgroup         C1      NOp   1
 Largest concise Abelian subgroup C1      NOp   1
                         Standard orientation:                         
 ---------------------------------------------------------------------
 Center     Atomic      Atomic             Coordinates (Angstroms)
 Number     Number       Type             X           Y           Z
 ---------------------------------------------------------------------
      1          6           0        3.838149    0.367491   -0.116230
      2          6           0        2.527609   -0.124499   -0.026880
      3          6           0        1.419219    0.686270    0.108550
      4          6           0        1.513679    2.064450    0.147900
      5          6           0        3.958369    1.789991   -0.051880
      6          6           0        2.840339    2.603361    0.074290
      7          6           0        0.219149   -0.130520    0.161830
      8          6           0       -1.061631    0.564560    0.167860
      9          6           0       -0.983001    1.998510    0.168390
     10          6           0        0.260179    2.734560    0.214710
     11          6           0       -2.341811   -0.074350    0.064120
     12          6           0       -3.505711    0.754320   -0.170450
     13          6           0       -3.387431    2.160210   -0.140910
     14          6           0       -2.171681    2.759790    0.054680
     15          6           0       -2.566100   -1.498030    0.164670
     16          6           0       -3.817770   -2.003610   -0.119050
     17          6           0       -4.920840   -1.186791   -0.449640
     18          6           0       -4.770361    0.171530   -0.435700
     19          6           0        4.841090   -0.628719   -0.263470
     20          6           0        4.474080   -1.964789   -0.310320
     21          6           0        3.121590   -2.416799   -0.217880
     22          6           0        2.120510   -1.481169   -0.074740
     23          6           0        0.636160   -1.484970    0.073250
     24          1           0        2.920230   -3.481819   -0.264540
     25          1           0        5.251490   -2.712769   -0.422740
     26          1           0        5.887130   -0.352529   -0.341440
     27          1           0        4.940689    2.247141   -0.108370
     28          1           0        2.974749    3.679721    0.109490
     29          1           0        0.206519    3.817280    0.242270
     30          1           0       -2.097101    3.841740    0.074500
     31          1           0       -4.278671    2.760790   -0.286430
     32          1           0       -5.610181    0.829029   -0.632720
     33          1           0       -1.477330   -2.244510    1.817970
     34          1           0       -3.971090   -3.075370   -0.051400
     35          1           0       -5.879130   -1.639961   -0.675890
     36          6           0       -0.185100   -2.599630    0.189450
     37          6           0       -1.568970   -2.494310    0.746380
     38          1           0        0.234650   -3.591580    0.065940
     39          1           0       -2.040250   -3.478300    0.719800
 ---------------------------------------------------------------------
 Rotational constants (GHZ):      0.4866517      0.1799440      0.1329693
 Standard basis: 6-311+G(d,p) (5D, 7F)
 There are   659 symmetry adapted cartesian basis functions of A   symmetry.
 There are   634 symmetry adapted basis functions of A   symmetry.
   634 basis functions,  1012 primitive gaussians,   659 cartesian basis functions
    83 alpha electrons       81 beta electrons
       nuclear repulsion energy      1937.7561894122 Hartrees.
 NAtoms=   39 NActive=   39 NUniq=   39 SFac= 1.00D+00 NAtFMM=   60 NAOKFM=F Big=F
 Integral buffers will be    131072 words long.
 Raffenetti 2 integral format.
 Two-electron integral symmetry is turned on.
 One-electron integrals computed using PRISM.
 NBasis=   634 RedAO= T EigKep=  1.43D-06  NBF=   634
 NBsUse=   617 1.00D-06 EigRej=  8.88D-07 NBFU=   617
 ExpMin= 4.38D-02 ExpMax= 4.56D+03 ExpMxC= 6.82D+02 IAcc=2 IRadAn=         4 AccDes= 0.00D+00
 Harris functional with IExCor=  402 and IRadAn=       4 diagonalized for initial guess.
 HarFok:  IExCor=  402 AccDes= 0.00D+00 IRadAn=         4 IDoV= 1 UseB2=F ITyADJ=14
 ICtDFT=  3500011 ScaDFX=  1.000000  1.000000  1.000000  1.000000
 FoFCou: FMM=F IPFlag=           0 FMFlag=      100000 FMFlg1=           0
         NFxFlg=           0 DoJE=T BraDBF=F KetDBF=T FulRan=T
         wScrn=  0.000000 ICntrl=     500 IOpCl=  0 I1Cent=   200000004 NGrid=           0
         NMat0=    1 NMatS0=      1 NMatT0=    0 NMatD0=    1 NMtDS0=    0 NMtDT0=    0
 Petite list used in FoFCou.
 Initial guess <Sx>= 0.0000 <Sy>= 0.0000 <Sz>= 1.0000 <S**2>= 2.0000 S= 1.0000
 Requested convergence on RMS density matrix=1.00D-08 within 128 cycles.
 Requested convergence on MAX density matrix=1.00D-06.
 Requested convergence on             energy=1.00D-06.
 No special actions if energy rises.
 Restarting incremental Fock formation.
 SCF Done:  E(UB3LYP) =  -961.270094521     A.U. after   25 cycles
            NFock= 25  Conv=0.96D-08     -V/T= 2.0045
 <Sx>= 0.0000 <Sy>= 0.0000 <Sz>= 1.0000 <S**2>= 2.0280 S= 1.0093
 <L.S>= 0.000000000000E+00
 Annihilation of the first spin contaminant:
 S**2 before annihilation     2.0280,   after     2.0004

 **********************************************************************

            Population analysis using the SCF density.

 **********************************************************************

 Orbital symmetries:
 Alpha Orbitals:
       Occupied  (A) (A) (A) (A) (A) (A) (A) (A) (A) (A) (A) (A)
                 (A) (A) (A) (A) (A) (A) (A) (A) (A) (A) (A) (A)
                 (A) (A) (A) (A) (A) (A) (A) (A) (A) (A) (A) (A)
                 (A) (A) (A) (A) (A) (A) (A) (A) (A) (A) (A) (A)
                 (A) (A) (A) (A) (A) (A) (A) (A) (A) (A) (A) (A)
                 (A) (A) (A) (A) (A) (A) (A) (A) (A) (A) (A) (A)
                 (A) (A) (A) (A) (A) (A) (A) (A) (A) (A) (A)
       Virtual   (A) (A) (A) (A) (A) (A) (A) (A) (A) (A) (A) (A)
                 (A) (A) (A) (A) (A) (A) (A) (A) (A) (A) (A) (A)
                 (A) (A) (A) (A) (A) (A) (A) (A) (A) (A) (A) (A)
                 (A) (A) (A) (A) (A) (A) (A) (A) (A) (A) (A) (A)
                 (A) (A) (A) (A) (A) (A) (A) (A) (A) (A) (A) (A)
                 (A) (A) (A) (A) (A) (A) (A) (A) (A) (A) (A) (A)
                 (A) (A) (A) (A) (A) (A) (A) (A) (A) (A) (A) (A)
                 (A) (A) (A) (A) (A) (A) (A) (A) (A) (A) (A) (A)
                 (A) (A) (A) (A) (A) (A) (A) (A) (A) (A) (A) (A)
                 (A) (A) (A) (A) (A) (A) (A) (A) (A) (A) (A) (A)
                 (A) (A) (A) (A) (A) (A) (A) (A) (A) (A) (A) (A)
                 (A) (A) (A) (A) (A) (A) (A) (A) (A) (A) (A) (A)
                 (A) (A) (A) (A) (A) (A) (A) (A) (A) (A) (A) (A)
                 (A) (A) (A) (A) (A) (A) (A) (A) (A) (A) (A) (A)
                 (A) (A) (A) (A) (A) (A) (A) (A) (A) (A) (A) (A)
                 (A) (A) (A) (A) (A) (A) (A) (A) (A) (A) (A) (A)
                 (A) (A) (A) (A) (A) (A) (A) (A) (A) (A) (A) (A)
                 (A) (A) (A) (A) (A) (A) (A) (A) (A) (A) (A) (A)
                 (A) (A) (A) (A) (A) (A) (A) (A) (A) (A) (A) (A)
                 (A) (A) (A) (A) (A) (A) (A) (A) (A) (A) (A) (A)
                 (A) (A) (A) (A) (A) (A) (A) (A) (A) (A) (A) (A)
                 (A) (A) (A) (A) (A) (A) (A) (A) (A) (A) (A) (A)
                 (A) (A) (A) (A) (A) (A) (A) (A) (A) (A) (A) (A)
                 (A) (A) (A) (A) (A) (A) (A) (A) (A) (A) (A) (A)
                 (A) (A) (A) (A) (A) (A) (A) (A) (A) (A) (A) (A)
                 (A) (A) (A) (A) (A) (A) (A) (A) (A) (A) (A) (A)
                 (A) (A) (A) (A) (A) (A) (A) (A) (A) (A) (A) (A)
                 (A) (A) (A) (A) (A) (A) (A) (A) (A) (A) (A) (A)
                 (A) (A) (A) (A) (A) (A) (A) (A) (A) (A) (A) (A)
                 (A) (A) (A) (A) (A) (A) (A) (A) (A) (A) (A) (A)
                 (A) (A) (A) (A) (A) (A) (A) (A) (A) (A) (A) (A)
                 (A) (A) (A) (A) (A) (A) (A) (A) (A) (A) (A) (A)
                 (A) (A) (A) (A) (A) (A) (A) (A) (A) (A) (A) (A)
                 (A) (A) (A) (A) (A) (A) (A) (A) (A) (A) (A) (A)
                 (A) (A) (A) (A) (A) (A) (A) (A) (A) (A) (A) (A)
                 (A) (A) (A) (A) (A) (A) (A) (A) (A) (A) (A) (A)
                 (A) (A) (A) (A) (A) (A) (A) (A) (A) (A) (A) (A)
                 (A) (A) (A) (A) (A) (A) (A) (A) (A) (A) (A) (A)
                 (A) (A) (A) (A) (A) (A) (A) (A) (A) (A) (A) (A)
                 (A) (A) (A) (A) (A) (A) (A) (A) (A) (A) (A) (A)
                 (A) (A) (A) (A) (A) (A) (A) (A) (A) (A) (A) (A)
                 (A) (A) (A) (A) (A) (A) (A) (A) (A) (A) (A) (A)
                 (A) (A) (A) (A) (A) (A) (A) (A) (A) (A) (A) (A)
                 (A) (A) (A) (A) (A) (A) (A) (A) (A) (A) (A) (A)
                 (A) (A) (A) (A) (A) (A)
 Beta  Orbitals:
       Occupied  (A) (A) (A) (A) (A) (A) (A) (A) (A) (A) (A) (A)
                 (A) (A) (A) (A) (A) (A) (A) (A) (A) (A) (A) (A)
                 (A) (A) (A) (A) (A) (A) (A) (A) (A) (A) (A) (A)
                 (A) (A) (A) (A) (A) (A) (A) (A) (A) (A) (A) (A)
                 (A) (A) (A) (A) (A) (A) (A) (A) (A) (A) (A) (A)
                 (A) (A) (A) (A) (A) (A) (A) (A) (A) (A) (A) (A)
                 (A) (A) (A) (A) (A) (A) (A) (A) (A)
       Virtual   (A) (A) (A) (A) (A) (A) (A) (A) (A) (A) (A) (A)
                 (A) (A) (A) (A) (A) (A) (A) (A) (A) (A) (A) (A)
                 (A) (A) (A) (A) (A) (A) (A) (A) (A) (A) (A) (A)
                 (A) (A) (A) (A) (A) (A) (A) (A) (A) (A) (A) (A)
                 (A) (A) (A) (A) (A) (A) (A) (A) (A) (A) (A) (A)
                 (A) (A) (A) (A) (A) (A) (A) (A) (A) (A) (A) (A)
                 (A) (A) (A) (A) (A) (A) (A) (A) (A) (A) (A) (A)
                 (A) (A) (A) (A) (A) (A) (A) (A) (A) (A) (A) (A)
                 (A) (A) (A) (A) (A) (A) (A) (A) (A) (A) (A) (A)
                 (A) (A) (A) (A) (A) (A) (A) (A) (A) (A) (A) (A)
                 (A) (A) (A) (A) (A) (A) (A) (A) (A) (A) (A) (A)
                 (A) (A) (A) (A) (A) (A) (A) (A) (A) (A) (A) (A)
                 (A) (A) (A) (A) (A) (A) (A) (A) (A) (A) (A) (A)
                 (A) (A) (A) (A) (A) (A) (A) (A) (A) (A) (A) (A)
                 (A) (A) (A) (A) (A) (A) (A) (A) (A) (A) (A) (A)
                 (A) (A) (A) (A) (A) (A) (A) (A) (A) (A) (A) (A)
                 (A) (A) (A) (A) (A) (A) (A) (A) (A) (A) (A) (A)
                 (A) (A) (A) (A) (A) (A) (A) (A) (A) (A) (A) (A)
                 (A) (A) (A) (A) (A) (A) (A) (A) (A) (A) (A) (A)
                 (A) (A) (A) (A) (A) (A) (A) (A) (A) (A) (A) (A)
                 (A) (A) (A) (A) (A) (A) (A) (A) (A) (A) (A) (A)
                 (A) (A) (A) (A) (A) (A) (A) (A) (A) (A) (A) (A)
                 (A) (A) (A) (A) (A) (A) (A) (A) (A) (A) (A) (A)
                 (A) (A) (A) (A) (A) (A) (A) (A) (A) (A) (A) (A)
                 (A) (A) (A) (A) (A) (A) (A) (A) (A) (A) (A) (A)
                 (A) (A) (A) (A) (A) (A) (A) (A) (A) (A) (A) (A)
                 (A) (A) (A) (A) (A) (A) (A) (A) (A) (A) (A) (A)
                 (A) (A) (A) (A) (A) (A) (A) (A) (A) (A) (A) (A)
                 (A) (A) (A) (A) (A) (A) (A) (A) (A) (A) (A) (A)
                 (A) (A) (A) (A) (A) (A) (A) (A) (A) (A) (A) (A)
                 (A) (A) (A) (A) (A) (A) (A) (A) (A) (A) (A) (A)
                 (A) (A) (A) (A) (A) (A) (A) (A) (A) (A) (A) (A)
                 (A) (A) (A) (A) (A) (A) (A) (A) (A) (A) (A) (A)
                 (A) (A) (A) (A) (A) (A) (A) (A) (A) (A) (A) (A)
                 (A) (A) (A) (A) (A) (A) (A) (A) (A) (A) (A) (A)
                 (A) (A) (A) (A) (A) (A) (A) (A) (A) (A) (A) (A)
                 (A) (A) (A) (A) (A) (A) (A) (A) (A) (A) (A) (A)
                 (A) (A) (A) (A) (A) (A) (A) (A) (A) (A) (A) (A)
                 (A) (A) (A) (A) (A) (A) (A) (A) (A) (A) (A) (A)
                 (A) (A) (A) (A) (A) (A) (A) (A) (A) (A) (A) (A)
                 (A) (A) (A) (A) (A) (A) (A) (A) (A) (A) (A) (A)
                 (A) (A) (A) (A) (A) (A) (A) (A) (A) (A) (A) (A)
                 (A) (A) (A) (A) (A) (A) (A) (A) (A) (A) (A) (A)
                 (A) (A) (A) (A) (A) (A) (A) (A) (A) (A) (A) (A)
                 (A) (A) (A) (A) (A) (A) (A) (A)
 The electronic state is 3-A.
 Alpha  occ. eigenvalues --  -10.20225 -10.19935 -10.19859 -10.19690 -10.19451
 Alpha  occ. eigenvalues --  -10.19345 -10.19261 -10.19249 -10.19136 -10.19054
 Alpha  occ. eigenvalues --  -10.18953 -10.18845 -10.18581 -10.18470 -10.18453
 Alpha  occ. eigenvalues --  -10.18415 -10.18408 -10.18311 -10.18234 -10.18024
 Alpha  occ. eigenvalues --  -10.17991 -10.17905 -10.17801 -10.17208 -10.16373
 Alpha  occ. eigenvalues --   -0.91445  -0.88712  -0.85678  -0.84447  -0.83243
 Alpha  occ. eigenvalues --   -0.80350  -0.79112  -0.77656  -0.75410  -0.74820
 Alpha  occ. eigenvalues --   -0.73456  -0.71173  -0.68602  -0.66026  -0.64691
 Alpha  occ. eigenvalues --   -0.63083  -0.61956  -0.59557  -0.59076  -0.56219
 Alpha  occ. eigenvalues --   -0.55694  -0.52450  -0.52085  -0.51476  -0.50454
 Alpha  occ. eigenvalues --   -0.48194  -0.47642  -0.47274  -0.46193  -0.44978
 Alpha  occ. eigenvalues --   -0.44384  -0.44023  -0.43081  -0.42407  -0.42221
 Alpha  occ. eigenvalues --   -0.41623  -0.40866  -0.40690  -0.39969  -0.39529
 Alpha  occ. eigenvalues --   -0.39081  -0.36931  -0.36597  -0.36455  -0.35604
 Alpha  occ. eigenvalues --   -0.35194  -0.34582  -0.33428  -0.33360  -0.32991
 Alpha  occ. eigenvalues --   -0.29863  -0.29711  -0.26358  -0.25871  -0.24871
 Alpha  occ. eigenvalues --   -0.21900  -0.21498  -0.13713
 Alpha virt. eigenvalues --   -0.06731  -0.05383  -0.02659  -0.00974  -0.00044
 Alpha virt. eigenvalues --    0.00345   0.00620   0.00661   0.01724   0.01786
 Alpha virt. eigenvalues --    0.02682   0.03010   0.03193   0.03275   0.03694
 Alpha virt. eigenvalues --    0.04195   0.05034   0.05288   0.05480   0.05922
 Alpha virt. eigenvalues --    0.06160   0.06716   0.07138   0.07382   0.07557
 Alpha virt. eigenvalues --    0.07808   0.08088   0.08735   0.09388   0.09648
 Alpha virt. eigenvalues --    0.10008   0.10235   0.10614   0.10856   0.11489
 Alpha virt. eigenvalues --    0.11983   0.12346   0.12872   0.13022   0.13166
 Alpha virt. eigenvalues --    0.13739   0.13906   0.14204   0.14359   0.14917
 Alpha virt. eigenvalues --    0.15488   0.15584   0.15773   0.16231   0.16372
 Alpha virt. eigenvalues --    0.16775   0.17086   0.17298   0.17465   0.17532
 Alpha virt. eigenvalues --    0.17938   0.18210   0.18391   0.18519   0.18687
 Alpha virt. eigenvalues --    0.19172   0.19495   0.19603   0.19667   0.19938
 Alpha virt. eigenvalues --    0.20402   0.20501   0.21059   0.21244   0.21392
 Alpha virt. eigenvalues --    0.21488   0.21858   0.22201   0.22535   0.22661
 Alpha virt. eigenvalues --    0.23090   0.23107   0.23272   0.24100   0.24129
 Alpha virt. eigenvalues --    0.24386   0.24775   0.25117   0.25215   0.25363
 Alpha virt. eigenvalues --    0.25618   0.25867   0.26150   0.26661   0.26788
 Alpha virt. eigenvalues --    0.26916   0.27579   0.27799   0.28236   0.28630
 Alpha virt. eigenvalues --    0.28827   0.29214   0.29508   0.29576   0.29985
 Alpha virt. eigenvalues --    0.30578   0.30721   0.30951   0.31275   0.31647
 Alpha virt. eigenvalues --    0.31871   0.32467   0.32641   0.33007   0.33370
 Alpha virt. eigenvalues --    0.33691   0.34326   0.34611   0.35427   0.35698
 Alpha virt. eigenvalues --    0.36201   0.36797   0.37570   0.38329   0.39077
 Alpha virt. eigenvalues --    0.39486   0.39761   0.40326   0.41388   0.42158
 Alpha virt. eigenvalues --    0.42410   0.43639   0.43838   0.44674   0.45329
 Alpha virt. eigenvalues --    0.46565   0.47638   0.48497   0.48832   0.49742
 Alpha virt. eigenvalues --    0.51092   0.51212   0.52255   0.52521   0.52982
 Alpha virt. eigenvalues --    0.53162   0.53964   0.54177   0.54356   0.54628
 Alpha virt. eigenvalues --    0.55418   0.55693   0.56240   0.56556   0.56812
 Alpha virt. eigenvalues --    0.57126   0.57832   0.58270   0.58698   0.59315
 Alpha virt. eigenvalues --    0.59372   0.59864   0.60323   0.60679   0.61496
 Alpha virt. eigenvalues --    0.61799   0.61977   0.62882   0.63587   0.64030
 Alpha virt. eigenvalues --    0.64455   0.64753   0.64929   0.65541   0.65790
 Alpha virt. eigenvalues --    0.66509   0.66547   0.66680   0.67668   0.67955
 Alpha virt. eigenvalues --    0.68326   0.68945   0.70091   0.70224   0.70453
 Alpha virt. eigenvalues --    0.70822   0.71212   0.71478   0.71785   0.72106
 Alpha virt. eigenvalues --    0.73184   0.73508   0.73929   0.74107   0.74486
 Alpha virt. eigenvalues --    0.74934   0.75131   0.76203   0.76348   0.76644
 Alpha virt. eigenvalues --    0.77139   0.77661   0.77959   0.79368   0.80231
 Alpha virt. eigenvalues --    0.80963   0.82743   0.82774   0.83508   0.84235
 Alpha virt. eigenvalues --    0.84961   0.85219   0.87310   0.87853   0.88348
 Alpha virt. eigenvalues --    0.89652   0.90020   0.90541   0.90791   0.91271
 Alpha virt. eigenvalues --    0.91732   0.92217   0.92665   0.93323   0.94077
 Alpha virt. eigenvalues --    0.94539   0.94913   0.95404   0.95942   0.96210
 Alpha virt. eigenvalues --    0.96508   0.97460   0.97712   0.98446   0.98802
 Alpha virt. eigenvalues --    0.99839   1.00204   1.00853   1.01553   1.02060
 Alpha virt. eigenvalues --    1.02698   1.03108   1.03930   1.04589   1.05539
 Alpha virt. eigenvalues --    1.05730   1.06093   1.07342   1.08033   1.08900
 Alpha virt. eigenvalues --    1.09400   1.09966   1.10994   1.11276   1.12122
 Alpha virt. eigenvalues --    1.13069   1.13623   1.14896   1.15603   1.17116
 Alpha virt. eigenvalues --    1.18327   1.19252   1.20693   1.21263   1.23034
 Alpha virt. eigenvalues --    1.24586   1.25304   1.27723   1.29710   1.30144
 Alpha virt. eigenvalues --    1.30726   1.32649   1.35530   1.37012   1.39379
 Alpha virt. eigenvalues --    1.40716   1.42078   1.43402   1.43920   1.44839
 Alpha virt. eigenvalues --    1.45636   1.46020   1.47182   1.47794   1.48247
 Alpha virt. eigenvalues --    1.48654   1.49651   1.49689   1.50256   1.50593
 Alpha virt. eigenvalues --    1.51344   1.52642   1.54331   1.55193   1.55286
 Alpha virt. eigenvalues --    1.55678   1.55914   1.56324   1.57165   1.57959
 Alpha virt. eigenvalues --    1.60060   1.60323   1.61006   1.62729   1.63521
 Alpha virt. eigenvalues --    1.64401   1.65126   1.65815   1.66925   1.67785
 Alpha virt. eigenvalues --    1.68261   1.69316   1.70052   1.71410   1.71926
 Alpha virt. eigenvalues --    1.72453   1.73677   1.74124   1.74579   1.74684
 Alpha virt. eigenvalues --    1.75520   1.75691   1.76503   1.77730   1.78779
 Alpha virt. eigenvalues --    1.78988   1.79598   1.80061   1.81687   1.82863
 Alpha virt. eigenvalues --    1.84065   1.85018   1.85236   1.86261   1.86727
 Alpha virt. eigenvalues --    1.87659   1.88726   1.88980   1.89575   1.90322
 Alpha virt. eigenvalues --    1.90728   1.91833   1.92322   1.92506   1.93526
 Alpha virt. eigenvalues --    1.93837   1.94366   1.94842   1.95760   1.97618
 Alpha virt. eigenvalues --    1.98458   1.98909   1.99327   1.99874   2.00751
 Alpha virt. eigenvalues --    2.01855   2.03849   2.04526   2.05070   2.05464
 Alpha virt. eigenvalues --    2.06269   2.07523   2.09424   2.10440   2.11791
 Alpha virt. eigenvalues --    2.12154   2.13072   2.14405   2.15117   2.15510
 Alpha virt. eigenvalues --    2.16102   2.17746   2.18219   2.19771   2.21129
 Alpha virt. eigenvalues --    2.22175   2.22988   2.23498   2.25366   2.26653
 Alpha virt. eigenvalues --    2.27055   2.32028   2.32251   2.32941   2.35488
 Alpha virt. eigenvalues --    2.36762   2.37245   2.39836   2.40959   2.42300
 Alpha virt. eigenvalues --    2.43071   2.43970   2.44313   2.45193   2.45808
 Alpha virt. eigenvalues --    2.47318   2.48900   2.53101   2.55101   2.55177
 Alpha virt. eigenvalues --    2.56411   2.57267   2.58408   2.59259   2.61723
 Alpha virt. eigenvalues --    2.62870   2.64343   2.65149   2.66906   2.67429
 Alpha virt. eigenvalues --    2.69498   2.70044   2.71184   2.71200   2.71831
 Alpha virt. eigenvalues --    2.72034   2.72488   2.72984   2.73675   2.74671
 Alpha virt. eigenvalues --    2.74890   2.75361   2.75854   2.76030   2.76201
 Alpha virt. eigenvalues --    2.77205   2.77623   2.78311   2.79358   2.80177
 Alpha virt. eigenvalues --    2.80828   2.81584   2.82328   2.82976   2.83677
 Alpha virt. eigenvalues --    2.84303   2.84752   2.86648   2.87469   2.88235
 Alpha virt. eigenvalues --    2.88726   2.90384   2.91049   2.91800   2.92175
 Alpha virt. eigenvalues --    2.92978   2.94567   2.95112   2.98850   3.00222
 Alpha virt. eigenvalues --    3.01658   3.03954   3.05238   3.06590   3.09103
 Alpha virt. eigenvalues --    3.09931   3.13301   3.13546   3.16198   3.19132
 Alpha virt. eigenvalues --    3.19183   3.20990   3.21454   3.23711   3.24718
 Alpha virt. eigenvalues --    3.28064   3.28925   3.33105   3.34753   3.36149
 Alpha virt. eigenvalues --    3.37410   3.38606   3.40091   3.40805   3.43848
 Alpha virt. eigenvalues --    3.44464   3.47248   3.48528   3.48664   3.49828
 Alpha virt. eigenvalues --    3.51320   3.54081   3.55487   3.58896   3.60409
 Alpha virt. eigenvalues --    3.62614   3.66385   3.67510   3.71779   3.73834
 Alpha virt. eigenvalues --    3.81204   3.82021   3.83600   3.90877   3.98691
 Alpha virt. eigenvalues --    4.04195   4.05658   4.07333   4.10621   4.11323
 Alpha virt. eigenvalues --    4.12885   4.14660   4.22493   4.28768   4.34216
 Alpha virt. eigenvalues --    4.38528   4.49531   4.64953   4.76784   4.79278
 Alpha virt. eigenvalues --    4.80080   4.81840   4.83162   4.87310  23.41714
 Alpha virt. eigenvalues --   23.59442  23.76961  23.77683  23.81638  23.88158
 Alpha virt. eigenvalues --   23.89533  23.90185  23.92079  23.94652  23.95917
 Alpha virt. eigenvalues --   23.97490  23.98741  23.99679  24.00446  24.01694
 Alpha virt. eigenvalues --   24.08060  24.10237  24.11503  24.12049  24.12109
 Alpha virt. eigenvalues --   24.16042  24.18971  24.19745  24.19964
  Beta  occ. eigenvalues --  -10.20136 -10.19869 -10.19784 -10.19363 -10.19252
  Beta  occ. eigenvalues --  -10.19237 -10.19152 -10.19115 -10.19026 -10.18945
  Beta  occ. eigenvalues --  -10.18863 -10.18583 -10.18520 -10.18503 -10.18445
  Beta  occ. eigenvalues --  -10.18362 -10.18322 -10.18319 -10.18201 -10.17978
  Beta  occ. eigenvalues --  -10.17904 -10.17792 -10.17106 -10.17061 -10.16338
  Beta  occ. eigenvalues --   -0.90972  -0.88473  -0.85262  -0.83934  -0.83049
  Beta  occ. eigenvalues --   -0.80016  -0.78554  -0.76916  -0.75188  -0.74362
  Beta  occ. eigenvalues --   -0.73248  -0.70485  -0.68209  -0.65330  -0.64479
  Beta  occ. eigenvalues --   -0.62765  -0.61699  -0.59079  -0.58857  -0.55872
  Beta  occ. eigenvalues --   -0.55242  -0.52236  -0.51882  -0.51278  -0.50316
  Beta  occ. eigenvalues --   -0.47972  -0.47430  -0.46974  -0.46012  -0.44556
  Beta  occ. eigenvalues --   -0.44059  -0.43705  -0.42506  -0.42089  -0.41688
  Beta  occ. eigenvalues --   -0.41409  -0.40676  -0.40285  -0.39597  -0.39338
  Beta  occ. eigenvalues --   -0.38726  -0.36385  -0.36287  -0.35568  -0.35446
  Beta  occ. eigenvalues --   -0.34570  -0.34087  -0.33159  -0.32772  -0.32657
  Beta  occ. eigenvalues --   -0.28989  -0.27975  -0.25080  -0.24490  -0.23988
  Beta  occ. eigenvalues --   -0.21133
  Beta virt. eigenvalues --   -0.14890  -0.06406  -0.05296  -0.04478  -0.01968
  Beta virt. eigenvalues --   -0.00326   0.00230   0.00620   0.00670   0.01439
  Beta virt. eigenvalues --    0.01766   0.01814   0.02829   0.03231   0.03291
  Beta virt. eigenvalues --    0.03618   0.03932   0.04417   0.05132   0.05358
  Beta virt. eigenvalues --    0.05614   0.06062   0.06811   0.06871   0.07309
  Beta virt. eigenvalues --    0.07504   0.07706   0.07882   0.08183   0.09044
  Beta virt. eigenvalues --    0.09459   0.10108   0.10214   0.10305   0.10795
  Beta virt. eigenvalues --    0.10991   0.11724   0.12145   0.12571   0.12940
  Beta virt. eigenvalues --    0.13079   0.13389   0.13920   0.13955   0.14453
  Beta virt. eigenvalues --    0.14569   0.15140   0.15542   0.15648   0.15847
  Beta virt. eigenvalues --    0.16329   0.16471   0.16860   0.17169   0.17405
  Beta virt. eigenvalues --    0.17547   0.17768   0.18176   0.18354   0.18530
  Beta virt. eigenvalues --    0.18715   0.18816   0.19263   0.19595   0.19659
  Beta virt. eigenvalues --    0.19928   0.20060   0.20524   0.20753   0.21263
  Beta virt. eigenvalues --    0.21360   0.21518   0.21702   0.21989   0.22402
  Beta virt. eigenvalues --    0.22722   0.22997   0.23217   0.23343   0.23549
  Beta virt. eigenvalues --    0.24198   0.24314   0.24566   0.24873   0.25229
  Beta virt. eigenvalues --    0.25356   0.25530   0.25729   0.25995   0.26358
  Beta virt. eigenvalues --    0.26803   0.26913   0.27071   0.27648   0.27989
  Beta virt. eigenvalues --    0.28334   0.28824   0.28988   0.29325   0.29654
  Beta virt. eigenvalues --    0.29751   0.30131   0.30779   0.30875   0.31073
  Beta virt. eigenvalues --    0.31420   0.31809   0.32050   0.32563   0.32762
  Beta virt. eigenvalues --    0.33124   0.33473   0.33834   0.34451   0.34758
  Beta virt. eigenvalues --    0.35548   0.35822   0.36471   0.37049   0.37753
  Beta virt. eigenvalues --    0.38507   0.39306   0.39637   0.39915   0.40423
  Beta virt. eigenvalues --    0.41713   0.42513   0.42618   0.43863   0.44196
  Beta virt. eigenvalues --    0.44819   0.45482   0.46790   0.47804   0.48638
  Beta virt. eigenvalues --    0.49081   0.50094   0.51348   0.51471   0.52731
  Beta virt. eigenvalues --    0.52766   0.53236   0.53541   0.54246   0.54436
  Beta virt. eigenvalues --    0.54565   0.55178   0.55502   0.55918   0.56432
  Beta virt. eigenvalues --    0.56757   0.57063   0.57541   0.58042   0.58470
  Beta virt. eigenvalues --    0.59081   0.59518   0.59788   0.60173   0.60532
  Beta virt. eigenvalues --    0.60929   0.61926   0.62228   0.62673   0.63190
  Beta virt. eigenvalues --    0.63935   0.64351   0.64629   0.64962   0.65462
  Beta virt. eigenvalues --    0.65818   0.66030   0.66721   0.66887   0.67151
  Beta virt. eigenvalues --    0.67912   0.68183   0.68623   0.69155   0.70228
  Beta virt. eigenvalues --    0.70579   0.70808   0.71177   0.71367   0.71746
  Beta virt. eigenvalues --    0.71970   0.72285   0.73386   0.73760   0.74079
  Beta virt. eigenvalues --    0.74366   0.74711   0.75145   0.75438   0.76465
  Beta virt. eigenvalues --    0.76685   0.76921   0.77384   0.77939   0.78164
  Beta virt. eigenvalues --    0.79706   0.80378   0.81151   0.82878   0.83228
  Beta virt. eigenvalues --    0.83682   0.84450   0.85093   0.85316   0.87538
  Beta virt. eigenvalues --    0.88184   0.88655   0.89826   0.90323   0.90732
  Beta virt. eigenvalues --    0.91077   0.91638   0.92014   0.92557   0.92970
  Beta virt. eigenvalues --    0.93617   0.94289   0.94789   0.95102   0.95573
  Beta virt. eigenvalues --    0.96229   0.96515   0.96702   0.97799   0.98102
  Beta virt. eigenvalues --    0.98694   0.99192   1.00131   1.00541   1.01169
  Beta virt. eigenvalues --    1.02050   1.02378   1.03095   1.03575   1.04287
  Beta virt. eigenvalues --    1.04901   1.05825   1.06083   1.06293   1.07682
  Beta virt. eigenvalues --    1.08376   1.09400   1.09705   1.10601   1.11238
  Beta virt. eigenvalues --    1.11480   1.12408   1.13349   1.13937   1.15178
  Beta virt. eigenvalues --    1.15909   1.17458   1.18682   1.19645   1.21130
  Beta virt. eigenvalues --    1.21661   1.23379   1.25058   1.25591   1.28052
  Beta virt. eigenvalues --    1.30073   1.30490   1.31072   1.32895   1.35775
  Beta virt. eigenvalues --    1.37369   1.39637   1.41045   1.42464   1.43875
  Beta virt. eigenvalues --    1.44236   1.45377   1.45998   1.46233   1.47461
  Beta virt. eigenvalues --    1.48278   1.48523   1.48866   1.49910   1.50300
  Beta virt. eigenvalues --    1.50601   1.50767   1.51539   1.52938   1.54540
  Beta virt. eigenvalues --    1.55338   1.55511   1.55900   1.56240   1.56474
  Beta virt. eigenvalues --    1.57409   1.58270   1.60309   1.60614   1.61246
  Beta virt. eigenvalues --    1.63000   1.63943   1.64654   1.65423   1.66200
  Beta virt. eigenvalues --    1.67324   1.68006   1.68583   1.69642   1.70280
  Beta virt. eigenvalues --    1.71749   1.72212   1.72786   1.74123   1.74289
  Beta virt. eigenvalues --    1.74782   1.74891   1.75784   1.75967   1.77210
  Beta virt. eigenvalues --    1.78255   1.79132   1.79226   1.79863   1.80550
  Beta virt. eigenvalues --    1.82309   1.83559   1.84486   1.85258   1.85764
  Beta virt. eigenvalues --    1.86586   1.87116   1.87920   1.88988   1.89114
  Beta virt. eigenvalues --    1.89893   1.90618   1.91101   1.92151   1.92579
  Beta virt. eigenvalues --    1.93026   1.93841   1.94171   1.94708   1.95166
  Beta virt. eigenvalues --    1.96216   1.98122   1.98879   1.99200   1.99617
  Beta virt. eigenvalues --    2.00268   2.01205   2.02200   2.04163   2.05152
  Beta virt. eigenvalues --    2.05385   2.05800   2.06485   2.07756   2.09702
  Beta virt. eigenvalues --    2.10680   2.11957   2.12440   2.13374   2.14675
  Beta virt. eigenvalues --    2.15592   2.15773   2.16359   2.18067   2.18653
  Beta virt. eigenvalues --    2.20168   2.21488   2.22428   2.23530   2.23885
  Beta virt. eigenvalues --    2.25696   2.26885   2.27410   2.32355   2.32770
  Beta virt. eigenvalues --    2.33304   2.35772   2.36994   2.37653   2.39953
  Beta virt. eigenvalues --    2.41294   2.42801   2.43352   2.44239   2.44620
  Beta virt. eigenvalues --    2.45611   2.46006   2.47974   2.49233   2.53411
  Beta virt. eigenvalues --    2.55295   2.55384   2.56597   2.57511   2.58631
  Beta virt. eigenvalues --    2.59661   2.61953   2.63494   2.64703   2.65468
  Beta virt. eigenvalues --    2.67176   2.67983   2.69742   2.70379   2.71289
  Beta virt. eigenvalues --    2.71465   2.72017   2.72400   2.72642   2.73090
  Beta virt. eigenvalues --    2.73753   2.74862   2.75009   2.75449   2.75977
  Beta virt. eigenvalues --    2.76100   2.77217   2.77286   2.77837   2.78407
  Beta virt. eigenvalues --    2.79449   2.80268   2.81416   2.82002   2.82530
  Beta virt. eigenvalues --    2.83167   2.84066   2.84480   2.85296   2.87004
  Beta virt. eigenvalues --    2.87966   2.88417   2.89242   2.90851   2.91297
  Beta virt. eigenvalues --    2.92253   2.92489   2.93241   2.95023   2.95943
  Beta virt. eigenvalues --    2.99856   3.00810   3.02563   3.04702   3.05825
  Beta virt. eigenvalues --    3.07146   3.09488   3.10528   3.13769   3.14183
  Beta virt. eigenvalues --    3.16421   3.19336   3.19404   3.21174   3.21561
  Beta virt. eigenvalues --    3.23824   3.24806   3.28206   3.29106   3.33292
  Beta virt. eigenvalues --    3.34925   3.36337   3.37513   3.38706   3.40222
  Beta virt. eigenvalues --    3.40874   3.43968   3.44555   3.47369   3.48686
  Beta virt. eigenvalues --    3.48841   3.50006   3.51395   3.54194   3.55675
  Beta virt. eigenvalues --    3.58990   3.60595   3.62777   3.66537   3.67813
  Beta virt. eigenvalues --    3.72091   3.73964   3.81519   3.82237   3.83894
  Beta virt. eigenvalues --    3.91200   3.98970   4.04362   4.05781   4.07533
  Beta virt. eigenvalues --    4.10843   4.11483   4.13025   4.15204   4.23017
  Beta virt. eigenvalues --    4.28999   4.34464   4.38812   4.50160   4.65485
  Beta virt. eigenvalues --    4.77349   4.79661   4.80437   4.82013   4.83359
  Beta virt. eigenvalues --    4.87559  23.41858  23.59511  23.77074  23.77993
  Beta virt. eigenvalues --   23.81706  23.88226  23.89637  23.90370  23.92191
  Beta virt. eigenvalues --   23.94692  23.96053  23.97704  23.99254  23.99855
  Beta virt. eigenvalues --   24.00540  24.02074  24.08140  24.10400  24.11668
  Beta virt. eigenvalues --   24.12136  24.12214  24.16097  24.19060  24.19787
  Beta virt. eigenvalues --   24.20045
          Condensed to atoms (all electrons):
               1          2          3          4          5          6
     1  C    9.209448   1.094910   0.124605   0.625508  -0.631426  -0.952395
     2  C    1.094910   6.660105   0.805599  -0.045980  -0.306916   0.040582
     3  C    0.124605   0.805599   6.963041   0.479926  -0.033122  -0.112354
     4  C    0.625508  -0.045980   0.479926   9.728280  -0.766513   0.076192
     5  C   -0.631426  -0.306916  -0.033122  -0.766513   8.581570   1.469332
     6  C   -0.952395   0.040582  -0.112354   0.076192   1.469332   8.258977
     7  C    0.249711  -0.169953   0.489479  -0.257891  -0.464815  -0.516688
     8  C   -0.274780  -0.060669   0.335170  -0.997957  -0.062821  -0.455154
     9  C   -0.561730  -0.326715  -1.034090  -0.179700   0.235533  -0.250296
    10  C   -0.537451  -0.249914   0.428824   1.228951   0.008871  -0.508617
    11  C   -0.044809  -0.185914  -0.071035  -0.947104  -0.033190  -0.173187
    12  C   -0.017773   0.066299  -0.396463  -0.051677   0.017320   0.009232
    13  C    0.019385   0.049813  -0.072986   0.071850  -0.039383  -0.066226
    14  C   -0.168953   0.085865  -0.857735  -0.973978  -0.132941  -0.228083
    15  C    0.015277   0.003364  -0.002229  -0.442644  -0.049026  -0.080129
    16  C    0.024182   0.015193   0.168907  -0.009865  -0.006056  -0.010948
    17  C   -0.001914  -0.007855  -0.034086  -0.025294  -0.000422  -0.003587
    18  C   -0.003377   0.027422  -0.193950   0.034063   0.003051   0.012761
    19  C   -1.801502  -1.729641  -0.561401  -0.478759  -0.687503   0.270763
    20  C    0.154267   0.504650  -0.148267  -0.049453  -0.315163  -0.159023
    21  C    0.229166   0.039638   0.210610   0.162784   0.184956  -0.006959
    22  C   -0.772815   0.453678   0.331347  -1.110939  -0.837376  -0.350790
    23  C   -0.283672  -0.076715   0.194408  -1.210998  -0.191921  -0.350550
    24  H   -0.014112   0.041311  -0.005867   0.001698  -0.005714  -0.001786
    25  H    0.008480  -0.004404  -0.000685   0.001867   0.008119   0.001013
    26  H   -0.053197   0.034041  -0.010240   0.003866   0.030704   0.013406
    27  H   -0.095648   0.005685  -0.002764   0.016216   0.372578  -0.027433
    28  H   -0.029774  -0.009123   0.003973  -0.089956  -0.040181   0.399702
    29  H    0.002491  -0.004632   0.006668  -0.028645   0.010538   0.022609
    30  H    0.000897   0.001541   0.007524   0.052212   0.000494   0.009594
    31  H    0.000020   0.000118   0.000901   0.002682   0.000004   0.000232
    32  H   -0.000001   0.000009   0.000017   0.000325   0.000001   0.000026
    33  H   -0.000181  -0.014777  -0.001711  -0.008426  -0.000235  -0.000828
    34  H   -0.000024  -0.000103  -0.000272  -0.000095  -0.000001  -0.000010
    35  H    0.000002   0.000020   0.000075   0.000084   0.000000   0.000003
    36  C    0.282286  -0.675760  -0.623376   1.011140   0.046150  -0.047523
    37  C   -0.103478  -0.024617  -0.133793  -0.163635   0.013081   0.010003
    38  H   -0.001223   0.000023  -0.005664  -0.003294  -0.000349  -0.000192
    39  H    0.000242   0.004230   0.002186   0.001445   0.000007   0.000055
               7          8          9         10         11         12
     1  C    0.249711  -0.274780  -0.561730  -0.537451  -0.044809  -0.017773
     2  C   -0.169953  -0.060669  -0.326715  -0.249914  -0.185914   0.066299
     3  C    0.489479   0.335170  -1.034090   0.428824  -0.071035  -0.396463
     4  C   -0.257891  -0.997957  -0.179700   1.228951  -0.947104  -0.051677
     5  C   -0.464815  -0.062821   0.235533   0.008871  -0.033190   0.017320
     6  C   -0.516688  -0.455154  -0.250296  -0.508617  -0.173187   0.009232
     7  C    6.778468   0.434131  -0.052845   0.085449   0.285953  -0.117359
     8  C    0.434131   6.795903   0.207138  -0.121313   1.052955  -0.509319
     9  C   -0.052845   0.207138  13.724196   1.296160  -1.594828   0.885065
    10  C    0.085449  -0.121313   1.296160   8.603883  -0.889402  -0.927653
    11  C    0.285953   1.052955  -1.594828  -0.889402   7.255435  -0.035707
    12  C   -0.117359  -0.509319   0.885065  -0.927653  -0.035707  11.309737
    13  C   -0.572094  -0.060961  -1.329048  -0.312411  -0.860689   0.021924
    14  C   -0.326207   0.588567  -1.386777  -1.818813   0.565010  -1.212437
    15  C   -0.243942  -0.007121  -1.314833  -0.199895   1.556258  -1.506160
    16  C   -0.409714  -0.260005   0.381212   0.043981  -0.857064   1.621448
    17  C   -0.032599  -0.209017  -0.335890  -0.064921   0.398031  -0.736546
    18  C    0.293397  -0.354797  -0.955233  -0.165730   0.453973  -1.337945
    19  C    0.143227  -0.079429  -0.088608  -0.037461  -0.007475   0.004356
    20  C    0.003289  -0.025141  -0.077181  -0.052732   0.011164  -0.003781
    21  C   -0.220312   0.101189   0.204237  -0.032467   0.046972  -0.011240
    22  C    0.090475  -0.115158  -0.879457  -0.286289   0.150887  -0.046804
    23  C   -0.723739  -0.227877  -2.053683  -0.049293   0.320098  -0.473196
    24  H   -0.013482  -0.000142  -0.001255  -0.000127  -0.000063  -0.000027
    25  H    0.002141  -0.000154   0.000120   0.000281   0.000003  -0.000005
    26  H    0.001584  -0.000119  -0.000462  -0.000087   0.000007  -0.000002
    27  H    0.001959   0.000029   0.002185   0.002113   0.000043   0.000000
    28  H   -0.008491   0.003856   0.029765   0.069458  -0.000044   0.000435
    29  H   -0.014898  -0.012358  -0.091361   0.326387  -0.006684   0.010400
    30  H   -0.010131  -0.012952  -0.081993   0.122276  -0.035436  -0.037331
    31  H    0.001292  -0.010227   0.005062   0.008046  -0.004774  -0.097415
    32  H    0.002195  -0.003723   0.016758   0.001699   0.000747  -0.110777
[...]
 00089323,0.28858412,-0.00008825,0.00003906,0.00000948,0.00005271,-0.00
 003244,-0.00000246,-0.00007298,0.00001477,-0.00000619,0.00007703,-0.00
 005838,-0.00000300,0.00002751,-0.00003056,-0.00000417,-0.00004393,0.00
 001589,0.00000514,0.00014401,-0.00019986,-0.00001022,0.00000305,0.0003
 9026,-0.00001843,0.00032173,-0.00020084,0.00004622,-0.00011598,-0.0000
 0783,-0.00000446,0.00015152,-0.00074305,0.00007387,0.00098274,-0.00573
 502,0.00032079,-0.00123841,0.00053694,-0.00020358,-0.00041883,-0.00056
 901,-0.00008053,0.00286840,-0.00165841,0.00132647,0.01750838,0.0112766
 2,0.00400547,-0.10183908,-0.10730541,-0.02372716,-0.02968006,-0.007595
 54,-0.00690828,0.00002272,-0.00007459,-0.00000810,0.00004840,0.0000379
 4,-0.00000372,-0.00002766,-0.00000339,0.00000397,-0.00000104,0.0000487
 0,0.00001877,0.00008658,0.00036097,-0.00002519,0.00000003,0.00000045,0
 .00000125,-0.00000212,0.00000271,0.00000028,-0.00000160,-0.00000248,0.
 00000064,-0.00000294,0.00000042,0.00000009,0.00000095,-0.00000208,0.00
 000021,0.00000324,0.00000245,-0.00000344,-0.00014829,-0.00007666,-0.00
 002286,0.00005050,-0.00003123,0.00001603,0.00044351,0.00101454,0.00000
 390,0.00003604,-0.00002748,0.00004866,-0.00045446,0.00074829,-0.000342
 17,0.11070651,0.10992349,-0.00013458,-0.00004663,0.00000705,0.00017811
 ,-0.00012354,-0.00000505,-0.00028999,-0.00004905,0.00000943,0.00009473
 ,-0.00004519,-0.00000444,-0.00002263,0.00002760,0.00000499,-0.00002076
 ,-0.00000377,0.00000057,0.00026376,0.00005567,0.00000931,-0.00007482,-
 0.00016226,-0.00073054,0.00062538,0.00020151,0.00022175,-0.00050997,-0
 .00021904,0.00001659,0.00044845,0.00029354,-0.00067555,-0.00135763,-0.
 00007146,0.00851517,0.00030099,0.00043054,0.00014971,-0.00044577,-0.00
 000781,-0.00075311,-0.00190905,0.00168253,0.00434808,-0.00577518,-0.00
 350601,0.00144461,-0.05672321,-0.02386910,-0.04983628,-0.00004112,0.00
 058910,0.00411292,0.00000451,-0.00005193,-0.00000577,-0.00000305,-0.00
 000618,-0.00000487,0.00006442,-0.00002132,-0.00000645,-0.00002670,0.00
 008331,0.00001778,0.00015929,0.00022872,0.00000482,0.00000383,-0.00000
 281,0.00000226,-0.00000249,0.00000115,0.00000068,0.00000130,-0.0000019
 4,0.00000198,-0.00000050,0.00000162,0.00000050,0.00000034,-0.00000129,
 0.00000249,-0.00000560,0.00000037,-0.00000482,-0.00000776,0.00000021,0
 .00000918,-0.00002477,-0.00000888,0.00018052,0.00121285,-0.00013837,-0
 .00458934,-0.00009029,0.00008133,-0.00006572,0.00086021,-0.00032081,-0
 .00233725,0.06340253,0.02543781,0.03990295,-0.01501956,-0.01320701,0.0
 0025401,0.01011786,0.00313991,-0.00101281,-0.00698454,0.00076501,0.000
 46204,-0.01357153,0.00181230,0.00129592,-0.00988357,0.01294480,0.00144
 847,0.01556192,0.00072955,-0.00093399,0.02748032,-0.03875659,-0.006812
 57,0.00610831,-0.00082745,0.00098251,0.02014942,0.00465759,0.00210114,
 -0.00422234,-0.01199015,-0.00227046,-0.00901345,-0.00208416,-0.0010238
 9,0.00267443,-0.01478331,-0.00026351,0.01446954,0.01741789,0.00208302,
 -0.02206574,0.00116632,-0.00283940,-0.02002672,0.01481854,0.00455481,-
 0.00472783,0.00096226,0.00082270,0.00362532,-0.00544845,0.00044936,0.0
 0408164,0.00418949,0.00090344,0.00198513,0.00086807,-0.00013374,-0.002
 55725,-0.00426237,-0.00048745,0.01120059,-0.00437516,-0.00099495,-0.03
 787747,-0.01911624,0.01083219,-0.15759660,-0.03298975,0.02063266,0.000
 30308,0.00020974,0.00014596,-0.00018398,0.00002008,-0.00004753,0.00015
 399,-0.00011502,0.00002428,-0.00001029,0.00035866,-0.00006259,0.000338
 61,-0.00002440,-0.00000695,-0.00010217,0.00030714,-0.00029423,-0.00031
 763,0.00001628,0.00016608,0.00019191,0.00019105,0.00015950,0.00000675,
 0.00002287,0.00008951,-0.00754372,0.00487616,0.01291517,-0.00028526,0.
 00001218,0.00023921,0.00007612,-0.00017465,-0.00032209,0.48980994,-0.0
 2018960,-0.01363425,0.00074889,0.02283493,0.00136904,-0.00221798,-0.00
 537841,-0.00680787,-0.00034102,-0.01900910,0.00076257,0.00175492,-0.01
 155401,0.01517908,0.00165508,0.01855644,0.00053876,-0.00101353,0.00007
 591,-0.08735474,-0.00819575,0.00355040,0.00175846,0.00127144,0.0286779
 4,0.00462016,0.00320198,-0.00804610,-0.01379386,-0.00317385,-0.0128070
 7,-0.00046814,-0.00027913,0.00271708,-0.02068218,0.00012764,0.02001655
 ,0.02408759,0.00264145,-0.03062778,0.00177116,-0.00406914,0.02307029,0
 .00771078,-0.01101899,-0.00875438,-0.00050170,-0.00127342,0.00622565,-
 0.00893249,0.00334769,0.00640519,0.00819429,0.00113822,0.00374662,-0.0
 0050588,-0.00031184,-0.00244104,-0.00414922,-0.00072221,0.01278571,-0.
 00327977,-0.00099014,-0.03066753,0.01695884,0.01188329,-0.08124491,-0.
 16412505,0.01001981,0.00082266,-0.00059552,0.00024984,0.00003641,0.000
 06313,-0.00009638,0.00021409,-0.00018731,0.00005216,0.00002281,0.00076
 999,-0.00013400,0.00018215,-0.00010830,0.00002891,-0.00011508,0.000371
 33,-0.00038593,-0.00044786,0.00002700,0.00028608,0.00025361,0.00037760
 ,0.00033218,0.00002794,0.00009334,-0.00000932,0.00564690,0.00331975,-0
 .00161482,0.00029229,0.00058651,-0.00062728,0.00021672,-0.00034172,-0.
 00006812,-0.01858952,0.61922114,0.00174200,-0.00088921,0.00100812,-0.0
 0044126,0.00119125,0.00080790,0.00252350,-0.00098171,0.00281026,-0.003
 48370,0.00130147,0.00086249,-0.00099916,0.00098481,0.00010103,0.001838
 25,0.00014816,-0.00030670,-0.00355997,-0.00202933,0.00611120,0.0025450
 9,-0.00003584,-0.00117559,-0.00229856,-0.00088986,-0.00018886,0.003901
 90,0.00025141,-0.00010521,-0.00162124,-0.00289847,-0.00022652,0.001961
 05,0.00086652,-0.00013226,-0.00117979,-0.00202269,-0.00025319,0.002875
 69,0.00034929,0.00024699,-0.00633234,-0.00590836,0.00868007,-0.0016778
 7,0.00224193,-0.00164289,-0.00071407,0.00143259,-0.00071370,-0.0020112
 8,-0.00153745,-0.00035985,-0.00019546,0.00208585,0.00015379,-0.0013592
 4,-0.00109380,-0.00019509,0.00074688,-0.00031068,0.00000083,-0.0001379
 9,0.00513214,0.00231921,0.03222144,0.01867081,-0.04677727,-0.00013354,
 -0.00003472,-0.00000684,-0.00000459,-0.00000699,-0.00000344,-0.0000388
 7,0.00003490,0.00002217,-0.00004175,0.00007231,-0.00024620,-0.00001277
 ,-0.00003484,-0.00009856,0.00005480,0.00002461,0.00003947,0.00000547,0
 .00001050,0.00004176,-0.00000165,0.00003527,0.00001435,-0.00002843,0.0
 0002761,0.00005550,0.02932575,-0.00147549,-0.01288467,0.00020858,0.000
 30562,-0.00010940,-0.00027442,0.00021421,0.00021666,-0.12929660,0.0143
 0911,0.13839988,0.00197464,0.00194676,-0.00026978,-0.00234851,-0.00005
 541,0.00001647,0.00077252,0.00101465,0.00002647,0.00353774,-0.00094237
 ,-0.00017015,0.00176480,-0.00203128,-0.00019436,-0.00272769,-0.0001433
 0,0.00020009,-0.00016411,0.00682483,-0.00058745,-0.00250585,-0.0014693
 1,0.00083215,-0.00283212,0.00048641,-0.00033910,-0.00042508,0.00153664
 ,0.00034848,0.01129321,0.00252206,0.00208545,-0.00017090,-0.00102322,-
 0.00095321,-0.00129427,-0.00298770,-0.00079123,0.00310385,-0.00038299,
 0.00058254,-0.11998502,0.02316949,-0.02381589,-0.03094916,0.02183462,-
 0.01825506,-0.00133917,-0.00351242,-0.00391427,-0.00124479,0.00000839,
 0.00041094,-0.00033338,-0.00031753,0.00004085,0.00047660,0.00070674,0.
 00005461,-0.00171386,0.00069241,0.00004733,0.00527823,-0.00228545,0.00
 113223,-0.02719478,-0.01788153,0.00932432,-0.00007237,0.00005311,-0.00
 000216,0.00001214,-0.00000669,-0.00001960,-0.00001142,0.00001617,-0.00
 000284,0.00000334,-0.00009399,0.00001191,-0.00002223,0.00003129,-0.000
 03716,-0.00003067,-0.00005027,0.00005439,0.00004590,-0.00000697,-0.000
 02569,0.00001189,-0.00035535,-0.00019760,-0.00000858,0.00015193,0.0004
 3086,-0.03747291,-0.01083215,-0.02579179,-0.00069044,0.00273810,0.0014
 6033,-0.00088416,0.00074880,0.00021529,-0.18712483,0.02153657,0.054025
 36,0.49733645,-0.00084726,-0.00061465,-0.00014357,-0.00056511,-0.00024
 196,-0.00006748,-0.00101061,-0.00023887,-0.00011183,0.00000766,0.00012
 662,-0.00000642,-0.00029871,0.00023847,0.00003225,0.00017261,0.0000012
 6,-0.00000126,-0.00015670,-0.00058677,0.00033262,0.00180135,0.00173690
 ,-0.00038797,0.00161359,0.00004004,-0.00009015,-0.00074028,-0.00063977
 ,0.00000750,0.01970401,-0.01734819,0.01016743,-0.00370245,-0.00425277,
 0.00066331,0.00233442,0.00089515,0.00042669,-0.00172779,0.00012831,-0.
 00019114,0.04328125,-0.12446656,0.02995668,0.00027026,0.00632892,0.002
 01708,-0.00282879,-0.00090399,0.00097633,0.00028148,0.00001478,-0.0002
 9192,0.00017040,-0.00039954,-0.00005653,0.00002204,0.00027295,-0.00000
 934,0.00022910,-0.00050449,-0.00004404,-0.00157506,-0.00344736,0.00086
 741,-0.02512256,0.01109722,0.00940348,-0.00023050,0.00021279,0.0000483
 4,-0.00006329,-0.00000864,-0.00000596,0.00000851,-0.00000001,0.0000068
 6,0.00000439,-0.00003295,0.00004124,0.00000889,-0.00000088,0.00000429,
 0.00001920,0.00002368,-0.00003687,-0.00004083,0.00000578,0.00000654,-0
 .00005175,-0.00037168,0.00000682,0.00012444,0.00001310,-0.00017033,-0.
 00842883,-0.05694940,-0.05382938,-0.00292051,-0.00011865,-0.00178312,-
 0.00059529,0.00032648,-0.00040494,-0.00225867,-0.09404579,0.00080753,0
 .06243367,0.54183582,-0.00212826,0.00044162,-0.00011363,0.00225955,-0.
 00147184,-0.00022375,-0.00344220,-0.00077215,0.00017364,0.00303500,-0.
 00136601,-0.00006682,0.00057958,-0.00094222,0.00007386,-0.00188140,-0.
 00008439,0.00009307,0.00501777,-0.00143291,-0.00117767,-0.00448679,0.0
 0032487,-0.00155143,0.00792053,0.00214468,0.00033118,-0.00744403,-0.00
 198734,0.00005525,0.00241226,0.00539817,-0.00002021,-0.00529409,-0.004
 58333,0.00312660,0.00474934,0.00536313,0.00070813,-0.00778701,-0.00025
 607,-0.00103568,-0.03447026,0.02880560,-0.07747419,-0.01428573,0.00579
 106,0.00129082,0.00159094,-0.00492495,0.00883364,0.00388515,0.00541475
 ,-0.00011964,0.00028662,-0.00167861,-0.00006740,0.00076557,0.00046758,
 -0.00009739,0.00022953,-0.00009874,-0.00001738,-0.00126734,0.00001797,
 0.00458137,0.00671022,0.00421611,-0.00228604,0.00015160,-0.00010263,-0
 .00003571,-0.00003200,0.00002710,-0.00010285,0.00003020,-0.00004581,-0
 .00000205,0.00001762,-0.00000423,0.00001334,-0.00003919,0.,-0.00005757
 ,-0.00008328,-0.00004143,-0.00004228,-0.00003003,-0.00002896,0.0000040
 2,0.00006500,-0.00011311,0.00015198,0.00034708,0.00010822,-0.00084900,
 -0.01783509,-0.05163882,-0.25964694,0.00147028,0.00039711,-0.00442103,
 0.00013597,-0.00011245,-0.00007571,0.05824708,-0.00344471,-0.06896426,
 0.00182445,0.02203700,0.44038523,-0.00014278,-0.00027372,0.00005575,0.
 00024369,0.00005094,-0.00000577,0.00038183,-0.00098392,-0.00006519,-0.
 00095569,0.00021079,0.00001389,-0.00032504,0.00029265,0.00000537,0.000
 48708,-0.00001961,-0.00002948,-0.00199480,-0.00299398,0.00095533,0.000
 12942,-0.00007815,0.00019091,0.00041402,0.00001053,0.00006316,0.000247
 62,-0.00018481,-0.00009646,-0.00061717,-0.00026932,-0.00031367,0.00036
 408,-0.00021124,-0.00015431,0.00020451,0.00017317,0.00003691,-0.000214
 82,0.00005204,-0.00005329,-0.00221415,-0.00069697,0.00323486,-0.000627
 23,0.00077053,-0.00050380,0.00005128,-0.00007692,-0.00017873,-0.000319
 00,0.00001646,-0.00002243,0.00010263,0.00015013,-0.00001492,-0.0002279
 4,-0.00001346,0.00003849,0.00046589,-0.00051292,-0.00013164,-0.0001601
 7,0.00061678,-0.00055925,0.01200715,-0.01621009,-0.00154472,-0.0004116
 2,0.00011289,0.00008323,0.00001777,-0.00000740,0.00002647,0.00000781,0
 .00002917,-0.00000234,0.00000438,0.00002081,-0.00000605,-0.00002202,-0
 .00001733,0.00004183,0.00001337,0.00000668,-0.00000454,0.00000861,0.00
 000273,0.00002051,-0.00000288,0.00002369,0.00001487,-0.00000375,0.0000
 1080,0.00001542,-0.00131551,0.00063430,0.00079093,-0.00003599,-0.00007
 267,0.00010945,-0.00009393,0.00004990,-0.00005447,-0.09483341,0.099129
 90,0.02249783,-0.00827768,0.02347640,0.00186397,0.09683640,0.00010708,
 0.00017519,-0.00001050,-0.00025498,-0.00035169,0.00000837,0.00066242,-
 0.00127330,0.00000797,-0.00029729,-0.00005860,0.00002641,0.00004342,-0
 .00018123,-0.00000933,-0.00012738,-0.00007513,-0.00000356,-0.00387532,
 -0.00091420,0.00017751,-0.00032964,0.00011482,-0.00009258,0.00021025,-
 0.00000105,0.00000462,-0.00017150,0.00008689,0.00001018,-0.00002924,0.
 00007193,-0.00004335,0.00002496,0.00005513,0.00001688,0.00003430,0.000
 00918,0.00001395,-0.00009223,-0.00003149,0.00000329,-0.00017523,0.0008
 3998,-0.00001661,0.00001570,-0.00016798,-0.00009605,0.00002964,-0.0000
 2204,0.00002187,0.00003080,0.00000739,0.00001181,0.00005369,-0.0000572
 9,-0.00000502,-0.00012790,0.00034894,-0.00000257,-0.00045522,-0.000341
 19,0.00003170,0.00129886,0.00090291,0.00007047,0.01255599,-0.01895283,
 -0.00274832,-0.00035892,0.00037742,0.00008649,-0.00002945,-0.00000784,
 0.00000125,-0.00000405,0.00002759,0.00000719,-0.00000929,-0.00000278,0
 .00000222,-0.00005187,-0.00002445,-0.00000298,0.00000312,-0.00002182,0
 .00000128,0.00001404,-0.00002022,-0.00000119,0.00000852,-0.00000117,-0
 .00000246,0.00001075,-0.00000247,-0.00000498,0.00035049,-0.00000194,0.
 00031793,0.00001568,-0.00000218,0.00001094,0.00001192,-0.00000691,0.00
 000982,0.09713146,-0.29088992,-0.03033695,-0.00304610,0.00168499,0.001
 04405,-0.10327923,0.30741358,-0.00027772,-0.00016284,0.00015040,0.0001
 3712,0.00010384,-0.00004165,0.00017718,0.00027319,0.00012647,-0.000423
 51,0.00012157,-0.00022176,-0.00016885,0.00028974,-0.00009163,0.0004149
 1,0.00000866,-0.00009526,0.00043145,-0.00016500,0.00404542,0.00102719,
 -0.00044186,-0.00001245,-0.00098639,-0.00002174,-0.00005260,0.00091240
 ,0.00010416,-0.00001547,-0.00033865,-0.00064877,-0.00005941,0.00075726
 ,0.00032476,0.00012309,-0.00049932,-0.00052316,-0.00004926,0.00079011,
 -0.00004170,0.00007694,-0.00090331,0.00240394,-0.00236217,0.00049808,-
 0.00059127,0.00028773,-0.00035956,0.00080834,0.00002152,-0.00053818,-0
 .00081757,-0.00005598,0.00004041,-0.00012147,-0.00007932,0.00010402,0.
 00004984,-0.00011855,-0.00009030,0.00009479,-0.00018249,0.00023537,0.0
 0009424,-0.00248442,-0.00133416,0.00431309,0.00470104,0.00009137,-0.00
 002243,0.00032459,0.00001396,-0.00001048,0.00010668,0.00000781,-0.0000
 0867,0.00002522,0.00000428,0.00000374,0.00001274,0.00002423,-0.0000000
 6,0.00015662,0.00000263,0.00000367,-0.00002043,-0.00000202,-0.00000060
 ,0.00005009,-0.00001122,-0.00000853,0.00002031,-0.00000803,-0.00002217
 ,-0.00002908,-0.00017173,0.00031737,-0.00137287,-0.00001632,-0.0000273
 3,0.00001575,0.00003935,-0.00002566,-0.00007762,0.01928527,-0.02787795
 ,-0.02646625,0.00667412,-0.00964770,0.00520381,-0.02543613,0.03159591,
 0.01821755,0.00039238,-0.00001017,-0.00013289,-0.00089778,0.00004821,0
 .00002345,0.00025209,-0.00002567,0.00002467,0.00001374,0.00005707,0.00
 000328,0.00002019,-0.00016020,0.00000907,-0.00014779,0.00000298,-0.000
 00549,-0.00024217,0.00099264,0.00005478,-0.00049074,0.00001819,-0.0000
 6787,-0.00024257,-0.00012189,-0.00000007,0.00015123,0.00018274,0.00000
 744,-0.00238091,0.00174851,-0.00181888,0.00042306,0.00099613,-0.000085
 46,-0.00049116,-0.00019860,0.00000795,0.00039594,-0.00000977,0.0000276
 2,0.00647723,0.01810446,0.00047524,-0.00106990,0.00364044,-0.00102180,
 0.00002955,0.00031137,0.00016004,-0.00016386,-0.00007136,-0.00001839,-
 0.00007572,0.00014738,0.00002487,-0.00009692,0.00000054,-0.00001340,-0
 .00005338,-0.00011128,-0.00001590,0.00006341,-0.00117480,0.00038672,-0
 .00533365,0.00064108,0.00194520,-0.00002963,0.00005507,0.00002200,-0.0
 0003649,-0.00000036,0.00000180,-0.00001483,0.00000386,0.00000554,-0.00
 000884,-0.00002443,0.00001019,-0.00000614,-0.00001127,-0.00000065,0.00
 001390,-0.00000866,0.00000595,0.00000977,-0.00000024,-0.00000220,0.000
 01509,0.00008792,0.00002164,0.00000568,-0.00003724,-0.00005480,-0.0015
 0829,-0.00293102,-0.00056784,-0.00092021,0.00032935,-0.00083958,0.0000
 2532,-0.00002397,0.00000647,-0.01438695,-0.02717239,-0.00062905,-0.095
 78733,-0.10279869,-0.00308862,0.00080804,0.00010175,-0.00010313,0.1152
 8865,-0.00007025,0.00000727,0.00002854,-0.00002990,-0.00004160,0.00001
 136,-0.00005025,0.00003179,0.00003390,-0.00001765,-0.00001767,-0.00000
 453,-0.00001061,0.00001902,-0.00001020,0.00002834,0.00001335,0.0000026
 8,0.00020752,0.00020488,-0.00013393,0.00045671,0.00039219,-0.00001702,
 -0.00005906,-0.00007755,-0.00001763,0.00004141,-0.00001919,-0.00000578
 ,0.00335922,-0.00074134,0.00145606,-0.00093814,-0.00096709,0.00002036,
 0.00043069,-0.00004818,-0.00000227,-0.00005731,0.00005196,0.00000577,-
 0.00710389,-0.02195106,-0.00042451,-0.00344554,0.00019175,-0.00092361,
 0.00049837,0.00041255,0.00023352,-0.00002641,0.00037208,0.00000302,0.0
 0000673,-0.00006426,-0.00000896,0.00003409,0.00005044,-0.00000760,-0.0
 0006221,-0.00005438,0.00001157,0.00019521,0.00004453,0.00003080,0.0001
 0691,0.00136724,-0.00055299,0.00000988,0.00000872,0.00000278,-0.000013
 10,0.00000228,0.00000145,-0.00000564,-0.00000308,0.00000163,-0.0000069
 6,-0.00000220,-0.00000075,-0.00000065,-0.00000620,-0.00000258,-0.00001
 321,-0.00001419,0.00000370,-0.00000776,-0.00001882,0.00000388,0.000009
 78,-0.00012494,-0.00001110,0.00005582,0.00009872,0.00000354,-0.0033145
 2,-0.00749795,-0.00139191,0.00091992,0.00149892,-0.00007344,0.00003276
 ,-0.00003707,0.00000561,0.00238554,0.00262323,-0.00001150,-0.10102862,
 -0.25981032,-0.00686833,0.00006044,0.00129377,0.00027610,0.10742231,0.
 28281240,0.00018229,0.00016488,-0.00003449,-0.00000986,-0.00002217,-0.
 00002045,0.00018937,0.00007701,-0.00000516,0.00007937,0.00001623,-0.00
 001144,0.00008795,-0.00011560,-0.00000829,-0.00011884,0.00001167,0.000
 00855,-0.00017766,-0.00000020,0.00013360,-0.00018545,0.00004363,0.0000
 1676,-0.00026787,-0.00014895,-0.00004085,0.00018566,0.00015581,0.00000
 695,-0.00266992,0.00062300,0.00019648,0.00021976,0.00085015,0.00011123
 ,-0.00037677,-0.00009002,-0.00010760,0.00021034,-0.00003263,0.00002202
 ,0.00474418,0.01494711,-0.00115281,0.00067446,0.00117824,-0.00019441,0
 .00017492,-0.00007742,-0.00026369,0.00003850,-0.00000184,0.00005910,-0
 .00001895,0.00003704,0.00000160,0.00001199,-0.00000139,-0.00000381,-0.
 00005718,0.00007867,-0.00000533,0.00033877,0.00049345,0.00001596,0.002
 35388,-0.00207410,0.00049999,0.00001165,-0.00001650,0.00001109,0.00001
 321,0.00000208,0.00000207,-0.00000148,0.00000172,0.00000254,0.00000115
 ,0.00000388,0.00000353,-0.00000161,0.00000143,0.00000206,0.00000258,0.
 00000050,0.00000564,0.00000541,0.00000299,0.00000269,0.00000215,0.0000
 7697,0.00002218,-0.00002227,-0.00003619,0.00002436,-0.01357405,-0.0285
 5794,-0.00124806,-0.00071544,-0.00008439,0.00040606,0.00003252,-0.0000
 2120,-0.00000748,0.00870841,0.01481679,-0.00103494,-0.00443128,-0.0105
 2945,-0.04657732,-0.00088198,-0.00010565,0.00022270,0.00524211,0.00833
 237,0.04893897\\0.00004005,0.00004510,-0.00000437,-0.00007236,0.000007
 73,0.00000781,0.00002728,-0.00005571,-0.00001192,-0.00000316,0.0000472
 2,-0.00000668,0.00003778,-0.00004389,0.00000513,-0.00003701,0.00002168
 ,0.00001401,-0.00002245,0.00010641,-0.00000828,-0.00001496,-0.00007625
 ,-0.00001608,-0.00005388,0.00004701,-0.00000486,0.00004048,-0.00000633
 ,0.00001679,0.00007816,0.00002215,-0.00000221,0.00001081,0.00008431,0.
 00000995,-0.00008033,-0.00007434,-0.00000925,0.00011031,0.00002139,0.0
 0001677,-0.00001852,-0.00002195,-0.00000167,0.00005750,-0.00003663,0.0
 0002412,-0.00005849,0.00004324,-0.00001901,-0.00004347,-0.00002754,-0.
 00001166,0.00001299,-0.00001081,0.00000214,0.00003986,-0.00001174,-0.0
 0000001,-0.00005118,-0.00001692,-0.00000881,0.00004788,-0.00001824,-0.
 00003407,-0.00007555,-0.00014076,0.00003974,-0.00000386,-0.00000493,0.
 00000442,-0.00000468,-0.00000631,0.00000235,0.00000428,0.00000182,-0.0
 0000098,0.00000605,-0.00000186,-0.00000368,0.00000254,0.00000151,-0.00
 000251,-0.00000195,0.00000895,-0.00000319,-0.00000201,0.00000487,-0.00
 000303,0.00000136,0.00001137,0.00000004,0.00000060,0.00001507,0.000001
 72,-0.00000273,-0.00000077,-0.00000098,-0.00000948,0.00000018,-0.00000
 263,0.00000019,0.00000047,0.00000297,0.00005224,0.00009874,0.00002157,
 -0.00000295,-0.00002218,-0.00000643,-0.00000910,-0.00001523,-0.0000024
 0,-0.00000223,0.00000320,-0.00000482\\\@


 WHEN IT COMES TO CASH FLOW, IT SEEMS LIKE THE TIDE IS ALWAYS GOING OUT.
 Job cpu time:       3 days 14 hours 37 minutes 43.4 seconds.
 File lengths (MBytes):  RWF=   8947 Int=      0 D2E=      0 Chk=     41 Scr=      1
 Normal termination of Gaussian 09 at Sun Feb  2 22:11:35 2020.
