 Entering Gaussian System, Link 0=/share/apps/gaussian16/g16/g16
 Initial command:
 /share/apps/gaussian16/g16/l1.exe "/home/amen01//scratch/586/Gau-1903.inp" -scrdir="/home/amen01//scratch/586/"
 Entering Link 1 = /share/apps/gaussian16/g16/l1.exe PID=      1904.
  
 Copyright (c) 1988-2017, Gaussian, Inc.  All Rights Reserved.
  
 This is part of the Gaussian(R) 16 program.  It is based on
 the Gaussian(R) 09 system (copyright 2009, Gaussian, Inc.),
 the Gaussian(R) 03 system (copyright 2003, Gaussian, Inc.),
 the Gaussian(R) 98 system (copyright 1998, Gaussian, Inc.),
 the Gaussian(R) 94 system (copyright 1995, Gaussian, Inc.),
 the Gaussian 92(TM) system (copyright 1992, Gaussian, Inc.),
 the Gaussian 90(TM) system (copyright 1990, Gaussian, Inc.),
 the Gaussian 88(TM) system (copyright 1988, Gaussian, Inc.),
 the Gaussian 86(TM) system (copyright 1986, Carnegie Mellon
 University), and the Gaussian 82(TM) system (copyright 1983,
 Carnegie Mellon University). Gaussian is a federally registered
 trademark of Gaussian, Inc.
  
 This software contains proprietary and confidential information,
 including trade secrets, belonging to Gaussian, Inc.
  
 This software is provided under written license and may be
 used, copied, transmitted, or stored only in accord with that
 written license.
  
 The following legend is applicable only to US Government
 contracts under FAR:
  
                    RESTRICTED RIGHTS LEGEND
  
 Use, reproduction and disclosure by the US Government is
 subject to restrictions as set forth in subparagraphs (a)
 and (c) of the Commercial Computer Software - Restricted
 Rights clause in FAR 52.227-19.
  
 Gaussian, Inc.
 340 Quinnipiac St., Bldg. 40, Wallingford CT 06492
  
  
 ---------------------------------------------------------------
 Warning -- This program may not be used in any manner that
 competes with the business of Gaussian, Inc. or will provide
 assistance to any competitor of Gaussian, Inc.  The licensee
 of this program is prohibited from giving any competitor of
 Gaussian, Inc. access to this program.  By using this program,
 the user acknowledges that Gaussian, Inc. is engaged in the
 business of creating and licensing software in the field of
 computational chemistry and represents and warrants to the
 licensee that it is not a competitor of Gaussian, Inc. and that
 it will not use this program in any manner prohibited above.
 ---------------------------------------------------------------
  

 Cite this work as:
 Gaussian 16, Revision B.01,
 M. J. Frisch, G. W. Trucks, H. B. Schlegel, G. E. Scuseria, 
 M. A. Robb, J. R. Cheeseman, G. Scalmani, V. Barone, 
 G. A. Petersson, H. Nakatsuji, X. Li, M. Caricato, A. V. Marenich, 
 J. Bloino, B. G. Janesko, R. Gomperts, B. Mennucci, H. P. Hratchian, 
 J. V. Ortiz, A. F. Izmaylov, J. L. Sonnenberg, D. Williams-Young, 
 F. Ding, F. Lipparini, F. Egidi, J. Goings, B. Peng, A. Petrone, 
 T. Henderson, D. Ranasinghe, V. G. Zakrzewski, J. Gao, N. Rega, 
 G. Zheng, W. Liang, M. Hada, M. Ehara, K. Toyota, R. Fukuda, 
 J. Hasegawa, M. Ishida, T. Nakajima, Y. Honda, O. Kitao, H. Nakai, 
 T. Vreven, K. Throssell, J. A. Montgomery, Jr., J. E. Peralta, 
 F. Ogliaro, M. J. Bearpark, J. J. Heyd, E. N. Brothers, K. N. Kudin, 
 V. N. Staroverov, T. A. Keith, R. Kobayashi, J. Normand, 
 K. Raghavachari, A. P. Rendell, J. C. Burant, S. S. Iyengar, 
 J. Tomasi, M. Cossi, J. M. Millam, M. Klene, C. Adamo, R. Cammi, 
 J. W. Ochterski, R. L. Martin, K. Morokuma, O. Farkas, 
 J. B. Foresman, and D. J. Fox, Gaussian, Inc., Wallingford CT, 2016.
 
 ******************************************
 Gaussian 16:  ES64L-G16RevB.01 20-Dec-2017
                21-Jun-2019 
 ******************************************
 %nprocshared=20
 Will use up to   20 processors via shared memory.
 %mem=100GB
 %chk=7-HACAsite2-4anew.chk
 -------------------------------------------
 # opt freq b3lyp/6-311+g(d,p) int=grid=fine
 -------------------------------------------
 1/18=20,19=15,26=3,38=1/1,3;
 2/9=110,12=2,17=6,18=5,40=1/2;
 3/5=4,6=6,7=111,11=2,25=1,30=1,71=1,74=-5,75=-4/1,2,3;
 4//1;
 5/5=2,38=5/2;
 6/7=2,8=2,9=2,10=2,28=1/1;
 7//1,2,3,16;
 1/18=20,19=15,26=3/3(2);
 2/9=110/2;
 99//99;
 2/9=110/2;
 3/5=4,6=6,7=111,11=2,25=1,30=1,71=1,74=-5,75=-4/1,2,3;
 4/5=5,16=3,69=1/1;
 5/5=2,38=5/2;
 7//1,2,3,16;
 1/18=20,19=15,26=3/3(-5);
 2/9=110/2;
 6/7=2,8=2,9=2,10=2,19=2,28=1/1;
 99/9=1/99;
 -----------------
 7-HACAsite2-4anew
 -----------------
 Symbolic Z-matrix:
 Charge =  0 Multiplicity = 3
 C                     3.79534  -0.63667   0.00437 
 C                     2.54037  -0.08117  -0.01534 
 C                     1.36576  -0.8319   -0.0887 
 C                     1.33668  -2.20018  -0.10246 
 C                     3.81976  -2.05738  -0.05722 
 C                     2.61535  -2.8237   -0.10147 
 C                     0.24302  -0.00855  -0.08298 
 C                    -1.0555   -0.53632  -0.11235 
 C                    -1.11555  -1.96851  -0.03035 
 C                     0.05363  -2.77998  -0.06529 
 C                    -2.22992   0.30964  -0.15537 
 C                    -3.45441  -0.34409   0.12757 
 C                    -3.51303  -1.74525   0.23443 
 C                    -2.37368  -2.54607   0.11436 
 C                    -2.33438   1.74197  -0.52204 
 C                    -3.45763   2.47783  -0.06626 
 C                    -4.61588   1.80515   0.30059 
 C                    -4.62557   0.40964   0.33344 
 C                     4.8661    0.27263   0.09643 
 C                     4.61443   1.66132   0.18433 
 C                     3.30861   2.19756   0.18591 
 C                     2.26627   1.28776   0.08109 
 C                     0.76154   1.42621   0.05877 
 H                     3.12157   3.262     0.26215 
 H                     5.4594    2.34402   0.26082 
 H                     5.89072  -0.08901   0.11164 
 H                     4.77505  -2.57799  -0.04721 
 H                     2.68302  -3.9095   -0.11566 
 H                    -0.0346   -3.86333  -0.02563 
 H                    -2.48276  -3.62547   0.19359 
 H                    -4.46731  -2.23738   0.41788 
 H                    -5.55905  -0.09123   0.58586 
 H                    -2.65979   1.59222  -1.61238 
 H                    -3.44753   3.5659   -0.08102 
 H                    -5.51322   2.36266   0.55553 
 C                    -0.14529   2.53616   0.23035 
 C                    -1.07398   2.55645  -0.74113 
 H                    -0.47874   2.57321   1.27005 
 H                    -0.7383    2.47385  -1.7798 
 

 GradGradGradGradGradGradGradGradGradGradGradGradGradGradGradGradGradGrad
 Berny optimization.
 Initialization pass.
                           ----------------------------
                           !    Initial Parameters    !
                           ! (Angstroms and Degrees)  !
 --------------------------                            --------------------------
 ! Name  Definition              Value          Derivative Info.                !
 --------------------------------------------------------------------------------
 ! R1    R(1,2)                  1.3726         estimate D2E/DX2                !
 ! R2    R(1,5)                  1.4223         estimate D2E/DX2                !
 ! R3    R(1,19)                 1.4078         estimate D2E/DX2                !
 ! R4    R(2,3)                  1.396          estimate D2E/DX2                !
 ! R5    R(2,22)                 1.3994         estimate D2E/DX2                !
 ! R6    R(3,4)                  1.3687         estimate D2E/DX2                !
 ! R7    R(3,7)                  1.3923         estimate D2E/DX2                !
 ! R8    R(4,6)                  1.4226         estimate D2E/DX2                !
 ! R9    R(4,10)                 1.4085         estimate D2E/DX2                !
 ! R10   R(5,6)                  1.4282         estimate D2E/DX2                !
 ! R11   R(5,27)                 1.088          estimate D2E/DX2                !
 ! R12   R(6,28)                 1.088          estimate D2E/DX2                !
 ! R13   R(7,8)                  1.402          estimate D2E/DX2                !
 ! R14   R(7,23)                 1.5322         estimate D2E/DX2                !
 ! R15   R(8,9)                  1.4358         estimate D2E/DX2                !
 ! R16   R(8,11)                 1.448          estimate D2E/DX2                !
 ! R17   R(9,10)                 1.4236         estimate D2E/DX2                !
 ! R18   R(9,14)                 1.3919         estimate D2E/DX2                !
 ! R19   R(10,29)                1.0877         estimate D2E/DX2                !
 ! R20   R(11,12)                1.4166         estimate D2E/DX2                !
 ! R21   R(11,15)                1.4822         estimate D2E/DX2                !
 ! R22   R(12,13)                1.4065         estimate D2E/DX2                !
 ! R23   R(12,18)                1.4079         estimate D2E/DX2                !
 ! R24   R(13,14)                1.3978         estimate D2E/DX2                !
 ! R25   R(13,31)                1.0893         estimate D2E/DX2                !
 ! R26   R(14,30)                1.0878         estimate D2E/DX2                !
 ! R27   R(15,16)                1.4181         estimate D2E/DX2                !
 ! R28   R(15,33)                1.1477         estimate D2E/DX2                !
 ! R29   R(15,37)                1.5166         estimate D2E/DX2                !
 ! R30   R(16,17)                1.3887         estimate D2E/DX2                !
 ! R31   R(16,34)                1.0882         estimate D2E/DX2                !
 ! R32   R(17,18)                1.3959         estimate D2E/DX2                !
 ! R33   R(17,35)                1.0868         estimate D2E/DX2                !
 ! R34   R(18,32)                1.089          estimate D2E/DX2                !
 ! R35   R(19,20)                1.414          estimate D2E/DX2                !
 ! R36   R(19,26)                1.0867         estimate D2E/DX2                !
 ! R37   R(20,21)                1.4116         estimate D2E/DX2                !
 ! R38   R(20,25)                1.089          estimate D2E/DX2                !
 ! R39   R(21,22)                1.3875         estimate D2E/DX2                !
 ! R40   R(21,24)                1.0834         estimate D2E/DX2                !
 ! R41   R(22,23)                1.5113         estimate D2E/DX2                !
 ! R42   R(23,36)                1.4435         estimate D2E/DX2                !
 ! R43   R(36,37)                1.3441         estimate D2E/DX2                !
 ! R44   R(36,38)                1.0925         estimate D2E/DX2                !
 ! R45   R(37,39)                1.0947         estimate D2E/DX2                !
 ! A1    A(2,1,5)              114.7939         estimate D2E/DX2                !
 ! A2    A(2,1,19)             115.7833         estimate D2E/DX2                !
 ! A3    A(5,1,19)             129.4188         estimate D2E/DX2                !
 ! A4    A(1,2,3)              123.5355         estimate D2E/DX2                !
 ! A5    A(1,2,22)             125.0292         estimate D2E/DX2                !
 ! A6    A(3,2,22)             111.4003         estimate D2E/DX2                !
 ! A7    A(2,3,4)              123.7829         estimate D2E/DX2                !
 ! A8    A(2,3,7)              111.1179         estimate D2E/DX2                !
 ! A9    A(4,3,7)              125.0371         estimate D2E/DX2                !
 ! A10   A(3,4,6)              114.776          estimate D2E/DX2                !
 ! A11   A(3,4,10)             115.5076         estimate D2E/DX2                !
 ! A12   A(6,4,10)             129.6689         estimate D2E/DX2                !
 ! A13   A(1,5,6)              121.5227         estimate D2E/DX2                !
 ! A14   A(1,5,27)             119.5159         estimate D2E/DX2                !
 ! A15   A(6,5,27)             118.9458         estimate D2E/DX2                !
 ! A16   A(4,6,5)              121.5222         estimate D2E/DX2                !
 ! A17   A(4,6,28)             119.5582         estimate D2E/DX2                !
 ! A18   A(5,6,28)             118.9094         estimate D2E/DX2                !
 ! A19   A(3,7,8)              121.6133         estimate D2E/DX2                !
 ! A20   A(3,7,23)             106.3346         estimate D2E/DX2                !
 ! A21   A(8,7,23)             131.9056         estimate D2E/DX2                !
 ! A22   A(7,8,9)              114.396          estimate D2E/DX2                !
 ! A23   A(7,8,11)             122.1335         estimate D2E/DX2                !
 ! A24   A(9,8,11)             123.4033         estimate D2E/DX2                !
 ! A25   A(8,9,10)             122.1966         estimate D2E/DX2                !
 ! A26   A(8,9,14)             117.235          estimate D2E/DX2                !
 ! A27   A(10,9,14)            120.5555         estimate D2E/DX2                !
 ! A28   A(4,10,9)             120.9405         estimate D2E/DX2                !
 ! A29   A(4,10,29)            119.0047         estimate D2E/DX2                !
 ! A30   A(9,10,29)            120.0153         estimate D2E/DX2                !
 ! A31   A(8,11,12)            115.1836         estimate D2E/DX2                !
 ! A32   A(8,11,15)            128.9815         estimate D2E/DX2                !
 ! A33   A(12,11,15)           115.7495         estimate D2E/DX2                !
 ! A34   A(11,12,13)           120.7264         estimate D2E/DX2                !
 ! A35   A(11,12,18)           120.079          estimate D2E/DX2                !
 ! A36   A(13,12,18)           119.1811         estimate D2E/DX2                !
 ! A37   A(12,13,14)           122.023          estimate D2E/DX2                !
 ! A38   A(12,13,31)           119.9611         estimate D2E/DX2                !
 ! A39   A(14,13,31)           118.0159         estimate D2E/DX2                !
 ! A40   A(9,14,13)            120.5284         estimate D2E/DX2                !
 ! A41   A(9,14,30)            120.6607         estimate D2E/DX2                !
 ! A42   A(13,14,30)           118.7184         estimate D2E/DX2                !
 ! A43   A(11,15,16)           118.5399         estimate D2E/DX2                !
 ! A44   A(11,15,33)            97.4069         estimate D2E/DX2                !
 ! A45   A(11,15,37)           119.7455         estimate D2E/DX2                !
 ! A46   A(16,15,33)            98.5383         estimate D2E/DX2                !
 ! A47   A(16,15,37)           115.217          estimate D2E/DX2                !
 ! A48   A(33,15,37)            99.6991         estimate D2E/DX2                !
 ! A49   A(15,16,17)           119.6157         estimate D2E/DX2                !
 ! A50   A(15,16,34)           120.4733         estimate D2E/DX2                !
 ! A51   A(17,16,34)           119.7118         estimate D2E/DX2                !
 ! A52   A(16,17,18)           119.7515         estimate D2E/DX2                !
 ! A53   A(16,17,35)           120.1417         estimate D2E/DX2                !
 ! A54   A(18,17,35)           120.1058         estimate D2E/DX2                !
 ! A55   A(12,18,17)           121.735          estimate D2E/DX2                !
 ! A56   A(12,18,32)           120.0473         estimate D2E/DX2                !
 ! A57   A(17,18,32)           118.1117         estimate D2E/DX2                !
 ! A58   A(1,19,20)            120.2003         estimate D2E/DX2                !
 ! A59   A(1,19,26)            120.2072         estimate D2E/DX2                !
 ! A60   A(20,19,26)           119.5889         estimate D2E/DX2                !
 ! A61   A(19,20,21)           122.5317         estimate D2E/DX2                !
 ! A62   A(19,20,25)           118.812          estimate D2E/DX2                !
 ! A63   A(21,20,25)           118.6548         estimate D2E/DX2                !
 ! A64   A(20,21,22)           116.4712         estimate D2E/DX2                !
 ! A65   A(20,21,24)           122.2074         estimate D2E/DX2                !
 ! A66   A(22,21,24)           121.3213         estimate D2E/DX2                !
 ! A67   A(2,22,21)            119.9657         estimate D2E/DX2                !
 ! A68   A(2,22,23)            106.4763         estimate D2E/DX2                !
 ! A69   A(21,22,23)           133.5535         estimate D2E/DX2                !
 ! A70   A(7,23,22)            104.628          estimate D2E/DX2                !
 ! A71   A(7,23,36)            121.2273         estimate D2E/DX2                !
 ! A72   A(22,23,36)           133.962          estimate D2E/DX2                !
 ! A73   A(23,36,37)           111.0844         estimate D2E/DX2                !
 ! A74   A(23,36,38)           109.3255         estimate D2E/DX2                !
 ! A75   A(37,36,38)           118.4533         estimate D2E/DX2                !
 ! A76   A(15,37,36)           117.4969         estimate D2E/DX2                !
 ! A77   A(15,37,39)           110.5727         estimate D2E/DX2                !
 ! A78   A(36,37,39)           118.2143         estimate D2E/DX2                !
 ! D1    D(5,1,2,3)              0.0463         estimate D2E/DX2                !
 ! D2    D(5,1,2,22)           177.7083         estimate D2E/DX2                !
 ! D3    D(19,1,2,3)          -179.3021         estimate D2E/DX2                !
 ! D4    D(19,1,2,22)           -1.64           estimate D2E/DX2                !
 ! D5    D(2,1,5,6)             -1.4936         estimate D2E/DX2                !
 ! D6    D(2,1,5,27)           179.9579         estimate D2E/DX2                !
 ! D7    D(19,1,5,6)           177.7468         estimate D2E/DX2                !
 ! D8    D(19,1,5,27)           -0.8017         estimate D2E/DX2                !
 ! D9    D(2,1,19,20)            1.0466         estimate D2E/DX2                !
 ! D10   D(2,1,19,26)         -179.642          estimate D2E/DX2                !
 ! D11   D(5,1,19,20)         -178.1876         estimate D2E/DX2                !
 ! D12   D(5,1,19,26)            1.1238         estimate D2E/DX2                !
 ! D13   D(1,2,3,4)              2.3333         estimate D2E/DX2                !
 ! D14   D(1,2,3,7)            179.5926         estimate D2E/DX2                !
 ! D15   D(22,2,3,4)          -175.6106         estimate D2E/DX2                !
 ! D16   D(22,2,3,7)             1.6487         estimate D2E/DX2                !
 ! D17   D(1,2,22,21)            1.0564         estimate D2E/DX2                !
 ! D18   D(1,2,22,23)         -178.2715         estimate D2E/DX2                !
 ! D19   D(3,2,22,21)          178.9634         estimate D2E/DX2                !
 ! D20   D(3,2,22,23)           -0.3645         estimate D2E/DX2                !
 ! D21   D(2,3,4,6)             -2.9294         estimate D2E/DX2                !
 ! D22   D(2,3,4,10)           174.8101         estimate D2E/DX2                !
 ! D23   D(7,3,4,6)           -179.8066         estimate D2E/DX2                !
 ! D24   D(7,3,4,10)            -2.0671         estimate D2E/DX2                !
 ! D25   D(2,3,7,8)           -178.234          estimate D2E/DX2                !
 ! D26   D(2,3,7,23)            -2.1425         estimate D2E/DX2                !
 ! D27   D(4,3,7,8)             -1.016          estimate D2E/DX2                !
 ! D28   D(4,3,7,23)           175.0754         estimate D2E/DX2                !
 ! D29   D(3,4,6,5)              1.4056         estimate D2E/DX2                !
 ! D30   D(3,4,6,28)          -179.7711         estimate D2E/DX2                !
 ! D31   D(10,4,6,5)          -175.9437         estimate D2E/DX2                !
 ! D32   D(10,4,6,28)            2.8796         estimate D2E/DX2                !
 ! D33   D(3,4,10,9)             0.6269         estimate D2E/DX2                !
 ! D34   D(3,4,10,29)         -177.0885         estimate D2E/DX2                !
 ! D35   D(6,4,10,9)           177.9603         estimate D2E/DX2                !
 ! D36   D(6,4,10,29)            0.2449         estimate D2E/DX2                !
 ! D37   D(1,5,6,4)              0.7805         estimate D2E/DX2                !
 ! D38   D(1,5,6,28)          -178.0502         estimate D2E/DX2                !
 ! D39   D(27,5,6,4)           179.337          estimate D2E/DX2                !
 ! D40   D(27,5,6,28)            0.5063         estimate D2E/DX2                !
 ! D41   D(3,7,8,9)              5.1574         estimate D2E/DX2                !
 ! D42   D(3,7,8,11)          -177.7279         estimate D2E/DX2                !
 ! D43   D(23,7,8,9)          -169.8002         estimate D2E/DX2                !
 ! D44   D(23,7,8,11)            7.3145         estimate D2E/DX2                !
 ! D45   D(3,7,23,22)            1.8252         estimate D2E/DX2                !
 ! D46   D(3,7,23,36)         -173.9096         estimate D2E/DX2                !
 ! D47   D(8,7,23,22)          177.3517         estimate D2E/DX2                !
 ! D48   D(8,7,23,36)            1.6169         estimate D2E/DX2                !
 ! D49   D(7,8,9,10)            -6.5386         estimate D2E/DX2                !
 ! D50   D(7,8,9,14)           172.1623         estimate D2E/DX2                !
 ! D51   D(11,8,9,10)          176.3882         estimate D2E/DX2                !
 ! D52   D(11,8,9,14)           -4.9109         estimate D2E/DX2                !
 ! D53   D(7,8,11,12)         -166.0729         estimate D2E/DX2                !
 ! D54   D(7,8,11,15)           17.4654         estimate D2E/DX2                !
 ! D55   D(9,8,11,12)           10.7793         estimate D2E/DX2                !
 ! D56   D(9,8,11,15)         -165.6824         estimate D2E/DX2                !
 ! D57   D(8,9,10,4)             3.8389         estimate D2E/DX2                !
 ! D58   D(8,9,10,29)         -178.4687         estimate D2E/DX2                !
 ! D59   D(14,9,10,4)         -174.8198         estimate D2E/DX2                !
 ! D60   D(14,9,10,29)           2.8727         estimate D2E/DX2                !
 ! D61   D(8,9,14,13)           -2.8311         estimate D2E/DX2                !
 ! D62   D(8,9,14,30)         -179.2903         estimate D2E/DX2                !
 ! D63   D(10,9,14,13)         175.8923         estimate D2E/DX2                !
 ! D64   D(10,9,14,30)          -0.5668         estimate D2E/DX2                !
 ! D65   D(8,11,12,13)          -9.2059         estimate D2E/DX2                !
 ! D66   D(8,11,12,18)         169.4495         estimate D2E/DX2                !
 ! D67   D(15,11,12,13)        167.7409         estimate D2E/DX2                !
 ! D68   D(15,11,12,18)        -13.6037         estimate D2E/DX2                !
 ! D69   D(8,11,15,16)        -158.5282         estimate D2E/DX2                !
 ! D70   D(8,11,15,33)          97.5184         estimate D2E/DX2                !
 ! D71   D(8,11,15,37)          -8.1435         estimate D2E/DX2                !
 ! D72   D(12,11,15,16)         25.0268         estimate D2E/DX2                !
 ! D73   D(12,11,15,33)        -78.9265         estimate D2E/DX2                !
 ! D74   D(12,11,15,37)        175.4115         estimate D2E/DX2                !
 ! D75   D(11,12,13,14)          2.2359         estimate D2E/DX2                !
 ! D76   D(11,12,13,31)       -177.8665         estimate D2E/DX2                !
 ! D77   D(18,12,13,14)       -176.4314         estimate D2E/DX2                !
 ! D78   D(18,12,13,31)          3.4662         estimate D2E/DX2                !
 ! D79   D(11,12,18,17)         -1.6372         estimate D2E/DX2                !
 ! D80   D(11,12,18,32)       -177.8226         estimate D2E/DX2                !
 ! D81   D(13,12,18,17)        177.0389         estimate D2E/DX2                !
 ! D82   D(13,12,18,32)          0.8535         estimate D2E/DX2                !
 ! D83   D(12,13,14,9)           4.2406         estimate D2E/DX2                !
 ! D84   D(12,13,14,30)       -179.2323         estimate D2E/DX2                !
 ! D85   D(31,13,14,9)        -175.6589         estimate D2E/DX2                !
 ! D86   D(31,13,14,30)          0.8682         estimate D2E/DX2                !
 ! D87   D(11,15,16,17)        -21.4638         estimate D2E/DX2                !
 ! D88   D(11,15,16,34)        163.6797         estimate D2E/DX2                !
 ! D89   D(33,15,16,17)         81.8358         estimate D2E/DX2                !
 ! D90   D(33,15,16,34)        -93.0207         estimate D2E/DX2                !
 ! D91   D(37,15,16,17)       -173.1529         estimate D2E/DX2                !
 ! D92   D(37,15,16,34)         11.9906         estimate D2E/DX2                !
 ! D93   D(11,15,37,36)        -52.283          estimate D2E/DX2                !
 ! D94   D(11,15,37,39)         87.5922         estimate D2E/DX2                !
 ! D95   D(16,15,37,36)         99.0411         estimate D2E/DX2                !
 ! D96   D(16,15,37,39)       -121.0836         estimate D2E/DX2                !
 ! D97   D(33,15,37,36)       -156.66           estimate D2E/DX2                !
 ! D98   D(33,15,37,39)        -16.7848         estimate D2E/DX2                !
 ! D99   D(15,16,17,18)          5.7781         estimate D2E/DX2                !
 ! D100  D(15,16,17,35)       -173.8627         estimate D2E/DX2                !
 ! D101  D(34,16,17,18)       -179.3258         estimate D2E/DX2                !
 ! D102  D(34,16,17,35)          1.0334         estimate D2E/DX2                !
 ! D103  D(16,17,18,12)          6.1607         estimate D2E/DX2                !
 ! D104  D(16,17,18,32)       -177.5828         estimate D2E/DX2                !
 ! D105  D(35,17,18,12)       -174.1984         estimate D2E/DX2                !
 ! D106  D(35,17,18,32)          2.0581         estimate D2E/DX2                !
 ! D107  D(1,19,20,21)           0.0667         estimate D2E/DX2                !
 ! D108  D(1,19,20,25)         179.6272         estimate D2E/DX2                !
 ! D109  D(26,19,20,21)       -179.2489         estimate D2E/DX2                !
 ! D110  D(26,19,20,25)          0.3116         estimate D2E/DX2                !
 ! D111  D(19,20,21,22)         -0.6859         estimate D2E/DX2                !
 ! D112  D(19,20,21,24)        179.4573         estimate D2E/DX2                !
 ! D113  D(25,20,21,22)        179.753          estimate D2E/DX2                !
 ! D114  D(25,20,21,24)         -0.1039         estimate D2E/DX2                !
 ! D115  D(20,21,22,2)           0.1659         estimate D2E/DX2                !
 ! D116  D(20,21,22,23)        179.2766         estimate D2E/DX2                !
 ! D117  D(24,21,22,2)        -179.9759         estimate D2E/DX2                !
 ! D118  D(24,21,22,23)         -0.8652         estimate D2E/DX2                !
 ! D119  D(2,22,23,7)           -0.8934         estimate D2E/DX2                !
 ! D120  D(2,22,23,36)         174.0376         estimate D2E/DX2                !
 ! D121  D(21,22,23,7)         179.91           estimate D2E/DX2                !
 ! D122  D(21,22,23,36)         -5.159          estimate D2E/DX2                !
 ! D123  D(7,23,36,37)         -53.6362         estimate D2E/DX2                !
 ! D124  D(7,23,36,38)          78.9213         estimate D2E/DX2                !
 ! D125  D(22,23,36,37)        132.1015         estimate D2E/DX2                !
 ! D126  D(22,23,36,38)        -95.341          estimate D2E/DX2                !
 ! D127  D(23,36,37,15)         87.2451         estimate D2E/DX2                !
 ! D128  D(23,36,37,39)        -49.5422         estimate D2E/DX2                !
 ! D129  D(38,36,37,15)        -40.514          estimate D2E/DX2                !
 ! D130  D(38,36,37,39)       -177.3013         estimate D2E/DX2                !
 --------------------------------------------------------------------------------
 Trust Radius=3.00D-01 FncErr=1.00D-07 GrdErr=1.00D-06 EigMax=2.50D+02 EigMin=1.00D-04
 Number of steps in this run=    234 maximum allowed number of steps=    234.
 GradGradGradGradGradGradGradGradGradGradGradGradGradGradGradGradGradGrad

                          Input orientation:                          
 ---------------------------------------------------------------------
 Center     Atomic      Atomic             Coordinates (Angstroms)
 Number     Number       Type             X           Y           Z
 ---------------------------------------------------------------------
      1          6           0        3.795340   -0.636670    0.004370
      2          6           0        2.540370   -0.081170   -0.015340
      3          6           0        1.365760   -0.831900   -0.088700
      4          6           0        1.336680   -2.200180   -0.102460
      5          6           0        3.819760   -2.057380   -0.057220
      6          6           0        2.615350   -2.823700   -0.101470
      7          6           0        0.243020   -0.008550   -0.082980
      8          6           0       -1.055500   -0.536320   -0.112350
      9          6           0       -1.115550   -1.968510   -0.030350
     10          6           0        0.053630   -2.779980   -0.065290
     11          6           0       -2.229920    0.309640   -0.155370
     12          6           0       -3.454410   -0.344090    0.127570
     13          6           0       -3.513030   -1.745250    0.234430
     14          6           0       -2.373680   -2.546070    0.114360
     15          6           0       -2.334380    1.741970   -0.522040
     16          6           0       -3.457630    2.477830   -0.066260
     17          6           0       -4.615880    1.805150    0.300590
     18          6           0       -4.625570    0.409640    0.333440
     19          6           0        4.866100    0.272630    0.096430
     20          6           0        4.614430    1.661320    0.184330
     21          6           0        3.308610    2.197560    0.185910
     22          6           0        2.266270    1.287760    0.081090
     23          6           0        0.761540    1.426210    0.058770
     24          1           0        3.121570    3.262000    0.262150
     25          1           0        5.459400    2.344020    0.260820
     26          1           0        5.890720   -0.089010    0.111640
     27          1           0        4.775050   -2.577990   -0.047210
     28          1           0        2.683020   -3.909500   -0.115660
     29          1           0       -0.034600   -3.863330   -0.025630
     30          1           0       -2.482760   -3.625470    0.193590
     31          1           0       -4.467310   -2.237380    0.417880
     32          1           0       -5.559050   -0.091230    0.585860
     33          1           0       -2.659790    1.592220   -1.612380
     34          1           0       -3.447530    3.565900   -0.081020
     35          1           0       -5.513220    2.362660    0.555530
     36          6           0       -0.145290    2.536160    0.230350
     37          6           0       -1.073980    2.556450   -0.741130
     38          1           0       -0.478740    2.573210    1.270050
     39          1           0       -0.738300    2.473850   -1.779800
 ---------------------------------------------------------------------
                    Distance matrix (angstroms):
                    1          2          3          4          5
     1  C    0.000000
     2  C    1.372559   0.000000
     3  C    2.439188   1.395953   0.000000
     4  C    2.915645   2.438578   1.368658   0.000000
     5  C    1.422254   2.354570   2.743157   2.487594   0.000000
     6  C    2.487304   2.744906   2.351362   1.422595   1.428218
     7  C    3.608482   2.299493   1.392294   2.449431   4.122067
     8  C    4.853282   3.625859   2.439350   2.913941   5.107330
     9  C    5.088403   4.114369   2.729869   2.464204   4.936183
    10  C    4.312659   3.670143   2.348882   1.408463   3.834834
    11  C    6.101211   4.788320   3.773125   4.361494   6.497003
    12  C    7.256697   6.002244   4.849615   5.143202   7.475497
    13  C    7.395549   6.282929   4.974054   4.882637   7.345223
    14  C    6.458693   5.499131   4.118619   3.732750   6.215059
    15  C    6.596098   5.229127   4.528093   5.403080   7.247383
    16  C    7.893711   6.521279   5.849778   6.698544   8.574883
    17  C    8.763495   7.407424   6.548710   7.185965   9.284783
    18  C    8.492042   7.191192   6.133161   6.523005   8.806952
    19  C    1.407774   2.355141   3.675138   4.314064   2.558785
    20  C    2.446232   2.716222   4.104211   5.073172   3.810325
    21  C    2.881445   2.413152   3.609391   4.828228   4.292424
    22  C    2.459140   1.399428   2.309265   3.614354   3.690857
    23  C    3.669111   2.332793   2.342198   3.675253   4.636978
    24  H    3.964851   3.404641   4.468331   5.757967   5.374502
    25  H    3.423357   3.805069   5.192930   6.146425   4.707642
    26  H    2.168422   3.352765   4.589911   5.024157   2.862144
    27  H    2.175136   3.350958   3.830641   3.459506   1.087986
    28  H    3.458768   3.832300   3.347764   2.175909   2.173923
    29  H    5.008061   4.575512   3.339843   2.156938   4.256588
    30  H    6.955808   6.151223   4.763909   4.087447   6.499505
    31  H    8.426426   7.344692   6.021354   5.827387   8.302629
    32  H    9.388304   8.121708   6.996901   7.243794   9.604237
    33  H    7.017873   5.691435   4.939940   5.712611   7.597544
    34  H    8.374249   7.011446   6.519852   7.492450   9.188871
    35  H    9.795358   8.435550   7.611873   8.256730  10.344889
    36  C    5.064236   3.758131   3.705252   4.973923   6.074943
    37  C    5.870440   4.532917   4.225981   5.370727   6.760462
    38  H    5.492999   4.220543   4.104041   5.288174   6.456091
    39  H    5.780354   4.515653   4.267888   5.381967   6.653964
                    6          7          8          9         10
     6  C    0.000000
     7  C    3.681489   0.000000
     8  C    4.325201   1.401984   0.000000
     9  C    3.828319   2.385356   1.435792   0.000000
    10  C    2.562348   2.777950   2.503277   1.423617   0.000000
    11  C    5.770387   2.494377   1.448020   2.539177   3.842976
    12  C    6.560710   3.718589   2.418529   2.852007   4.275172
    13  C    6.231607   4.150276   2.760656   2.422367   3.725797
    14  C    5.001408   3.650352   2.414144   1.391908   2.445163
    15  C    6.747003   3.146440   2.644614   3.936365   5.134125
    16  C    8.061547   4.458383   3.854537   5.025591   6.322461
    17  C    8.595266   5.200533   4.281274   5.157746   6.554511
    18  C    7.941949   4.904228   3.720076   4.255371   5.676934
    19  C    3.833054   4.635096   5.980245   6.388968   5.701267
    20  C    4.918679   4.687126   6.088164   6.786341   6.370899
    21  C    5.077031   3.786432   5.158344   6.080798   5.952638
    22  C    4.130289   2.408501   3.794581   4.696000   4.632895
    23  C    4.639399   1.532153   2.680008   3.880146   4.267149
    24  H    6.117534   4.370545   5.658215   6.737728   6.784172
    25  H    5.909755   5.732661   7.132989   7.868460   7.455473
    26  H    4.272235   5.651625   6.964211   7.255377   6.429949
    27  H    2.174309   5.209856   6.178023   5.922070   4.725773
    28  H    1.087999   4.601313   5.035364   4.266597   2.862175
    29  H    2.847599   3.865190   3.481200   2.181472   1.087660
    30  H    5.169199   4.537453   3.416653   2.159845   2.686102
    31  H    7.125838   5.235050   3.849051   3.392270   4.578948
    32  H    8.646365   5.841079   4.579035   4.862981   6.257440
    33  H    7.043458   3.650731   3.058516   4.191216   5.373292
    34  H    8.808287   5.137787   4.748789   6.005863   7.247659
    35  H    9.664555   6.258165   5.359237   6.200144   7.604077
    36  C    6.038157   2.593166   3.222741   4.615346   5.328069
    37  C    6.554871   2.957512   3.156094   4.580633   5.495976
    38  H    6.370329   3.002851   3.451501   4.766947   5.542851
    39  H    6.490593   3.162989   3.455739   4.789306   5.582959
                   11         12         13         14         15
    11  C    0.000000
    12  C    1.416613   0.000000
    13  C    2.453750   1.406451   0.000000
    14  C    2.872020   2.452930   1.397801   0.000000
    15  C    1.482204   2.455220   3.757947   4.335186   0.000000
    16  C    2.493243   2.828571   4.234134   5.142679   1.418068
    17  C    2.852587   2.449118   3.718332   4.898495   2.426099
    18  C    2.447054   1.407873   2.427159   3.722261   2.785050
    19  C    7.100583   8.343393   8.619786   7.769157   7.374848
    20  C    6.984809   8.314510   8.812652   8.157249   6.985086
    21  C    5.861402   7.225083   7.879269   7.402403   5.705444
    22  C    4.607424   5.949057   6.528627   6.019011   4.662194
    23  C    3.200221   4.573066   5.325501   5.060801   3.165717
    24  H    6.126108   7.501034   8.312114   7.997080   5.717765
    25  H    7.964770   9.311267   9.860392   9.235344   7.856102
    26  H    8.134802   9.348624   9.549279   8.621917   8.450225
    27  H    7.577579   8.529060   8.334569   7.150627   8.332557
    28  H    6.476087   7.102067   6.572486   5.242334   7.568260
    29  H    4.716984   4.909544   4.080854   2.688134   6.079046
    30  H    3.958635   3.422852   2.144377   1.087787   5.416969
    31  H    3.438290   2.166747   1.089264   2.137920   4.611731
    32  H    3.434127   2.168750   2.654333   4.049090   3.871248
    33  H    1.988134   2.721790   3.908636   4.493210   1.147675
    34  H    3.477259   3.915556   5.320913   6.208664   2.181816
    35  H    3.937046   3.427586   4.580261   5.843541   3.413420
    36  C    3.074387   4.388243   5.447216   5.550517   2.447232
    37  C    2.593736   3.851522   5.040368   5.334491   1.516571
    38  H    3.197218   4.320939   5.378524   5.579735   2.710341
    39  H    3.089904   4.353860   5.436640   5.609091   2.159880
                   16         17         18         19         20
    16  C    0.000000
    17  C    1.388748   0.000000
    18  C    2.408579   1.395930   0.000000
    19  C    8.612425   9.607197   9.495617   0.000000
    20  C    8.117120   9.232163   9.325585   1.414045   0.000000
    21  C    6.776736   7.935029   8.134472   2.477728   1.411638
    22  C    5.848163   6.905061   6.952139   2.791029   2.379929
    23  C    4.350050   5.396176   5.489063   4.263752   3.862098
    24  H    6.633901   7.873501   8.255860   3.465138   2.190174
    25  H    8.924030  10.089759  10.269066   2.160946   1.088992
    26  H    9.695977  10.677649  10.530442   1.086674   2.167454
    27  H    9.661196  10.369303   9.871296   2.855689   4.248666
    28  H    8.860474   9.279247   8.501303   4.722397   5.903759
    29  H    7.206185   7.295630   6.282055   6.413885   7.223526
    30  H    6.186127   5.835519   4.570920   8.319277   8.849878
    31  H    4.846344   4.046959   2.653091   9.670368   9.885970
    32  H    3.382498   2.137102   1.089023  10.442973  10.331135
    33  H    1.952266   2.744282   3.008156   7.829455   7.493145
    34  H    1.088217   2.147303   3.394338   8.943912   8.288126
    35  H    2.150660   1.086752   2.156741  10.597607  10.158689
    36  C    3.326105   4.530506   4.960406   5.500503   4.839669
    37  C    2.478592   3.767584   4.286874   6.418870   5.832302
    38  H    3.266283   4.318066   4.770165   5.936107   5.286843
    39  H    3.214186   4.450933   4.882378   6.306735   5.759317
                   21         22         23         24         25
    21  C    0.000000
    22  C    1.387514   0.000000
    23  C    2.664341   1.511251   0.000000
    24  H    1.083434   2.159154   2.996870   0.000000
    25  H    2.157072   3.368095   4.790938   2.511601   0.000000
    26  H    3.449813   3.877250   5.348568   4.349726   2.475465
    27  H    5.001067   4.610256   5.670371   6.077432   4.978895
    28  H    6.146421   5.217653   5.673827   7.194823   6.852484
    29  H    6.925041   5.642616   5.349785   7.798369   8.294413
    30  H    8.212655   6.834162   6.005259   8.879778   9.935655
    31  H    8.954744   7.607966   6.394664   9.373288  10.934051
    32  H    9.167001   7.961912   6.521526   9.311396  11.289036
    33  H    6.262754   5.217912   3.811273   6.302869   8.366321
    34  H    6.898481   6.153350   4.723779   6.585074   8.996847
    35  H    8.831113   7.867717   6.363672   8.686454  10.976593
    36  C    3.470742   2.719633   1.443527   3.346674   5.608065
    37  C    4.493918   3.666455   2.299221   4.371157   6.613175
    38  H    3.957334   3.255931   2.078726   3.801648   6.027651
    39  H    4.507531   3.727890   2.593725   4.437267   6.526291
                   26         27         28         29         30
    26  H    0.000000
    27  H    2.732211   0.000000
    28  H    4.993711   2.480765   0.000000
    29  H    7.026646   4.978483   2.719503   0.000000
    30  H    9.090018   7.336962   5.182817   2.469438   0.000000
    31  H   10.582914   9.260321   7.362599   4.742292   2.432188
    32  H   11.459586  10.647928   9.110600   6.717306   4.701945
    33  H    8.883130   8.667021   7.813751   6.258788   5.524234
    34  H   10.029875  10.264470   9.667805   8.175856   7.260991
    35  H   11.672942  11.428990  10.342574   8.313602   6.721041
    36  C    6.583238   7.102205   7.047382   6.405564   6.590205
    37  C    7.498848   7.813780   7.504317   6.542616   6.408939
    38  H    6.999954   7.474781   7.344552   6.580661   6.602916
    39  H    7.354570   7.675935   7.431147   6.613029   6.643727
                   31         32         33         34         35
    31  H    0.000000
    32  H    2.413726   0.000000
    33  H    4.696267   4.008986   0.000000
    34  H    5.913283   4.275260   2.619353   0.000000
    35  H    4.719454   2.454505   3.665443   2.473875   0.000000
    36  C    6.442182   6.028131   3.257205   3.473054   5.380568
    37  C    5.986551   5.374660   2.050271   2.662419   4.628794
    38  H    6.306874   5.777275   3.745360   3.409478   5.089289
    39  H    6.397734   5.951102   2.120713   3.379105   5.316577
                   36         37         38         39
    36  C    0.000000
    37  C    1.344117   0.000000
    38  H    1.092492   2.097483   0.000000
    39  H    2.096723   1.094687   3.062487   0.000000
 Stoichiometry    C25H14(3)
 Framework group  C1[X(C25H14)]
 Deg. of freedom   111
 Full point group                 C1      NOp   1
 Largest Abelian subgroup         C1      NOp   1
 Largest concise Abelian subgroup C1      NOp   1
                         Standard orientation:                         
 ---------------------------------------------------------------------
 Center     Atomic      Atomic             Coordinates (Angstroms)
 Number     Number       Type             X           Y           Z
 ---------------------------------------------------------------------
      1          6           0        3.803852    0.281670   -0.015400
      2          6           0        2.500626   -0.148699    0.002062
      3          6           0        1.405175    0.712391    0.086890
      4          6           0        1.510024    2.076730    0.115353
      5          6           0        3.967160    1.692434    0.061293
      6          6           0        2.843521    2.572268    0.117267
      7          6           0        0.207313    0.002825    0.075674
      8          6           0       -1.033335    0.654626    0.114497
      9          6           0       -0.953239    2.086638    0.047979
     10          6           0        0.289734    2.779524    0.088150
     11          6           0       -2.284748   -0.072921    0.151927
     12          6           0       -3.439993    0.700405   -0.120412
     13          6           0       -3.361555    2.101669   -0.212124
     14          6           0       -2.149150    2.785942   -0.086854
     15          6           0       -2.528044   -1.492103    0.503580
     16          6           0       -3.718706   -2.109638    0.043267
     17          6           0       -4.806334   -1.323012   -0.312970
     18          6           0       -4.679614    0.067039   -0.330881
     19          6           0        4.780414   -0.726868   -0.120315
     20          6           0        4.394025   -2.083270   -0.222307
     21          6           0        3.042036   -2.489269   -0.225778
     22          6           0        2.093831   -1.483151   -0.108181
     23          6           0        0.582818   -1.474110   -0.082920
     24          1           0        2.751689   -3.529437   -0.312835
     25          1           0        5.168061   -2.844408   -0.308569
     26          1           0        5.835450   -0.466956   -0.134672
     27          1           0        4.968749    2.117264    0.054038
     28          1           0        3.017042    3.646036    0.142857
     29          1           0        0.307761    3.866679    0.060326
     30          1           0       -2.152333    3.871636   -0.154227
     31          1           0       -4.263496    2.686683   -0.387501
     32          1           0       -5.560130    0.659471   -0.575191
     33          1           0       -2.835204   -1.323181    1.596409
     34          1           0       -3.814997   -3.193582    0.046372
     35          1           0       -5.754356   -1.787334   -0.571213
     36          6           0       -0.428499   -2.488177   -0.263682
     37          6           0       -1.352895   -2.428212    0.710251
     38          1           0       -0.765928   -2.481105   -1.302734
     39          1           0       -1.008796   -2.390161    1.748753
 ---------------------------------------------------------------------
 Rotational constants (GHZ):           0.4883703           0.1853770           0.1361363
 Standard basis: 6-311+G(d,p) (5D, 7F)
 There are   659 symmetry adapted cartesian basis functions of A   symmetry.
 There are   634 symmetry adapted basis functions of A   symmetry.
   634 basis functions,  1012 primitive gaussians,   659 cartesian basis functions
    83 alpha electrons       81 beta electrons
       nuclear repulsion energy      1953.0442402057 Hartrees.
 NAtoms=   39 NActive=   39 NUniq=   39 SFac= 1.00D+00 NAtFMM=   60 NAOKFM=F Big=F
 Integral buffers will be    131072 words long.
 Raffenetti 2 integral format.
 Two-electron integral symmetry is turned on.
 One-electron integrals computed using PRISM.
 NBasis=   634 RedAO= T EigKep=  1.17D-06  NBF=   634
 NBsUse=   619 1.00D-06 EigRej=  8.45D-07 NBFU=   619
 ExpMin= 4.38D-02 ExpMax= 4.56D+03 ExpMxC= 6.82D+02 IAcc=2 IRadAn=         4 AccDes= 0.00D+00
 Harris functional with IExCor=  402 and IRadAn=       4 diagonalized for initial guess.
 HarFok:  IExCor=  402 AccDes= 0.00D+00 IRadAn=         4 IDoV= 1 UseB2=F ITyADJ=14
 ICtDFT=  3500011 ScaDFX=  1.000000  1.000000  1.000000  1.000000
 FoFCou: FMM=F IPFlag=           0 FMFlag=      100000 FMFlg1=           0
         NFxFlg=           0 DoJE=T BraDBF=F KetDBF=T FulRan=T
         wScrn=  0.000000 ICntrl=       500 IOpCl=  0 I1Cent=   200000004 NGrid=           0
         NMat0=    1 NMatS0=      1 NMatT0=    0 NMatD0=    1 NMtDS0=    0 NMtDT0=    0
 Petite list used in FoFCou.
 Initial guess <Sx>= 0.0000 <Sy>= 0.0000 <Sz>= 1.0000 <S**2>= 2.0000 S= 1.0000
 Requested convergence on RMS density matrix=1.00D-08 within 128 cycles.
 Requested convergence on MAX density matrix=1.00D-06.
 Requested convergence on             energy=1.00D-06.
 No special actions if energy rises.
 Restarting incremental Fock formation.
 SCF Done:  E(UB3LYP) =  -961.137033769     A.U. after   30 cycles
            NFock= 30  Conv=0.81D-08     -V/T= 2.0040
 <Sx>= 0.0000 <Sy>= 0.0000 <Sz>= 1.0000 <S**2>= 2.0642 S= 1.0213
 <L.S>=  0.00000000000    
 Annihilation of the first spin contaminant:
 S**2 before annihilation     2.0642,   after     2.0024

 **********************************************************************

            Population analysis using the SCF Density.

 **********************************************************************

 Orbital symmetries:
 Alpha Orbitals:
       Occupied  (A) (A) (A) (A) (A) (A) (A) (A) (A) (A) (A) (A)
                 (A) (A) (A) (A) (A) (A) (A) (A) (A) (A) (A) (A)
                 (A) (A) (A) (A) (A) (A) (A) (A) (A) (A) (A) (A)
                 (A) (A) (A) (A) (A) (A) (A) (A) (A) (A) (A) (A)
                 (A) (A) (A) (A) (A) (A) (A) (A) (A) (A) (A) (A)
                 (A) (A) (A) (A) (A) (A) (A) (A) (A) (A) (A) (A)
                 (A) (A) (A) (A) (A) (A) (A) (A) (A) (A) (A)
       Virtual   (A) (A) (A) (A) (A) (A) (A) (A) (A) (A) (A) (A)
                 (A) (A) (A) (A) (A) (A) (A) (A) (A) (A) (A) (A)
                 (A) (A) (A) (A) (A) (A) (A) (A) (A) (A) (A) (A)
                 (A) (A) (A) (A) (A) (A) (A) (A) (A) (A) (A) (A)
                 (A) (A) (A) (A) (A) (A) (A) (A) (A) (A) (A) (A)
                 (A) (A) (A) (A) (A) (A) (A) (A) (A) (A) (A) (A)
                 (A) (A) (A) (A) (A) (A) (A) (A) (A) (A) (A) (A)
                 (A) (A) (A) (A) (A) (A) (A) (A) (A) (A) (A) (A)
                 (A) (A) (A) (A) (A) (A) (A) (A) (A) (A) (A) (A)
                 (A) (A) (A) (A) (A) (A) (A) (A) (A) (A) (A) (A)
                 (A) (A) (A) (A) (A) (A) (A) (A) (A) (A) (A) (A)
                 (A) (A) (A) (A) (A) (A) (A) (A) (A) (A) (A) (A)
                 (A) (A) (A) (A) (A) (A) (A) (A) (A) (A) (A) (A)
                 (A) (A) (A) (A) (A) (A) (A) (A) (A) (A) (A) (A)
                 (A) (A) (A) (A) (A) (A) (A) (A) (A) (A) (A) (A)
                 (A) (A) (A) (A) (A) (A) (A) (A) (A) (A) (A) (A)
                 (A) (A) (A) (A) (A) (A) (A) (A) (A) (A) (A) (A)
                 (A) (A) (A) (A) (A) (A) (A) (A) (A) (A) (A) (A)
                 (A) (A) (A) (A) (A) (A) (A) (A) (A) (A) (A) (A)
                 (A) (A) (A) (A) (A) (A) (A) (A) (A) (A) (A) (A)
                 (A) (A) (A) (A) (A) (A) (A) (A) (A) (A) (A) (A)
                 (A) (A) (A) (A) (A) (A) (A) (A) (A) (A) (A) (A)
                 (A) (A) (A) (A) (A) (A) (A) (A) (A) (A) (A) (A)
                 (A) (A) (A) (A) (A) (A) (A) (A) (A) (A) (A) (A)
                 (A) (A) (A) (A) (A) (A) (A) (A) (A) (A) (A) (A)
                 (A) (A) (A) (A) (A) (A) (A) (A) (A) (A) (A) (A)
                 (A) (A) (A) (A) (A) (A) (A) (A) (A) (A) (A) (A)
                 (A) (A) (A) (A) (A) (A) (A) (A) (A) (A) (A) (A)
                 (A) (A) (A) (A) (A) (A) (A) (A) (A) (A) (A) (A)
                 (A) (A) (A) (A) (A) (A) (A) (A) (A) (A) (A) (A)
                 (A) (A) (A) (A) (A) (A) (A) (A) (A) (A) (A) (A)
                 (A) (A) (A) (A) (A) (A) (A) (A) (A) (A) (A) (A)
                 (A) (A) (A) (A) (A) (A) (A) (A) (A) (A) (A) (A)
                 (A) (A) (A) (A) (A) (A) (A) (A) (A) (A) (A) (A)
                 (A) (A) (A) (A) (A) (A) (A) (A) (A) (A) (A) (A)
                 (A) (A) (A) (A) (A) (A) (A) (A) (A) (A) (A) (A)
                 (A) (A) (A) (A) (A) (A) (A) (A) (A) (A) (A) (A)
                 (A) (A) (A) (A) (A) (A) (A) (A) (A) (A) (A) (A)
                 (A) (A) (A) (A) (A) (A) (A) (A) (A) (A) (A) (A)
                 (A) (A) (A) (A) (A) (A) (A) (A) (A) (A) (A) (A)
                 (A) (A) (A) (A) (A) (A) (A) (A) (A) (A) (A) (A)
                 (A) (A) (A) (A) (A) (A) (A) (A) (A) (A) (A) (A)
                 (A) (A) (A) (A) (A) (A) (A) (A) (A) (A) (A) (A)
                 (A) (A) (A) (A) (A) (A) (A) (A) (A) (A) (A) (A)
                 (A) (A) (A) (A) (A) (A) (A) (A)
 Beta  Orbitals:
       Occupied  (A) (A) (A) (A) (A) (A) (A) (A) (A) (A) (A) (A)
                 (A) (A) (A) (A) (A) (A) (A) (A) (A) (A) (A) (A)
                 (A) (A) (A) (A) (A) (A) (A) (A) (A) (A) (A) (A)
                 (A) (A) (A) (A) (A) (A) (A) (A) (A) (A) (A) (A)
                 (A) (A) (A) (A) (A) (A) (A) (A) (A) (A) (A) (A)
                 (A) (A) (A) (A) (A) (A) (A) (A) (A) (A) (A) (A)
                 (A) (A) (A) (A) (A) (A) (A) (A) (A)
       Virtual   (A) (A) (A) (A) (A) (A) (A) (A) (A) (A) (A) (A)
                 (A) (A) (A) (A) (A) (A) (A) (A) (A) (A) (A) (A)
                 (A) (A) (A) (A) (A) (A) (A) (A) (A) (A) (A) (A)
                 (A) (A) (A) (A) (A) (A) (A) (A) (A) (A) (A) (A)
                 (A) (A) (A) (A) (A) (A) (A) (A) (A) (A) (A) (A)
                 (A) (A) (A) (A) (A) (A) (A) (A) (A) (A) (A) (A)
                 (A) (A) (A) (A) (A) (A) (A) (A) (A) (A) (A) (A)
                 (A) (A) (A) (A) (A) (A) (A) (A) (A) (A) (A) (A)
                 (A) (A) (A) (A) (A) (A) (A) (A) (A) (A) (A) (A)
                 (A) (A) (A) (A) (A) (A) (A) (A) (A) (A) (A) (A)
                 (A) (A) (A) (A) (A) (A) (A) (A) (A) (A) (A) (A)
                 (A) (A) (A) (A) (A) (A) (A) (A) (A) (A) (A) (A)
                 (A) (A) (A) (A) (A) (A) (A) (A) (A) (A) (A) (A)
                 (A) (A) (A) (A) (A) (A) (A) (A) (A) (A) (A) (A)
                 (A) (A) (A) (A) (A) (A) (A) (A) (A) (A) (A) (A)
                 (A) (A) (A) (A) (A) (A) (A) (A) (A) (A) (A) (A)
                 (A) (A) (A) (A) (A) (A) (A) (A) (A) (A) (A) (A)
                 (A) (A) (A) (A) (A) (A) (A) (A) (A) (A) (A) (A)
                 (A) (A) (A) (A) (A) (A) (A) (A) (A) (A) (A) (A)
                 (A) (A) (A) (A) (A) (A) (A) (A) (A) (A) (A) (A)
                 (A) (A) (A) (A) (A) (A) (A) (A) (A) (A) (A) (A)
                 (A) (A) (A) (A) (A) (A) (A) (A) (A) (A) (A) (A)
                 (A) (A) (A) (A) (A) (A) (A) (A) (A) (A) (A) (A)
                 (A) (A) (A) (A) (A) (A) (A) (A) (A) (A) (A) (A)
                 (A) (A) (A) (A) (A) (A) (A) (A) (A) (A) (A) (A)
                 (A) (A) (A) (A) (A) (A) (A) (A) (A) (A) (A) (A)
                 (A) (A) (A) (A) (A) (A) (A) (A) (A) (A) (A) (A)
                 (A) (A) (A) (A) (A) (A) (A) (A) (A) (A) (A) (A)
                 (A) (A) (A) (A) (A) (A) (A) (A) (A) (A) (A) (A)
                 (A) (A) (A) (A) (A) (A) (A) (A) (A) (A) (A) (A)
                 (A) (A) (A) (A) (A) (A) (A) (A) (A) (A) (A) (A)
                 (A) (A) (A) (A) (A) (A) (A) (A) (A) (A) (A) (A)
                 (A) (A) (A) (A) (A) (A) (A) (A) (A) (A) (A) (A)
                 (A) (A) (A) (A) (A) (A) (A) (A) (A) (A) (A) (A)
                 (A) (A) (A) (A) (A) (A) (A) (A) (A) (A) (A) (A)
                 (A) (A) (A) (A) (A) (A) (A) (A) (A) (A) (A) (A)
                 (A) (A) (A) (A) (A) (A) (A) (A) (A) (A) (A) (A)
                 (A) (A) (A) (A) (A) (A) (A) (A) (A) (A) (A) (A)
                 (A) (A) (A) (A) (A) (A) (A) (A) (A) (A) (A) (A)
                 (A) (A) (A) (A) (A) (A) (A) (A) (A) (A) (A) (A)
                 (A) (A) (A) (A) (A) (A) (A) (A) (A) (A) (A) (A)
                 (A) (A) (A) (A) (A) (A) (A) (A) (A) (A) (A) (A)
                 (A) (A) (A) (A) (A) (A) (A) (A) (A) (A) (A) (A)
                 (A) (A) (A) (A) (A) (A) (A) (A) (A) (A) (A) (A)
                 (A) (A) (A) (A) (A) (A) (A) (A) (A) (A)
 The electronic state is 3-A.
 Alpha  occ. eigenvalues --  -10.22312 -10.20923 -10.20582 -10.20259 -10.19493
 Alpha  occ. eigenvalues --  -10.19354 -10.19252 -10.19206 -10.19162 -10.18985
 Alpha  occ. eigenvalues --  -10.18827 -10.18816 -10.18793 -10.18752 -10.18657
 Alpha  occ. eigenvalues --  -10.18612 -10.18518 -10.18377 -10.18277 -10.18259
 Alpha  occ. eigenvalues --  -10.18174 -10.17989 -10.17965 -10.17035 -10.16844
 Alpha  occ. eigenvalues --   -0.92038  -0.89728  -0.86755  -0.84856  -0.83688
 Alpha  occ. eigenvalues --   -0.81065  -0.79535  -0.78139  -0.76218  -0.75421
 Alpha  occ. eigenvalues --   -0.73123  -0.71297  -0.68215  -0.66192  -0.65140
 Alpha  occ. eigenvalues --   -0.63256  -0.61923  -0.59961  -0.59247  -0.56488
 Alpha  occ. eigenvalues --   -0.55450  -0.53472  -0.52429  -0.52017  -0.50724
 Alpha  occ. eigenvalues --   -0.48382  -0.48063  -0.47377  -0.47129  -0.45394
 Alpha  occ. eigenvalues --   -0.45202  -0.44011  -0.43734  -0.43051  -0.42753
 Alpha  occ. eigenvalues --   -0.41906  -0.41548  -0.40548  -0.40188  -0.39867
 Alpha  occ. eigenvalues --   -0.38740  -0.37915  -0.37695  -0.36307  -0.35458
 Alpha  occ. eigenvalues --   -0.34842  -0.34364  -0.33981  -0.33748  -0.32344
 Alpha  occ. eigenvalues --   -0.29945  -0.27701  -0.26738  -0.24206  -0.23137
 Alpha  occ. eigenvalues --   -0.21681  -0.20349  -0.16079
 Alpha virt. eigenvalues --   -0.07975  -0.07298  -0.03836  -0.02554  -0.00304
 Alpha virt. eigenvalues --    0.00208   0.00671   0.00724   0.01341   0.01878
 Alpha virt. eigenvalues --    0.02062   0.02403   0.02703   0.03077   0.03528
 Alpha virt. eigenvalues --    0.03710   0.04370   0.04995   0.05337   0.05520
 Alpha virt. eigenvalues --    0.05686   0.06328   0.06772   0.07166   0.07293
 Alpha virt. eigenvalues --    0.07883   0.08078   0.08433   0.08483   0.09052
 Alpha virt. eigenvalues --    0.09378   0.10183   0.10566   0.10848   0.11481
 Alpha virt. eigenvalues --    0.11660   0.12087   0.12557   0.12671   0.12691
 Alpha virt. eigenvalues --    0.13232   0.13457   0.14077   0.14455   0.14889
 Alpha virt. eigenvalues --    0.14988   0.15146   0.15540   0.16080   0.16367
 Alpha virt. eigenvalues --    0.16460   0.16880   0.17130   0.17603   0.17630
 Alpha virt. eigenvalues --    0.17644   0.17960   0.18181   0.18455   0.18646
 Alpha virt. eigenvalues --    0.18943   0.19089   0.19397   0.19579   0.19658
 Alpha virt. eigenvalues --    0.19869   0.20058   0.20258   0.20738   0.20958
 Alpha virt. eigenvalues --    0.21575   0.21841   0.22167   0.22191   0.22451
 Alpha virt. eigenvalues --    0.22530   0.22759   0.23080   0.23099   0.23709
 Alpha virt. eigenvalues --    0.23818   0.24054   0.24700   0.24924   0.25116
 Alpha virt. eigenvalues --    0.25222   0.25361   0.25684   0.26041   0.26360
 Alpha virt. eigenvalues --    0.26622   0.26769   0.27480   0.27905   0.28359
 Alpha virt. eigenvalues --    0.28566   0.28704   0.28926   0.29059   0.29720
 Alpha virt. eigenvalues --    0.29815   0.29991   0.30216   0.30812   0.31082
 Alpha virt. eigenvalues --    0.31171   0.31472   0.31714   0.32269   0.32660
 Alpha virt. eigenvalues --    0.33008   0.33334   0.33981   0.34754   0.35266
 Alpha virt. eigenvalues --    0.35757   0.36256   0.37115   0.37590   0.38206
 Alpha virt. eigenvalues --    0.38762   0.38853   0.39503   0.40052   0.40397
 Alpha virt. eigenvalues --    0.40850   0.41541   0.42567   0.43294   0.43653
 Alpha virt. eigenvalues --    0.44972   0.45272   0.45980   0.47440   0.47775
 Alpha virt. eigenvalues --    0.48523   0.49218   0.50130   0.51296   0.51700
 Alpha virt. eigenvalues --    0.51982   0.53083   0.53151   0.53976   0.54197
 Alpha virt. eigenvalues --    0.54739   0.55022   0.55359   0.55976   0.56177
 Alpha virt. eigenvalues --    0.56621   0.57061   0.57682   0.57825   0.58392
 Alpha virt. eigenvalues --    0.58724   0.59253   0.59774   0.60015   0.60374
 Alpha virt. eigenvalues --    0.60572   0.60846   0.61701   0.62195   0.62624
 Alpha virt. eigenvalues --    0.63535   0.63857   0.64222   0.64849   0.65208
 Alpha virt. eigenvalues --    0.65624   0.66440   0.66502   0.67163   0.67251
 Alpha virt. eigenvalues --    0.67983   0.68701   0.68875   0.69315   0.69817
 Alpha virt. eigenvalues --    0.70096   0.70275   0.70572   0.70985   0.71476
 Alpha virt. eigenvalues --    0.71737   0.71990   0.72730   0.73084   0.73404
 Alpha virt. eigenvalues --    0.74020   0.74426   0.75107   0.75574   0.75786
 Alpha virt. eigenvalues --    0.75990   0.76921   0.77169   0.77500   0.78051
 Alpha virt. eigenvalues --    0.79529   0.80023   0.80357   0.80986   0.82267
 Alpha virt. eigenvalues --    0.82396   0.83627   0.84326   0.84521   0.85954
 Alpha virt. eigenvalues --    0.86300   0.87273   0.88493   0.89731   0.90189
 Alpha virt. eigenvalues --    0.90614   0.90657   0.91027   0.91437   0.92499
 Alpha virt. eigenvalues --    0.92954   0.93554   0.93884   0.94660   0.94989
 Alpha virt. eigenvalues --    0.95194   0.95520   0.96193   0.96724   0.97226
 Alpha virt. eigenvalues --    0.97529   0.98496   0.99110   0.99297   1.00030
 Alpha virt. eigenvalues --    1.00483   1.01904   1.02337   1.03265   1.03694
 Alpha virt. eigenvalues --    1.04152   1.04913   1.05709   1.06429   1.07406
 Alpha virt. eigenvalues --    1.08207   1.09217   1.09462   1.10236   1.10794
 Alpha virt. eigenvalues --    1.10930   1.12532   1.13267   1.14640   1.15219
 Alpha virt. eigenvalues --    1.16310   1.16434   1.18020   1.19422   1.19748
 Alpha virt. eigenvalues --    1.22071   1.22452   1.24482   1.26335   1.27095
 Alpha virt. eigenvalues --    1.28794   1.31778   1.33001   1.35184   1.36625
 Alpha virt. eigenvalues --    1.37499   1.38537   1.39986   1.40994   1.42558
 Alpha virt. eigenvalues --    1.43755   1.44655   1.45422   1.46683   1.47730
 Alpha virt. eigenvalues --    1.48381   1.48780   1.49176   1.49816   1.50071
 Alpha virt. eigenvalues --    1.50962   1.52025   1.52775   1.53185   1.54551
 Alpha virt. eigenvalues --    1.54903   1.55540   1.56109   1.56323   1.57360
 Alpha virt. eigenvalues --    1.57716   1.58384   1.59324   1.60599   1.61186
 Alpha virt. eigenvalues --    1.61832   1.62856   1.63269   1.64704   1.65516
 Alpha virt. eigenvalues --    1.66867   1.67320   1.68559   1.69428   1.69673
 Alpha virt. eigenvalues --    1.71033   1.71134   1.72132   1.73827   1.74407
 Alpha virt. eigenvalues --    1.74547   1.75005   1.76611   1.76793   1.77291
 Alpha virt. eigenvalues --    1.78156   1.78846   1.80759   1.80786   1.81521
 Alpha virt. eigenvalues --    1.83083   1.84197   1.84888   1.85849   1.86182
 Alpha virt. eigenvalues --    1.87072   1.87765   1.88591   1.89043   1.89248
 Alpha virt. eigenvalues --    1.89587   1.90122   1.91219   1.92377   1.92687
 Alpha virt. eigenvalues --    1.92975   1.93804   1.94359   1.95982   1.96412
 Alpha virt. eigenvalues --    1.97487   1.98432   1.99098   1.99497   2.00429
 Alpha virt. eigenvalues --    2.00968   2.01866   2.02796   2.03179   2.04024
 Alpha virt. eigenvalues --    2.05604   2.05699   2.07025   2.07566   2.09704
 Alpha virt. eigenvalues --    2.10744   2.11344   2.12080   2.13276   2.14778
 Alpha virt. eigenvalues --    2.15533   2.16509   2.16664   2.16954   2.18515
 Alpha virt. eigenvalues --    2.20748   2.21241   2.22343   2.23370   2.23663
 Alpha virt. eigenvalues --    2.26094   2.27362   2.28062   2.29653   2.31448
 Alpha virt. eigenvalues --    2.32784   2.33386   2.35102   2.38040   2.38824
 Alpha virt. eigenvalues --    2.40233   2.40885   2.41759   2.43780   2.44520
 Alpha virt. eigenvalues --    2.45019   2.46268   2.47309   2.47862   2.49011
 Alpha virt. eigenvalues --    2.51732   2.54346   2.56197   2.57760   2.58523
 Alpha virt. eigenvalues --    2.61119   2.61593   2.63468   2.64229   2.65019
 Alpha virt. eigenvalues --    2.66599   2.67878   2.68333   2.70071   2.70780
 Alpha virt. eigenvalues --    2.71549   2.71963   2.72423   2.72533   2.73069
 Alpha virt. eigenvalues --    2.73536   2.74580   2.75254   2.75727   2.76052
 Alpha virt. eigenvalues --    2.76472   2.76659   2.77811   2.78376   2.78512
 Alpha virt. eigenvalues --    2.79460   2.80168   2.81523   2.82478   2.83073
 Alpha virt. eigenvalues --    2.84000   2.85139   2.85940   2.86481   2.86931
 Alpha virt. eigenvalues --    2.88861   2.89153   2.89305   2.90149   2.91207
 Alpha virt. eigenvalues --    2.92184   2.92896   2.93671   2.94852   2.98421
 Alpha virt. eigenvalues --    2.98810   3.02474   3.03176   3.04559   3.07094
 Alpha virt. eigenvalues --    3.08187   3.08453   3.10630   3.13897   3.14539
 Alpha virt. eigenvalues --    3.16211   3.18729   3.19619   3.22572   3.23184
 Alpha virt. eigenvalues --    3.24239   3.25715   3.27782   3.30738   3.32662
 Alpha virt. eigenvalues --    3.35480   3.36056   3.37916   3.40173   3.40381
 Alpha virt. eigenvalues --    3.42232   3.44311   3.45090   3.46454   3.47038
 Alpha virt. eigenvalues --    3.49747   3.50779   3.51534   3.54163   3.56926
 Alpha virt. eigenvalues --    3.59624   3.61526   3.63362   3.66316   3.68838
 Alpha virt. eigenvalues --    3.72668   3.73849   3.78986   3.83316   3.85407
 Alpha virt. eigenvalues --    3.93666   4.00574   4.03424   4.06036   4.06196
 Alpha virt. eigenvalues --    4.07193   4.09896   4.11731   4.12691   4.22872
 Alpha virt. eigenvalues --    4.27872   4.33067   4.35095   4.40463   4.59130
 Alpha virt. eigenvalues --    4.74807   4.76025   4.79735   4.81380   4.84022
 Alpha virt. eigenvalues --    4.89778  23.41778  23.62859  23.73053  23.77263
 Alpha virt. eigenvalues --   23.83159  23.88445  23.90616  23.91639  23.95258
 Alpha virt. eigenvalues --   23.96284  23.98514  23.99252  23.99760  24.03004
 Alpha virt. eigenvalues --   24.04405  24.05073  24.06432  24.07252  24.07659
 Alpha virt. eigenvalues --   24.11877  24.14533  24.15181  24.18275  24.23313
 Alpha virt. eigenvalues --   24.23745
  Beta  occ. eigenvalues --  -10.21425 -10.21009 -10.20284 -10.20202 -10.19473
  Beta  occ. eigenvalues --  -10.19255 -10.19254 -10.19201 -10.19092 -10.18874
  Beta  occ. eigenvalues --  -10.18839 -10.18698 -10.18635 -10.18632 -10.18599
  Beta  occ. eigenvalues --  -10.18558 -10.18402 -10.18394 -10.18212 -10.18209
  Beta  occ. eigenvalues --  -10.18202 -10.17896 -10.17523 -10.16893 -10.16758
  Beta  occ. eigenvalues --   -0.91704  -0.89293  -0.86373  -0.84372  -0.83395
  Beta  occ. eigenvalues --   -0.80668  -0.79137  -0.77746  -0.75879  -0.74971
  Beta  occ. eigenvalues --   -0.72838  -0.70940  -0.67258  -0.65829  -0.64691
  Beta  occ. eigenvalues --   -0.62955  -0.61588  -0.59674  -0.58873  -0.56074
  Beta  occ. eigenvalues --   -0.55165  -0.52920  -0.52189  -0.51806  -0.50534
  Beta  occ. eigenvalues --   -0.48102  -0.47758  -0.47137  -0.46540  -0.45201
  Beta  occ. eigenvalues --   -0.44751  -0.43694  -0.43466  -0.42584  -0.42285
  Beta  occ. eigenvalues --   -0.41777  -0.41298  -0.40326  -0.39938  -0.39530
  Beta  occ. eigenvalues --   -0.38089  -0.37699  -0.37348  -0.35939  -0.34821
  Beta  occ. eigenvalues --   -0.34625  -0.34073  -0.33588  -0.33088  -0.30951
  Beta  occ. eigenvalues --   -0.28749  -0.26984  -0.25847  -0.22907  -0.22755
  Beta  occ. eigenvalues --   -0.20629
  Beta virt. eigenvalues --   -0.13164  -0.08856  -0.07008  -0.06053  -0.02746
  Beta virt. eigenvalues --   -0.01866  -0.00054   0.00687   0.00745   0.01008
  Beta virt. eigenvalues --    0.01482   0.01954   0.02359   0.02849   0.03150
  Beta virt. eigenvalues --    0.03281   0.03620   0.03756   0.04564   0.05312
  Beta virt. eigenvalues --    0.05485   0.05542   0.05893   0.06780   0.06978
  Beta virt. eigenvalues --    0.07363   0.07457   0.07954   0.08251   0.08492
  Beta virt. eigenvalues --    0.08679   0.09231   0.09506   0.10411   0.10641
  Beta virt. eigenvalues --    0.10911   0.11667   0.11757   0.12188   0.12737
  Beta virt. eigenvalues --    0.12762   0.12977   0.13561   0.13612   0.14122
  Beta virt. eigenvalues --    0.14537   0.15026   0.15070   0.15309   0.15728
  Beta virt. eigenvalues --    0.16179   0.16457   0.16562   0.17006   0.17418
  Beta virt. eigenvalues --    0.17658   0.17732   0.17836   0.18109   0.18450
  Beta virt. eigenvalues --    0.18627   0.18808   0.19088   0.19195   0.19518
  Beta virt. eigenvalues --    0.19721   0.19800   0.20113   0.20237   0.20389
  Beta virt. eigenvalues --    0.20821   0.21119   0.21732   0.21969   0.22265
  Beta virt. eigenvalues --    0.22325   0.22597   0.22689   0.22871   0.23203
  Beta virt. eigenvalues --    0.23397   0.23854   0.23995   0.24228   0.24944
  Beta virt. eigenvalues --    0.25033   0.25243   0.25361   0.25477   0.25868
  Beta virt. eigenvalues --    0.26133   0.26482   0.26742   0.26873   0.27590
  Beta virt. eigenvalues --    0.28077   0.28529   0.28666   0.28898   0.29095
  Beta virt. eigenvalues --    0.29146   0.29822   0.30037   0.30094   0.30407
  Beta virt. eigenvalues --    0.31021   0.31245   0.31286   0.31542   0.31963
  Beta virt. eigenvalues --    0.32409   0.32818   0.33106   0.33558   0.34149
  Beta virt. eigenvalues --    0.35045   0.35383   0.35947   0.36434   0.37277
  Beta virt. eigenvalues --    0.37750   0.38331   0.38855   0.39062   0.39677
  Beta virt. eigenvalues --    0.40248   0.40588   0.41053   0.41781   0.42734
  Beta virt. eigenvalues --    0.43431   0.43835   0.45070   0.45353   0.46107
  Beta virt. eigenvalues --    0.47677   0.48169   0.48748   0.49482   0.50511
  Beta virt. eigenvalues --    0.51441   0.51966   0.52271   0.53339   0.53387
  Beta virt. eigenvalues --    0.54270   0.54355   0.55054   0.55573   0.55719
  Beta virt. eigenvalues --    0.56223   0.56566   0.56996   0.57461   0.57889
  Beta virt. eigenvalues --    0.58272   0.58758   0.58995   0.59374   0.59962
  Beta virt. eigenvalues --    0.60236   0.60654   0.60915   0.61058   0.62136
  Beta virt. eigenvalues --    0.62478   0.63250   0.64111   0.64277   0.64594
  Beta virt. eigenvalues --    0.64973   0.65415   0.65899   0.66594   0.66905
  Beta virt. eigenvalues --    0.67432   0.67611   0.68177   0.68945   0.69173
  Beta virt. eigenvalues --    0.69644   0.70014   0.70351   0.70481   0.70848
  Beta virt. eigenvalues --    0.71328   0.71789   0.72002   0.72169   0.72939
  Beta virt. eigenvalues --    0.73266   0.73691   0.74211   0.74667   0.75437
  Beta virt. eigenvalues --    0.75822   0.75973   0.76325   0.77075   0.77361
  Beta virt. eigenvalues --    0.77746   0.78408   0.79763   0.80088   0.80587
  Beta virt. eigenvalues --    0.81289   0.82529   0.82712   0.83900   0.84432
  Beta virt. eigenvalues --    0.84776   0.86355   0.86557   0.87452   0.88702
  Beta virt. eigenvalues --    0.89927   0.90391   0.90830   0.90890   0.91449
  Beta virt. eigenvalues --    0.91775   0.92978   0.93212   0.93786   0.94196
  Beta virt. eigenvalues --    0.94812   0.95238   0.95404   0.95793   0.96543
  Beta virt. eigenvalues --    0.96989   0.97496   0.97816   0.98777   0.99405
  Beta virt. eigenvalues --    0.99573   1.00315   1.00817   1.02169   1.02633
  Beta virt. eigenvalues --    1.03519   1.04006   1.04527   1.05426   1.05997
  Beta virt. eigenvalues --    1.06752   1.07704   1.08533   1.09525   1.09678
  Beta virt. eigenvalues --    1.10531   1.11194   1.11278   1.13014   1.13745
  Beta virt. eigenvalues --    1.14977   1.15439   1.16614   1.16747   1.18266
  Beta virt. eigenvalues --    1.19700   1.20080   1.22457   1.22843   1.24985
  Beta virt. eigenvalues --    1.26511   1.27650   1.29179   1.32106   1.33467
  Beta virt. eigenvalues --    1.35431   1.36983   1.37645   1.38847   1.40116
  Beta virt. eigenvalues --    1.41359   1.42722   1.44054   1.44914   1.45621
  Beta virt. eigenvalues --    1.46996   1.47954   1.48683   1.49065   1.49508
  Beta virt. eigenvalues --    1.50089   1.50520   1.51260   1.52376   1.53120
  Beta virt. eigenvalues --    1.53541   1.54835   1.55338   1.55773   1.56322
  Beta virt. eigenvalues --    1.56650   1.57893   1.58109   1.58775   1.59741
  Beta virt. eigenvalues --    1.61042   1.61653   1.62138   1.63160   1.63534
  Beta virt. eigenvalues --    1.64967   1.65749   1.66996   1.67514   1.68718
  Beta virt. eigenvalues --    1.69908   1.70006   1.71425   1.71565   1.72453
  Beta virt. eigenvalues --    1.74105   1.74630   1.74860   1.75351   1.76893
  Beta virt. eigenvalues --    1.77085   1.77550   1.78598   1.79425   1.81067
  Beta virt. eigenvalues --    1.81332   1.81839   1.83415   1.84682   1.85256
  Beta virt. eigenvalues --    1.86122   1.86582   1.87607   1.88088   1.89033
  Beta virt. eigenvalues --    1.89391   1.89410   1.89949   1.90326   1.91566
  Beta virt. eigenvalues --    1.92613   1.92970   1.93418   1.94168   1.94605
  Beta virt. eigenvalues --    1.96290   1.96711   1.97738   1.98801   1.99414
  Beta virt. eigenvalues --    1.99886   2.00719   2.01892   2.02141   2.03256
  Beta virt. eigenvalues --    2.03781   2.04228   2.05943   2.05994   2.07445
  Beta virt. eigenvalues --    2.07994   2.10257   2.10906   2.11837   2.12613
  Beta virt. eigenvalues --    2.13631   2.15116   2.15879   2.16857   2.17040
  Beta virt. eigenvalues --    2.17231   2.18861   2.21136   2.21693   2.22831
  Beta virt. eigenvalues --    2.23628   2.24054   2.26285   2.27637   2.28516
  Beta virt. eigenvalues --    2.30111   2.31823   2.33132   2.33673   2.35453
  Beta virt. eigenvalues --    2.38414   2.39160   2.40547   2.41031   2.42137
  Beta virt. eigenvalues --    2.44052   2.44847   2.45415   2.46570   2.47716
  Beta virt. eigenvalues --    2.48294   2.49443   2.52285   2.54474   2.56595
  Beta virt. eigenvalues --    2.57934   2.58667   2.61399   2.61893   2.63757
  Beta virt. eigenvalues --    2.64427   2.65255   2.66976   2.68347   2.68740
  Beta virt. eigenvalues --    2.70357   2.71130   2.71655   2.72203   2.72549
  Beta virt. eigenvalues --    2.72742   2.73228   2.73691   2.74804   2.75392
  Beta virt. eigenvalues --    2.75907   2.76361   2.76552   2.76909   2.78055
  Beta virt. eigenvalues --    2.78548   2.78688   2.79740   2.80277   2.81778
  Beta virt. eigenvalues --    2.82865   2.83280   2.84588   2.85355   2.86531
  Beta virt. eigenvalues --    2.86790   2.87557   2.89206   2.89641   2.90227
  Beta virt. eigenvalues --    2.90756   2.91543   2.92603   2.93170   2.94489
  Beta virt. eigenvalues --    2.95219   2.99093   2.99643   3.03386   3.04136
  Beta virt. eigenvalues --    3.05325   3.07690   3.08474   3.09144   3.11068
  Beta virt. eigenvalues --    3.14265   3.14784   3.16533   3.18987   3.19835
  Beta virt. eigenvalues --    3.22682   3.23257   3.24364   3.25844   3.27961
  Beta virt. eigenvalues --    3.30898   3.32803   3.35621   3.36184   3.38110
  Beta virt. eigenvalues --    3.40257   3.40499   3.42324   3.44409   3.45155
  Beta virt. eigenvalues --    3.46625   3.47148   3.49846   3.50866   3.51703
  Beta virt. eigenvalues --    3.54483   3.57065   3.59759   3.61750   3.63503
  Beta virt. eigenvalues --    3.66627   3.69011   3.72925   3.74033   3.79163
  Beta virt. eigenvalues --    3.83488   3.85839   3.93969   4.00831   4.03662
  Beta virt. eigenvalues --    4.06296   4.06426   4.07339   4.10044   4.12313
  Beta virt. eigenvalues --    4.12960   4.23074   4.28186   4.33617   4.35485
  Beta virt. eigenvalues --    4.40865   4.59573   4.75202   4.76638   4.79956
  Beta virt. eigenvalues --    4.81552   4.84204   4.89935  23.41864  23.63000
  Beta virt. eigenvalues --   23.73458  23.77598  23.83227  23.88530  23.90907
  Beta virt. eigenvalues --   23.91897  23.95358  23.96440  23.98665  23.99252
  Beta virt. eigenvalues --   23.99855  24.03175  24.04423  24.05339  24.06657
  Beta virt. eigenvalues --   24.07297  24.07729  24.11967  24.14577  24.15375
  Beta virt. eigenvalues --   24.18325  24.23394  24.23790
          Condensed to atoms (all electrons):
               1          2          3          4          5          6
     1  C    9.484168   1.677690  -0.190346   0.243521  -1.116632   0.219402
     2  C    1.677690   7.161863   0.421140  -0.323027  -0.678941   0.417303
     3  C   -0.190346   0.421140   7.682315   0.944350   0.118843  -0.619329
     4  C    0.243521  -0.323027   0.944350  11.342556  -0.225202  -0.937219
     5  C   -1.116632  -0.678941   0.118843  -0.225202   8.650076   0.440416
     6  C    0.219402   0.417303  -0.619329  -0.937219   0.440416  10.617229
     7  C   -0.426928  -1.009990   2.069804   0.300089  -0.046571  -1.126265
     8  C   -0.757173  -0.541627   0.121901  -1.211468   0.213105  -1.211768
     9  C   -0.195125  -0.647625   0.079307   1.914305   0.124865  -0.320599
    10  C   -0.623577  -0.499150   0.013890   1.542739   0.132550  -0.929680
    11  C    0.041771  -0.043479   0.351598  -0.667140   0.018440  -0.106238
    12  C   -0.008547   0.037194  -0.046513   0.331792   0.012250   0.047941
    13  C   -0.042409  -0.089356  -0.283821   0.038627  -0.000734  -0.229059
    14  C   -0.196295  -0.090852  -1.161144  -0.828114  -0.051405  -0.372846
    15  C   -0.294863  -0.409015  -1.246304  -1.084733   0.053038  -0.182665
    16  C    0.021537   0.049875  -0.088438   0.015394  -0.003837   0.017233
    17  C   -0.000488  -0.001601   0.000760  -0.043747  -0.001400  -0.008100
    18  C   -0.008768  -0.012418  -0.227231  -0.037694   0.005607  -0.007259
    19  C   -1.606747  -1.128198  -0.334468  -0.860845  -0.356797   0.610898
    20  C    0.268448   0.587599  -0.243598  -0.068687  -0.359336   0.010023
    21  C    0.367890   0.189962  -0.448429  -0.333389  -0.010331   0.220857
    22  C   -0.583233   1.760152  -0.133727  -2.136104  -0.593442  -0.096901
    23  C   -0.621954  -0.334193  -0.206456  -2.567003  -0.306764  -0.503055
    24  H   -0.020454   0.018547  -0.003970   0.001845  -0.005338  -0.002133
    25  H    0.008118  -0.005544   0.005206   0.002434   0.006572  -0.001826
    26  H   -0.081004   0.029851  -0.008532   0.006593   0.022693   0.003695
    27  H   -0.110200   0.005115   0.002507   0.022562   0.384144  -0.019920
    28  H   -0.025442  -0.014876  -0.002618  -0.060257   0.009259   0.318048
    29  H    0.005166  -0.002517   0.021528  -0.044708   0.000693   0.023689
    30  H    0.000397   0.000722   0.006267   0.045074   0.000867   0.006648
    31  H    0.000017   0.000139   0.000923   0.003324   0.000013   0.000416
    32  H   -0.000008   0.000000  -0.000334   0.000424   0.000003   0.000034
    33  H   -0.000094   0.002239  -0.003051  -0.002933  -0.000047  -0.000107
    34  H   -0.000024  -0.000080  -0.000082  -0.000137   0.000001  -0.000016
    35  H    0.000001   0.000007   0.000039   0.000095   0.000000   0.000004
    36  C    0.461571  -0.388264  -0.798031   0.315668  -0.174992   0.139638
    37  C    0.094097  -0.010146   0.318796   0.224051   0.004617   0.015670
    38  H   -0.005107   0.000294  -0.001106  -0.002650   0.000714  -0.000403
    39  H   -0.002073   0.001928  -0.009333  -0.003004   0.000437   0.000149
               7          8          9         10         11         12
     1  C   -0.426928  -0.757173  -0.195125  -0.623577   0.041771  -0.008547
     2  C   -1.009990  -0.541627  -0.647625  -0.499150  -0.043479   0.037194
     3  C    2.069804   0.121901   0.079307   0.013890   0.351598  -0.046513
     4  C    0.300089  -1.211468   1.914305   1.542739  -0.667140   0.331792
     5  C   -0.046571   0.213105   0.124865   0.132550   0.018440   0.012250
     6  C   -1.126265  -1.211768  -0.320599  -0.929680  -0.106238   0.047941
     7  C   13.001129   2.067144  -0.572224  -0.024121   0.617166   0.254613
     8  C    2.067144   9.157570  -2.067377   0.396842   1.889478  -0.737086
     9  C   -0.572224  -2.067377  19.403844   1.387908  -0.587334   3.569753
    10  C   -0.024121   0.396842   1.387908   8.541321  -0.644966  -1.087801
    11  C    0.617166   1.889478  -0.587334  -0.644966  11.960526   1.097218
    12  C    0.254613  -0.737086   3.569753  -1.087801   1.097218  14.358169
    13  C   -0.743813   0.076387  -0.635914  -0.194675  -0.953789  -1.554677
    14  C   -0.218500   0.896600  -1.355907  -1.148412   0.302315  -2.409400
    15  C   -0.319742   0.014487  -5.554652  -0.113411  -4.818327  -4.034480
    16  C   -0.337652  -0.146836  -0.299179   0.029253  -1.083146  -0.126310
    17  C   -0.077349  -0.053956  -0.127564  -0.111528   1.294117  -0.149645
    18  C    0.015063  -0.498147  -1.519919  -0.083969  -1.812057  -1.638151
    19  C   -0.618655  -0.185600  -0.178038  -0.057503  -0.038308  -0.016324
    20  C   -0.208572  -0.059686  -0.029765  -0.067408   0.019254   0.000823
    21  C   -1.785770  -0.090065  -0.313839  -0.068354  -0.203245  -0.043352
    22  C   -3.883739  -1.089631  -2.204912  -0.598724   0.074301  -0.242882
    23  C   -0.541702   0.037493  -5.203421  -0.172723  -0.702403  -2.070454
    24  H    0.006531   0.001617  -0.000645  -0.000008  -0.000206   0.000064
    25  H    0.007787   0.000198   0.000167   0.000273  -0.000052  -0.000005
    26  H    0.006665   0.000000  -0.000031   0.000100   0.000035  -0.000001
    27  H   -0.000294   0.000830   0.002524   0.007324   0.000005   0.000006
    28  H   -0.015451   0.012308   0.030844   0.076383   0.000933   0.000251
[...]
 51,-0.00000040,-0.00000942,0.00001604,0.00000320,0.00008518,0.00018671
 ,-0.00002495,-0.00016101,0.00016056,-0.00027305,-0.00018328,-0.0000438
 4,0.00007283,-0.00000816,0.00001903,0.00002145,-0.00029858,-0.00040757
 ,0.00006683,-0.00155521,-0.00406122,0.00359736,0.00136549,0.00011655,-
 0.00008062,0.00000831,-0.00055159,-0.00009310,-0.00209103,-0.00022200,
 0.00311815,-0.01501833,0.01065552,-0.00158181,0.11271671,-0.11636367,0
 .01897383,0.02767158,-0.00924578,0.00219667,0.00001548,0.00003435,0.00
 000033,0.00003485,-0.00002857,0.00000028,-0.00004251,-0.00001321,-0.00
 000868,0.00004663,0.00000993,0.,-0.00004477,-0.00021810,-0.00002822,-0
 .00000048,0.00000416,0.00000160,0.00000324,0.00000169,0.00000071,0.000
 00378,-0.00000006,0.00000016,0.00000408,-0.00000047,-0.00000016,0.0000
 0111,-0.00000518,0.00000139,-0.00000723,-0.00000271,-0.00000225,0.0001
 2533,-0.00009137,-0.00001943,-0.00003633,-0.00002201,0.00005706,-0.000
 53244,0.00059616,-0.00120675,-0.00069349,0.00033009,-0.00008331,0.0001
 4115,0.00018742,-0.00187304,-0.12174470,0.11886046,0.00003960,0.000025
 44,-0.00000412,-0.00001379,0.00000048,0.00000808,-0.00004809,0.0000483
 5,0.00002568,-0.00006112,-0.00008301,0.00000280,-0.00001981,-0.0000059
 3,-0.00000061,0.00000027,-0.00000680,-0.00000285,-0.00005911,-0.000087
 57,-0.00005466,-0.00014131,-0.00018135,-0.00058004,0.00006326,-0.00003
 928,0.00006824,0.00003871,-0.00000430,0.00003794,0.00042144,0.00007027
 ,-0.00036781,0.00076745,0.00328171,0.00486174,-0.00066530,0.00006496,0
 .00011773,0.00002245,0.00014434,-0.00039671,0.00073538,0.00352268,0.00
 761033,0.00656768,-0.00450602,0.00441831,-0.02096638,0.02025416,-0.044
 12861,-0.00947274,0.00309875,0.00284270,-0.00000499,-0.00004674,-0.000
 00347,-0.00004886,0.00003970,-0.00000206,0.00007194,0.00002398,-0.0000
 0276,-0.00010640,-0.00000862,0.00000270,0.00008799,0.00017338,0.000005
 61,-0.00000333,-0.00000442,0.00000401,-0.00000022,0.00000061,0.0000014
 6,-0.00000108,-0.00000171,0.00000182,-0.00000018,-0.00000064,0.0000012
 4,-0.00000083,0.00000049,0.00000149,0.00000250,-0.00000324,-0.00000107
 ,-0.00004656,0.00003369,0.00002142,0.00003537,0.00002198,0.00008271,-0
 .00005822,-0.00121311,-0.00268676,-0.00107048,0.00054151,-0.00031041,-
 0.00042860,-0.00182723,-0.00434296,0.02265998,-0.02299962,0.03252968,-
 0.00732230,-0.00113558,-0.00000289,-0.00503691,-0.01137405,-0.00016342
 ,0.01072083,-0.01356916,-0.00108893,0.00612793,0.00535423,-0.00125032,
 0.00084252,0.00117244,0.00008833,-0.00162826,-0.00098073,0.00025317,0.
 02360098,0.02537627,0.00719407,-0.00823932,-0.00524800,0.00050450,-0.0
 0768623,0.00582496,0.00086822,0.00194744,-0.00428640,0.00021452,-0.001
 47870,0.00277721,0.00005287,0.00564956,-0.00633309,0.00123080,-0.00297
 396,0.00473693,-0.00070782,0.00508039,-0.00082792,-0.00049746,-0.01643
 448,-0.01212614,-0.00660881,0.00051603,-0.00158058,-0.00040074,-0.0021
 8242,-0.00276230,0.00030392,-0.00497683,0.00479979,-0.00087890,0.00363
 519,0.00276006,0.00010103,0.00090159,0.00055479,-0.00010951,0.00565302
 ,0.00402513,0.00066034,-0.03562642,0.03116716,0.00334912,-0.12833658,0
 .02104566,0.00304669,0.00005653,-0.00052343,0.00025762,-0.00010667,-0.
 00008574,-0.00001833,0.00000036,0.00007790,0.00004047,-0.00000590,0.00
 012189,-0.00001814,0.00022493,-0.00010838,0.00002639,-0.00002099,-0.00
 013210,-0.00009406,-0.00003399,-0.00009984,0.00002383,-0.00000446,-0.0
 0008130,-0.00005597,-0.00001800,0.00010647,0.00009763,-0.00227261,0.00
 085956,0.00284698,-0.00008874,0.00033479,0.00033863,-0.00018750,-0.000
 15682,0.00011142,0.66674876,0.00455521,0.00156946,-0.00038965,-0.00334
 600,0.00822854,-0.00024285,-0.01129621,0.00221273,0.00078159,-0.001625
 05,-0.00362044,0.00106564,-0.00066222,-0.00062317,0.00003835,0.0003687
 5,0.00020513,-0.00018301,0.00955389,-0.04468392,-0.01239848,0.00540356
 ,0.00338887,-0.00087106,0.00458238,-0.00333047,-0.00020959,-0.00104820
 ,0.00241460,-0.00009979,0.00036790,0.00138012,0.00036197,-0.00309469,0
 .00296619,-0.00014939,0.00151890,-0.00230103,0.00020985,-0.00242285,0.
 00022084,0.00026107,-0.02212963,0.01051259,-0.00083945,-0.00154616,-0.
 00412508,-0.00188388,0.00026294,0.00273878,-0.00076723,0.00240330,-0.0
 0259851,0.00049236,-0.00228908,-0.00062052,-0.00000440,0.00025492,-0.0
 0144007,-0.00027424,-0.00500076,-0.00129707,-0.00027164,0.02140054,0.0
 0159892,0.00179630,0.07717719,-0.21890735,-0.04593259,-0.00061642,-0.0
 0035677,0.00026668,-0.00010786,0.00004773,0.00003996,-0.00002527,-0.00
 005393,0.00000611,-0.00001155,0.00014363,0.00005098,0.00006350,-0.0000
 0617,-0.00003508,0.00000266,0.00002089,-0.00001322,0.00002645,0.000020
 68,0.00000622,-0.00001696,-0.00001706,-0.00003407,0.00000400,-0.000095
 19,-0.00009812,0.00038322,0.00001865,-0.00216060,-0.00025980,0.0004361
 6,-0.00021946,-0.00024967,0.00000691,0.00038328,0.03004141,0.56498757,
 0.00033238,-0.00011940,0.00066616,-0.00070566,0.00115919,0.00214310,-0
 .00115640,-0.00032541,0.00320692,0.00094741,0.00036220,0.00036736,0.00
 012339,0.00019022,-0.00025203,-0.00025411,-0.00004837,-0.00001547,0.00
 257575,-0.00548849,0.00004778,-0.00035646,0.00133399,-0.00029056,0.001
 21418,-0.00101837,-0.00005535,-0.00135554,0.00061182,0.00000455,-0.000
 15950,0.00037347,0.00041272,-0.00129054,0.00016400,0.00042886,0.000183
 26,-0.00049605,-0.00008523,-0.00060993,-0.00003627,0.00012356,-0.01505
 380,-0.00025873,-0.00220334,0.00016407,-0.00222069,-0.00026242,-0.0006
 7096,0.00065534,0.00033880,0.00080005,-0.00066969,0.00002613,-0.000148
 47,0.00019497,0.00003500,0.00017773,-0.00060255,-0.00036838,-0.0010539
 5,0.00005407,-0.00055834,0.00353840,0.00011526,0.00256281,0.02624294,-
 0.05947539,-0.06884941,-0.00022055,-0.00021330,0.00020620,-0.00004567,
 0.00001585,0.00001706,-0.00000013,-0.00001064,0.00006973,-0.00000788,0
 .00001914,-0.00010933,0.00002126,-0.00001335,-0.00009755,-0.00000640,-
 0.00001277,0.00002136,0.00000905,0.00000157,0.00002895,0.00000090,-0.0
 0005861,-0.00002617,-0.00000341,-0.00004395,-0.00003020,-0.00156260,-0
 .00012939,0.00175312,-0.00007638,0.00005415,-0.00028377,-0.00020306,-0
 .00005387,0.00014630,0.05675905,0.17109350,0.19372521,0.00520160,0.001
 58009,-0.00007228,-0.00139317,0.00743269,0.00051186,-0.00831217,0.0054
 2861,0.00123340,-0.00298515,-0.00371358,0.00099192,-0.00075091,-0.0006
 7652,-0.00008585,0.00074839,0.00040066,-0.00015684,-0.00491804,-0.0206
 0850,-0.00630246,0.00354401,0.00538447,-0.00131540,0.00381098,-0.00395
 923,-0.00004959,-0.00065503,0.00233601,-0.00006847,0.00261094,-0.01337
 609,0.00533574,-0.00227040,0.00467617,-0.00150763,0.00135474,-0.002066
 23,-0.00008814,-0.00172559,0.00082281,0.00014701,-0.10628794,-0.016423
 45,-0.03495851,-0.03616039,-0.01900314,-0.02049562,0.00088536,0.006473
 69,-0.00274024,0.00190987,-0.00379752,0.00133184,-0.00241366,-0.001696
 28,-0.00002838,-0.00050834,-0.00036503,-0.00006781,-0.00273146,-0.0023
 1724,-0.00074852,0.01764111,-0.00114432,0.00228857,-0.05583799,0.06838
 445,0.02023082,-0.00012635,-0.00009344,-0.00015511,0.00000926,0.000039
 57,0.00004224,-0.00002192,-0.00005990,-0.00001088,0.00000191,0.0000467
 7,0.00000568,-0.00004024,0.00002604,-0.00003527,-0.00001169,0.00007575
 ,0.00000640,0.00000458,0.00004428,0.00000754,-0.00001687,0.00017214,-0
 .00011853,0.00009291,-0.00015787,-0.00015344,0.00541858,0.00061141,0.0
 0053587,0.00116400,-0.00084225,0.00038400,-0.00037667,0.00022138,0.001
 42430,-0.37066565,-0.02561885,-0.03211042,0.67494889,0.00081572,0.0002
 4579,0.00023558,0.00092377,-0.00078601,-0.00004398,0.00142283,-0.00023
 909,-0.00030148,-0.00095829,0.00025990,-0.00003149,-0.00022844,-0.0001
 7043,0.00001027,0.00055108,-0.00002188,-0.00001940,0.00074050,0.001650
 69,-0.00055422,0.00047832,0.00195424,0.00112443,-0.00081070,-0.0006846
 8,0.00077655,0.00037373,-0.00015306,-0.00011873,-0.01498222,-0.0237806
 9,-0.01179390,0.00218572,-0.00250038,-0.00018246,-0.00076395,0.0008827
 5,0.00084797,0.00064649,0.00005355,-0.00023749,-0.03111435,-0.11367938
 ,-0.04127971,-0.00112515,0.01082027,0.00362421,0.00282587,-0.00221553,
 -0.00079471,-0.00063695,0.00047233,-0.00009436,-0.00034626,-0.00096825
 ,-0.00005608,-0.00037000,0.00075807,0.00013759,0.00043871,-0.00059416,
 0.00017237,-0.00056550,-0.00355399,-0.00227995,0.03341510,0.00117869,-
 0.00067137,0.00032844,0.00032470,-0.00009242,0.00007220,0.00000800,-0.
 00001782,0.00001719,0.00000361,-0.00000969,0.00002226,-0.00006948,-0.0
 0001384,-0.00001990,-0.00000554,0.00000350,-0.00006421,0.00008357,0.00
 003635,0.00001519,0.00004555,-0.00009945,-0.00003497,-0.00010625,0.000
 00400,-0.00000924,0.00016247,0.00013865,-0.00468984,-0.00639316,-0.009
 17912,0.00154821,0.00007638,0.00124231,0.00067327,0.00020435,-0.000658
 00,0.03138401,-0.10151146,-0.01883642,-0.09577752,0.47298760,0.0008064
 6,0.00008929,-0.00034583,-0.00016307,-0.00051888,-0.00001719,0.0001926
 0,0.00039172,-0.00031221,-0.00070562,-0.00054803,0.00018485,-0.0001156
 5,0.00009061,-0.00002429,-0.00003995,-0.00002784,-0.00000226,0.0003370
 3,-0.00052567,-0.00152983,0.00069977,-0.00042847,0.00017564,0.00059006
 ,-0.00029785,-0.00013197,0.00023012,0.00000727,0.00000200,0.00874546,-
 0.00250732,0.00820673,-0.00232785,0.00476357,-0.00111360,0.00140125,-0
 .00131978,-0.00004810,-0.00098326,0.00064701,0.00004602,-0.03136193,-0
 .03162845,-0.08226248,-0.00924280,-0.00015717,-0.00136126,0.00237611,0
 .00026661,-0.00150406,0.00050947,-0.00196593,0.00037915,-0.00028337,-0
 .00088905,0.00000473,-0.00064761,0.00084379,-0.00002990,0.00096449,0.0
 0022655,-0.00002433,-0.00140807,-0.00263423,0.00340038,0.01335394,-0.0
 0043879,0.00636440,0.00007493,0.00013121,-0.00004680,0.00003074,0.0000
 1253,0.00000083,0.00000709,-0.00001790,0.00001290,0.00001778,-0.000032
 78,0.00000671,-0.00001983,-0.00000322,0.00001054,-0.00004399,0.0000520
 7,-0.00003354,-0.00002108,0.00004641,0.00001449,0.00001053,0.00033235,
 -0.00017436,0.00012665,-0.00000746,0.00009297,-0.01680465,-0.02111824,
 -0.02222010,0.00083879,-0.00076089,0.00098454,0.00041914,0.00025974,0.
 00007685,-0.02409443,-0.02153763,-0.06292427,0.02802016,0.17261488,0.2
 2303532,-0.00012196,-0.00012316,-0.00000315,0.00010114,-0.00033383,-0.
 00005224,0.00077579,0.00066932,-0.00019332,-0.00013836,0.00006546,-0.0
 0005722,0.00004146,0.00003973,-0.00001222,-0.00001748,0.00005110,0.000
 01889,-0.00155325,0.00267825,0.00030346,-0.00053171,-0.00009303,0.0001
 0787,-0.00015956,0.00012293,0.00003259,0.00013099,-0.00009832,-0.00000
 662,0.00011104,0.00032391,-0.00011410,0.00018985,-0.00032012,0.0001102
 3,-0.00007539,0.00019882,-0.00001627,0.00018874,-0.00002829,-0.0000192
 1,-0.00355128,0.00230274,0.00110879,-0.00027442,-0.00106298,-0.0004908
 8,-0.00033492,0.00022705,-0.00006472,-0.00018307,0.00016143,-0.0000273
 8,0.00011561,-0.00003754,0.00003394,-0.00015451,0.00002912,-0.00010738
 ,0.00041323,0.00037080,-0.00000779,-0.00061934,-0.00011720,0.00032362,
 0.01263700,0.01268725,0.00485944,-0.00033182,-0.00008601,0.00017575,0.
 00001880,0.00000141,0.00000936,0.00000454,-0.00002645,0.00000829,0.000
 00316,-0.00001004,-0.00000038,-0.00002555,0.00000956,0.00001839,0.0000
 0644,-0.00000631,-0.00000671,0.00001609,-0.00000491,-0.00000217,-0.000
 00781,-0.00001787,-0.00001108,-0.00000569,-0.00001948,-0.00001602,0.00
 026140,0.00016728,0.00006107,-0.00007422,0.00008566,-0.00003663,-0.000
 10192,-0.00002783,0.00010984,-0.12543271,-0.10452658,-0.04658554,-0.01
 401555,-0.02636459,-0.01423393,0.13199751,-0.00024732,0.00000176,-0.00
 003699,0.00001732,-0.00064999,-0.00012236,-0.00038204,-0.00128336,0.00
 019506,0.00039475,0.00007058,0.00029971,0.00005860,-0.00000670,-0.0000
 1161,-0.00011032,-0.00005870,0.00001452,0.00351456,0.00006009,-0.00312
 005,0.00012421,-0.00005820,0.00005733,-0.00016574,0.00000942,0.0001261
 7,0.00005785,-0.00011755,-0.00003328,0.00041800,0.00020121,0.00027004,
 -0.00004031,0.00007154,0.00001201,0.00001755,0.00006350,-0.00003756,0.
 00008641,-0.00001924,0.00000114,0.00139776,0.00262407,-0.00125612,-0.0
 0010895,0.00000993,-0.00005013,0.00000122,-0.00000076,-0.00006150,-0.0
 0008540,0.00003879,0.00001030,0.00003684,0.00009655,-0.00000004,0.0002
 1288,0.00029555,0.00010565,0.00053278,-0.00004362,-0.00007835,-0.00174
 076,0.00076571,0.00161533,-0.01166681,-0.02170597,-0.00941307,0.000305
 31,0.00036721,-0.00013962,0.00001157,-0.00000676,0.00000101,0.00000574
 ,0.00003169,-0.00001689,0.00001129,0.00000375,-0.00000278,0.00004412,-
 0.00002754,-0.00001157,-0.00000918,-0.00001678,-0.00002203,-0.00001113
 ,-0.00001550,0.00000786,-0.00000963,0.00001042,-0.00000717,-0.00000479
 ,0.00000064,0.00000085,-0.00013447,-0.00027865,-0.00025897,-0.00001145
 ,-0.00000024,0.00000048,-0.00000168,-0.00000343,-0.00000409,-0.1098860
 7,-0.21825106,-0.08333859,0.00453287,0.00350151,0.00017569,0.11293004,
 0.23418802,0.00049254,0.00023998,0.00008043,0.00006378,0.00074526,0.00
 025352,-0.00141103,0.00006678,0.00017759,-0.00016307,-0.00039354,-0.00
 032816,-0.00007426,-0.00012636,0.00001290,0.00010985,0.00001782,-0.000
 03407,0.00118848,-0.00266292,0.00337091,0.00057576,0.00028114,-0.00017
 906,0.00042374,-0.00028141,-0.00030484,-0.00012944,0.00030882,0.000050
 01,-0.00092895,-0.00097962,-0.00046887,-0.00015217,0.00018679,-0.00012
 808,0.00010134,-0.00035391,0.00011253,-0.00035949,-0.00000215,0.000040
 21,-0.00096864,-0.00298570,0.00647001,-0.00019650,-0.00008134,0.000116
 07,0.00007428,0.00028913,-0.00008510,0.00038660,-0.00029569,0.00004766
 ,-0.00026416,-0.00018488,-0.00000188,0.00001509,0.00017380,-0.00004172
 ,-0.00016788,-0.00069911,-0.00013237,0.00153461,0.00069663,-0.00173762
 ,-0.01020423,0.00042926,0.00282345,0.00027223,0.00016058,0.00019603,0.
 00000725,-0.00000129,-0.00000143,-0.00000337,0.00001535,0.00001454,0.0
 0000375,0.00000811,-0.00000113,0.00002195,-0.00000915,0.00000072,0.000
 00544,0.00000335,0.00005123,-0.00001095,-0.00000327,-0.00000479,-0.000
 00605,-0.00002339,0.00001869,-0.00001540,-0.00000543,-0.00000316,0.000
 69121,0.00062753,0.00072782,-0.00002305,-0.00000417,-0.00001279,-0.000
 00677,0.00000047,0.00000042,-0.03878500,-0.08957829,-0.07687557,-0.007
 13293,-0.00155924,0.00378270,0.05456557,0.09305743,0.06649732,0.000050
 09,0.00010792,0.00000411,-0.00050335,0.00012677,0.00007496,-0.00005855
 ,0.00013589,-0.00000604,-0.00000315,0.00004358,0.00000297,-0.00003721,
 -0.00000824,-0.00000322,0.00001111,0.00002727,-0.00000038,-0.00011943,
 -0.00041303,-0.00003348,0.00002381,-0.00011292,0.00016748,0.00005715,0
 .00009696,0.00003532,-0.00005271,0.00004185,-0.00000362,-0.00096028,0.
 00019334,-0.00177418,-0.00004429,-0.00054005,0.00043095,-0.00003164,0.
 00003305,0.00014544,-0.00009282,-0.00016132,0.00001148,0.00602317,-0.0
 1493495,-0.00793281,0.00070078,-0.00171961,-0.00026948,-0.00022982,-0.
 00026782,-0.00005059,0.00023929,0.00006376,-0.00018984,-0.00002850,0.0
 0005923,0.00000341,0.00003130,-0.00009988,-0.00002283,-0.00014450,0.00
 004067,-0.00000120,0.00044113,0.00118536,0.00020325,-0.00531940,-0.001
 06088,-0.00095979,-0.00001875,-0.00003300,0.00001614,-0.00003346,0.000
 00205,-0.00000200,-0.00001150,0.00000355,0.00000440,-0.00000766,0.0000
 2233,-0.00000499,-0.00000221,0.00001064,0.00000036,0.00000651,0.000004
 08,-0.00000702,0.00000516,0.00000803,-0.00000714,-0.00000366,-0.000056
 91,0.00000050,-0.00002334,0.00002397,0.00000012,-0.00071497,-0.0012690
 4,-0.00127536,-0.00008893,-0.00002837,-0.00038050,-0.00002005,0.000015
 73,0.00005783,-0.01094645,0.02752307,0.01054758,-0.10712197,0.09998348
 ,0.04274453,0.00069773,-0.00009561,0.00046986,0.11833135,-0.00010004,-
 0.00008175,0.00000599,0.00023769,0.00015164,0.00017604,0.00008572,-0.0
 0010636,0.00004658,0.00012122,0.00013424,-0.00001271,0.00004314,0.0000
 1477,-0.00000347,-0.00000663,-0.00000356,0.00000273,-0.00043601,0.0005
 7133,0.00005070,-0.00004719,-0.00007896,0.00019794,-0.00017713,0.00013
 863,0.00008600,-0.00002169,-0.00005913,0.00002373,-0.00087265,0.000191
 27,-0.00148904,0.00034950,-0.00089678,0.00022395,-0.00022353,0.0002494
 2,0.00006884,0.00021927,-0.00016447,0.00000248,0.00751024,-0.01130775,
 -0.00693951,0.00279098,0.00077710,0.00119006,-0.00074432,-0.00024863,0
 .00049074,-0.00024556,0.00044545,-0.00021311,0.00003136,0.00015829,0.0
 0001757,0.00017495,-0.00015988,-0.00003663,-0.00029539,-0.00016435,-0.
 00001703,0.00047282,-0.00026872,0.00006273,-0.00017735,0.00301988,-0.0
 0289292,-0.00001212,0.00001008,0.00002330,0.00001360,-0.00000423,-0.00
 000804,0.00000545,0.00000138,0.00000471,0.00000188,-0.00000725,-0.0000
 1029,0.00000195,-0.00000488,-0.00000425,0.00000391,-0.00001817,-0.0000
 1990,0.00000014,-0.00001297,-0.00000680,-0.00002230,-0.00006610,-0.000
 01998,-0.00003178,0.00001822,-0.00002364,-0.00109953,-0.00148422,-0.00
 079082,-0.00045691,0.00054420,-0.00037780,-0.00010944,-0.00007008,-0.0
 0004808,-0.00122302,0.00072028,-0.00292845,0.10300709,-0.23824062,-0.0
 9358571,0.00018266,0.00013211,0.00292261,-0.10895098,0.24617058,-0.000
 04441,-0.00002774,-0.00005266,-0.00009729,-0.00008296,-0.00032699,-0.0
 0038612,0.00026218,-0.00000306,0.00002314,-0.00006983,-0.00001534,0.00
 003624,0.00004287,0.00002344,-0.00010741,0.00004679,-0.00000216,0.0002
 0588,-0.00105263,-0.00044135,0.00012252,-0.00031917,0.00025256,0.00067
 153,-0.00014979,-0.00007783,-0.00034014,0.00021315,-0.00000134,-0.0011
 9765,0.00094264,-0.00196204,-0.00028724,0.00037291,-0.00041044,0.00041
 947,-0.00080975,0.00026532,-0.00090355,0.00005651,0.00006842,0.0013826
 0,-0.01140083,0.00141569,0.00026612,-0.00191590,0.00065547,0.00017666,
 0.00086671,-0.00042192,0.00084043,-0.00063866,0.00001021,-0.00001388,-
 0.00003070,-0.00001499,-0.00010102,0.00017239,0.00005177,0.00035813,0.
 00019999,0.00003040,-0.00076152,0.00032997,0.00007228,-0.00010574,-0.0
 0219855,0.00642986,0.00001434,-0.00001461,-0.00003270,-0.00001133,0.00
 000212,0.00000674,0.00000031,0.00000096,-0.00001119,0.00000225,0.00001
 084,0.00002060,-0.00000072,0.00000151,0.00000528,0.00000461,0.00000461
 ,0.00002635,0.00000008,-0.00000028,-0.00002884,0.00002176,-0.00004008,
 0.00009842,-0.00001938,0.00003186,-0.00001426,-0.00012520,-0.00038059,
 -0.00142855,-0.00052019,0.00039094,-0.00036514,-0.00005499,-0.00001707
 ,0.00001567,-0.00359489,0.00133985,0.00695569,0.04590497,-0.09204332,-
 0.07267538,0.00021787,0.00207217,-0.00450410,-0.04199621,0.10383147,0.
 06638607\\0.00000138,0.00000464,0.00000459,-0.00000223,0.00000184,-0.0
 0001324,0.00000153,-0.00000155,-0.00001320,0.00000767,0.00000862,0.000
 00021,0.00000093,-0.00000018,-0.00000154,-0.00000642,-0.00000414,-0.00
 000015,-0.00002737,-0.00003895,0.00002881,0.00001894,0.00001631,-0.000
 00396,0.00002009,0.00000305,-0.00000338,-0.00001835,0.00000363,0.00000
 271,-0.00002144,-0.00000678,-0.00001120,0.00000532,0.00003436,-0.00001
 744,0.00000055,-0.00002118,0.00001133,-0.00001387,-0.00000703,0.000003
 30,0.00002698,0.00000190,0.00000284,-0.00002023,0.00000067,-0.00000625
 ,0.00000214,0.00001272,-0.00000877,0.00001212,-0.00002052,0.00001187,-
 0.00000268,-0.00001115,0.00000119,-0.00001224,0.00001020,0.00000343,0.
 00002186,0.00000565,0.00001432,-0.00001982,-0.00002133,-0.00000002,0.0
 0004218,0.00004503,-0.00001574,-0.00000352,-0.00000147,0.00000013,0.00
 000119,-0.00000076,0.00000169,0.00000001,0.00000034,0.00000277,0.00000
 004,0.00000053,0.00000239,0.00000078,0.00000031,0.00000044,0.00000284,
 -0.00000150,-0.00000131,0.00000197,-0.00000054,-0.00000569,-0.00000004
 ,0.00000174,-0.00000458,-0.00000220,0.00000600,-0.00000855,-0.00000350
 ,-0.00000948,-0.00000368,0.00000192,-0.00001099,0.00000509,0.00000097,
 0.00000139,0.00000563,0.00000329,-0.00001498,0.00001725,-0.00003202,0.
 00001672,-0.00000764,-0.00001164,-0.00000119,0.00000175,0.00002286,-0.
 00000193,0.00000459\\\@


 A politician is a person who can make waves and then
 make you think he's the only one who can save the ship.
 -- Ivern Ball
 Job cpu time:       1 days  1 hours 49 minutes 59.2 seconds.
 Elapsed time:       0 days  1 hours 17 minutes 43.0 seconds.
 File lengths (MBytes):  RWF=   2748 Int=      0 D2E=      0 Chk=     48 Scr=      1
 Normal termination of Gaussian 16 at Fri Jun 21 21:23:05 2019.
