 Entering Gaussian System, Link 0=g09
 Initial command:
 /usr/local/Cluster-Apps/gaussian/g09/l1.exe "/rds/user/am2145/hpc-work/scratch/19187572/Gau-103098.inp" -scrdir="/rds/user/am2145/hpc-work/scratch/19187572/"
 Entering Link 1 = /usr/local/Cluster-Apps/gaussian/g09/l1.exe PID=    103099.
  
 Copyright (c) 1988,1990,1992,1993,1995,1998,2003,2009,2013,
            Gaussian, Inc.  All Rights Reserved.
  
 This is part of the Gaussian(R) 09 program.  It is based on
 the Gaussian(R) 03 system (copyright 2003, Gaussian, Inc.),
 the Gaussian(R) 98 system (copyright 1998, Gaussian, Inc.),
 the Gaussian(R) 94 system (copyright 1995, Gaussian, Inc.),
 the Gaussian 92(TM) system (copyright 1992, Gaussian, Inc.),
 the Gaussian 90(TM) system (copyright 1990, Gaussian, Inc.),
 the Gaussian 88(TM) system (copyright 1988, Gaussian, Inc.),
 the Gaussian 86(TM) system (copyright 1986, Carnegie Mellon
 University), and the Gaussian 82(TM) system (copyright 1983,
 Carnegie Mellon University). Gaussian is a federally registered
 trademark of Gaussian, Inc.
  
 This software contains proprietary and confidential information,
 including trade secrets, belonging to Gaussian, Inc.
  
 This software is provided under written license and may be
 used, copied, transmitted, or stored only in accord with that
 written license.
  
 The following legend is applicable only to US Government
 contracts under FAR:
  
                    RESTRICTED RIGHTS LEGEND
  
 Use, reproduction and disclosure by the US Government is
 subject to restrictions as set forth in subparagraphs (a)
 and (c) of the Commercial Computer Software - Restricted
 Rights clause in FAR 52.227-19.
  
 Gaussian, Inc.
 340 Quinnipiac St., Bldg. 40, Wallingford CT 06492
  
  
 ---------------------------------------------------------------
 Warning -- This program may not be used in any manner that
 competes with the business of Gaussian, Inc. or will provide
 assistance to any competitor of Gaussian, Inc.  The licensee
 of this program is prohibited from giving any competitor of
 Gaussian, Inc. access to this program.  By using this program,
 the user acknowledges that Gaussian, Inc. is engaged in the
 business of creating and licensing software in the field of
 computational chemistry and represents and warrants to the
 licensee that it is not a competitor of Gaussian, Inc. and that
 it will not use this program in any manner prohibited above.
 ---------------------------------------------------------------
  

 Cite this work as:
 Gaussian 09, Revision D.01,
 M. J. Frisch, G. W. Trucks, H. B. Schlegel, G. E. Scuseria, 
 M. A. Robb, J. R. Cheeseman, G. Scalmani, V. Barone, B. Mennucci, 
 G. A. Petersson, H. Nakatsuji, M. Caricato, X. Li, H. P. Hratchian, 
 A. F. Izmaylov, J. Bloino, G. Zheng, J. L. Sonnenberg, M. Hada, 
 M. Ehara, K. Toyota, R. Fukuda, J. Hasegawa, M. Ishida, T. Nakajima, 
 Y. Honda, O. Kitao, H. Nakai, T. Vreven, J. A. Montgomery, Jr., 
 J. E. Peralta, F. Ogliaro, M. Bearpark, J. J. Heyd, E. Brothers, 
 K. N. Kudin, V. N. Staroverov, T. Keith, R. Kobayashi, J. Normand, 
 K. Raghavachari, A. Rendell, J. C. Burant, S. S. Iyengar, J. Tomasi, 
 M. Cossi, N. Rega, J. M. Millam, M. Klene, J. E. Knox, J. B. Cross, 
 V. Bakken, C. Adamo, J. Jaramillo, R. Gomperts, R. E. Stratmann, 
 O. Yazyev, A. J. Austin, R. Cammi, C. Pomelli, J. W. Ochterski, 
 R. L. Martin, K. Morokuma, V. G. Zakrzewski, G. A. Voth, 
 P. Salvador, J. J. Dannenberg, S. Dapprich, A. D. Daniels, 
 O. Farkas, J. B. Foresman, J. V. Ortiz, J. Cioslowski, 
 and D. J. Fox, Gaussian, Inc., Wallingford CT, 2013.
 
 ******************************************
 Gaussian 09:  ES64L-G09RevD.01 24-Apr-2013
                 2-Feb-2020 
 ******************************************
 %NProcShared=20
 Will use up to   20 processors via shared memory.
 %mem=64GB
 %Chk=BS7ring.chk
 ------------------------------
 #n opt freq b3lyp/6-311+g(d,p)
 ------------------------------
 1/14=-1,18=20,19=15,26=3,38=1/1,3;
 2/9=110,12=2,17=6,18=5,40=1/2;
 3/5=4,6=6,7=111,11=2,16=1,25=1,30=1,71=1,74=-5/1,2,3;
 4//1;
 5/5=2,38=5/2;
 6/7=2,8=2,9=2,10=2,28=1/1;
 7//1,2,3,16;
 1/14=-1,18=20,19=15,26=3/3(2);
 2/9=110/2;
 99//99;
 2/9=110/2;
 3/5=4,6=6,7=111,11=2,16=1,25=1,30=1,71=1,74=-5/1,2,3;
 4/5=5,16=3,69=1/1;
 5/5=2,38=5/2;
 7//1,2,3,16;
 1/14=-1,18=20,19=15,26=3/3(-5);
 2/9=110/2;
 6/7=2,8=2,9=2,10=2,19=2,28=1/1;
 99/9=1/99;
 -------
 BS7ring
 -------
 Symbolic Z-matrix:
 Charge =  0 Multiplicity = 3
 C                     3.58943   0.78446   0.16088 
 C                     2.49159  -0.12614  -0.01875 
 C                     1.13338   0.46665  -0.08495 
 C                     1.01905   1.89421  -0.04958 
 C                     3.39623   2.20298   0.18318 
 C                     2.16803   2.73747   0.06084 
 C                    -0.12397  -0.26544  -0.15197 
 C                    -1.39932   0.4042   -0.04632 
 C                    -1.42594   1.82621  -0.11365 
 C                    -0.22686   2.52611  -0.11894 
 C                    -2.68079  -0.29215   0.08504 
 C                    -3.89355   0.45655  -0.0318 
 C                    -3.84952   1.88133  -0.1937 
 C                    -2.66979   2.53948  -0.19626 
 C                    -2.81511  -1.6695    0.37782 
 C                    -4.0488   -2.28598   0.47263 
 C                    -5.22765  -1.55145   0.28826 
 C                    -5.14081  -0.19532   0.05264 
 C                     4.92398   0.34599   0.31548 
 C                     5.23892  -0.98883   0.28537 
 C                     4.2126   -1.89923   0.06714 
 C                     2.8662   -1.53257  -0.10021 
 C                    -0.15232  -1.63311  -0.41092 
 H                     4.45381  -2.95399   0.00809 
 H                     6.26002  -1.32988   0.41 
 H                     5.69449   1.09547   0.45603 
 H                     4.27085   2.83347   0.29699 
 H                     2.01814   3.81128   0.06932 
 H                    -0.25201   3.61004  -0.15247 
 H                    -2.63329   3.62043  -0.27721 
 H                    -4.78718   2.41992  -0.28098 
 H                    -6.04152   0.39953  -0.05774 
 H                    -1.92742  -2.25994   0.55901 
 H                    -4.09915  -3.34419   0.70338 
 H                    -6.194    -2.03841   0.35267 
 C                     0.66433  -2.71501  -0.56613 
 C                     2.02794  -2.67413  -0.39339 
 H                     0.21318  -3.67108  -0.82585 
 H                     2.56068  -3.61322  -0.49751 
 

 GradGradGradGradGradGradGradGradGradGradGradGradGradGradGradGradGradGrad
 Berny optimization.
 Initialization pass.
                           ----------------------------
                           !    Initial Parameters    !
                           ! (Angstroms and Degrees)  !
 --------------------------                            --------------------------
 ! Name  Definition              Value          Derivative Info.                !
 --------------------------------------------------------------------------------
 ! R1    R(1,2)                  1.4376         estimate D2E/DX2                !
 ! R2    R(1,5)                  1.4318         estimate D2E/DX2                !
 ! R3    R(1,19)                 1.4132         estimate D2E/DX2                !
 ! R4    R(2,3)                  1.4834         estimate D2E/DX2                !
 ! R5    R(2,22)                 1.4577         estimate D2E/DX2                !
 ! R6    R(3,4)                  1.4326         estimate D2E/DX2                !
 ! R7    R(3,7)                  1.4565         estimate D2E/DX2                !
 ! R8    R(4,6)                  1.4295         estimate D2E/DX2                !
 ! R9    R(4,10)                 1.3987         estimate D2E/DX2                !
 ! R10   R(5,6)                  1.345          estimate D2E/DX2                !
 ! R11   R(5,27)                 1.0842         estimate D2E/DX2                !
 ! R12   R(6,28)                 1.0843         estimate D2E/DX2                !
 ! R13   R(7,8)                  1.4443         estimate D2E/DX2                !
 ! R14   R(7,23)                 1.3923         estimate D2E/DX2                !
 ! R15   R(8,9)                  1.4239         estimate D2E/DX2                !
 ! R16   R(8,11)                 1.4644         estimate D2E/DX2                !
 ! R17   R(9,10)                 1.3884         estimate D2E/DX2                !
 ! R18   R(9,14)                 1.4362         estimate D2E/DX2                !
 ! R19   R(10,29)                1.0847         estimate D2E/DX2                !
 ! R20   R(11,12)                1.43           estimate D2E/DX2                !
 ! R21   R(11,15)                1.4145         estimate D2E/DX2                !
 ! R22   R(12,13)                1.4346         estimate D2E/DX2                !
 ! R23   R(12,18)                1.4099         estimate D2E/DX2                !
 ! R24   R(13,14)                1.3509         estimate D2E/DX2                !
 ! R25   R(13,31)                1.0849         estimate D2E/DX2                !
 ! R26   R(14,30)                1.0846         estimate D2E/DX2                !
 ! R27   R(15,16)                1.3824         estimate D2E/DX2                !
 ! R28   R(15,33)                1.0814         estimate D2E/DX2                !
 ! R29   R(16,17)                1.4011         estimate D2E/DX2                !
 ! R30   R(16,34)                1.0842         estimate D2E/DX2                !
 ! R31   R(17,18)                1.3792         estimate D2E/DX2                !
 ! R32   R(17,35)                1.084          estimate D2E/DX2                !
 ! R33   R(18,32)                1.085          estimate D2E/DX2                !
 ! R34   R(19,20)                1.3718         estimate D2E/DX2                !
 ! R35   R(19,26)                1.084          estimate D2E/DX2                !
 ! R36   R(20,21)                1.3892         estimate D2E/DX2                !
 ! R37   R(20,25)                1.0837         estimate D2E/DX2                !
 ! R38   R(21,22)                1.4054         estimate D2E/DX2                !
 ! R39   R(21,24)                1.0836         estimate D2E/DX2                !
 ! R40   R(22,37)                1.4463         estimate D2E/DX2                !
 ! R41   R(23,36)                1.3644         estimate D2E/DX2                !
 ! R42   R(36,37)                1.3751         estimate D2E/DX2                !
 ! R43   R(36,38)                1.0886         estimate D2E/DX2                !
 ! R44   R(37,39)                1.0847         estimate D2E/DX2                !
 ! A1    A(2,1,5)              121.7655         estimate D2E/DX2                !
 ! A2    A(2,1,19)             122.5675         estimate D2E/DX2                !
 ! A3    A(5,1,19)             115.665          estimate D2E/DX2                !
 ! A4    A(1,2,3)              116.8502         estimate D2E/DX2                !
 ! A5    A(1,2,22)             114.9518         estimate D2E/DX2                !
 ! A6    A(3,2,22)             128.1951         estimate D2E/DX2                !
 ! A7    A(2,3,4)              118.0463         estimate D2E/DX2                !
 ! A8    A(2,3,7)              126.2708         estimate D2E/DX2                !
 ! A9    A(4,3,7)              115.6658         estimate D2E/DX2                !
 ! A10   A(3,4,6)              121.7088         estimate D2E/DX2                !
 ! A11   A(3,4,10)             121.3361         estimate D2E/DX2                !
 ! A12   A(6,4,10)             116.955          estimate D2E/DX2                !
 ! A13   A(1,5,6)              121.0305         estimate D2E/DX2                !
 ! A14   A(1,5,27)             117.9649         estimate D2E/DX2                !
 ! A15   A(6,5,27)             121.004          estimate D2E/DX2                !
 ! A16   A(4,6,5)              120.4351         estimate D2E/DX2                !
 ! A17   A(4,6,28)             118.2754         estimate D2E/DX2                !
 ! A18   A(5,6,28)             121.2702         estimate D2E/DX2                !
 ! A19   A(3,7,8)              121.7265         estimate D2E/DX2                !
 ! A20   A(3,7,23)             121.3255         estimate D2E/DX2                !
 ! A21   A(8,7,23)             116.8123         estimate D2E/DX2                !
 ! A22   A(7,8,9)              118.4299         estimate D2E/DX2                !
 ! A23   A(7,8,11)             123.9738         estimate D2E/DX2                !
 ! A24   A(9,8,11)             117.568          estimate D2E/DX2                !
 ! A25   A(8,9,10)             119.1753         estimate D2E/DX2                !
 ! A26   A(8,9,14)             120.9906         estimate D2E/DX2                !
 ! A27   A(10,9,14)            119.8272         estimate D2E/DX2                !
 ! A28   A(4,10,9)             122.7762         estimate D2E/DX2                !
 ! A29   A(4,10,29)            118.2695         estimate D2E/DX2                !
 ! A30   A(9,10,29)            118.9352         estimate D2E/DX2                !
 ! A31   A(8,11,12)            119.0684         estimate D2E/DX2                !
 ! A32   A(8,11,15)            124.3819         estimate D2E/DX2                !
 ! A33   A(12,11,15)           116.4988         estimate D2E/DX2                !
 ! A34   A(11,12,13)           120.2089         estimate D2E/DX2                !
 ! A35   A(11,12,18)           120.2178         estimate D2E/DX2                !
 ! A36   A(13,12,18)           119.5446         estimate D2E/DX2                !
 ! A37   A(12,13,14)           120.7216         estimate D2E/DX2                !
 ! A38   A(12,13,31)           118.3991         estimate D2E/DX2                !
 ! A39   A(14,13,31)           120.849          estimate D2E/DX2                !
 ! A40   A(9,14,13)            120.9477         estimate D2E/DX2                !
 ! A41   A(9,14,30)            118.0413         estimate D2E/DX2                !
 ! A42   A(13,14,30)           121.0034         estimate D2E/DX2                !
 ! A43   A(11,15,16)           122.22           estimate D2E/DX2                !
 ! A44   A(11,15,33)           119.234          estimate D2E/DX2                !
 ! A45   A(16,15,33)           118.5279         estimate D2E/DX2                !
 ! A46   A(15,16,17)           120.5329         estimate D2E/DX2                !
 ! A47   A(15,16,34)           119.4247         estimate D2E/DX2                !
 ! A48   A(17,16,34)           120.0384         estimate D2E/DX2                !
 ! A49   A(16,17,18)           119.011          estimate D2E/DX2                !
 ! A50   A(16,17,35)           120.4444         estimate D2E/DX2                !
 ! A51   A(18,17,35)           120.5298         estimate D2E/DX2                !
 ! A52   A(12,18,17)           121.3705         estimate D2E/DX2                !
 ! A53   A(12,18,32)           118.3465         estimate D2E/DX2                !
 ! A54   A(17,18,32)           120.2767         estimate D2E/DX2                !
 ! A55   A(1,19,20)            121.0844         estimate D2E/DX2                !
 ! A56   A(1,19,26)            118.0916         estimate D2E/DX2                !
 ! A57   A(20,19,26)           120.8238         estimate D2E/DX2                !
 ! A58   A(19,20,21)           118.1332         estimate D2E/DX2                !
 ! A59   A(19,20,25)           121.3323         estimate D2E/DX2                !
 ! A60   A(21,20,25)           120.5258         estimate D2E/DX2                !
 ! A61   A(20,21,22)           123.7453         estimate D2E/DX2                !
 ! A62   A(20,21,24)           118.8173         estimate D2E/DX2                !
 ! A63   A(22,21,24)           117.4327         estimate D2E/DX2                !
 ! A64   A(2,22,21)            119.4219         estimate D2E/DX2                !
 ! A65   A(2,22,37)            128.6013         estimate D2E/DX2                !
 ! A66   A(21,22,37)           111.9294         estimate D2E/DX2                !
 ! A67   A(7,23,36)            141.9926         estimate D2E/DX2                !
 ! A68   A(23,36,37)           123.7576         estimate D2E/DX2                !
 ! A69   A(23,36,38)           118.3923         estimate D2E/DX2                !
 ! A70   A(37,36,38)           117.8424         estimate D2E/DX2                !
 ! A71   A(22,37,36)           128.5844         estimate D2E/DX2                !
 ! A72   A(22,37,39)           114.7175         estimate D2E/DX2                !
 ! A73   A(36,37,39)           116.695          estimate D2E/DX2                !
 ! D1    D(5,1,2,3)             -4.1764         estimate D2E/DX2                !
 ! D2    D(5,1,2,22)           176.3861         estimate D2E/DX2                !
 ! D3    D(19,1,2,3)           176.3472         estimate D2E/DX2                !
 ! D4    D(19,1,2,22)           -3.0904         estimate D2E/DX2                !
 ! D5    D(2,1,5,6)              1.2596         estimate D2E/DX2                !
 ! D6    D(2,1,5,27)          -178.4559         estimate D2E/DX2                !
 ! D7    D(19,1,5,6)          -179.23           estimate D2E/DX2                !
 ! D8    D(19,1,5,27)            1.0546         estimate D2E/DX2                !
 ! D9    D(2,1,19,20)            0.7631         estimate D2E/DX2                !
 ! D10   D(2,1,19,26)         -179.4108         estimate D2E/DX2                !
 ! D11   D(5,1,19,20)         -178.743          estimate D2E/DX2                !
 ! D12   D(5,1,19,26)            1.083          estimate D2E/DX2                !
 ! D13   D(1,2,3,4)              3.7828         estimate D2E/DX2                !
 ! D14   D(1,2,3,7)           -174.6432         estimate D2E/DX2                !
 ! D15   D(22,2,3,4)          -176.866          estimate D2E/DX2                !
 ! D16   D(22,2,3,7)             4.7079         estimate D2E/DX2                !
 ! D17   D(1,2,22,21)            3.2697         estimate D2E/DX2                !
 ! D18   D(1,2,22,37)         -174.0081         estimate D2E/DX2                !
 ! D19   D(3,2,22,21)         -176.0918         estimate D2E/DX2                !
 ! D20   D(3,2,22,37)            6.6305         estimate D2E/DX2                !
 ! D21   D(2,3,4,6)             -0.6794         estimate D2E/DX2                !
 ! D22   D(2,3,4,10)           179.4616         estimate D2E/DX2                !
 ! D23   D(7,3,4,6)            177.9127         estimate D2E/DX2                !
 ! D24   D(7,3,4,10)            -1.9463         estimate D2E/DX2                !
 ! D25   D(2,3,7,8)            172.183          estimate D2E/DX2                !
 ! D26   D(2,3,7,23)           -12.1869         estimate D2E/DX2                !
 ! D27   D(4,3,7,8)             -6.2759         estimate D2E/DX2                !
 ! D28   D(4,3,7,23)           169.3543         estimate D2E/DX2                !
 ! D29   D(3,4,6,5)             -2.3817         estimate D2E/DX2                !
 ! D30   D(3,4,6,28)           179.1971         estimate D2E/DX2                !
 ! D31   D(10,4,6,5)           177.4832         estimate D2E/DX2                !
 ! D32   D(10,4,6,28)           -0.938          estimate D2E/DX2                !
 ! D33   D(3,4,10,9)             5.4843         estimate D2E/DX2                !
 ! D34   D(3,4,10,29)         -176.1241         estimate D2E/DX2                !
 ! D35   D(6,4,10,9)          -174.3811         estimate D2E/DX2                !
 ! D36   D(6,4,10,29)            4.0105         estimate D2E/DX2                !
 ! D37   D(1,5,6,4)              2.1173         estimate D2E/DX2                !
 ! D38   D(1,5,6,28)          -179.5094         estimate D2E/DX2                !
 ! D39   D(27,5,6,4)          -178.1759         estimate D2E/DX2                !
 ! D40   D(27,5,6,28)            0.1973         estimate D2E/DX2                !
 ! D41   D(3,7,8,9)             11.0876         estimate D2E/DX2                !
 ! D42   D(3,7,8,11)          -170.8998         estimate D2E/DX2                !
 ! D43   D(23,7,8,9)          -164.7302         estimate D2E/DX2                !
 ! D44   D(23,7,8,11)           13.2823         estimate D2E/DX2                !
 ! D45   D(3,7,23,36)            6.5687         estimate D2E/DX2                !
 ! D46   D(8,7,23,36)         -177.5955         estimate D2E/DX2                !
 ! D47   D(7,8,9,10)            -7.5161         estimate D2E/DX2                !
 ! D48   D(7,8,9,14)           171.528          estimate D2E/DX2                !
 ! D49   D(11,8,9,10)          174.3431         estimate D2E/DX2                !
 ! D50   D(11,8,9,14)           -6.6128         estimate D2E/DX2                !
 ! D51   D(7,8,11,12)         -170.128          estimate D2E/DX2                !
 ! D52   D(7,8,11,15)           12.5606         estimate D2E/DX2                !
 ! D53   D(9,8,11,12)            7.9004         estimate D2E/DX2                !
 ! D54   D(9,8,11,15)         -169.411          estimate D2E/DX2                !
 ! D55   D(8,9,10,4)            -0.5395         estimate D2E/DX2                !
 ! D56   D(8,9,10,29)         -178.9208         estimate D2E/DX2                !
 ! D57   D(14,9,10,4)         -179.5949         estimate D2E/DX2                !
 ! D58   D(14,9,10,29)           2.0237         estimate D2E/DX2                !
 ! D59   D(8,9,14,13)            0.9236         estimate D2E/DX2                !
 ! D60   D(8,9,14,30)         -178.0867         estimate D2E/DX2                !
 ! D61   D(10,9,14,13)         179.9615         estimate D2E/DX2                !
 ! D62   D(10,9,14,30)           0.9512         estimate D2E/DX2                !
 ! D63   D(8,11,12,13)          -3.7648         estimate D2E/DX2                !
 ! D64   D(8,11,12,18)         178.193          estimate D2E/DX2                !
 ! D65   D(15,11,12,13)        173.756          estimate D2E/DX2                !
 ! D66   D(15,11,12,18)         -4.2862         estimate D2E/DX2                !
 ! D67   D(8,11,15,16)        -179.0361         estimate D2E/DX2                !
 ! D68   D(8,11,15,33)           2.536          estimate D2E/DX2                !
 ! D69   D(12,11,15,16)          3.5897         estimate D2E/DX2                !
 ! D70   D(12,11,15,33)       -174.8382         estimate D2E/DX2                !
 ! D71   D(11,12,13,14)         -2.0795         estimate D2E/DX2                !
 ! D72   D(11,12,13,31)        179.9074         estimate D2E/DX2                !
 ! D73   D(18,12,13,14)        175.9759         estimate D2E/DX2                !
 ! D74   D(18,12,13,31)         -2.0372         estimate D2E/DX2                !
 ! D75   D(11,12,18,17)          1.981          estimate D2E/DX2                !
 ! D76   D(11,12,18,32)       -178.9297         estimate D2E/DX2                !
 ! D77   D(13,12,18,17)       -176.0742         estimate D2E/DX2                !
 ! D78   D(13,12,18,32)          3.015          estimate D2E/DX2                !
 ! D79   D(12,13,14,9)           3.5674         estimate D2E/DX2                !
 ! D80   D(12,13,14,30)       -177.4518         estimate D2E/DX2                !
 ! D81   D(31,13,14,9)        -178.4685         estimate D2E/DX2                !
 ! D82   D(31,13,14,30)          0.5124         estimate D2E/DX2                !
 ! D83   D(11,15,16,17)         -0.4813         estimate D2E/DX2                !
 ! D84   D(11,15,16,34)       -179.7524         estimate D2E/DX2                !
 ! D85   D(33,15,16,17)        177.9572         estimate D2E/DX2                !
 ! D86   D(33,15,16,34)         -1.3138         estimate D2E/DX2                !
 ! D87   D(15,16,17,18)         -2.0351         estimate D2E/DX2                !
 ! D88   D(15,16,17,35)        179.3579         estimate D2E/DX2                !
 ! D89   D(34,16,17,18)        177.2315         estimate D2E/DX2                !
 ! D90   D(34,16,17,35)         -1.3755         estimate D2E/DX2                !
 ! D91   D(16,17,18,12)          1.2637         estimate D2E/DX2                !
 ! D92   D(16,17,18,32)       -177.8081         estimate D2E/DX2                !
 ! D93   D(35,17,18,12)        179.8695         estimate D2E/DX2                !
 ! D94   D(35,17,18,32)          0.7977         estimate D2E/DX2                !
 ! D95   D(1,19,20,21)           1.4752         estimate D2E/DX2                !
 ! D96   D(1,19,20,25)        -179.5931         estimate D2E/DX2                !
 ! D97   D(26,19,20,21)       -178.3461         estimate D2E/DX2                !
 ! D98   D(26,19,20,25)          0.5857         estimate D2E/DX2                !
 ! D99   D(19,20,21,22)         -1.2114         estimate D2E/DX2                !
 ! D100  D(19,20,21,24)        177.9745         estimate D2E/DX2                !
 ! D101  D(25,20,21,22)        179.8479         estimate D2E/DX2                !
 ! D102  D(25,20,21,24)         -0.9662         estimate D2E/DX2                !
 ! D103  D(20,21,22,2)          -1.2751         estimate D2E/DX2                !
 ! D104  D(20,21,22,37)        176.4318         estimate D2E/DX2                !
 ! D105  D(24,21,22,2)         179.5285         estimate D2E/DX2                !
 ! D106  D(24,21,22,37)         -2.7646         estimate D2E/DX2                !
 ! D107  D(2,22,37,36)          -5.3527         estimate D2E/DX2                !
 ! D108  D(2,22,37,39)         173.9842         estimate D2E/DX2                !
 ! D109  D(21,22,37,36)        177.2032         estimate D2E/DX2                !
 ! D110  D(21,22,37,39)         -3.4598         estimate D2E/DX2                !
 ! D111  D(7,23,36,37)           4.153          estimate D2E/DX2                !
 ! D112  D(7,23,36,38)        -176.8765         estimate D2E/DX2                !
 ! D113  D(23,36,37,22)         -3.6307         estimate D2E/DX2                !
 ! D114  D(23,36,37,39)        177.0435         estimate D2E/DX2                !
 ! D115  D(38,36,37,22)        177.3935         estimate D2E/DX2                !
 ! D116  D(38,36,37,39)         -1.9323         estimate D2E/DX2                !
 --------------------------------------------------------------------------------
 Trust Radius=3.00D-01 FncErr=1.00D-07 GrdErr=1.00D-06
 Number of steps in this run=    234 maximum allowed number of steps=    234.
 GradGradGradGradGradGradGradGradGradGradGradGradGradGradGradGradGradGrad

                          Input orientation:                          
 ---------------------------------------------------------------------
 Center     Atomic      Atomic             Coordinates (Angstroms)
 Number     Number       Type             X           Y           Z
 ---------------------------------------------------------------------
      1          6           0        3.589430    0.784460    0.160880
      2          6           0        2.491590   -0.126140   -0.018750
      3          6           0        1.133380    0.466650   -0.084950
      4          6           0        1.019050    1.894210   -0.049580
      5          6           0        3.396230    2.202980    0.183180
      6          6           0        2.168030    2.737470    0.060840
      7          6           0       -0.123970   -0.265440   -0.151970
      8          6           0       -1.399320    0.404200   -0.046320
      9          6           0       -1.425940    1.826210   -0.113650
     10          6           0       -0.226860    2.526110   -0.118940
     11          6           0       -2.680790   -0.292150    0.085040
     12          6           0       -3.893550    0.456550   -0.031800
     13          6           0       -3.849520    1.881330   -0.193700
     14          6           0       -2.669790    2.539480   -0.196260
     15          6           0       -2.815110   -1.669500    0.377820
     16          6           0       -4.048800   -2.285980    0.472630
     17          6           0       -5.227650   -1.551450    0.288260
     18          6           0       -5.140810   -0.195320    0.052640
     19          6           0        4.923980    0.345990    0.315480
     20          6           0        5.238920   -0.988830    0.285370
     21          6           0        4.212600   -1.899230    0.067140
     22          6           0        2.866200   -1.532570   -0.100210
     23          6           0       -0.152320   -1.633110   -0.410920
     24          1           0        4.453810   -2.953990    0.008090
     25          1           0        6.260020   -1.329880    0.410000
     26          1           0        5.694490    1.095470    0.456030
     27          1           0        4.270850    2.833470    0.296990
     28          1           0        2.018140    3.811280    0.069320
     29          1           0       -0.252010    3.610040   -0.152470
     30          1           0       -2.633290    3.620430   -0.277210
     31          1           0       -4.787180    2.419920   -0.280980
     32          1           0       -6.041520    0.399530   -0.057740
     33          1           0       -1.927420   -2.259940    0.559010
     34          1           0       -4.099150   -3.344190    0.703380
     35          1           0       -6.194000   -2.038410    0.352670
     36          6           0        0.664330   -2.715010   -0.566130
     37          6           0        2.027940   -2.674130   -0.393390
     38          1           0        0.213180   -3.671080   -0.825850
     39          1           0        2.560680   -3.613220   -0.497510
 ---------------------------------------------------------------------
                    Distance matrix (angstroms):
                    1          2          3          4          5
     1  C    0.000000
     2  C    1.437606   0.000000
     3  C    2.488698   1.483414   0.000000
     4  C    2.807613   2.500228   1.432568   0.000000
     5  C    1.431790   2.506781   2.864826   2.408423   0.000000
     6  C    2.417568   2.882930   2.499676   1.429488   1.345036
     7  C    3.871628   2.622653   1.456495   2.445622   4.312451
     8  C    5.007510   3.926984   2.533764   2.840538   5.126946
     9  C    5.129771   4.378095   2.898163   2.446774   4.845966
    10  C    4.204249   3.799268   2.468356   1.398714   3.649996
    11  C    6.362429   5.176084   3.892630   4.299664   6.570044
    12  C    7.492639   6.411685   5.027221   5.118674   7.499142
    13  C    7.527737   6.653587   5.180969   4.870720   7.262671
    14  C    6.510413   5.811788   4.332795   3.747723   6.087184
    15  C    6.862005   5.540784   4.513077   5.251998   7.322208
    16  C    8.238164   6.905292   5.894307   6.590129   8.698449
    17  C    9.122149   7.855726   6.683915   7.141986   9.406279
    18  C    8.785714   7.633047   6.310515   6.505418   8.868480
    19  C    1.413216   2.500227   3.813601   4.216483   2.408305
    20  C    2.425051   2.895608   4.371615   5.121661   3.686950
    21  C    2.756686   2.472469   3.886144   4.960098   4.184262
    22  C    2.441282   1.457743   2.645709   3.893244   3.783593
    23  C    4.491358   3.068390   2.483601   3.734255   5.259349
    24  H    3.840118   3.442058   4.768091   5.941881   5.267207
    25  H    3.415340   3.979181   5.454808   6.170392   4.553443
    26  H    2.148283   3.460681   4.635925   4.770049   2.565741
    27  H    2.163631   3.467672   3.948599   3.402429   1.084173
    28  H    3.411594   3.966760   3.463113   2.165058   2.121020
    29  H    4.778991   4.637269   3.435806   2.137815   3.924555
    30  H    6.852510   6.353580   4.916411   4.046139   6.210977
    31  H    8.546202   7.715677   6.237525   5.834571   8.199433
    32  H    9.641118   8.549375   7.175266   7.217048   9.611535
    33  H    6.313677   4.941109   4.149394   5.129233   6.957022
    34  H    8.743816   7.369883   6.520992   7.362320   9.339295
    35  H   10.184345   8.901360   7.756116   8.225290  10.487642
    36  C    4.618554   3.215704   3.251846   4.651619   5.675506
    37  C    3.835011   2.616788   3.280224   4.691033   5.098122
    38  H    5.676666   4.290590   4.303082   5.676660   6.756814
    39  H    4.564142   3.520470   4.341973   5.736641   5.915206
                    6          7          8          9         10
     6  C    0.000000
     7  C    3.783652   0.000000
     8  C    4.263991   1.444333   0.000000
     9  C    3.711800   2.464060   1.423852   0.000000
    10  C    2.410911   2.793641   2.425374   1.388409   0.000000
    11  C    5.717538   2.567920   1.464351   2.470137   3.742455
    12  C    6.477185   3.839980   2.494822   2.823432   4.211328
    13  C    6.083476   4.300010   2.864806   2.425528   3.680353
    14  C    4.848691   3.788237   2.489176   1.436225   2.444190
    15  C    6.659846   3.081282   2.546485   3.793590   4.954690
    16  C    8.003349   4.458363   3.811315   4.912558   6.173604
    17  C    8.552347   5.281588   4.311916   5.101286   6.465308
    18  C    7.875307   5.021500   3.790510   4.232552   5.619833
    19  C    3.657770   5.106286   6.333910   6.534270   5.610062
    20  C    4.833848   5.429102   6.790934   7.245966   6.510992
    21  C    5.067474   4.639301   6.067315   6.760527   6.271129
    22  C    4.329737   3.247986   4.684938   5.450142   5.102965
    23  C    4.970770   1.392257   2.416314   3.698293   4.170122
    24  H    6.133538   5.311308   6.748298   7.578693   7.208072
    25  H    5.780106   6.496474   7.866432   8.325208   7.564922
    26  H    3.910020   6.006348   7.145093   7.180462   6.118799
    27  H    2.118215   5.396226   6.178191   5.799708   4.527346
    28  H    1.084254   4.610559   4.827069   3.979405   2.593671
    29  H    2.581370   3.877595   3.406611   2.135806   1.084740
    30  H    4.893523   4.627349   3.452554   2.168795   2.648300
    31  H    6.970841   5.382688   3.949150   3.417371   4.564433
    32  H    8.536787   5.955540   4.642216   4.831368   6.191636
    33  H    6.480354   2.781358   2.782617   4.171400   5.124236
    34  H    8.756540   5.100233   4.679910   5.877638   7.080343
    35  H    9.634196   6.343765   5.395785   6.155253   7.527551
    36  C    5.690672   2.606403   3.776020   5.019626   5.335123
    37  C    5.432436   3.238949   4.619814   5.679842   5.674675
    38  H    6.758489   3.488003   4.451486   5.780497   6.252881
    39  H    6.387268   4.305157   5.659049   6.754842   6.753152
                   11         12         13         14         15
    11  C    0.000000
    12  C    1.430032   0.000000
    13  C    2.483474   1.434625   0.000000
    14  C    2.845589   2.421411   1.350900   0.000000
    15  C    1.414516   2.418865   3.742330   4.250435   0.000000
    16  C    2.448885   2.792852   4.224947   5.063018   1.382399
    17  C    2.848444   2.431939   3.730349   4.849032   2.417086
    18  C    2.462138   1.409866   2.457761   3.694188   2.772693
    19  C    7.634976   8.825059   8.921370   7.920771   7.997475
    20  C    7.952817   9.251580   9.542907   8.673444   8.083270
    21  C    7.078266   8.442106   8.908336   8.193828   7.038324
    22  C    5.687008   7.046666   7.534212   6.872991   5.703030
    23  C    2.904705   4.302001   5.105660   4.877934   2.777388
    24  H    7.615368   9.017305   9.610740   8.998091   7.390792
    25  H    9.006696  10.318988  10.624459   9.750949   9.081540
    26  H    8.497555   9.621679   9.598325   8.513039   8.947875
    27  H    7.624941   8.509717   8.190712   6.964353   8.396077
    28  H    6.238456   6.797979   6.182501   4.864637   7.313988
    29  H    4.602442   4.818700   3.991518   2.644556   5.892727
    30  H    3.929601   3.414472   2.123831   1.084591   5.333431
    31  H    3.453429   2.171517   1.084852   2.122454   4.587639
    32  H    3.434139   2.148883   2.649355   3.995890   3.857502
    33  H    2.159725   3.405002   4.627219   4.914873   1.081408
    34  H    3.421847   3.876646   5.307836   6.121274   2.135260
    35  H    3.932390   3.415364   4.599942   5.803314   3.399062
    36  C    4.181399   5.578402   6.452898   6.234006   3.753750
    37  C    5.298572   6.707902   7.438859   7.020631   5.005914
    38  H    4.541140   5.876485   6.909009   6.875969   3.824354
    39  H    6.232325   7.644410   8.448257   8.081107   5.783024
                   16         17         18         19         20
    16  C    0.000000
    17  C    1.401147   0.000000
    18  C    2.395775   1.379183   0.000000
    19  C    9.352152  10.327469  10.082762   0.000000
    20  C    9.379734  10.481681  10.412618   1.371801   0.000000
    21  C    8.280382   9.449242   9.507355   2.368279   1.389167
    22  C    6.979470   8.103189   8.119348   2.817134   2.464574
    23  C    4.048389   5.123914   5.212213   5.496664   5.474065
    24  H    8.541453   9.786536   9.983435   3.347449   2.134276
    25  H   10.353252  11.490452  11.462716   2.145338   1.083740
    26  H   10.313398  11.239550  10.919368   1.084048   2.140321
    27  H    9.770169  10.461792   9.890026   2.571863   3.943003
    28  H    8.610865   9.017110   8.203882   4.529099   5.784562
    29  H    7.040555   7.182772   6.198645   6.137090   7.175766
    30  H    6.119772   5.813674   4.577817   8.257455   9.139664
    31  H    4.822720   4.036066   2.660044   9.948044  10.604858
    32  H    3.385881   2.142061   1.085039  10.971980  11.370734
    33  H    2.123298   3.386264   3.852913   7.334293   7.283339
    34  H    1.084246   2.158646   3.379926   9.756268   9.639606
    35  H    2.162768   1.084025   2.143877  11.370850  11.481194
    36  C    4.845274   6.066241   6.358566   5.318983   4.963026
    37  C    6.150400   7.373510   7.598317   4.243898   3.689355
    38  H    4.665729   5.944468   6.443436   6.295325   5.804079
    39  H    6.810871   8.094839   8.443794   4.682038   3.830574
                   21         22         23         24         25
    21  C    0.000000
    22  C    1.405432   0.000000
    23  C    4.399078   3.036134   0.000000
    24  H    1.083599   2.133698   4.810065   0.000000
    25  H    2.152589   3.437937   6.471782   2.462044   0.000000
    26  H    3.363846   3.900669   6.510141   4.258881   2.490836
    27  H    4.738636   4.603598   6.325813   5.797554   4.615523
    28  H    6.117645   5.413380   5.880724   7.190627   6.673915
    29  H    7.094577   6.014350   5.250462   8.078181   8.193029
    30  H    8.800650   7.538510   5.811435   9.671162  10.201411
    31  H    9.988608   8.615630   6.158398  10.693847  11.686705
    32  H   10.509371   9.114949   6.240115  11.018275  12.431312
    33  H    6.170243   4.893100   2.117702   6.442462   8.241443
    34  H    8.460372   7.241811   4.443751   8.590041  10.557269
    35  H   10.411447   9.085604   6.103215  10.692655  12.474290
    36  C    3.695504   2.542337   1.364373   3.840182   5.846637
    37  C    2.363323   1.446303   2.416105   2.474743   4.512532
    38  H    4.464554   3.484005   2.111653   4.380938   6.600971
    39  H    2.446514   2.140162   3.359866   2.067403   4.440983
                   26         27         28         29         30
    26  H    0.000000
    27  H    2.252263   0.000000
    28  H    4.587016   2.466303   0.000000
    29  H    6.484921   4.611002   2.289819   0.000000
    30  H    8.732983   6.972529   4.668223   2.384568   0.000000
    31  H   10.590692   9.085867   6.954924   4.690487   2.465863
    32  H   11.767847  10.601645   8.752960   6.620784   4.694507
    33  H    8.328439   8.026832   7.257200   6.145719   5.981327
    34  H   10.755796  10.410837   9.435254   7.993390   7.184444
    35  H   12.295043  11.543457  10.086546   8.213854   6.715495
    36  C    6.392736   6.673649   6.695451   6.404456   7.148117
    37  C    5.326818   5.986729   6.501903   6.689320   7.833393
    38  H    7.376176   7.748201   7.748866   7.326974   7.846624
    39  H    5.736006   6.716824   7.465845   7.759237   8.907949
                   31         32         33         34         35
    31  H    0.000000
    32  H    2.388552   0.000000
    33  H    5.548414   4.937507   0.000000
    34  H    5.887896   4.285737   2.431636   0.000000
    35  H    4.717771   2.476941   4.277307   2.493282   0.000000
    36  C    7.494517   7.411292   2.861852   4.969735   6.952602
    37  C    8.509280   8.641541   4.089437   6.260441   8.280160
    38  H    7.899415   7.502075   2.913987   4.587111   6.716136
    39  H    9.509822   9.502284   4.805272   6.772581   8.935729
                   36         37         38         39
    36  C    0.000000
    37  C    1.375115   0.000000
    38  H    1.088605   2.115251   0.000000
    39  H    2.099436   1.084686   2.371057   0.000000
 Stoichiometry    C25H14(3)
 Framework group  C1[X(C25H14)]
 Deg. of freedom   111
 Full point group                 C1      NOp   1
 Largest Abelian subgroup         C1      NOp   1
 Largest concise Abelian subgroup C1      NOp   1
                         Standard orientation:                         
 ---------------------------------------------------------------------
 Center     Atomic      Atomic             Coordinates (Angstroms)
 Number     Number       Type             X           Y           Z
 ---------------------------------------------------------------------
      1          6           0       -3.589430    0.784458   -0.160880
      2          6           0       -2.491589   -0.126142    0.018750
      3          6           0       -1.133380    0.466649    0.084950
      4          6           0       -1.019050    1.894209    0.049580
      5          6           0       -3.396230    2.202978   -0.183180
      6          6           0       -2.168031    2.737468   -0.060840
      7          6           0        0.123971   -0.265441    0.151970
      8          6           0        1.399320    0.404200    0.046320
      9          6           0        1.425940    1.826210    0.113650
     10          6           0        0.226859    2.526109    0.118940
     11          6           0        2.680791   -0.292149   -0.085040
     12          6           0        3.893550    0.456551    0.031800
     13          6           0        3.849520    1.881331    0.193700
     14          6           0        2.669789    2.539481    0.196260
     15          6           0        2.815111   -1.669499   -0.377820
     16          6           0        4.048802   -2.285979   -0.472630
     17          6           0        5.227651   -1.551448   -0.288260
     18          6           0        5.140811   -0.195318   -0.052640
     19          6           0       -4.923980    0.345987   -0.315480
     20          6           0       -5.238919   -0.988833   -0.285370
     21          6           0       -4.212599   -1.899233   -0.067140
     22          6           0       -2.866199   -1.532572    0.100210
     23          6           0        0.152321   -1.633111    0.410920
     24          1           0       -4.453808   -2.953993   -0.008090
     25          1           0       -6.260019   -1.329884   -0.410000
     26          1           0       -5.694490    1.095467   -0.456030
     27          1           0       -4.270851    2.833467   -0.296990
     28          1           0       -2.018141    3.811278   -0.069320
     29          1           0        0.252009    3.610039    0.152470
     30          1           0        2.633289    3.620431    0.277210
     31          1           0        4.787179    2.419922    0.280980
     32          1           0        6.041520    0.399532    0.057740
     33          1           0        1.927422   -2.259940   -0.559010
     34          1           0        4.099152   -3.344189   -0.703380
     35          1           0        6.194002   -2.038408   -0.352670
     36          6           0       -0.664328   -2.715011    0.566130
     37          6           0       -2.027938   -2.674132    0.393390
     38          1           0       -0.213178   -3.671081    0.825850
     39          1           0       -2.560678   -3.613222    0.497510
 ---------------------------------------------------------------------
 Rotational constants (GHZ):      0.5077079      0.1567654      0.1209587
 Standard basis: 6-311+G(d,p) (5D, 7F)
 There are   659 symmetry adapted cartesian basis functions of A   symmetry.
 There are   634 symmetry adapted basis functions of A   symmetry.
   634 basis functions,  1012 primitive gaussians,   659 cartesian basis functions
    83 alpha electrons       81 beta electrons
       nuclear repulsion energy      1892.8982789565 Hartrees.
 NAtoms=   39 NActive=   39 NUniq=   39 SFac= 1.00D+00 NAtFMM=   60 NAOKFM=F Big=F
 Integral buffers will be    131072 words long.
 Raffenetti 2 integral format.
 Two-electron integral symmetry is turned on.
 One-electron integrals computed using PRISM.
 NBasis=   634 RedAO= T EigKep=  1.29D-06  NBF=   634
 NBsUse=   618 1.00D-06 EigRej=  9.88D-07 NBFU=   618
 ExpMin= 4.38D-02 ExpMax= 4.56D+03 ExpMxC= 6.82D+02 IAcc=2 IRadAn=         4 AccDes= 0.00D+00
 Harris functional with IExCor=  402 and IRadAn=       4 diagonalized for initial guess.
 HarFok:  IExCor=  402 AccDes= 0.00D+00 IRadAn=         4 IDoV= 1 UseB2=F ITyADJ=14
 ICtDFT=  3500011 ScaDFX=  1.000000  1.000000  1.000000  1.000000
 FoFCou: FMM=F IPFlag=           0 FMFlag=      100000 FMFlg1=           0
         NFxFlg=           0 DoJE=T BraDBF=F KetDBF=T FulRan=T
         wScrn=  0.000000 ICntrl=     500 IOpCl=  0 I1Cent=   200000004 NGrid=           0
         NMat0=    1 NMatS0=      1 NMatT0=    0 NMatD0=    1 NMtDS0=    0 NMtDT0=    0
 Petite list used in FoFCou.
 Initial guess <Sx>= 0.0000 <Sy>= 0.0000 <Sz>= 1.0000 <S**2>= 2.0000 S= 1.0000
 Requested convergence on RMS density matrix=1.00D-08 within 128 cycles.
 Requested convergence on MAX density matrix=1.00D-06.
 Requested convergence on             energy=1.00D-06.
 No special actions if energy rises.
 Restarting incremental Fock formation.
 SCF Done:  E(UB3LYP) =  -961.240165574     A.U. after   23 cycles
            NFock= 23  Conv=0.96D-08     -V/T= 2.0044
 <Sx>= 0.0000 <Sy>= 0.0000 <Sz>= 1.0000 <S**2>= 2.0471 S= 1.0156
 <L.S>= 0.000000000000E+00
 Annihilation of the first spin contaminant:
 S**2 before annihilation     2.0471,   after     2.0012

 **********************************************************************

            Population analysis using the SCF density.

 **********************************************************************

 Orbital symmetries:
 Alpha Orbitals:
       Occupied  (A) (A) (A) (A) (A) (A) (A) (A) (A) (A) (A) (A)
                 (A) (A) (A) (A) (A) (A) (A) (A) (A) (A) (A) (A)
                 (A) (A) (A) (A) (A) (A) (A) (A) (A) (A) (A) (A)
                 (A) (A) (A) (A) (A) (A) (A) (A) (A) (A) (A) (A)
                 (A) (A) (A) (A) (A) (A) (A) (A) (A) (A) (A) (A)
                 (A) (A) (A) (A) (A) (A) (A) (A) (A) (A) (A) (A)
                 (A) (A) (A) (A) (A) (A) (A) (A) (A) (A) (A)
       Virtual   (A) (A) (A) (A) (A) (A) (A) (A) (A) (A) (A) (A)
                 (A) (A) (A) (A) (A) (A) (A) (A) (A) (A) (A) (A)
                 (A) (A) (A) (A) (A) (A) (A) (A) (A) (A) (A) (A)
                 (A) (A) (A) (A) (A) (A) (A) (A) (A) (A) (A) (A)
                 (A) (A) (A) (A) (A) (A) (A) (A) (A) (A) (A) (A)
                 (A) (A) (A) (A) (A) (A) (A) (A) (A) (A) (A) (A)
                 (A) (A) (A) (A) (A) (A) (A) (A) (A) (A) (A) (A)
                 (A) (A) (A) (A) (A) (A) (A) (A) (A) (A) (A) (A)
                 (A) (A) (A) (A) (A) (A) (A) (A) (A) (A) (A) (A)
                 (A) (A) (A) (A) (A) (A) (A) (A) (A) (A) (A) (A)
                 (A) (A) (A) (A) (A) (A) (A) (A) (A) (A) (A) (A)
                 (A) (A) (A) (A) (A) (A) (A) (A) (A) (A) (A) (A)
                 (A) (A) (A) (A) (A) (A) (A) (A) (A) (A) (A) (A)
                 (A) (A) (A) (A) (A) (A) (A) (A) (A) (A) (A) (A)
                 (A) (A) (A) (A) (A) (A) (A) (A) (A) (A) (A) (A)
                 (A) (A) (A) (A) (A) (A) (A) (A) (A) (A) (A) (A)
                 (A) (A) (A) (A) (A) (A) (A) (A) (A) (A) (A) (A)
                 (A) (A) (A) (A) (A) (A) (A) (A) (A) (A) (A) (A)
                 (A) (A) (A) (A) (A) (A) (A) (A) (A) (A) (A) (A)
                 (A) (A) (A) (A) (A) (A) (A) (A) (A) (A) (A) (A)
                 (A) (A) (A) (A) (A) (A) (A) (A) (A) (A) (A) (A)
                 (A) (A) (A) (A) (A) (A) (A) (A) (A) (A) (A) (A)
                 (A) (A) (A) (A) (A) (A) (A) (A) (A) (A) (A) (A)
                 (A) (A) (A) (A) (A) (A) (A) (A) (A) (A) (A) (A)
                 (A) (A) (A) (A) (A) (A) (A) (A) (A) (A) (A) (A)
                 (A) (A) (A) (A) (A) (A) (A) (A) (A) (A) (A) (A)
                 (A) (A) (A) (A) (A) (A) (A) (A) (A) (A) (A) (A)
                 (A) (A) (A) (A) (A) (A) (A) (A) (A) (A) (A) (A)
                 (A) (A) (A) (A) (A) (A) (A) (A) (A) (A) (A) (A)
                 (A) (A) (A) (A) (A) (A) (A) (A) (A) (A) (A) (A)
                 (A) (A) (A) (A) (A) (A) (A) (A) (A) (A) (A) (A)
                 (A) (A) (A) (A) (A) (A) (A) (A) (A) (A) (A) (A)
                 (A) (A) (A) (A) (A) (A) (A) (A) (A) (A) (A) (A)
                 (A) (A) (A) (A) (A) (A) (A) (A) (A) (A) (A) (A)
                 (A) (A) (A) (A) (A) (A) (A) (A) (A) (A) (A) (A)
                 (A) (A) (A) (A) (A) (A) (A) (A) (A) (A) (A) (A)
                 (A) (A) (A) (A) (A) (A) (A) (A) (A) (A) (A) (A)
                 (A) (A) (A) (A) (A) (A) (A) (A) (A) (A) (A) (A)
                 (A) (A) (A) (A) (A) (A) (A) (A) (A) (A) (A) (A)
                 (A) (A) (A) (A) (A) (A) (A) (A) (A) (A) (A) (A)
                 (A) (A) (A) (A) (A) (A) (A) (A) (A) (A) (A) (A)
                 (A) (A) (A) (A) (A) (A) (A) (A) (A) (A) (A) (A)
                 (A) (A) (A) (A) (A) (A) (A) (A) (A) (A) (A) (A)
                 (A) (A) (A) (A) (A) (A) (A) (A) (A) (A) (A) (A)
                 (A) (A) (A) (A) (A) (A) (A)
 Beta  Orbitals:
       Occupied  (A) (A) (A) (A) (A) (A) (A) (A) (A) (A) (A) (A)
                 (A) (A) (A) (A) (A) (A) (A) (A) (A) (A) (A) (A)
                 (A) (A) (A) (A) (A) (A) (A) (A) (A) (A) (A) (A)
                 (A) (A) (A) (A) (A) (A) (A) (A) (A) (A) (A) (A)
                 (A) (A) (A) (A) (A) (A) (A) (A) (A) (A) (A) (A)
                 (A) (A) (A) (A) (A) (A) (A) (A) (A) (A) (A) (A)
                 (A) (A) (A) (A) (A) (A) (A) (A) (A)
       Virtual   (A) (A) (A) (A) (A) (A) (A) (A) (A) (A) (A) (A)
                 (A) (A) (A) (A) (A) (A) (A) (A) (A) (A) (A) (A)
                 (A) (A) (A) (A) (A) (A) (A) (A) (A) (A) (A) (A)
                 (A) (A) (A) (A) (A) (A) (A) (A) (A) (A) (A) (A)
                 (A) (A) (A) (A) (A) (A) (A) (A) (A) (A) (A) (A)
                 (A) (A) (A) (A) (A) (A) (A) (A) (A) (A) (A) (A)
                 (A) (A) (A) (A) (A) (A) (A) (A) (A) (A) (A) (A)
                 (A) (A) (A) (A) (A) (A) (A) (A) (A) (A) (A) (A)
                 (A) (A) (A) (A) (A) (A) (A) (A) (A) (A) (A) (A)
                 (A) (A) (A) (A) (A) (A) (A) (A) (A) (A) (A) (A)
                 (A) (A) (A) (A) (A) (A) (A) (A) (A) (A) (A) (A)
                 (A) (A) (A) (A) (A) (A) (A) (A) (A) (A) (A) (A)
                 (A) (A) (A) (A) (A) (A) (A) (A) (A) (A) (A) (A)
                 (A) (A) (A) (A) (A) (A) (A) (A) (A) (A) (A) (A)
                 (A) (A) (A) (A) (A) (A) (A) (A) (A) (A) (A) (A)
                 (A) (A) (A) (A) (A) (A) (A) (A) (A) (A) (A) (A)
                 (A) (A) (A) (A) (A) (A) (A) (A) (A) (A) (A) (A)
                 (A) (A) (A) (A) (A) (A) (A) (A) (A) (A) (A) (A)
                 (A) (A) (A) (A) (A) (A) (A) (A) (A) (A) (A) (A)
                 (A) (A) (A) (A) (A) (A) (A) (A) (A) (A) (A) (A)
                 (A) (A) (A) (A) (A) (A) (A) (A) (A) (A) (A) (A)
                 (A) (A) (A) (A) (A) (A) (A) (A) (A) (A) (A) (A)
                 (A) (A) (A) (A) (A) (A) (A) (A) (A) (A) (A) (A)
                 (A) (A) (A) (A) (A) (A) (A) (A) (A) (A) (A) (A)
                 (A) (A) (A) (A) (A) (A) (A) (A) (A) (A) (A) (A)
                 (A) (A) (A) (A) (A) (A) (A) (A) (A) (A) (A) (A)
                 (A) (A) (A) (A) (A) (A) (A) (A) (A) (A) (A) (A)
                 (A) (A) (A) (A) (A) (A) (A) (A) (A) (A) (A) (A)
                 (A) (A) (A) (A) (A) (A) (A) (A) (A) (A) (A) (A)
                 (A) (A) (A) (A) (A) (A) (A) (A) (A) (A) (A) (A)
                 (A) (A) (A) (A) (A) (A) (A) (A) (A) (A) (A) (A)
                 (A) (A) (A) (A) (A) (A) (A) (A) (A) (A) (A) (A)
                 (A) (A) (A) (A) (A) (A) (A) (A) (A) (A) (A) (A)
                 (A) (A) (A) (A) (A) (A) (A) (A) (A) (A) (A) (A)
                 (A) (A) (A) (A) (A) (A) (A) (A) (A) (A) (A) (A)
                 (A) (A) (A) (A) (A) (A) (A) (A) (A) (A) (A) (A)
                 (A) (A) (A) (A) (A) (A) (A) (A) (A) (A) (A) (A)
                 (A) (A) (A) (A) (A) (A) (A) (A) (A) (A) (A) (A)
                 (A) (A) (A) (A) (A) (A) (A) (A) (A) (A) (A) (A)
                 (A) (A) (A) (A) (A) (A) (A) (A) (A) (A) (A) (A)
                 (A) (A) (A) (A) (A) (A) (A) (A) (A) (A) (A) (A)
                 (A) (A) (A) (A) (A) (A) (A) (A) (A) (A) (A) (A)
                 (A) (A) (A) (A) (A) (A) (A) (A) (A) (A) (A) (A)
                 (A) (A) (A) (A) (A) (A) (A) (A) (A) (A) (A) (A)
                 (A) (A) (A) (A) (A) (A) (A) (A) (A)
 The electronic state is 3-A.
 Alpha  occ. eigenvalues --  -10.21365 -10.21284 -10.20905 -10.20390 -10.20067
 Alpha  occ. eigenvalues --  -10.19588 -10.19509 -10.19424 -10.19292 -10.19119
 Alpha  occ. eigenvalues --  -10.19067 -10.18925 -10.18843 -10.18286 -10.18232
 Alpha  occ. eigenvalues --  -10.18231 -10.18172 -10.18155 -10.18150 -10.18127
 Alpha  occ. eigenvalues --  -10.18054 -10.17954 -10.17895 -10.17837 -10.17732
 Alpha  occ. eigenvalues --   -0.90296  -0.88463  -0.86100  -0.84528  -0.83135
 Alpha  occ. eigenvalues --   -0.80164  -0.79451  -0.77594  -0.76396  -0.75455
 Alpha  occ. eigenvalues --   -0.73107  -0.72302  -0.68010  -0.66540  -0.64507
 Alpha  occ. eigenvalues --   -0.63184  -0.61965  -0.60622  -0.58529  -0.57038
 Alpha  occ. eigenvalues --   -0.55673  -0.52959  -0.52150  -0.51632  -0.50958
 Alpha  occ. eigenvalues --   -0.48996  -0.47756  -0.47362  -0.46876  -0.45574
 Alpha  occ. eigenvalues --   -0.44956  -0.43995  -0.43373  -0.42631  -0.42343
 Alpha  occ. eigenvalues --   -0.42148  -0.41099  -0.40259  -0.40121  -0.39358
 Alpha  occ. eigenvalues --   -0.38223  -0.37479  -0.37358  -0.36498  -0.35920
 Alpha  occ. eigenvalues --   -0.35215  -0.34443  -0.34112  -0.33439  -0.31159
 Alpha  occ. eigenvalues --   -0.30105  -0.28830  -0.27437  -0.25776  -0.23298
 Alpha  occ. eigenvalues --   -0.22335  -0.21668  -0.16438
 Alpha virt. eigenvalues --   -0.07799  -0.05741  -0.04206  -0.02466  -0.00118
 Alpha virt. eigenvalues --    0.00088   0.00491   0.00603   0.01126   0.01687
 Alpha virt. eigenvalues --    0.01729   0.03124   0.03186   0.03423   0.03588
 Alpha virt. eigenvalues --    0.04252   0.04747   0.04920   0.05190   0.05412
 Alpha virt. eigenvalues --    0.05815   0.06429   0.06909   0.07165   0.07496
 Alpha virt. eigenvalues --    0.07727   0.08064   0.08304   0.08583   0.09506
 Alpha virt. eigenvalues --    0.09688   0.10003   0.10174   0.10542   0.11296
 Alpha virt. eigenvalues --    0.11783   0.11928   0.12176   0.12409   0.12604
 Alpha virt. eigenvalues --    0.13309   0.13406   0.13944   0.14274   0.14522
 Alpha virt. eigenvalues --    0.14894   0.15311   0.15453   0.15747   0.16100
 Alpha virt. eigenvalues --    0.16289   0.16567   0.16821   0.17156   0.17396
 Alpha virt. eigenvalues --    0.17587   0.17837   0.17942   0.18193   0.18617
 Alpha virt. eigenvalues --    0.18915   0.19035   0.19131   0.19552   0.19683
 Alpha virt. eigenvalues --    0.20181   0.20380   0.20477   0.21064   0.21371
 Alpha virt. eigenvalues --    0.21463   0.21891   0.22145   0.22218   0.22537
 Alpha virt. eigenvalues --    0.22772   0.23202   0.23247   0.23360   0.23783
 Alpha virt. eigenvalues --    0.23858   0.24186   0.24471   0.24824   0.25546
 Alpha virt. eigenvalues --    0.25710   0.25905   0.26246   0.26458   0.26825
 Alpha virt. eigenvalues --    0.27093   0.27125   0.27365   0.27900   0.28198
 Alpha virt. eigenvalues --    0.28514   0.28869   0.28939   0.29486   0.29648
 Alpha virt. eigenvalues --    0.29912   0.30283   0.30776   0.30994   0.31312
 Alpha virt. eigenvalues --    0.31479   0.31771   0.31953   0.32383   0.32470
 Alpha virt. eigenvalues --    0.33337   0.33529   0.33767   0.34397   0.34923
 Alpha virt. eigenvalues --    0.35193   0.35643   0.36106   0.36947   0.37035
 Alpha virt. eigenvalues --    0.37829   0.38492   0.40296   0.40968   0.41286
 Alpha virt. eigenvalues --    0.41979   0.42891   0.43908   0.44440   0.44739
 Alpha virt. eigenvalues --    0.46391   0.46900   0.47794   0.48475   0.48958
 Alpha virt. eigenvalues --    0.50169   0.51044   0.52021   0.52121   0.52478
 Alpha virt. eigenvalues --    0.52685   0.53062   0.53399   0.54504   0.54642
 Alpha virt. eigenvalues --    0.55014   0.55135   0.55291   0.55907   0.56244
 Alpha virt. eigenvalues --    0.56672   0.56820   0.57314   0.57852   0.58347
 Alpha virt. eigenvalues --    0.58889   0.59088   0.59280   0.60028   0.60270
 Alpha virt. eigenvalues --    0.60547   0.61564   0.61844   0.61895   0.62290
 Alpha virt. eigenvalues --    0.63132   0.63311   0.63895   0.64232   0.64694
 Alpha virt. eigenvalues --    0.65030   0.65338   0.65897   0.66643   0.67173
 Alpha virt. eigenvalues --    0.67414   0.68184   0.68252   0.68794   0.70675
 Alpha virt. eigenvalues --    0.70818   0.71208   0.71393   0.72105   0.72158
 Alpha virt. eigenvalues --    0.72499   0.72955   0.73277   0.73663   0.73956
 Alpha virt. eigenvalues --    0.74538   0.74916   0.74954   0.75143   0.75911
 Alpha virt. eigenvalues --    0.76511   0.76801   0.77165   0.79220   0.80714
 Alpha virt. eigenvalues --    0.81077   0.82641   0.82852   0.83344   0.83814
 Alpha virt. eigenvalues --    0.84396   0.85476   0.86349   0.86736   0.87358
 Alpha virt. eigenvalues --    0.87593   0.88204   0.88915   0.89300   0.89964
 Alpha virt. eigenvalues --    0.90612   0.91081   0.91692   0.92096   0.92379
 Alpha virt. eigenvalues --    0.92833   0.93577   0.93936   0.94613   0.95320
 Alpha virt. eigenvalues --    0.95967   0.96807   0.97148   0.97305   0.97454
 Alpha virt. eigenvalues --    0.98117   0.98172   0.98842   0.99524   1.00013
 Alpha virt. eigenvalues --    1.00222   1.01301   1.01561   1.02010   1.02853
 Alpha virt. eigenvalues --    1.03520   1.04013   1.05284   1.05841   1.06207
 Alpha virt. eigenvalues --    1.07359   1.08074   1.08824   1.09518   1.10502
 Alpha virt. eigenvalues --    1.10894   1.12284   1.12762   1.13789   1.14641
 Alpha virt. eigenvalues --    1.15459   1.16159   1.17054   1.18328   1.19079
 Alpha virt. eigenvalues --    1.20206   1.22344   1.23564   1.26183   1.27514
 Alpha virt. eigenvalues --    1.28673   1.30797   1.33200   1.33769   1.35327
 Alpha virt. eigenvalues --    1.36294   1.37197   1.38479   1.41562   1.42773
 Alpha virt. eigenvalues --    1.43544   1.45287   1.46274   1.47042   1.47490
 Alpha virt. eigenvalues --    1.48682   1.48874   1.49411   1.49951   1.50199
 Alpha virt. eigenvalues --    1.50451   1.50726   1.51471   1.51819   1.53051
 Alpha virt. eigenvalues --    1.53870   1.55198   1.55426   1.56083   1.56324
 Alpha virt. eigenvalues --    1.56988   1.57435   1.57722   1.58569   1.59526
 Alpha virt. eigenvalues --    1.60356   1.61335   1.61893   1.63177   1.63839
 Alpha virt. eigenvalues --    1.64807   1.65396   1.66360   1.68221   1.69440
 Alpha virt. eigenvalues --    1.70865   1.71785   1.72760   1.73333   1.73584
 Alpha virt. eigenvalues --    1.74067   1.74152   1.75249   1.75584   1.77027
 Alpha virt. eigenvalues --    1.78066   1.78542   1.79229   1.79674   1.82255
 Alpha virt. eigenvalues --    1.82858   1.84153   1.85144   1.85878   1.86341
 Alpha virt. eigenvalues --    1.86446   1.87495   1.87858   1.88985   1.89126
 Alpha virt. eigenvalues --    1.90001   1.90717   1.91325   1.91490   1.92295
 Alpha virt. eigenvalues --    1.93150   1.93509   1.93908   1.94747   1.95897
 Alpha virt. eigenvalues --    1.96152   1.96910   1.97498   1.98182   1.99462
 Alpha virt. eigenvalues --    1.99995   2.01450   2.02269   2.04028   2.04458
 Alpha virt. eigenvalues --    2.04885   2.05577   2.06438   2.06753   2.07854
 Alpha virt. eigenvalues --    2.09350   2.11019   2.11913   2.12834   2.13547
 Alpha virt. eigenvalues --    2.13933   2.15043   2.17262   2.17782   2.19114
 Alpha virt. eigenvalues --    2.20054   2.21465   2.22790   2.23663   2.25303
 Alpha virt. eigenvalues --    2.27026   2.28036   2.29228   2.31462   2.32655
 Alpha virt. eigenvalues --    2.33320   2.35134   2.36570   2.37224   2.39604
 Alpha virt. eigenvalues --    2.40153   2.42910   2.43662   2.45168   2.45478
 Alpha virt. eigenvalues --    2.46187   2.47556   2.49934   2.50521   2.52280
 Alpha virt. eigenvalues --    2.54166   2.55535   2.57998   2.60143   2.61118
 Alpha virt. eigenvalues --    2.61903   2.64058   2.65735   2.67250   2.67539
 Alpha virt. eigenvalues --    2.68310   2.68793   2.69176   2.69268   2.69525
 Alpha virt. eigenvalues --    2.70538   2.71102   2.71947   2.72303   2.72767
 Alpha virt. eigenvalues --    2.73761   2.74830   2.74995   2.75614   2.76142
 Alpha virt. eigenvalues --    2.76562   2.77279   2.77384   2.78221   2.79015
 Alpha virt. eigenvalues --    2.79870   2.80645   2.81357   2.81749   2.82463
 Alpha virt. eigenvalues --    2.83569   2.84512   2.85255   2.85705   2.86054
 Alpha virt. eigenvalues --    2.86904   2.87789   2.89233   2.89821   2.91308
 Alpha virt. eigenvalues --    2.91426   2.92590   2.93140   2.93682   2.94842
 Alpha virt. eigenvalues --    2.97127   2.99143   3.00977   3.01662   3.04522
 Alpha virt. eigenvalues --    3.06632   3.09208   3.09790   3.11063   3.13382
 Alpha virt. eigenvalues --    3.16959   3.18165   3.20096   3.21808   3.22718
 Alpha virt. eigenvalues --    3.24033   3.25929   3.30016   3.31523   3.34263
 Alpha virt. eigenvalues --    3.35840   3.36760   3.37545   3.38412   3.39232
 Alpha virt. eigenvalues --    3.41573   3.41971   3.43997   3.45468   3.48345
 Alpha virt. eigenvalues --    3.50078   3.52888   3.54736   3.55717   3.56475
 Alpha virt. eigenvalues --    3.58246   3.59886   3.61658   3.63654   3.64717
 Alpha virt. eigenvalues --    3.65714   3.70672   3.75343   3.82351   3.86672
 Alpha virt. eigenvalues --    3.97259   4.04216   4.06366   4.06468   4.07955
 Alpha virt. eigenvalues --    4.09757   4.11687   4.13127   4.19324   4.24684
 Alpha virt. eigenvalues --    4.30887   4.36995   4.41986   4.65661   4.77223
 Alpha virt. eigenvalues --    4.80502   4.81107   4.81781   4.82997   4.84316
 Alpha virt. eigenvalues --   23.44714  23.60389  23.71199  23.73307  23.82818
 Alpha virt. eigenvalues --   23.87986  23.88480  23.90207  23.92488  23.94304
 Alpha virt. eigenvalues --   23.95069  23.95744  23.96374  23.99303  24.01395
 Alpha virt. eigenvalues --   24.02548  24.06766  24.07187  24.11139  24.14492
 Alpha virt. eigenvalues --   24.19642  24.20318  24.23075  24.25285  24.26283
  Beta  occ. eigenvalues --  -10.21300 -10.21104 -10.20968 -10.20493 -10.19809
  Beta  occ. eigenvalues --  -10.19598 -10.19551 -10.19348 -10.19201 -10.19120
  Beta  occ. eigenvalues --  -10.19021 -10.18261 -10.18253 -10.18202 -10.18151
  Beta  occ. eigenvalues --  -10.18123 -10.18122 -10.18071 -10.18057 -10.17959
  Beta  occ. eigenvalues --  -10.17874 -10.17854 -10.17825 -10.17607 -10.17340
  Beta  occ. eigenvalues --   -0.89948  -0.88324  -0.85894  -0.83694  -0.82727
  Beta  occ. eigenvalues --   -0.79800  -0.78973  -0.77148  -0.75901  -0.75376
  Beta  occ. eigenvalues --   -0.72841  -0.72070  -0.66386  -0.66183  -0.64259
  Beta  occ. eigenvalues --   -0.62974  -0.61837  -0.60270  -0.58007  -0.56771
  Beta  occ. eigenvalues --   -0.55083  -0.52702  -0.51898  -0.51348  -0.50809
  Beta  occ. eigenvalues --   -0.48550  -0.47519  -0.47075  -0.46353  -0.45218
  Beta  occ. eigenvalues --   -0.44678  -0.43770  -0.43027  -0.42358  -0.42020
  Beta  occ. eigenvalues --   -0.41764  -0.40944  -0.39946  -0.39930  -0.38999
  Beta  occ. eigenvalues --   -0.37939  -0.37297  -0.36914  -0.35706  -0.35213
  Beta  occ. eigenvalues --   -0.35029  -0.34191  -0.33851  -0.33093  -0.30360
  Beta  occ. eigenvalues --   -0.29336  -0.28003  -0.26646  -0.25581  -0.22434
  Beta  occ. eigenvalues --   -0.21088
  Beta virt. eigenvalues --   -0.09447  -0.07926  -0.06791  -0.04696  -0.03623
  Beta virt. eigenvalues --   -0.02255  -0.00078   0.00423   0.00588   0.00641
  Beta virt. eigenvalues --    0.01702   0.01738   0.01887   0.03159   0.03257
  Beta virt. eigenvalues --    0.03538   0.03899   0.04358   0.04788   0.04953
  Beta virt. eigenvalues --    0.05260   0.05517   0.05870   0.06784   0.07019
  Beta virt. eigenvalues --    0.07262   0.07569   0.07765   0.08183   0.08551
  Beta virt. eigenvalues --    0.08794   0.09583   0.09805   0.10080   0.10547
  Beta virt. eigenvalues --    0.11015   0.11609   0.11857   0.11972   0.12319
  Beta virt. eigenvalues --    0.12488   0.12744   0.13361   0.13454   0.14084
  Beta virt. eigenvalues --    0.14464   0.14572   0.15089   0.15410   0.15500
  Beta virt. eigenvalues --    0.15840   0.16127   0.16458   0.16679   0.16900
  Beta virt. eigenvalues --    0.17244   0.17505   0.17759   0.17967   0.18193
  Beta virt. eigenvalues --    0.18333   0.18820   0.19004   0.19115   0.19354
  Beta virt. eigenvalues --    0.19661   0.19804   0.20322   0.20530   0.20602
  Beta virt. eigenvalues --    0.21137   0.21445   0.21580   0.22027   0.22252
  Beta virt. eigenvalues --    0.22380   0.22644   0.22857   0.23283   0.23409
  Beta virt. eigenvalues --    0.23468   0.23845   0.24054   0.24299   0.24539
  Beta virt. eigenvalues --    0.25091   0.25703   0.25806   0.26063   0.26363
  Beta virt. eigenvalues --    0.26533   0.26874   0.27194   0.27267   0.27524
  Beta virt. eigenvalues --    0.28012   0.28373   0.28562   0.29044   0.29114
  Beta virt. eigenvalues --    0.29618   0.29863   0.30078   0.30419   0.30895
  Beta virt. eigenvalues --    0.31056   0.31455   0.31549   0.31870   0.32143
  Beta virt. eigenvalues --    0.32487   0.32588   0.33502   0.33626   0.33875
  Beta virt. eigenvalues --    0.34569   0.34996   0.35493   0.35848   0.36259
  Beta virt. eigenvalues --    0.37120   0.37485   0.38019   0.38688   0.40478
  Beta virt. eigenvalues --    0.41190   0.41825   0.42244   0.43041   0.43974
  Beta virt. eigenvalues --    0.44598   0.45183   0.46475   0.47031   0.48144
  Beta virt. eigenvalues --    0.48972   0.49054   0.50447   0.51272   0.52145
  Beta virt. eigenvalues --    0.52373   0.52720   0.53115   0.53230   0.53638
  Beta virt. eigenvalues --    0.54638   0.54865   0.55167   0.55280   0.55634
  Beta virt. eigenvalues --    0.56141   0.56658   0.56966   0.57277   0.57646
  Beta virt. eigenvalues --    0.58164   0.58550   0.59115   0.59362   0.59414
  Beta virt. eigenvalues --    0.60299   0.60412   0.60917   0.61889   0.62008
  Beta virt. eigenvalues --    0.62136   0.62522   0.63318   0.63683   0.64233
  Beta virt. eigenvalues --    0.64472   0.64876   0.65347   0.65786   0.66448
  Beta virt. eigenvalues --    0.66866   0.67424   0.67863   0.68566   0.68698
  Beta virt. eigenvalues --    0.69121   0.70843   0.71113   0.71344   0.71732
  Beta virt. eigenvalues --    0.72330   0.72570   0.72718   0.73220   0.73300
  Beta virt. eigenvalues --    0.73818   0.74056   0.74608   0.75058   0.75204
  Beta virt. eigenvalues --    0.75321   0.76360   0.76668   0.77210   0.77515
  Beta virt. eigenvalues --    0.79506   0.80960   0.81371   0.82811   0.83045
  Beta virt. eigenvalues --    0.83413   0.84090   0.84661   0.85732   0.86493
  Beta virt. eigenvalues --    0.86949   0.87548   0.87821   0.88442   0.89035
  Beta virt. eigenvalues --    0.89469   0.90172   0.90837   0.91408   0.91987
  Beta virt. eigenvalues --    0.92315   0.92577   0.93009   0.93908   0.94078
  Beta virt. eigenvalues --    0.94787   0.95681   0.96307   0.97056   0.97350
  Beta virt. eigenvalues --    0.97487   0.97871   0.98393   0.98577   0.99144
  Beta virt. eigenvalues --    0.99747   1.00269   1.00916   1.01523   1.01903
  Beta virt. eigenvalues --    1.02251   1.03198   1.03961   1.04228   1.05451
  Beta virt. eigenvalues --    1.05992   1.06714   1.07618   1.08475   1.09178
  Beta virt. eigenvalues --    1.09790   1.10808   1.11084   1.12552   1.13010
  Beta virt. eigenvalues --    1.14212   1.14874   1.15891   1.16533   1.17546
  Beta virt. eigenvalues --    1.18455   1.19263   1.20525   1.22893   1.24047
  Beta virt. eigenvalues --    1.27412   1.28100   1.29390   1.31890   1.33379
  Beta virt. eigenvalues --    1.34474   1.35575   1.36618   1.37449   1.38636
  Beta virt. eigenvalues --    1.41791   1.43487   1.43947   1.45607   1.46861
  Beta virt. eigenvalues --    1.47384   1.47655   1.48876   1.49097   1.49578
  Beta virt. eigenvalues --    1.50231   1.50500   1.50665   1.51009   1.51814
  Beta virt. eigenvalues --    1.52335   1.53319   1.54148   1.55567   1.55827
  Beta virt. eigenvalues --    1.56216   1.56518   1.57142   1.57610   1.58059
  Beta virt. eigenvalues --    1.58834   1.60044   1.60845   1.61622   1.62188
  Beta virt. eigenvalues --    1.63712   1.64267   1.65177   1.65830   1.66629
  Beta virt. eigenvalues --    1.68752   1.69640   1.71183   1.72028   1.73122
  Beta virt. eigenvalues --    1.73551   1.73693   1.74189   1.74708   1.75620
  Beta virt. eigenvalues --    1.76181   1.77260   1.78504   1.78891   1.79797
  Beta virt. eigenvalues --    1.79890   1.83087   1.83120   1.84412   1.85406
  Beta virt. eigenvalues --    1.86308   1.86523   1.86786   1.87855   1.88144
  Beta virt. eigenvalues --    1.89157   1.89479   1.90216   1.90872   1.91602
  Beta virt. eigenvalues --    1.91647   1.92726   1.93366   1.93741   1.94318
  Beta virt. eigenvalues --    1.94879   1.96161   1.96392   1.97329   1.97841
  Beta virt. eigenvalues --    1.98519   1.99676   2.00209   2.02047   2.02743
  Beta virt. eigenvalues --    2.04252   2.04846   2.05118   2.05872   2.06825
  Beta virt. eigenvalues --    2.06915   2.08013   2.09565   2.11266   2.12391
  Beta virt. eigenvalues --    2.12948   2.13698   2.14132   2.15305   2.17455
  Beta virt. eigenvalues --    2.17876   2.19451   2.20518   2.21658   2.22850
  Beta virt. eigenvalues --    2.23932   2.25699   2.27648   2.28271   2.29517
  Beta virt. eigenvalues --    2.31713   2.32913   2.33654   2.35570   2.36942
  Beta virt. eigenvalues --    2.37472   2.39847   2.40337   2.43003   2.43866
  Beta virt. eigenvalues --    2.45393   2.45611   2.46431   2.47801   2.50487
  Beta virt. eigenvalues --    2.50922   2.52516   2.54292   2.55609   2.58378
  Beta virt. eigenvalues --    2.60352   2.61651   2.62417   2.64322   2.66253
  Beta virt. eigenvalues --    2.67525   2.67980   2.68496   2.69070   2.69277
  Beta virt. eigenvalues --    2.69632   2.69700   2.70792   2.71329   2.72185
  Beta virt. eigenvalues --    2.72392   2.72850   2.73869   2.74919   2.75124
  Beta virt. eigenvalues --    2.75898   2.76218   2.76630   2.77384   2.77445
  Beta virt. eigenvalues --    2.78336   2.79510   2.80244   2.80825   2.81761
  Beta virt. eigenvalues --    2.81899   2.82813   2.83819   2.84760   2.85675
  Beta virt. eigenvalues --    2.86099   2.86560   2.87141   2.87944   2.89829
  Beta virt. eigenvalues --    2.90650   2.91648   2.91885   2.92595   2.93308
  Beta virt. eigenvalues --    2.93852   2.95241   2.98769   2.99501   3.01358
  Beta virt. eigenvalues --    3.02966   3.04813   3.06851   3.09544   3.11246
  Beta virt. eigenvalues --    3.11640   3.13709   3.17615   3.18583   3.20266
  Beta virt. eigenvalues --    3.21954   3.22806   3.24128   3.27138   3.30297
  Beta virt. eigenvalues --    3.31919   3.34763   3.36005   3.36927   3.37729
  Beta virt. eigenvalues --    3.38569   3.39677   3.41946   3.42089   3.44198
  Beta virt. eigenvalues --    3.45668   3.48428   3.50227   3.53349   3.54825
  Beta virt. eigenvalues --    3.55769   3.56579   3.58338   3.60076   3.61774
  Beta virt. eigenvalues --    3.63758   3.64916   3.66068   3.70873   3.75502
  Beta virt. eigenvalues --    3.82674   3.86815   3.97695   4.04281   4.06471
  Beta virt. eigenvalues --    4.06609   4.08280   4.09934   4.11703   4.13417
  Beta virt. eigenvalues --    4.19441   4.24853   4.31003   4.37482   4.42157
  Beta virt. eigenvalues --    4.65925   4.77749   4.80705   4.81252   4.81934
  Beta virt. eigenvalues --    4.83186   4.84435  23.44946  23.60443  23.71703
  Beta virt. eigenvalues --   23.73419  23.82864  23.88105  23.88564  23.90463
  Beta virt. eigenvalues --   23.92537  23.94309  23.95068  23.95904  23.96410
  Beta virt. eigenvalues --   23.99294  24.01377  24.02561  24.06909  24.08182
  Beta virt. eigenvalues --   24.11195  24.14674  24.19681  24.20372  24.23077
  Beta virt. eigenvalues --   24.25279  24.27116
          Condensed to atoms (all electrons):
               1          2          3          4          5          6
     1  C   10.780533   0.697384  -0.094895  -0.043098  -0.370577  -1.103729
     2  C    0.697384   7.301723   0.866708  -1.471506  -1.059833   0.572056
     3  C   -0.094895   0.866708   6.753036   0.116643   0.058676   0.946377
     4  C   -0.043098  -1.471506   0.116643  12.356591  -1.367915  -1.657037
     5  C   -0.370577  -1.059833   0.058676  -1.367915   9.707745   2.207300
     6  C   -1.103729   0.572056   0.946377  -1.657037   2.207300  10.759110
     7  C    0.014248   0.046194   0.649516   0.347828  -0.438822  -0.233220
     8  C   -0.307607  -0.365282  -0.246106  -0.736428   0.011248  -1.324928
     9  C   -0.024381  -0.537486  -1.016445   0.364929   0.179534  -1.086542
    10  C   -0.694203  -0.843152   0.067104   2.490838  -0.393944  -1.793951
    11  C   -0.012286  -0.099833  -0.113740  -0.734360   0.018242  -0.088111
    12  C    0.007465  -0.004079  -0.605108  -0.109526   0.030267  -0.065023
    13  C    0.019036  -0.028224  -0.063662   0.251894  -0.048179  -0.166908
    14  C    0.003251  -0.198642  -1.039523  -0.674653  -0.089326  -0.715915
    15  C   -0.134083  -0.202072  -0.208594  -0.823906  -0.026566  -0.142524
    16  C   -0.019232  -0.057204   0.119054  -0.071810  -0.004210  -0.003032
    17  C    0.001371   0.005252  -0.057269  -0.029940   0.000379  -0.014149
    18  C    0.001427  -0.005090  -0.023389   0.076719   0.001805   0.048021
    19  C   -1.509794   0.158970  -0.104831  -0.617492   0.010418   0.161842
    20  C   -0.437111   0.387590  -0.253542  -0.401418  -0.699998  -0.104714
    21  C    1.553460  -1.164836  -0.294695   0.143991  -0.168332  -0.225183
    22  C   -1.156313   2.412105   0.295772  -1.213680  -1.135033  -0.014400
    23  C   -0.341487   0.489941   0.572982  -1.216749  -0.031423   0.319142
    24  H   -0.013464  -0.004335  -0.005742   0.000281  -0.003513  -0.000948
    25  H    0.040483  -0.009264   0.002315   0.003390   0.011764   0.000289
    26  H   -0.146783  -0.014436  -0.008124   0.019878   0.126280   0.051078
    27  H   -0.076912   0.005772  -0.009998  -0.003319   0.383326  -0.087129
    28  H   -0.019987  -0.028676  -0.006483  -0.062103  -0.038926   0.333690
    29  H    0.010648  -0.004904  -0.027499  -0.093734   0.036657   0.066204
    30  H    0.000193   0.000704   0.012500   0.049542  -0.001436   0.004346
    31  H    0.000012   0.000022   0.000169   0.002450   0.000005   0.000134
    32  H   -0.000004   0.000016  -0.000289  -0.000166   0.000000  -0.000017
    33  H    0.001726   0.000591   0.004835  -0.000169   0.000104  -0.000505
    34  H    0.000009   0.000179  -0.000121  -0.000296  -0.000002  -0.000034
    35  H    0.000000   0.000005   0.000029   0.000099   0.000000   0.000004
    36  C   -0.639657  -0.223505   0.071479  -0.021626  -0.322211   0.044438
    37  C   -0.656997  -0.594388  -0.104007   0.280533  -0.283501  -0.305804
    38  H    0.000809  -0.009046  -0.005739   0.001018   0.000291   0.000387
    39  H    0.016207  -0.020170  -0.012776   0.002832   0.001753  -0.000174
               7          8          9         10         11         12
     1  C    0.014248  -0.307607  -0.024381  -0.694203  -0.012286   0.007465
     2  C    0.046194  -0.365282  -0.537486  -0.843152  -0.099833  -0.004079
     3  C    0.649516  -0.246106  -1.016445   0.067104  -0.113740  -0.605108
     4  C    0.347828  -0.736428   0.364929   2.490838  -0.734360  -0.109526
     5  C   -0.438822   0.011248   0.179534  -0.393944   0.018242   0.030267
     6  C   -0.233220  -1.324928  -1.086542  -1.793951  -0.088111  -0.065023
     7  C    6.469845  -0.007138   0.124749   0.296755   0.121558  -0.177551
     8  C   -0.007138   8.125237   1.131000   0.442100   1.702690  -0.353070
     9  C    0.124749   1.131000  11.362840   1.665552  -0.152249   0.942218
    10  C    0.296755   0.442100   1.665552   8.378185  -0.700290  -1.054797
    11  C    0.121558   1.702690  -0.152249  -0.700290   9.416729   1.341036
    12  C   -0.177551  -0.353070   0.942218  -1.054797   1.341036  13.516040
    13  C   -0.332052  -0.002296  -1.669133  -0.049664  -1.422045  -2.652495
    14  C   -0.687286   0.703786  -1.219204  -1.534251   0.510418  -1.979478
    15  C   -0.242564  -0.586346  -2.113503  -0.242003  -1.036200  -1.047175
    16  C   -0.153019  -0.142667  -0.176681   0.066065  -1.812207  -0.223097
    17  C   -0.033025  -0.069943  -0.150214  -0.140265   1.058144   0.721898
    18  C   -0.089279  -0.744386  -0.915254   0.107148  -2.103898  -2.634725
    19  C    0.154538  -0.086378   0.075270  -0.041542   0.018418   0.005531
    20  C    0.015019  -0.060330  -0.026286  -0.080551   0.001142   0.000403
    21  C   -0.468644   0.129841  -0.025758  -0.023934  -0.008064   0.023299
    22  C    0.067308  -0.262348  -0.542708  -0.284254   0.011026  -0.006477
    23  C   -0.081734  -0.148959  -1.293973  -0.262308  -0.054459  -0.450237
    24  H    0.001121  -0.000944  -0.000245   0.000096  -0.000062  -0.000021
    25  H    0.000317   0.000149   0.000070   0.000240   0.000007   0.000001
    26  H    0.002217   0.000018   0.000050   0.001593  -0.000015  -0.000002
    27  H    0.000436   0.000867   0.003483   0.002832   0.000120   0.000012
    28  H   -0.004612   0.015570   0.047956   0.090979   0.002172  -0.000120
    29  H   -0.018160  -0.025453  -0.062899   0.323369  -0.012210   0.018898
    30  H    0.000823  -0.006852  -0.059167   0.118370  -0.035041  -0.048255
    31  H    0.000267  -0.014555   0.020127   0.002066  -0.006210  -0.086424
    32  H    0.002411  -0.008470   0.010077   0.000273   0.005705  -0.114792
    33  H   -0.001306   0.030508   0.014821   0.003930   0.000558   0.030431
    34  H    0.001801   0.001080   0.002305  -0.000022   0.052067   0.003896
    35  H    0.000783   0.002594   0.003884   0.000376  -0.000061   0.027943
    36  C   -0.202562  -0.899316   0.104711  -0.030513  -0.197397  -0.032773
    37  C    0.522728   0.123716   0.264400   0.115060   0.007513   0.100416
    38  H    0.006051  -0.004068  -0.000684  -0.000551  -0.003287   0.000999
    39  H   -0.007683   0.002174  -0.000611   0.000006   0.000386   0.000248
              13         14         15         16         17         18
     1  C    0.019036   0.003251  -0.134083  -0.019232   0.001371   0.001427
     2  C   -0.028224  -0.198642  -0.202072  -0.057204   0.005252  -0.005090
     3  C   -0.063662  -1.039523  -0.208594   0.119054  -0.057269  -0.023389
     4  C    0.251894  -0.674653  -0.823906  -0.071810  -0.029940   0.076719
     5  C   -0.048179  -0.089326  -0.026566  -0.004210   0.000379   0.001805
     6  C   -0.166908  -0.715915  -0.142524  -0.003032  -0.014149   0.048021
     7  C   -0.332052  -0.687286  -0.242564  -0.153019  -0.033025  -0.089279
     8  C   -0.002296   0.703786  -0.586346  -0.142667  -0.069943  -0.744386
     9  C   -1.669133  -1.219204  -2.113503  -0.176681  -0.150214  -0.915254
    10  C   -0.049664  -1.534251  -0.242003   0.066065  -0.140265   0.107148
    11  C   -1.422045   0.510418  -1.036200  -1.812207   1.058144  -2.103898
    12  C   -2.652495  -1.979478  -1.047175  -0.223097   0.721898  -2.634725
[...]
 2,-0.00001414,-0.00006381,-0.00001532,-0.00002303,0.00009850,0.0001561
 0,-0.00018193,0.00030925,-0.00007419,0.00004666,-0.00015371,0.00001267
 ,0.00000439,0.00042968,-0.00086385,-0.00000237,0.00129312,-0.00499919,
 0.00232237,-0.00139225,0.00022458,0.00003011,-0.00010874,-0.00055494,-
 0.00002530,0.00316175,-0.00081513,0.00155905,0.01589173,0.01135504,-0.
 00132547,-0.11054470,-0.11427906,0.01228900,-0.02932318,-0.00886673,0.
 00178050,0.00000533,0.00000227,0.00001060,0.00000781,-0.00000073,-0.00
 000082,-0.00001515,-0.00000398,0.00000061,-0.00000895,-0.00001572,-0.0
 0000759,-0.00007322,-0.00000679,0.00002735,0.00000116,0.00000175,0.000
 00269,-0.00000215,0.00000156,-0.00000088,-0.00000093,-0.00000094,-0.00
 000227,-0.00000244,-0.00000138,-0.00000117,0.00000291,-0.00000354,0.00
 000259,0.00000549,0.00000057,-0.00000331,-0.00014336,-0.00008297,-0.00
 002318,0.00004479,-0.00003015,0.00002758,0.00040813,0.00084800,-0.0009
 3156,0.00080283,0.00031587,-0.00004267,-0.00060829,0.00055779,-0.00082
 845,0.11989883,0.11706399,0.00001490,0.00002518,-0.00001579,-0.0000553
 0,0.00002340,0.00001056,0.00007179,-0.00004033,0.00004384,0.00001981,0
 .00001206,-0.00002744,0.00001555,-0.00000072,0.00000827,-0.00001172,-0
 .00001733,0.00000831,0.00001749,0.00001899,0.00001957,0.00001294,-0.00
 022646,-0.00088709,-0.00000543,-0.00000133,0.00010860,0.00000296,-0.00
 002303,0.00002399,-0.00013177,0.00013214,-0.00087085,-0.00008294,0.002
 17807,0.00773568,0.00036199,0.00012325,0.00019031,-0.00004473,0.000051
 41,-0.00040890,-0.00099212,0.00170436,0.00583872,-0.00368436,-0.002003
 52,0.00329892,0.01532029,0.01256117,-0.03841895,0.00546014,0.00196364,
 0.00311283,-0.00002446,-0.00001060,-0.00000073,0.00001475,-0.00001170,
 0.00000614,-0.00000962,-0.00001510,-0.00001094,0.00001396,0.00002197,0
 .00000447,-0.00002811,0.00024605,-0.00008672,0.00000366,-0.00000113,-0
 .00000114,-0.00000194,-0.00000054,0.00000059,-0.00000001,-0.00000026,-
 0.00000057,0.00000074,-0.00000156,-0.00000166,-0.00000026,-0.00000170,
 0.00000343,-0.00000018,-0.00000155,-0.00000097,0.00002575,0.00001035,-
 0.00001374,-0.00001625,0.00000871,0.00007363,-0.00003691,-0.00092189,-
 0.00427670,-0.00013479,-0.00011423,0.00008056,0.00024220,-0.00089591,-
 0.00309428,-0.01634517,-0.01470313,0.02746845,-0.00700044,-0.00379019,
 -0.00123522,0.00711542,0.01194383,0.00147667,-0.01972826,-0.01374654,-
 0.00370446,-0.00373403,0.00763435,0.00028745,-0.00102125,0.00074146,0.
 00003884,0.00101346,0.00102964,0.00001786,0.00540641,0.05903616,0.0133
 6755,0.02416261,-0.01611492,-0.00209982,0.00775893,0.01183482,0.001718
 20,-0.00345614,-0.00853610,0.00088118,-0.00863548,-0.00403350,-0.00072
 957,0.00202135,-0.00369274,-0.00018867,0.00166343,0.00359232,-0.000730
 53,-0.00308422,0.00034008,-0.00023791,0.00337054,0.00206626,0.00105796
 ,-0.00253560,-0.00013984,-0.00020049,0.00158186,-0.00106836,0.00022302
 ,0.00036756,0.00090497,-0.00001299,0.00324125,0.00742264,0.00114730,-0
 .00650580,-0.01025308,-0.00248497,0.02398789,-0.00149027,0.00342355,-0
 .05414557,-0.03706855,-0.01627921,-0.13265538,0.06113606,0.00305193,0.
 00010462,0.00008482,0.00053754,-0.00006331,-0.00031443,-0.00001799,-0.
 00012158,-0.00004617,0.00006578,-0.00005815,0.00006719,-0.00005506,0.0
 0000441,0.00001543,0.00002115,-0.00006938,0.00007506,-0.00025705,0.000
 01967,-0.00007919,0.00003756,0.00012699,0.00005652,0.00017439,0.000049
 39,-0.00000225,0.00003625,-0.00288425,0.00041452,0.00047849,0.00005457
 ,0.00007280,-0.00013554,-0.00001662,0.00002953,0.00006362,0.57849149,0
 .00055801,0.00223658,0.00031643,-0.00326735,-0.00254980,0.00005019,0.0
 1149770,0.01345414,0.00226829,0.00534477,-0.00617176,-0.00012840,0.001
 13367,-0.00082539,-0.00000696,-0.00140923,-0.00055853,-0.00009952,0.02
 731530,-0.05461010,-0.01015727,-0.01775410,0.00462041,0.00110301,-0.00
 210300,-0.00551981,-0.00114727,-0.00053301,0.00510135,-0.00053224,0.00
 448210,0.00285016,0.00079892,-0.00091785,0.00164987,0.00003894,-0.0007
 5356,-0.00155103,0.00043107,0.00095145,-0.00047327,0.00007128,-0.00173
 926,-0.00269720,0.00044189,0.00098103,0.00093392,0.00010610,-0.0009692
 7,0.00026699,-0.00020044,-0.00027657,-0.00024594,-0.00010608,0.0000739
 7,-0.00502988,-0.00046599,0.00235823,0.00709214,0.00108836,-0.01212391
 ,-0.00557899,-0.00315016,-0.01004883,0.02002623,0.00241521,0.12463221,
 -0.23600473,-0.03145088,-0.00033556,0.00069416,-0.00011766,-0.00040496
 ,-0.00020213,-0.00003118,0.00008356,-0.00003994,-0.00003771,0.00005083
 ,-0.00002223,0.00003071,0.00010458,0.00007376,-0.00001706,-0.00002443,
 -0.00004352,0.00010977,0.00009746,0.00002084,-0.00003226,-0.00007961,0
 .00000782,-0.00009584,-0.00002241,0.00001333,0.00001148,0.00015348,0.0
 0106246,-0.00036494,-0.00005825,-0.00006496,0.00020255,-0.00008588,0.0
 0003313,-0.00010166,0.01052911,0.62252892,-0.00103738,0.00002064,-0.00
 024873,0.00019111,0.00102097,-0.00051767,0.00088864,0.00152741,0.00072
 416,0.00062795,-0.00071391,-0.00087312,0.00023113,-0.00017013,-0.00012
 846,-0.00026911,-0.00016634,0.00012934,0.00560476,-0.00687617,0.000647
 26,-0.00256296,-0.00083983,0.00271946,0.00081640,-0.00051176,0.0005510
 3,-0.00041822,0.00080020,-0.00012798,0.00083259,0.00059558,0.00012506,
 -0.00041388,0.00002433,0.00008694,0.00000134,0.00003071,0.00006547,-0.
 00011561,-0.00033770,-0.00012548,-0.00013299,0.00006369,0.00012114,-0.
 00023871,-0.00006596,-0.00036965,0.00017683,-0.00034571,0.00002828,0.0
 0023139,0.00033392,-0.00016297,0.00058139,-0.00062118,0.00007802,-0.00
 010381,0.00054599,0.00037986,-0.00070075,-0.00176531,0.00247509,-0.008
 28094,-0.00050370,0.00182310,0.01817323,-0.03689730,-0.04887181,0.0000
 1696,0.00009420,-0.00022873,-0.00008998,-0.00006989,-0.00017790,0.0000
 1950,-0.00001809,0.00002060,0.00000417,-0.00000222,-0.00000650,0.00000
 023,0.00000634,-0.00004445,-0.00001706,-0.00002006,0.00009844,0.000065
 43,-0.00003648,0.00000761,-0.00000671,-0.00000884,-0.00000859,-0.00000
 077,0.00001023,0.00000253,0.00080622,0.00000277,0.00025265,-0.00005512
 ,-0.00001872,0.00003605,-0.00000199,-0.00000083,0.00008611,0.06241109,
 0.11684156,0.14651232,0.00755691,0.00786575,0.00070617,0.00923648,-0.0
 1380092,-0.00010617,0.01160091,0.01108064,0.00237681,0.00271494,-0.005
 39743,-0.00022194,0.00142121,0.00017491,-0.00006180,-0.00028600,-0.000
 15745,0.00002500,0.00513774,-0.05007533,-0.01072297,-0.01904326,0.0115
 2340,0.00179537,-0.00615630,-0.00962495,-0.00114009,0.00374787,0.00582
 471,-0.00062563,0.00621906,0.00347742,0.00050397,-0.00119203,0.0030123
 8,0.00007192,-0.00143829,-0.00274692,0.00049249,0.00224485,-0.00038833
 ,0.00025326,-0.00206870,-0.00245571,-0.00031306,0.00206823,0.00025576,
 0.00020669,-0.00129530,0.00103963,-0.00034106,-0.00050276,-0.00091320,
 0.00005808,-0.00454188,-0.00854219,-0.00100197,0.00409146,0.01608315,0
 .00112662,-0.07228830,-0.03130000,-0.01743753,-0.11448694,-0.03168928,
 -0.01158744,-0.07336384,0.10857219,0.01546025,-0.00173947,-0.00414825,
 -0.00055237,-0.00091814,-0.00054687,-0.00009951,0.00025778,-0.00010931
 ,0.00011532,0.00002221,0.00034766,0.00002546,0.00001831,0.00001495,-0.
 00002344,0.00005263,-0.00001553,0.00022108,0.00000833,0.00005407,-0.00
 004153,-0.00008794,-0.00004675,-0.00012922,-0.00003217,0.00000020,0.00
 000071,0.00033985,0.00026216,-0.00010987,-0.00004588,-0.00004563,0.000
 15950,-0.00000983,-0.00000285,-0.00006212,-0.30075972,-0.07321751,-0.0
 5140155,0.67407761,0.01134850,-0.00258638,0.00079440,-0.01766868,-0.03
 512961,-0.00809729,-0.00001514,0.00168337,0.00089829,-0.00290505,-0.00
 071820,-0.00019658,-0.00162412,0.00118351,-0.00014223,0.00153453,0.000
 81631,0.00015734,0.00059612,-0.00680562,-0.00215823,-0.00354228,0.0036
 7143,-0.00008317,-0.00336178,-0.00388211,-0.00021398,0.00461021,0.0004
 6388,0.00006206,0.00080911,0.00070058,0.00000939,0.00019749,0.00139172
 ,-0.00003355,-0.00073201,-0.00092758,0.00010628,0.00092708,-0.00012455
 ,0.00016028,-0.00031765,-0.00045860,-0.00004531,0.00100072,-0.00014568
 ,0.00001170,-0.00027214,0.00085518,-0.00017828,-0.00049725,-0.00067083
 ,0.00009220,-0.00533499,-0.00231650,-0.00068333,0.00715349,0.00467646,
 0.00047602,-0.02642920,0.00704449,-0.00522803,-0.06134876,-0.18806756,
 -0.02931068,0.02742497,0.01471581,0.00481745,0.00322661,-0.00055987,0.
 00114862,0.00070652,0.00067372,0.00020529,0.00001475,0.00009159,0.0001
 8196,0.00005895,-0.00027598,0.00001307,0.00006437,0.00001013,-0.000047
 25,0.00000788,0.00008110,0.00011337,-0.00002340,0.00002394,0.00000204,
 -0.00000039,-0.00002772,-0.00003652,0.00000441,-0.00000691,-0.00000537
 ,0.00008339,-0.00020435,-0.00000429,0.00004917,0.00003118,0.00000130,0
 .00000190,0.00000741,0.00001145,0.02650369,-0.10859665,-0.00935183,-0.
 05152644,0.57363041,0.00186353,0.00059412,0.00501627,-0.00103922,-0.00
 594802,0.00013178,0.00184077,0.00146913,-0.00088834,-0.00033374,-0.000
 34149,0.00012308,-0.00018472,0.00022581,0.00048755,0.00023650,0.000060
 10,-0.00010930,0.00104047,-0.00688153,-0.00236239,-0.00289535,0.002083
 21,-0.00049052,-0.00135098,-0.00176712,-0.00019361,0.00141051,0.000825
 90,0.00001743,0.00141693,0.00055844,0.00030473,-0.00033334,0.00064126,
 -0.00007711,-0.00031027,-0.00057429,0.00020038,0.00054772,-0.00010686,
 -0.00002869,-0.00054213,-0.00036072,-0.00015826,0.00035553,-0.00007640
 ,-0.00010465,-0.00013777,0.00015513,0.00000626,-0.00010143,-0.00012701
 ,-0.00008207,-0.00106980,-0.00182577,-0.00160954,0.00095257,0.00279347
 ,0.00679335,-0.01742639,-0.00524413,0.00524792,-0.01912541,-0.02844538
 ,-0.06141501,-0.00568321,0.01309391,0.01483251,0.00079075,-0.00063489,
 -0.00369737,-0.00000111,0.00004442,-0.00004145,0.00014616,-0.00000443,
 -0.00073874,0.00002582,0.00000506,0.00001755,0.00001412,0.00000378,-0.
 00005473,0.00001561,-0.00000239,0.00003192,-0.00000212,0.00001894,0.00
 000536,-0.00002324,-0.00001665,-0.00001879,0.00000743,-0.00000875,-0.0
 0000796,0.00037931,-0.00007111,0.00009824,-0.00000581,0.00000930,0.000
 00525,0.00001577,0.00000380,0.00002275,-0.02758009,-0.02094013,-0.0561
 8133,0.06514042,0.08074483,0.12415602,0.00001298,-0.00018811,0.0000560
 3,0.00005202,0.00039612,0.00002967,-0.00066486,-0.00054061,-0.00004350
 ,-0.00006003,0.00021806,0.00004440,-0.00006359,0.00004001,-0.00000418,
 0.00002839,-0.00000027,0.00000737,-0.00187324,0.00393117,0.00027114,0.
 00094797,0.00014032,-0.00017858,-0.00007819,0.00025892,0.00009880,-0.0
 0001485,-0.00015877,0.00000557,-0.00001965,-0.00005530,-0.00001430,0.0
 0001710,-0.00008986,0.00002116,0.00002374,0.00007226,-0.00000527,-0.00
 000756,0.00003952,-0.00001892,-0.00006683,-0.00000144,-0.00019314,-0.0
 0005182,-0.00004321,-0.00002115,-0.00001274,-0.00003580,0.00001130,0.0
 0002897,-0.00000806,-0.00000914,0.00007103,0.00019439,0.00000635,-0.00
 057079,0.00005061,-0.00002663,0.00017189,-0.00127488,-0.00002086,-0.00
 438694,0.00175167,-0.00151538,0.00971170,0.01523235,0.00470548,-0.0000
 6003,0.00013742,0.00001179,-0.00010070,-0.00009328,-0.00003606,-0.0000
 1104,-0.00001351,-0.00000137,-0.00000165,-0.00001840,-0.00000130,0.000
 01010,0.00000291,-0.00000211,0.00000482,-0.00000022,-0.00000616,-0.000
 02229,0.00001062,0.00000104,-0.00000102,-0.00000392,0.00000394,0.00000
 229,-0.00000860,0.00000325,0.00007470,0.00010666,0.00022275,-0.0000345
 7,-0.00000530,0.00003528,0.00001206,0.00000024,0.00000429,-0.09875776,
 -0.09171244,-0.02859244,-0.01130232,-0.03008363,-0.00878325,0.10612045
 ,0.00009822,0.00006948,0.00014447,0.00008931,-0.00011497,-0.00002871,0
 .00036623,-0.00009141,0.00020920,-0.00021325,-0.00007018,0.00006635,-0
 .00000560,0.00002803,-0.00002767,0.00005043,-0.00005569,0.00003425,0.0
 0053100,-0.00102229,-0.00157552,-0.00066397,-0.00017256,-0.00003772,0.
 00013448,-0.00013086,0.00008268,0.00013227,0.00006552,-0.00003274,-0.0
 0006523,-0.00008018,0.00002671,-0.00002937,0.00009693,-0.00004418,-0.0
 0001073,-0.00007416,0.00005731,0.00001263,-0.00006004,-0.00003551,0.00
 039446,0.00005002,-0.00010491,0.00005785,0.00000395,0.00001480,0.00006
 043,0.00001684,0.00003136,-0.00000460,0.00003120,-0.00002645,-0.000089
 94,-0.00002692,-0.00004751,-0.00007134,0.00010558,0.00013464,-0.000375
 92,-0.00026190,-0.00000937,0.00088480,0.00224738,-0.00127507,-0.001332
 86,-0.02375834,-0.00577270,-0.00002355,-0.00001947,-0.00002942,-0.0000
 1123,-0.00001265,-0.00002124,-0.00000614,-0.00000471,-0.00000474,-0.00
 001222,-0.00000224,0.,-0.00001370,-0.00001909,-0.00000990,0.00000296,-
 0.00001693,-0.00000127,0.00002716,-0.00001949,0.00000112,0.00000678,0.
 00000133,-0.00000303,0.00000654,0.00000350,-0.00000361,0.00004519,-0.0
 0026857,-0.00013844,0.00003764,0.00002991,-0.00003146,0.00000925,0.000
 00127,-0.00000230,-0.10183554,-0.25386362,-0.06175782,0.00002648,0.000
 61861,-0.00157579,0.10175234,0.27598316,-0.00002188,0.00003935,-0.0003
 4472,-0.00006387,0.00009444,0.00010791,0.00016829,-0.00015849,-0.00064
 334,0.00011905,-0.00015733,-0.00034886,0.00005767,-0.00008282,-0.00003
 908,-0.00007572,-0.00001213,0.00002091,-0.00129093,-0.00096039,0.00481
 077,-0.00007741,0.00009336,0.00050693,-0.00004570,-0.00009465,-0.00035
 575,-0.00012159,0.00000895,0.00002716,-0.00034327,0.00004285,0.0001069
 7,0.00008311,0.00000782,-0.00005391,-0.00001418,0.00003998,0.00000877,
 -0.00003256,0.00002704,0.00001417,0.00048989,0.00013038,-0.00003349,-0
 .00001869,-0.00001863,-0.00002201,0.00003275,0.00001513,0.00001361,-0.
 00002718,0.00002166,-0.00000218,0.00005541,0.00009790,0.00007440,-0.00
 004640,-0.00005913,-0.00054047,0.00035858,-0.00000309,-0.00028105,-0.0
 0174113,-0.00088788,0.00692836,0.00340077,-0.00496821,-0.00085623,-0.0
 0002369,0.00000454,0.00005627,-0.00002068,-0.00001693,0.00008018,-0.00
 000678,-0.00000202,0.00002803,-0.00000193,0.00000074,-0.00000459,-0.00
 001091,-0.00000434,0.00002435,-0.00000091,0.00000364,0.00002420,-0.000
 00165,0.00000123,-0.00000291,0.00000089,0.00000751,-0.00000235,-0.0000
 0130,0.00000616,0.00000471,-0.00020279,-0.00016966,-0.00001794,0.00004
 139,0.00000800,-0.00000366,-0.00000493,0.00000215,0.00000214,-0.033723
 46,-0.05971984,-0.05337253,-0.00079395,-0.00485730,0.00629492,0.033147
 75,0.07058850,0.04184920,0.00047146,-0.00074984,0.00006619,-0.00234043
 ,-0.00176823,-0.00117399,-0.00015252,0.00042979,0.00003890,0.00009630,
 0.00000630,-0.00001939,-0.00027038,-0.00005706,0.00007245,0.00002266,0
 .00003452,-0.00002058,0.00050647,-0.00093659,-0.00006957,-0.00022087,0
 .00028504,0.00015908,-0.00014527,-0.00015522,-0.00000998,0.00010978,0.
 00008599,0.00000566,0.00012177,0.00009785,-0.00001474,-0.00002633,0.00
 003399,0.00000901,-0.00002477,-0.00005970,-0.00002117,0.00004719,0.000
 03192,0.00001979,0.00001290,-0.00018591,0.00015694,-0.00002727,0.00007
 532,-0.00001766,-0.00003135,-0.00000830,-0.00003703,-0.00001992,0.0000
 0130,0.00000815,-0.00009049,-0.00018756,-0.00005286,0.00030113,0.00011
 891,-0.00006690,-0.00182598,-0.00454885,-0.00078380,0.00725095,-0.0150
 4746,-0.00222118,-0.00533151,0.00047090,-0.00163879,-0.00123884,-0.001
 04245,-0.00047507,0.00000402,0.00001775,0.00000125,-0.00001086,0.00003
 306,0.00002480,0.00003388,-0.00008490,-0.00000002,0.00001840,0.0000067
 6,-0.00001063,0.00000512,0.00000594,0.00000928,-0.00000645,0.00001188,
 -0.00000209,-0.00000691,0.00000403,-0.00000253,-0.00000700,0.00000459,
 0.00000467,-0.00007000,0.00011779,-0.00004951,-0.00000617,-0.00001059,
 0.00001528,-0.00001885,0.00000403,0.00000136,-0.01530891,0.02748955,0.
 00275961,-0.11925735,0.11935905,0.01072944,0.00087227,0.00003876,0.000
 75793,0.13656412,0.00082388,-0.00109746,0.00016741,-0.00349279,-0.0004
 9880,-0.00150263,-0.00013402,0.00031972,0.00002264,0.00009610,-0.00016
 134,-0.00001486,-0.00041366,-0.00002594,-0.00000693,0.00003212,0.00000
 230,0.00003385,-0.00040873,-0.00041195,0.00003932,-0.00013684,0.000118
 70,0.00002950,0.00002895,-0.00005146,0.00004102,-0.00004221,0.00008054
 ,-0.00002591,0.00008604,0.00004074,0.00006257,-0.00003181,-0.00001639,
 -0.00003228,0.00001327,-0.00000106,0.00006736,0.00000759,-0.00002290,-
 0.00005096,0.00006357,0.00004655,-0.00007695,-0.00001624,-0.00001161,-
 0.00002654,0.00003373,-0.00004638,0.00003629,0.00002187,0.00005324,-0.
 00003373,0.00007072,0.00018762,-0.00007311,-0.00060830,0.00060056,0.00
 010448,0.00280244,-0.00047861,0.00090256,0.01201698,-0.02093965,-0.002
 44312,0.00063097,0.00231778,-0.00076849,-0.00131588,0.00136343,-0.0002
 2186,-0.00006603,-0.00006358,-0.00001777,-0.00005396,0.00008442,-0.000
 03052,-0.00000289,-0.00013738,-0.00000524,0.00001239,-0.00001619,-0.00
 001269,0.00001515,-0.00001668,0.00000723,0.00000369,-0.00000780,0.0000
 0045,0.00000211,-0.00000237,-0.00000056,0.00000012,-0.00000045,-0.0000
 0272,0.00006149,-0.00004345,0.00003376,-0.00000146,0.00000141,-0.00000
 520,0.00000817,-0.00000178,0.00000376,-0.00331960,0.00198326,-0.000818
 76,0.11713539,-0.26086613,-0.02837774,0.00000006,0.00079355,0.00093156
 ,-0.12392237,0.27692552,0.00061836,-0.00026204,0.00005964,-0.00165561,
 -0.00105608,0.00270824,0.00003963,0.00027392,0.00000872,0.00011939,-0.
 00005753,0.00008775,-0.00012918,0.00000467,-0.00027220,0.00002986,0.00
 006360,-0.00000969,0.00060624,-0.00071054,-0.00084963,-0.00009367,0.00
 017464,-0.00015702,-0.00024855,-0.00014089,-0.00012968,0.00012888,-0.0
 0001782,0.00000049,-0.00014982,-0.00007297,-0.00002795,0.00015252,0.00
 005009,-0.00000855,-0.00002472,-0.00006016,0.00000970,0.00003684,0.000
 04565,0.00000941,-0.00026034,-0.00022418,0.00017684,0.00016178,0.00013
 198,0.00008781,-0.00013694,0.00015510,-0.00004566,-0.00011328,-0.00015
 302,0.00004054,-0.00016347,-0.00006914,0.00008540,0.00007668,0.0004158
 4,-0.00002700,-0.00011726,-0.00057806,-0.00162796,0.00440295,-0.004589
 31,0.00243162,-0.00233386,0.00010217,0.00742010,-0.00065891,-0.0000212
 9,0.00032209,-0.00000257,-0.00000201,-0.00000169,-0.00001308,0.0000286
 3,0.00000276,0.00000021,-0.00004369,0.00004506,0.00000811,-0.00000005,
 0.00003907,0.00000456,0.00000338,-0.00000649,-0.00000675,0.00000478,-0
 .00000909,-0.00000055,0.00000480,0.00000046,-0.00000421,0.00000034,0.0
 0000139,-0.00009374,0.00008101,-0.00013932,0.00000960,-0.00000018,0.00
 001688,-0.00001287,0.00000419,-0.00003143,-0.00084436,0.00257774,0.004
 47535,0.00803406,-0.02933411,-0.03553342,0.00078637,0.00120570,-0.0040
 5890,-0.00815228,0.03206482,0.02490635\\0.00000669,0.00000466,0.000000
 46,-0.00000204,0.00000348,0.00000228,-0.00000109,-0.00000206,0.0000026
 3,-0.00000415,0.00000814,0.00000123,-0.00001057,0.00000080,0.00000080,
 0.00000881,-0.00000639,0.00000209,0.00000938,0.00000519,0.00000096,0.0
 0000086,-0.00000518,0.00000028,0.00000870,0.00001331,0.00000064,-0.000
 00405,-0.00000907,0.00000183,0.00000049,0.00000180,0.00000275,-0.00001
 008,0.00000289,-0.00000189,0.00001327,0.00000519,0.00000210,-0.0000116
 7,-0.00000812,0.00000202,-0.00000633,-0.00000915,-0.00000174,0.0000017
 8,0.00000349,-0.00000244,0.00000368,0.00000393,-0.00000039,0.00000286,
 -0.00000611,0.00000029,0.00000071,-0.00000864,-0.00000031,-0.00000522,
 0.00000442,-0.00000112,0.00000411,0.00000438,0.00000160,0.00000261,-0.
 00000983,-0.00000722,-0.00001093,-0.00000730,-0.00000326,-0.00000079,0
 .00000004,-0.00000208,0.00000079,-0.00000091,-0.00000141,-0.00000047,0
 .00000056,0.00000107,0.00000183,-0.00000127,0.00000255,-0.00000148,0.0
 0000034,0.00000233,0.00000075,0.00000090,0.00000142,0.00000174,0.00000
 104,0.00000221,-0.00000188,-0.00000088,0.00000144,-0.00000014,0.000001
 27,0.00000090,0.00000189,0.00000369,0.00000049,-0.00000121,-0.00000080
 ,-0.00000287,-0.00000041,-0.00000072,-0.00000175,0.00001319,0.00000228
 ,-0.00000035,-0.00001007,0.00000282,-0.00000251,-0.00000233,0.00000098
 ,-0.00000213,0.00000077,0.00000082,-0.00000288\\\@


 KNOWING HOW CONTENTED, FREE, AND JOYFUL IS LIFE IN
 THE REALMS OF SCIENCE, ONE FERVENTLY WISHES THAT
 MANY WOULD ENTER HER PORTALS.
   --  DMITRI IVANOVICH MENDELEEV
 "FIRST PRINCIPLES OF CHEMISTRY", LONGMANS, GREEN,
 AND CO.  LONDON, 1891
 Job cpu time:       4 days  7 hours 47 minutes 11.2 seconds.
 File lengths (MBytes):  RWF=  12654 Int=      0 D2E=      0 Chk=     45 Scr=      1
 Normal termination of Gaussian 09 at Sun Feb  2 11:18:11 2020.
