 Entering Gaussian System, Link 0=g09
 Initial command:
 /usr/local/Cluster-Apps/gaussian/g09/l1.exe "/rds/user/am2145/hpc-work/scratch/19189939/Gau-57614.inp" -scrdir="/rds/user/am2145/hpc-work/scratch/19189939/"
 Entering Link 1 = /usr/local/Cluster-Apps/gaussian/g09/l1.exe PID=     57615.
  
 Copyright (c) 1988,1990,1992,1993,1995,1998,2003,2009,2013,
            Gaussian, Inc.  All Rights Reserved.
  
 This is part of the Gaussian(R) 09 program.  It is based on
 the Gaussian(R) 03 system (copyright 2003, Gaussian, Inc.),
 the Gaussian(R) 98 system (copyright 1998, Gaussian, Inc.),
 the Gaussian(R) 94 system (copyright 1995, Gaussian, Inc.),
 the Gaussian 92(TM) system (copyright 1992, Gaussian, Inc.),
 the Gaussian 90(TM) system (copyright 1990, Gaussian, Inc.),
 the Gaussian 88(TM) system (copyright 1988, Gaussian, Inc.),
 the Gaussian 86(TM) system (copyright 1986, Carnegie Mellon
 University), and the Gaussian 82(TM) system (copyright 1983,
 Carnegie Mellon University). Gaussian is a federally registered
 trademark of Gaussian, Inc.
  
 This software contains proprietary and confidential information,
 including trade secrets, belonging to Gaussian, Inc.
  
 This software is provided under written license and may be
 used, copied, transmitted, or stored only in accord with that
 written license.
  
 The following legend is applicable only to US Government
 contracts under FAR:
  
                    RESTRICTED RIGHTS LEGEND
  
 Use, reproduction and disclosure by the US Government is
 subject to restrictions as set forth in subparagraphs (a)
 and (c) of the Commercial Computer Software - Restricted
 Rights clause in FAR 52.227-19.
  
 Gaussian, Inc.
 340 Quinnipiac St., Bldg. 40, Wallingford CT 06492
  
  
 ---------------------------------------------------------------
 Warning -- This program may not be used in any manner that
 competes with the business of Gaussian, Inc. or will provide
 assistance to any competitor of Gaussian, Inc.  The licensee
 of this program is prohibited from giving any competitor of
 Gaussian, Inc. access to this program.  By using this program,
 the user acknowledges that Gaussian, Inc. is engaged in the
 business of creating and licensing software in the field of
 computational chemistry and represents and warrants to the
 licensee that it is not a competitor of Gaussian, Inc. and that
 it will not use this program in any manner prohibited above.
 ---------------------------------------------------------------
  

 Cite this work as:
 Gaussian 09, Revision D.01,
 M. J. Frisch, G. W. Trucks, H. B. Schlegel, G. E. Scuseria, 
 M. A. Robb, J. R. Cheeseman, G. Scalmani, V. Barone, B. Mennucci, 
 G. A. Petersson, H. Nakatsuji, M. Caricato, X. Li, H. P. Hratchian, 
 A. F. Izmaylov, J. Bloino, G. Zheng, J. L. Sonnenberg, M. Hada, 
 M. Ehara, K. Toyota, R. Fukuda, J. Hasegawa, M. Ishida, T. Nakajima, 
 Y. Honda, O. Kitao, H. Nakai, T. Vreven, J. A. Montgomery, Jr., 
 J. E. Peralta, F. Ogliaro, M. Bearpark, J. J. Heyd, E. Brothers, 
 K. N. Kudin, V. N. Staroverov, T. Keith, R. Kobayashi, J. Normand, 
 K. Raghavachari, A. Rendell, J. C. Burant, S. S. Iyengar, J. Tomasi, 
 M. Cossi, N. Rega, J. M. Millam, M. Klene, J. E. Knox, J. B. Cross, 
 V. Bakken, C. Adamo, J. Jaramillo, R. Gomperts, R. E. Stratmann, 
 O. Yazyev, A. J. Austin, R. Cammi, C. Pomelli, J. W. Ochterski, 
 R. L. Martin, K. Morokuma, V. G. Zakrzewski, G. A. Voth, 
 P. Salvador, J. J. Dannenberg, S. Dapprich, A. D. Daniels, 
 O. Farkas, J. B. Foresman, J. V. Ortiz, J. Cioslowski, 
 and D. J. Fox, Gaussian, Inc., Wallingford CT, 2013.
 
 ******************************************
 Gaussian 09:  ES64L-G09RevD.01 24-Apr-2013
                 2-Feb-2020 
 ******************************************
 %NProcShared=20
 Will use up to   20 processors via shared memory.
 %mem=64GB
 %Chk=BS2b_ethy.chk
 ------------------------------
 #n opt freq b3lyp/6-311+g(d,p)
 ------------------------------
 1/14=-1,18=20,19=15,26=3,38=1/1,3;
 2/9=110,12=2,17=6,18=5,40=1/2;
 3/5=4,6=6,7=111,11=2,16=1,25=1,30=1,71=1,74=-5/1,2,3;
 4//1;
 5/5=2,38=5/2;
 6/7=2,8=2,9=2,10=2,28=1/1;
 7//1,2,3,16;
 1/14=-1,18=20,19=15,26=3/3(2);
 2/9=110/2;
 99//99;
 2/9=110/2;
 3/5=4,6=6,7=111,11=2,16=1,25=1,30=1,71=1,74=-5/1,2,3;
 4/5=5,16=3,69=1/1;
 5/5=2,38=5/2;
 7//1,2,3,16;
 1/14=-1,18=20,19=15,26=3/3(-5);
 2/9=110/2;
 6/7=2,8=2,9=2,10=2,19=2,28=1/1;
 99/9=1/99;
 ---------
 BS2b_ethy
 ---------
 Symbolic Z-matrix:
 Charge =  0 Multiplicity = 2
 C                     3.84754   0.28829   0.01262 
 C                     2.54616  -0.18311  -0.07476 
 C                     1.41817   0.62079   0.12423 
 C                     1.52348   1.98563   0.36863 
 C                     3.97276   1.69235   0.33505 
 C                     2.87076   2.49774   0.49561 
 C                     0.23594  -0.14444  -0.08149 
 C                    -1.00477   0.54574   0.03038 
 C                    -0.91714   1.99056   0.14271 
 C                     0.29816   2.67652   0.35151 
 C                    -2.3257   -0.06032  -0.03394 
 C                    -3.43772   0.76975  -0.37695 
 C                    -3.28388   2.19619  -0.39042 
 C                    -2.1055    2.77249  -0.05933 
 C                    -2.61578  -1.4304    0.27648 
 C                    -3.88578  -1.95263   0.01316 
 C                    -4.91527  -1.15159  -0.48316 
 C                    -4.7018    0.2032   -0.6313 
 C                     4.85344  -0.67545  -0.27035 
 C                     4.4874   -1.97004  -0.6316 
 C                     3.14135  -2.39678  -0.7442 
 C                     2.13011  -1.48233  -0.45759 
 C                     0.67979  -1.45557  -0.47781 
 H                     2.92733  -3.41396  -1.05389 
 H                     5.2715   -2.68702  -0.84916 
 H                     5.90373  -0.40875  -0.21924 
 H                     4.9631    2.12598   0.42971 
 H                     3.01196   3.55263   0.70731 
 H                     0.26877   3.75754   0.44273 
 H                    -2.01995   3.85222  -0.00077 
 H                    -4.15367   2.80299  -0.61702 
 H                    -5.514     0.85884  -0.92624 
 H                    -4.07199  -2.99237   0.25156 
 H                    -5.88768  -1.58403  -0.68761 
 H                     0.05258  -2.27554  -0.78516 
 C                    -1.73932  -2.2809    1.01747 
 C                    -1.11089  -3.03946   1.71087 
 H                    -0.52081  -3.68588   2.31271 
 

 GradGradGradGradGradGradGradGradGradGradGradGradGradGradGradGradGradGrad
 Berny optimization.
 Initialization pass.
                           ----------------------------
                           !    Initial Parameters    !
                           ! (Angstroms and Degrees)  !
 --------------------------                            --------------------------
 ! Name  Definition              Value          Derivative Info.                !
 --------------------------------------------------------------------------------
 ! R1    R(1,2)                  1.3869         estimate D2E/DX2                !
 ! R2    R(1,5)                  1.446          estimate D2E/DX2                !
 ! R3    R(1,19)                 1.4215         estimate D2E/DX2                !
 ! R4    R(2,3)                  1.3994         estimate D2E/DX2                !
 ! R5    R(2,22)                 1.4169         estimate D2E/DX2                !
 ! R6    R(3,4)                  1.3905         estimate D2E/DX2                !
 ! R7    R(3,7)                  1.4232         estimate D2E/DX2                !
 ! R8    R(4,6)                  1.4469         estimate D2E/DX2                !
 ! R9    R(4,10)                 1.4068         estimate D2E/DX2                !
 ! R10   R(5,6)                  1.3743         estimate D2E/DX2                !
 ! R11   R(5,27)                 1.0853         estimate D2E/DX2                !
 ! R12   R(6,28)                 1.0851         estimate D2E/DX2                !
 ! R13   R(7,8)                  1.4242         estimate D2E/DX2                !
 ! R14   R(7,23)                 1.4398         estimate D2E/DX2                !
 ! R15   R(8,9)                  1.4518         estimate D2E/DX2                !
 ! R16   R(8,11)                 1.4548         estimate D2E/DX2                !
 ! R17   R(9,10)                 1.4111         estimate D2E/DX2                !
 ! R18   R(9,14)                 1.4368         estimate D2E/DX2                !
 ! R19   R(10,29)                1.0853         estimate D2E/DX2                !
 ! R20   R(11,12)                1.4294         estimate D2E/DX2                !
 ! R21   R(11,15)                1.4344         estimate D2E/DX2                !
 ! R22   R(12,13)                1.4348         estimate D2E/DX2                !
 ! R23   R(12,18)                1.4084         estimate D2E/DX2                !
 ! R24   R(13,14)                1.3529         estimate D2E/DX2                !
 ! R25   R(13,31)                1.0845         estimate D2E/DX2                !
 ! R26   R(14,30)                1.0847         estimate D2E/DX2                !
 ! R27   R(15,16)                1.3982         estimate D2E/DX2                !
 ! R28   R(15,36)                1.4285         estimate D2E/DX2                !
 ! R29   R(16,17)                1.3957         estimate D2E/DX2                !
 ! R30   R(16,33)                1.0829         estimate D2E/DX2                !
 ! R31   R(17,18)                1.3795         estimate D2E/DX2                !
 ! R32   R(17,34)                1.0837         estimate D2E/DX2                !
 ! R33   R(18,32)                1.0847         estimate D2E/DX2                !
 ! R34   R(19,20)                1.393          estimate D2E/DX2                !
 ! R35   R(19,26)                1.0848         estimate D2E/DX2                !
 ! R36   R(20,21)                1.4166         estimate D2E/DX2                !
 ! R37   R(20,25)                1.0845         estimate D2E/DX2                !
 ! R38   R(21,22)                1.3932         estimate D2E/DX2                !
 ! R39   R(21,24)                1.0846         estimate D2E/DX2                !
 ! R40   R(22,23)                1.4507         estimate D2E/DX2                !
 ! R41   R(23,35)                1.0771         estimate D2E/DX2                !
 ! R42   R(36,37)                1.2046         estimate D2E/DX2                !
 ! R43   R(37,38)                1.0622         estimate D2E/DX2                !
 ! A1    A(2,1,5)              115.172          estimate D2E/DX2                !
 ! A2    A(2,1,19)             114.8989         estimate D2E/DX2                !
 ! A3    A(5,1,19)             129.8959         estimate D2E/DX2                !
 ! A4    A(1,2,3)              123.5151         estimate D2E/DX2                !
 ! A5    A(1,2,22)             127.1727         estimate D2E/DX2                !
 ! A6    A(3,2,22)             109.1772         estimate D2E/DX2                !
 ! A7    A(2,3,4)              121.8572         estimate D2E/DX2                !
 ! A8    A(2,3,7)              109.8858         estimate D2E/DX2                !
 ! A9    A(4,3,7)              128.0282         estimate D2E/DX2                !
 ! A10   A(3,4,6)              115.6794         estimate D2E/DX2                !
 ! A11   A(3,4,10)             114.4522         estimate D2E/DX2                !
 ! A12   A(6,4,10)             129.6638         estimate D2E/DX2                !
 ! A13   A(1,5,6)              121.7099         estimate D2E/DX2                !
 ! A14   A(1,5,27)             119.1067         estimate D2E/DX2                !
 ! A15   A(6,5,27)             119.1677         estimate D2E/DX2                !
 ! A16   A(4,6,5)              121.9352         estimate D2E/DX2                !
 ! A17   A(4,6,28)             118.8388         estimate D2E/DX2                !
 ! A18   A(5,6,28)             119.2178         estimate D2E/DX2                !
 ! A19   A(3,7,8)              116.8558         estimate D2E/DX2                !
 ! A20   A(3,7,23)             105.8626         estimate D2E/DX2                !
 ! A21   A(8,7,23)             137.0106         estimate D2E/DX2                !
 ! A22   A(7,8,9)              115.8348         estimate D2E/DX2                !
 ! A23   A(7,8,11)             125.8509         estimate D2E/DX2                !
 ! A24   A(9,8,11)             118.2177         estimate D2E/DX2                !
 ! A25   A(8,9,10)             123.1764         estimate D2E/DX2                !
 ! A26   A(8,9,14)             118.7366         estimate D2E/DX2                !
 ! A27   A(10,9,14)            117.9426         estimate D2E/DX2                !
 ! A28   A(4,10,9)             120.879          estimate D2E/DX2                !
 ! A29   A(4,10,29)            120.7812         estimate D2E/DX2                !
 ! A30   A(9,10,29)            118.2517         estimate D2E/DX2                !
 ! A31   A(8,11,12)            118.364          estimate D2E/DX2                !
 ! A32   A(8,11,15)            124.8876         estimate D2E/DX2                !
 ! A33   A(12,11,15)           116.6958         estimate D2E/DX2                !
 ! A34   A(11,12,13)           119.7468         estimate D2E/DX2                !
 ! A35   A(11,12,18)           120.529          estimate D2E/DX2                !
 ! A36   A(13,12,18)           119.6348         estimate D2E/DX2                !
 ! A37   A(12,13,14)           120.9704         estimate D2E/DX2                !
 ! A38   A(12,13,31)           118.1803         estimate D2E/DX2                !
 ! A39   A(14,13,31)           120.755          estimate D2E/DX2                !
 ! A40   A(9,14,13)            121.5327         estimate D2E/DX2                !
 ! A41   A(9,14,30)            117.9627         estimate D2E/DX2                !
 ! A42   A(13,14,30)           120.3934         estimate D2E/DX2                !
 ! A43   A(11,15,16)           119.9782         estimate D2E/DX2                !
 ! A44   A(11,15,36)           123.8379         estimate D2E/DX2                !
 ! A45   A(16,15,36)           115.6334         estimate D2E/DX2                !
 ! A46   A(15,16,17)           121.5073         estimate D2E/DX2                !
 ! A47   A(15,16,33)           118.2529         estimate D2E/DX2                !
 ! A48   A(17,16,33)           120.1688         estimate D2E/DX2                !
 ! A49   A(16,17,18)           119.191          estimate D2E/DX2                !
 ! A50   A(16,17,34)           119.9969         estimate D2E/DX2                !
 ! A51   A(18,17,34)           120.697          estimate D2E/DX2                !
 ! A52   A(12,18,17)           120.9682         estimate D2E/DX2                !
 ! A53   A(12,18,32)           118.5563         estimate D2E/DX2                !
 ! A54   A(17,18,32)           120.4618         estimate D2E/DX2                !
 ! A55   A(1,19,20)            119.7193         estimate D2E/DX2                !
 ! A56   A(1,19,26)            120.6001         estimate D2E/DX2                !
 ! A57   A(20,19,26)           119.6764         estimate D2E/DX2                !
 ! A58   A(19,20,21)           123.3859         estimate D2E/DX2                !
 ! A59   A(19,20,25)           118.4529         estimate D2E/DX2                !
 ! A60   A(21,20,25)           118.1576         estimate D2E/DX2                !
 ! A61   A(20,21,22)           118.4005         estimate D2E/DX2                !
 ! A62   A(20,21,24)           119.5198         estimate D2E/DX2                !
 ! A63   A(22,21,24)           122.0786         estimate D2E/DX2                !
 ! A64   A(2,22,21)            116.3789         estimate D2E/DX2                !
 ! A65   A(2,22,23)            106.2844         estimate D2E/DX2                !
 ! A66   A(21,22,23)           137.2981         estimate D2E/DX2                !
 ! A67   A(7,23,22)            108.732          estimate D2E/DX2                !
 ! A68   A(7,23,35)            126.3165         estimate D2E/DX2                !
 ! A69   A(22,23,35)           124.8952         estimate D2E/DX2                !
 ! A70   L(15,36,37,1,-1)      186.1473         estimate D2E/DX2                !
 ! A71   L(36,37,38,1,-1)      177.6566         estimate D2E/DX2                !
 ! A72   L(15,36,37,1,-2)      177.8565         estimate D2E/DX2                !
 ! A73   L(36,37,38,1,-2)      179.9387         estimate D2E/DX2                !
 ! D1    D(5,1,2,3)              0.2633         estimate D2E/DX2                !
 ! D2    D(5,1,2,22)           175.5733         estimate D2E/DX2                !
 ! D3    D(19,1,2,3)          -177.8508         estimate D2E/DX2                !
 ! D4    D(19,1,2,22)           -2.5407         estimate D2E/DX2                !
 ! D5    D(2,1,5,6)             -2.0937         estimate D2E/DX2                !
 ! D6    D(2,1,5,27)           179.361          estimate D2E/DX2                !
 ! D7    D(19,1,5,6)           175.6764         estimate D2E/DX2                !
 ! D8    D(19,1,5,27)           -2.8689         estimate D2E/DX2                !
 ! D9    D(2,1,19,20)            1.3735         estimate D2E/DX2                !
 ! D10   D(2,1,19,26)         -179.3708         estimate D2E/DX2                !
 ! D11   D(5,1,19,20)         -176.4016         estimate D2E/DX2                !
 ! D12   D(5,1,19,26)            2.8541         estimate D2E/DX2                !
 ! D13   D(1,2,3,4)              2.9947         estimate D2E/DX2                !
 ! D14   D(1,2,3,7)            177.9128         estimate D2E/DX2                !
 ! D15   D(22,2,3,4)          -173.05           estimate D2E/DX2                !
 ! D16   D(22,2,3,7)             1.8681         estimate D2E/DX2                !
 ! D17   D(1,2,22,21)            1.8078         estimate D2E/DX2                !
 ! D18   D(1,2,22,23)         -176.3274         estimate D2E/DX2                !
 ! D19   D(3,2,22,21)          177.6688         estimate D2E/DX2                !
 ! D20   D(3,2,22,23)           -0.4664         estimate D2E/DX2                !
 ! D21   D(2,3,4,6)             -4.1384         estimate D2E/DX2                !
 ! D22   D(2,3,4,10)           171.1728         estimate D2E/DX2                !
 ! D23   D(7,3,4,6)           -178.0682         estimate D2E/DX2                !
 ! D24   D(7,3,4,10)            -2.757          estimate D2E/DX2                !
 ! D25   D(2,3,7,8)           -177.51           estimate D2E/DX2                !
 ! D26   D(2,3,7,23)            -2.4719         estimate D2E/DX2                !
 ! D27   D(4,3,7,8)             -2.9909         estimate D2E/DX2                !
 ! D28   D(4,3,7,23)           172.0472         estimate D2E/DX2                !
 ! D29   D(3,4,6,5)              2.3093         estimate D2E/DX2                !
 ! D30   D(3,4,6,28)          -178.7427         estimate D2E/DX2                !
 ! D31   D(10,4,6,5)          -172.1437         estimate D2E/DX2                !
 ! D32   D(10,4,6,28)            6.8044         estimate D2E/DX2                !
 ! D33   D(3,4,10,9)             1.9507         estimate D2E/DX2                !
 ! D34   D(3,4,10,29)         -174.576          estimate D2E/DX2                !
 ! D35   D(6,4,10,9)           176.4591         estimate D2E/DX2                !
 ! D36   D(6,4,10,29)           -0.0676         estimate D2E/DX2                !
 ! D37   D(1,5,6,4)              0.8036         estimate D2E/DX2                !
 ! D38   D(1,5,6,28)          -178.1405         estimate D2E/DX2                !
 ! D39   D(27,5,6,4)           179.3481         estimate D2E/DX2                !
 ! D40   D(27,5,6,28)            0.4039         estimate D2E/DX2                !
 ! D41   D(3,7,8,9)              8.9227         estimate D2E/DX2                !
 ! D42   D(3,7,8,11)          -174.7321         estimate D2E/DX2                !
 ! D43   D(23,7,8,9)          -164.0687         estimate D2E/DX2                !
 ! D44   D(23,7,8,11)           12.2766         estimate D2E/DX2                !
 ! D45   D(3,7,23,22)            2.1553         estimate D2E/DX2                !
 ! D46   D(3,7,23,35)         -175.2125         estimate D2E/DX2                !
 ! D47   D(8,7,23,22)          175.6574         estimate D2E/DX2                !
 ! D48   D(8,7,23,35)           -1.7105         estimate D2E/DX2                !
 ! D49   D(7,8,9,10)           -10.1363         estimate D2E/DX2                !
 ! D50   D(7,8,9,14)           165.4002         estimate D2E/DX2                !
 ! D51   D(11,8,9,10)          173.2252         estimate D2E/DX2                !
 ! D52   D(11,8,9,14)          -11.2383         estimate D2E/DX2                !
 ! D53   D(7,8,11,12)         -158.1662         estimate D2E/DX2                !
 ! D54   D(7,8,11,15)           24.5648         estimate D2E/DX2                !
 ! D55   D(9,8,11,12)           18.1005         estimate D2E/DX2                !
 ! D56   D(9,8,11,15)         -159.1685         estimate D2E/DX2                !
 ! D57   D(8,9,10,4)             4.5583         estimate D2E/DX2                !
 ! D58   D(8,9,10,29)         -178.8291         estimate D2E/DX2                !
 ! D59   D(14,9,10,4)         -171.0115         estimate D2E/DX2                !
 ! D60   D(14,9,10,29)           5.6011         estimate D2E/DX2                !
 ! D61   D(8,9,14,13)           -2.0907         estimate D2E/DX2                !
 ! D62   D(8,9,14,30)         -178.2687         estimate D2E/DX2                !
 ! D63   D(10,9,14,13)         173.6808         estimate D2E/DX2                !
 ! D64   D(10,9,14,30)          -2.4972         estimate D2E/DX2                !
 ! D65   D(8,11,12,13)         -12.1625         estimate D2E/DX2                !
 ! D66   D(8,11,12,18)         171.2887         estimate D2E/DX2                !
 ! D67   D(15,11,12,13)        165.3302         estimate D2E/DX2                !
 ! D68   D(15,11,12,18)        -11.2187         estimate D2E/DX2                !
 ! D69   D(8,11,15,16)        -171.5876         estimate D2E/DX2                !
 ! D70   D(8,11,15,36)          17.3015         estimate D2E/DX2                !
 ! D71   D(12,11,15,16)         11.1022         estimate D2E/DX2                !
 ! D72   D(12,11,15,36)       -160.0087         estimate D2E/DX2                !
 ! D73   D(11,12,13,14)         -1.1962         estimate D2E/DX2                !
 ! D74   D(11,12,13,31)       -177.6909         estimate D2E/DX2                !
 ! D75   D(18,12,13,14)        175.3837         estimate D2E/DX2                !
 ! D76   D(18,12,13,31)         -1.111          estimate D2E/DX2                !
 ! D77   D(11,12,18,17)          3.6642         estimate D2E/DX2                !
 ! D78   D(11,12,18,32)       -177.671          estimate D2E/DX2                !
 ! D79   D(13,12,18,17)       -172.8884         estimate D2E/DX2                !
 ! D80   D(13,12,18,32)          5.7763         estimate D2E/DX2                !
 ! D81   D(12,13,14,9)           8.4924         estimate D2E/DX2                !
 ! D82   D(12,13,14,30)       -175.4214         estimate D2E/DX2                !
 ! D83   D(31,13,14,9)        -175.1032         estimate D2E/DX2                !
 ! D84   D(31,13,14,30)          0.983          estimate D2E/DX2                !
 ! D85   D(11,15,16,17)         -3.5186         estimate D2E/DX2                !
 ! D86   D(11,15,16,33)        179.5418         estimate D2E/DX2                !
 ! D87   D(36,15,16,17)        168.2969         estimate D2E/DX2                !
 ! D88   D(36,15,16,33)         -8.6426         estimate D2E/DX2                !
 ! D89   D(15,16,17,18)         -4.4653         estimate D2E/DX2                !
 ! D90   D(15,16,17,34)        179.4089         estimate D2E/DX2                !
 ! D91   D(33,16,17,18)        172.4165         estimate D2E/DX2                !
 ! D92   D(33,16,17,34)         -3.7093         estimate D2E/DX2                !
 ! D93   D(16,17,18,12)          4.3881         estimate D2E/DX2                !
 ! D94   D(16,17,18,32)       -174.2512         estimate D2E/DX2                !
 ! D95   D(34,17,18,12)       -179.5139         estimate D2E/DX2                !
 ! D96   D(34,17,18,32)          1.8467         estimate D2E/DX2                !
 ! D97   D(1,19,20,21)           0.3254         estimate D2E/DX2                !
 ! D98   D(1,19,20,25)         179.6154         estimate D2E/DX2                !
 ! D99   D(26,19,20,21)       -178.9373         estimate D2E/DX2                !
 ! D100  D(26,19,20,25)          0.3528         estimate D2E/DX2                !
 ! D101  D(19,20,21,22)         -1.1129         estimate D2E/DX2                !
 ! D102  D(19,20,21,24)        178.5116         estimate D2E/DX2                !
 ! D103  D(25,20,21,22)        179.5951         estimate D2E/DX2                !
 ! D104  D(25,20,21,24)         -0.7804         estimate D2E/DX2                !
 ! D105  D(20,21,22,2)           0.1219         estimate D2E/DX2                !
 ! D106  D(20,21,22,23)        177.482          estimate D2E/DX2                !
 ! D107  D(24,21,22,2)        -179.4925         estimate D2E/DX2                !
 ! D108  D(24,21,22,23)         -2.1324         estimate D2E/DX2                !
 ! D109  D(2,22,23,7)           -1.0746         estimate D2E/DX2                !
 ! D110  D(2,22,23,35)         176.3396         estimate D2E/DX2                !
 ! D111  D(21,22,23,7)        -178.6108         estimate D2E/DX2                !
 ! D112  D(21,22,23,35)         -1.1966         estimate D2E/DX2                !
 --------------------------------------------------------------------------------
 Trust Radius=3.00D-01 FncErr=1.00D-07 GrdErr=1.00D-06
 Number of steps in this run=    228 maximum allowed number of steps=    228.
 GradGradGradGradGradGradGradGradGradGradGradGradGradGradGradGradGradGrad

                          Input orientation:                          
 ---------------------------------------------------------------------
 Center     Atomic      Atomic             Coordinates (Angstroms)
 Number     Number       Type             X           Y           Z
 ---------------------------------------------------------------------
      1          6           0        3.847540    0.288290    0.012620
      2          6           0        2.546160   -0.183110   -0.074760
      3          6           0        1.418170    0.620790    0.124230
      4          6           0        1.523480    1.985630    0.368630
      5          6           0        3.972760    1.692350    0.335050
      6          6           0        2.870760    2.497740    0.495610
      7          6           0        0.235940   -0.144440   -0.081490
      8          6           0       -1.004770    0.545740    0.030380
      9          6           0       -0.917140    1.990560    0.142710
     10          6           0        0.298160    2.676520    0.351510
     11          6           0       -2.325700   -0.060320   -0.033940
     12          6           0       -3.437720    0.769750   -0.376950
     13          6           0       -3.283880    2.196190   -0.390420
     14          6           0       -2.105500    2.772490   -0.059330
     15          6           0       -2.615780   -1.430400    0.276480
     16          6           0       -3.885780   -1.952630    0.013160
     17          6           0       -4.915270   -1.151590   -0.483160
     18          6           0       -4.701800    0.203200   -0.631300
     19          6           0        4.853440   -0.675450   -0.270350
     20          6           0        4.487400   -1.970040   -0.631600
     21          6           0        3.141350   -2.396780   -0.744200
     22          6           0        2.130110   -1.482330   -0.457590
     23          6           0        0.679790   -1.455570   -0.477810
     24          1           0        2.927330   -3.413960   -1.053890
     25          1           0        5.271500   -2.687020   -0.849160
     26          1           0        5.903730   -0.408750   -0.219240
     27          1           0        4.963100    2.125980    0.429710
     28          1           0        3.011960    3.552630    0.707310
     29          1           0        0.268770    3.757540    0.442730
     30          1           0       -2.019950    3.852220   -0.000770
     31          1           0       -4.153670    2.802990   -0.617020
     32          1           0       -5.514000    0.858840   -0.926240
     33          1           0       -4.071990   -2.992370    0.251560
     34          1           0       -5.887680   -1.584030   -0.687610
     35          1           0        0.052580   -2.275540   -0.785160
     36          6           0       -1.739320   -2.280900    1.017470
     37          6           0       -1.110890   -3.039460    1.710870
     38          1           0       -0.520810   -3.685880    2.312710
 ---------------------------------------------------------------------
                    Distance matrix (angstroms):
                    1          2          3          4          5
     1  C    0.000000
     2  C    1.386883   0.000000
     3  C    2.454557   1.399362   0.000000
     4  C    2.899821   2.438422   1.390543   0.000000
     5  C    1.446038   2.391753   2.778240   2.467005   0.000000
     6  C    2.463544   2.760008   2.402266   1.446908   1.374350
     7  C    3.638649   2.310553   1.423224   2.529341   4.184630
     8  C    4.859167   3.626483   2.425918   2.929120   5.116966
     9  C    5.061306   4.094702   2.707450   2.451059   4.902759
    10  C    4.291455   3.662334   2.352043   1.406780   3.804149
    11  C    6.183251   4.873578   3.808608   4.377689   6.548176
    12  C    7.311538   6.066802   4.883957   5.162147   7.501556
    13  C    7.393218   6.304766   4.985582   4.871468   7.310197
    14  C    6.450978   5.511239   4.132766   3.737886   6.186072
    15  C    6.693133   5.322098   4.528058   5.367609   7.291355
    16  C    8.051457   6.671490   5.896330   6.700473   8.668688
    17  C    8.894149   7.535097   6.604749   7.212849   9.367739
    18  C    8.573977   7.279553   6.180553   6.552177   8.854343
    19  C    1.421514   2.367318   3.692832   4.310252   2.597804
    20  C    2.434028   2.696591   4.087035   5.043075   3.822613
    21  C    2.877687   2.388040   3.581794   4.802230   4.310105
    22  C    2.511127   1.416908   2.295318   3.616267   3.755294
    23  C    3.649138   2.294546   2.284497   3.642819   4.627504
    24  H    3.961172   3.397408   4.465953   5.757598   5.394115
    25  H    3.409222   3.781103   5.170807   6.112636   4.718894
    26  H    2.183470   3.368243   4.614994   5.026454   2.906975
    27  H    2.189873   3.380530   3.863346   3.443024   1.085251
    28  H    3.440451   3.845043   3.387600   2.187639   2.126583
    29  H    5.002828   4.580723   3.355855   2.172430   4.242187
    30  H    6.865072   6.094155   4.720004   4.022003   6.378902
    31  H    8.410679   7.355172   6.029664   5.819761   8.257047
    32  H    9.425785   8.171711   7.015350   7.243788   9.606467
    33  H    8.575475   7.197106   6.573659   7.490225   9.309757
    34  H    9.938330   8.571337   7.674357   8.293576  10.440727
    35  H    4.648806   3.331797   3.328747   4.653208   5.689186
    36  C    6.230848   4.894796   4.380345   5.410188   6.991443
    37  C    6.208382   4.972044   4.723452   5.830355   7.080000
    38  H    6.337738   5.232181   5.205429   6.334398   7.282079
                    6          7          8          9         10
     6  C    0.000000
     7  C    3.775770   0.000000
     8  C    4.364227   1.424158   0.000000
     9  C    3.837963   2.436818   1.451827   0.000000
    10  C    2.582827   2.854676   2.518129   1.411061   0.000000
    11  C    5.816123   2.563462   1.454751   2.494264   3.810972
    12  C    6.598805   3.797212   2.476963   2.848464   4.257138
    13  C    6.225398   4.238292   2.845242   2.434742   3.689470
    14  C    5.014640   3.740496   2.485572   1.436814   2.440406
    15  C    6.751327   3.148673   2.561454   3.821811   5.036216
    16  C    8.104899   4.501898   3.813446   4.937444   6.248909
    17  C    8.654355   5.264091   4.293794   5.123462   6.521576
    18  C    7.992403   4.980404   3.771364   4.256454   5.664170
    19  C    3.819273   4.651768   5.991692   6.370072   5.689727
    20  C    4.883153   4.659437   6.077113   6.744995   6.332990
    21  C    5.056350   3.735455   5.142831   6.042078   5.917997
    22  C    4.159100   2.349315   3.765456   4.659083   4.615920
    23  C    4.623479   1.439838   2.664815   3.848512   4.231735
    24  H    6.111657   4.344986   5.684741   6.739483   6.780976
    25  H    5.869727   5.693057   7.114485   7.820667   7.412373
    26  H    4.261174   5.675621   6.978591   7.239611   6.423944
    27  H    2.126131   5.268982   6.186444   5.888797   4.697965
    28  H    1.085148   4.690077   5.062978   4.265755   2.873825
    29  H    2.891409   3.937173   3.479597   2.149096   1.085260
    30  H    5.099025   4.590081   3.458955   2.168537   2.622976
    31  H    7.118549   5.314397   3.928088   3.422332   4.557723
    32  H    8.660938   5.897625   4.620207   4.853305   6.222364
    33  H    8.854527   5.174929   4.687748   5.898688   7.158527
    34  H    9.735046   6.319693   5.375336   6.178462   7.582656
    35  H    5.689175   2.251746   3.121332   4.472238   5.086770
    36  C    6.660374   3.110278   3.082824   4.436953   5.401004
    37  C    6.927552   3.661645   3.960930   5.272359   6.041995
    38  H    7.282977   4.341274   4.832169   6.089988   6.707992
                   11         12         13         14         15
    11  C    0.000000
    12  C    1.429427   0.000000
    13  C    2.477302   1.434775   0.000000
    14  C    2.841469   2.426244   1.352894   0.000000
    15  C    1.434443   2.437871   3.747435   4.247051   0.000000
    16  C    2.452938   2.786449   4.211635   5.049892   1.398199
    17  C    2.845794   2.426104   3.725274   4.844878   2.437712
    18  C    2.464170   1.408393   2.457749   3.697185   2.800749
    19  C    7.209322   8.416846   8.629989   7.769148   7.527165
    20  C    7.100884   8.389209   8.820909   8.141585   7.181294
    21  C    5.987667   7.310673   7.905954   7.397286   5.926232
    22  C    4.696364   6.006588   6.545786   6.016851   4.802606
    23  C    3.343159   4.681465   5.390145   5.080301   3.380883
    24  H    6.315182   7.646930   8.396017   8.036833   6.035765
    25  H    8.079702   9.382044   9.861577   9.211417   8.065689
    26  H    8.238887   9.416816   9.551293   8.619375   8.594856
    27  H    7.623745   8.547739   8.287956   7.114931   8.373216
    28  H    6.487948   7.107631   6.533188   5.233044   7.529121
    29  H    4.640533   4.830821   3.969040   2.619073   5.938265
    30  H    3.924609   3.413679   2.119382   1.084696   5.323341
    31  H    3.446738   2.168936   1.084476   2.122958   4.591845
    32  H    3.436031   2.149557   2.655003   4.003931   3.884177
    33  H    3.424610   3.866636   5.287193   6.098963   2.135631
    34  H    3.928954   3.411612   4.599800   5.803351   3.414440
    35  H    3.335828   4.650013   5.593224   5.537756   2.993574
    36  C    2.525922   3.759712   4.940866   5.179801   1.428495
    37  C    3.659973   4.927800   6.045605   6.156429   2.628924
    38  H    4.680714   5.966177   7.038481   7.060337   3.690843
                   16         17         18         19         20
    16  C    0.000000
    17  C    1.395653   0.000000
    18  C    2.393495   1.379482   0.000000
    19  C    8.836602   9.782622   9.602339   0.000000
    20  C    8.397986   9.439391   9.442689   1.393000   0.000000
    21  C    7.081767   8.156455   8.263634   2.473613   1.416558
    22  C    6.052580   7.053185   7.038905   2.846514   2.413495
    23  C    4.618717   5.603314   5.633524   4.250998   3.845286
    24  H    7.049294   8.182324   8.453760   3.438498   2.167268
    25  H    9.227064  10.308336  10.385930   2.134528   1.084530
    26  H    9.913228  10.847683  10.631159   1.084827   2.147943
    27  H    9.752500  10.447870   9.911262   2.889657   4.257940
    28  H    8.852601   9.294508   8.515436   4.714184   5.871072
    29  H    7.074663   7.199382   6.204308   6.417093   7.194178
    30  H    6.097360   5.801180   4.572224   8.235045   8.754557
    31  H    4.804666   4.029473   2.656983   9.661664   9.871683
    32  H    3.382002   2.143974   1.084676  10.500859  10.397951
    33  H    1.082852   2.153928   3.374577   9.236006   8.665350
    34  H    2.152800   1.083691   2.145617  10.787552  10.382409
    35  H    4.031410   5.102353   5.363949   5.086607   4.447981
    36  C    2.392424   3.689701   4.203033   6.906550   6.448884
    37  C    3.429786   4.780285   5.375429   6.714686   6.162116
    38  H    4.428895   5.792305   6.424392   6.679630   6.057659
                   21         22         23         24         25
    21  C    0.000000
    22  C    1.393187   0.000000
    23  C    2.648795   1.450708   0.000000
    24  H    1.084605   2.173092   3.036214   0.000000
    25  H    2.152393   3.387172   4.768456   2.462821   0.000000
    26  H    3.443630   3.930597   5.334064   4.311251   2.446840
    27  H    5.015196   4.672583   5.656663   6.085751   4.989548
    28  H    6.125284   5.242659   5.650274   7.186262   6.816256
    29  H    6.894648   5.633063   5.309694   7.793473   8.260063
    30  H    8.138901   6.774150   5.974010   8.853362   9.830904
    31  H    8.959414   7.607580   6.443372   9.433021  10.909992
    32  H    9.249177   8.008316   6.627263   9.461985  11.353681
    33  H    7.306062   6.422551   5.047093   7.132490   9.413056
    34  H    9.065713   8.021734   6.572076   9.010394  11.214722
    35  H    3.091420   2.247802   1.077129   3.103611   5.235507
    36  C    5.190168   4.217346   2.961271   5.229912   7.266419
    37  C    4.951964   4.198923   3.241229   4.908296   6.885700
    38  H    4.941446   4.422394   3.768650   4.826759   6.674279
                   26         27         28         29         30
    26  H    0.000000
    27  H    2.780427   0.000000
    28  H    4.991328   2.432969   0.000000
    29  H    7.039102   4.969798   2.763527   0.000000
    30  H    8.999350   7.206123   5.090309   2.333216   0.000000
    31  H   10.565264   9.201602   7.325439   4.646742   2.456300
    32  H   11.509613  10.640201   9.089389   6.611881   4.693102
    33  H   10.315606  10.385668   9.655417   8.027455   7.150032
    34  H   11.859089  11.521806  10.369892   8.228725   6.707004
    35  H    6.167749   6.705408   6.704697   6.160561   6.516141
    36  C    7.965589   8.042915   7.530002   6.389484   6.223402
    37  C    7.736333   8.075673   7.839686   7.050592   7.159005
    38  H    7.643629   8.209548   8.213026   7.715229   8.026367
                   31         32         33         34         35
    31  H    0.000000
    32  H    2.392871   0.000000
    33  H    5.860657   4.277666   0.000000
    34  H    4.717809   2.482780   2.482376   0.000000
    35  H    6.596384   6.389918   4.312854   5.981170   0.000000
    36  C    5.860596   5.280548   2.556200   4.538922   2.541734
    37  C    6.986544   6.445035   3.301502   5.539739   2.857867
    38  H    7.992898   7.488473   4.164154   6.497922   3.451758
                   36         37         38
    36  C    0.000000
    37  C    1.204633   0.000000
    38  H    2.266359   1.062198   0.000000
 Stoichiometry    C25H13(2)
 Framework group  C1[X(C25H13)]
 Deg. of freedom   108
 Full point group                 C1      NOp   1
 Largest Abelian subgroup         C1      NOp   1
 Largest concise Abelian subgroup C1      NOp   1
                         Standard orientation:                         
 ---------------------------------------------------------------------
 Center     Atomic      Atomic             Coordinates (Angstroms)
 Number     Number       Type             X           Y           Z
 ---------------------------------------------------------------------
      1          6           0        3.847541    0.288288    0.012621
      2          6           0        2.546160   -0.183111   -0.074759
      3          6           0        1.418171    0.620789    0.124231
      4          6           0        1.523481    1.985629    0.368631
      5          6           0        3.972761    1.692348    0.335051
      6          6           0        2.870761    2.497739    0.495611
      7          6           0        0.235940   -0.144440   -0.081489
      8          6           0       -1.004769    0.545740    0.030381
      9          6           0       -0.917139    1.990560    0.142711
     10          6           0        0.298161    2.676520    0.351511
     11          6           0       -2.325700   -0.060319   -0.033939
     12          6           0       -3.437719    0.769751   -0.376949
     13          6           0       -3.283879    2.196191   -0.390419
     14          6           0       -2.105498    2.772491   -0.059329
     15          6           0       -2.615780   -1.430399    0.276481
     16          6           0       -3.885780   -1.952629    0.013161
     17          6           0       -4.915270   -1.151588   -0.483159
     18          6           0       -4.701799    0.203202   -0.631299
     19          6           0        4.853440   -0.675452   -0.270349
     20          6           0        4.487400   -1.970042   -0.631599
     21          6           0        3.141349   -2.396781   -0.744199
     22          6           0        2.130110   -1.482331   -0.457589
     23          6           0        0.679790   -1.455570   -0.477809
     24          1           0        2.927329   -3.413961   -1.053889
     25          1           0        5.271499   -2.687022   -0.849159
     26          1           0        5.903730   -0.408753   -0.219239
     27          1           0        4.963101    2.125978    0.429711
     28          1           0        3.011962    3.552629    0.707311
     29          1           0        0.268772    3.757540    0.442731
     30          1           0       -2.019948    3.852221   -0.000769
     31          1           0       -4.153668    2.802991   -0.617019
     32          1           0       -5.513999    0.858842   -0.926239
     33          1           0       -4.071991   -2.992369    0.251561
     34          1           0       -5.887680   -1.584028   -0.687609
     35          1           0        0.052580   -2.275540   -0.785159
     36          6           0       -1.739320   -2.280899    1.017471
     37          6           0       -1.110891   -3.039460    1.710871
     38          1           0       -0.520811   -3.685880    2.312711
 ---------------------------------------------------------------------
 Rotational constants (GHZ):      0.4634406      0.1750544      0.1334883
 Standard basis: 6-311+G(d,p) (5D, 7F)
 There are   653 symmetry adapted cartesian basis functions of A   symmetry.
 There are   628 symmetry adapted basis functions of A   symmetry.
   628 basis functions,  1004 primitive gaussians,   653 cartesian basis functions
    82 alpha electrons       81 beta electrons
       nuclear repulsion energy      1895.8324950604 Hartrees.
 NAtoms=   38 NActive=   38 NUniq=   38 SFac= 1.00D+00 NAtFMM=   60 NAOKFM=F Big=F
 Integral buffers will be    131072 words long.
 Raffenetti 2 integral format.
 Two-electron integral symmetry is turned on.
 One-electron integrals computed using PRISM.
 NBasis=   628 RedAO= T EigKep=  1.04D-06  NBF=   628
 NBsUse=   613 1.00D-06 EigRej=  8.58D-07 NBFU=   613
 ExpMin= 4.38D-02 ExpMax= 4.56D+03 ExpMxC= 6.82D+02 IAcc=2 IRadAn=         4 AccDes= 0.00D+00
 Harris functional with IExCor=  402 and IRadAn=       4 diagonalized for initial guess.
 HarFok:  IExCor=  402 AccDes= 0.00D+00 IRadAn=         4 IDoV= 1 UseB2=F ITyADJ=14
 ICtDFT=  3500011 ScaDFX=  1.000000  1.000000  1.000000  1.000000
 FoFCou: FMM=F IPFlag=           0 FMFlag=      100000 FMFlg1=           0
         NFxFlg=           0 DoJE=T BraDBF=F KetDBF=T FulRan=T
         wScrn=  0.000000 ICntrl=     500 IOpCl=  0 I1Cent=   200000004 NGrid=           0
         NMat0=    1 NMatS0=      1 NMatT0=    0 NMatD0=    1 NMtDS0=    0 NMtDT0=    0
 Petite list used in FoFCou.
 Initial guess <Sx>= 0.0000 <Sy>= 0.0000 <Sz>= 0.5000 <S**2>= 0.7500 S= 0.5000
 Requested convergence on RMS density matrix=1.00D-08 within 128 cycles.
 Requested convergence on MAX density matrix=1.00D-06.
 Requested convergence on             energy=1.00D-06.
 No special actions if energy rises.
 Restarting incremental Fock formation.
 SCF Done:  E(UB3LYP) =  -960.642428953     A.U. after   25 cycles
            NFock= 25  Conv=0.60D-08     -V/T= 2.0044
 <Sx>= 0.0000 <Sy>= 0.0000 <Sz>= 0.5000 <S**2>= 0.7812 S= 0.5155
 <L.S>= 0.000000000000E+00
 Annihilation of the first spin contaminant:
 S**2 before annihilation     0.7812,   after     0.7508

 **********************************************************************

            Population analysis using the SCF density.

 **********************************************************************

 Orbital symmetries:
 Alpha Orbitals:
       Occupied  (A) (A) (A) (A) (A) (A) (A) (A) (A) (A) (A) (A)
                 (A) (A) (A) (A) (A) (A) (A) (A) (A) (A) (A) (A)
                 (A) (A) (A) (A) (A) (A) (A) (A) (A) (A) (A) (A)
                 (A) (A) (A) (A) (A) (A) (A) (A) (A) (A) (A) (A)
                 (A) (A) (A) (A) (A) (A) (A) (A) (A) (A) (A) (A)
                 (A) (A) (A) (A) (A) (A) (A) (A) (A) (A) (A) (A)
                 (A) (A) (A) (A) (A) (A) (A) (A) (A) (A)
       Virtual   (A) (A) (A) (A) (A) (A) (A) (A) (A) (A) (A) (A)
                 (A) (A) (A) (A) (A) (A) (A) (A) (A) (A) (A) (A)
                 (A) (A) (A) (A) (A) (A) (A) (A) (A) (A) (A) (A)
                 (A) (A) (A) (A) (A) (A) (A) (A) (A) (A) (A) (A)
                 (A) (A) (A) (A) (A) (A) (A) (A) (A) (A) (A) (A)
                 (A) (A) (A) (A) (A) (A) (A) (A) (A) (A) (A) (A)
                 (A) (A) (A) (A) (A) (A) (A) (A) (A) (A) (A) (A)
                 (A) (A) (A) (A) (A) (A) (A) (A) (A) (A) (A) (A)
                 (A) (A) (A) (A) (A) (A) (A) (A) (A) (A) (A) (A)
                 (A) (A) (A) (A) (A) (A) (A) (A) (A) (A) (A) (A)
                 (A) (A) (A) (A) (A) (A) (A) (A) (A) (A) (A) (A)
                 (A) (A) (A) (A) (A) (A) (A) (A) (A) (A) (A) (A)
                 (A) (A) (A) (A) (A) (A) (A) (A) (A) (A) (A) (A)
                 (A) (A) (A) (A) (A) (A) (A) (A) (A) (A) (A) (A)
                 (A) (A) (A) (A) (A) (A) (A) (A) (A) (A) (A) (A)
                 (A) (A) (A) (A) (A) (A) (A) (A) (A) (A) (A) (A)
                 (A) (A) (A) (A) (A) (A) (A) (A) (A) (A) (A) (A)
                 (A) (A) (A) (A) (A) (A) (A) (A) (A) (A) (A) (A)
                 (A) (A) (A) (A) (A) (A) (A) (A) (A) (A) (A) (A)
                 (A) (A) (A) (A) (A) (A) (A) (A) (A) (A) (A) (A)
                 (A) (A) (A) (A) (A) (A) (A) (A) (A) (A) (A) (A)
                 (A) (A) (A) (A) (A) (A) (A) (A) (A) (A) (A) (A)
                 (A) (A) (A) (A) (A) (A) (A) (A) (A) (A) (A) (A)
                 (A) (A) (A) (A) (A) (A) (A) (A) (A) (A) (A) (A)
                 (A) (A) (A) (A) (A) (A) (A) (A) (A) (A) (A) (A)
                 (A) (A) (A) (A) (A) (A) (A) (A) (A) (A) (A) (A)
                 (A) (A) (A) (A) (A) (A) (A) (A) (A) (A) (A) (A)
                 (A) (A) (A) (A) (A) (A) (A) (A) (A) (A) (A) (A)
                 (A) (A) (A) (A) (A) (A) (A) (A) (A) (A) (A) (A)
                 (A) (A) (A) (A) (A) (A) (A) (A) (A) (A) (A) (A)
                 (A) (A) (A) (A) (A) (A) (A) (A) (A) (A) (A) (A)
                 (A) (A) (A) (A) (A) (A) (A) (A) (A) (A) (A) (A)
                 (A) (A) (A) (A) (A) (A) (A) (A) (A) (A) (A) (A)
                 (A) (A) (A) (A) (A) (A) (A) (A) (A) (A) (A) (A)
                 (A) (A) (A) (A) (A) (A) (A) (A) (A) (A) (A) (A)
                 (A) (A) (A) (A) (A) (A) (A) (A) (A) (A) (A) (A)
                 (A) (A) (A) (A) (A) (A) (A) (A) (A) (A) (A) (A)
                 (A) (A) (A) (A) (A) (A) (A) (A) (A) (A) (A) (A)
                 (A) (A) (A) (A) (A) (A) (A) (A) (A) (A) (A) (A)
                 (A) (A) (A) (A) (A) (A) (A) (A) (A) (A) (A) (A)
                 (A) (A) (A) (A) (A) (A) (A) (A) (A) (A) (A) (A)
                 (A) (A) (A) (A) (A) (A) (A) (A) (A) (A) (A) (A)
                 (A) (A) (A) (A) (A) (A) (A) (A) (A) (A) (A) (A)
                 (A) (A) (A) (A) (A) (A) (A) (A) (A) (A) (A) (A)
                 (A) (A) (A)
 Beta  Orbitals:
       Occupied  (A) (A) (A) (A) (A) (A) (A) (A) (A) (A) (A) (A)
                 (A) (A) (A) (A) (A) (A) (A) (A) (A) (A) (A) (A)
                 (A) (A) (A) (A) (A) (A) (A) (A) (A) (A) (A) (A)
                 (A) (A) (A) (A) (A) (A) (A) (A) (A) (A) (A) (A)
                 (A) (A) (A) (A) (A) (A) (A) (A) (A) (A) (A) (A)
                 (A) (A) (A) (A) (A) (A) (A) (A) (A) (A) (A) (A)
                 (A) (A) (A) (A) (A) (A) (A) (A) (A)
       Virtual   (A) (A) (A) (A) (A) (A) (A) (A) (A) (A) (A) (A)
                 (A) (A) (A) (A) (A) (A) (A) (A) (A) (A) (A) (A)
                 (A) (A) (A) (A) (A) (A) (A) (A) (A) (A) (A) (A)
                 (A) (A) (A) (A) (A) (A) (A) (A) (A) (A) (A) (A)
                 (A) (A) (A) (A) (A) (A) (A) (A) (A) (A) (A) (A)
                 (A) (A) (A) (A) (A) (A) (A) (A) (A) (A) (A) (A)
                 (A) (A) (A) (A) (A) (A) (A) (A) (A) (A) (A) (A)
                 (A) (A) (A) (A) (A) (A) (A) (A) (A) (A) (A) (A)
                 (A) (A) (A) (A) (A) (A) (A) (A) (A) (A) (A) (A)
                 (A) (A) (A) (A) (A) (A) (A) (A) (A) (A) (A) (A)
                 (A) (A) (A) (A) (A) (A) (A) (A) (A) (A) (A) (A)
                 (A) (A) (A) (A) (A) (A) (A) (A) (A) (A) (A) (A)
                 (A) (A) (A) (A) (A) (A) (A) (A) (A) (A) (A) (A)
                 (A) (A) (A) (A) (A) (A) (A) (A) (A) (A) (A) (A)
                 (A) (A) (A) (A) (A) (A) (A) (A) (A) (A) (A) (A)
                 (A) (A) (A) (A) (A) (A) (A) (A) (A) (A) (A) (A)
                 (A) (A) (A) (A) (A) (A) (A) (A) (A) (A) (A) (A)
                 (A) (A) (A) (A) (A) (A) (A) (A) (A) (A) (A) (A)
                 (A) (A) (A) (A) (A) (A) (A) (A) (A) (A) (A) (A)
                 (A) (A) (A) (A) (A) (A) (A) (A) (A) (A) (A) (A)
                 (A) (A) (A) (A) (A) (A) (A) (A) (A) (A) (A) (A)
                 (A) (A) (A) (A) (A) (A) (A) (A) (A) (A) (A) (A)
                 (A) (A) (A) (A) (A) (A) (A) (A) (A) (A) (A) (A)
                 (A) (A) (A) (A) (A) (A) (A) (A) (A) (A) (A) (A)
                 (A) (A) (A) (A) (A) (A) (A) (A) (A) (A) (A) (A)
                 (A) (A) (A) (A) (A) (A) (A) (A) (A) (A) (A) (A)
                 (A) (A) (A) (A) (A) (A) (A) (A) (A) (A) (A) (A)
                 (A) (A) (A) (A) (A) (A) (A) (A) (A) (A) (A) (A)
                 (A) (A) (A) (A) (A) (A) (A) (A) (A) (A) (A) (A)
                 (A) (A) (A) (A) (A) (A) (A) (A) (A) (A) (A) (A)
                 (A) (A) (A) (A) (A) (A) (A) (A) (A) (A) (A) (A)
                 (A) (A) (A) (A) (A) (A) (A) (A) (A) (A) (A) (A)
                 (A) (A) (A) (A) (A) (A) (A) (A) (A) (A) (A) (A)
                 (A) (A) (A) (A) (A) (A) (A) (A) (A) (A) (A) (A)
                 (A) (A) (A) (A) (A) (A) (A) (A) (A) (A) (A) (A)
                 (A) (A) (A) (A) (A) (A) (A) (A) (A) (A) (A) (A)
                 (A) (A) (A) (A) (A) (A) (A) (A) (A) (A) (A) (A)
                 (A) (A) (A) (A) (A) (A) (A) (A) (A) (A) (A) (A)
                 (A) (A) (A) (A) (A) (A) (A) (A) (A) (A) (A) (A)
                 (A) (A) (A) (A) (A) (A) (A) (A) (A) (A) (A) (A)
                 (A) (A) (A) (A) (A) (A) (A) (A) (A) (A) (A) (A)
                 (A) (A) (A) (A) (A) (A) (A) (A) (A) (A) (A) (A)
                 (A) (A) (A) (A) (A) (A) (A) (A) (A) (A) (A) (A)
                 (A) (A) (A) (A) (A) (A) (A) (A) (A) (A) (A) (A)
                 (A) (A) (A) (A)
 The electronic state is 2-A.
 Alpha  occ. eigenvalues --  -10.21318 -10.20684 -10.20525 -10.19790 -10.19693
 Alpha  occ. eigenvalues --  -10.19635 -10.19172 -10.19120 -10.19019 -10.19001
 Alpha  occ. eigenvalues --  -10.18882 -10.18879 -10.18815 -10.18739 -10.18734
 Alpha  occ. eigenvalues --  -10.18685 -10.18656 -10.18470 -10.18246 -10.18237
 Alpha  occ. eigenvalues --  -10.18189 -10.18029 -10.17214 -10.17003 -10.16683
 Alpha  occ. eigenvalues --   -0.91481  -0.89178  -0.85971  -0.83738  -0.83270
 Alpha  occ. eigenvalues --   -0.80554  -0.78996  -0.76929  -0.75559  -0.74058
 Alpha  occ. eigenvalues --   -0.73165  -0.71486  -0.69822  -0.65240  -0.64584
 Alpha  occ. eigenvalues --   -0.62985  -0.61761  -0.59521  -0.58853  -0.57695
 Alpha  occ. eigenvalues --   -0.54484  -0.52952  -0.52239  -0.52048  -0.50916
 Alpha  occ. eigenvalues --   -0.48691  -0.48133  -0.47296  -0.46806  -0.45395
 Alpha  occ. eigenvalues --   -0.44277  -0.44110  -0.43283  -0.42998  -0.42112
 Alpha  occ. eigenvalues --   -0.41632  -0.40838  -0.40653  -0.39749  -0.38254
 Alpha  occ. eigenvalues --   -0.37817  -0.37499  -0.36086  -0.35284  -0.34875
 Alpha  occ. eigenvalues --   -0.34187  -0.33812  -0.33530  -0.32175  -0.29597
 Alpha  occ. eigenvalues --   -0.28571  -0.28194  -0.25958  -0.24965  -0.23385
 Alpha  occ. eigenvalues --   -0.21268  -0.19033
 Alpha virt. eigenvalues --   -0.07077  -0.06507  -0.02665  -0.02442   0.00025
 Alpha virt. eigenvalues --    0.00418   0.00509   0.00854   0.01694   0.01792
 Alpha virt. eigenvalues --    0.02161   0.02499   0.02933   0.03115   0.03342
 Alpha virt. eigenvalues --    0.03379   0.03971   0.04553   0.05032   0.05330
 Alpha virt. eigenvalues --    0.05356   0.05898   0.05995   0.07063   0.07300
 Alpha virt. eigenvalues --    0.07491   0.07741   0.08021   0.08274   0.08571
 Alpha virt. eigenvalues --    0.09386   0.09763   0.10067   0.10405   0.10787
 Alpha virt. eigenvalues --    0.10890   0.10992   0.12030   0.12456   0.12654
 Alpha virt. eigenvalues --    0.12792   0.13309   0.13765   0.13902   0.14311
 Alpha virt. eigenvalues --    0.14480   0.14972   0.15368   0.15498   0.15844
 Alpha virt. eigenvalues --    0.16062   0.16377   0.16541   0.16935   0.17121
 Alpha virt. eigenvalues --    0.17511   0.17603   0.17897   0.17969   0.18135
 Alpha virt. eigenvalues --    0.18467   0.19012   0.19186   0.19358   0.19578
 Alpha virt. eigenvalues --    0.19788   0.19871   0.19986   0.20564   0.20594
 Alpha virt. eigenvalues --    0.21107   0.21267   0.21447   0.21855   0.21986
 Alpha virt. eigenvalues --    0.22280   0.22722   0.22887   0.23061   0.23487
 Alpha virt. eigenvalues --    0.23752   0.24052   0.24135   0.24377   0.24868
 Alpha virt. eigenvalues --    0.25028   0.25353   0.25690   0.25740   0.26044
 Alpha virt. eigenvalues --    0.26071   0.26645   0.27119   0.27466   0.27608
 Alpha virt. eigenvalues --    0.28124   0.28205   0.28357   0.28729   0.29092
 Alpha virt. eigenvalues --    0.29403   0.29727   0.30011   0.30650   0.30990
 Alpha virt. eigenvalues --    0.31297   0.31765   0.31875   0.32208   0.32557
 Alpha virt. eigenvalues --    0.33002   0.33427   0.33457   0.33942   0.34618
 Alpha virt. eigenvalues --    0.35521   0.35883   0.36310   0.36678   0.37980
 Alpha virt. eigenvalues --    0.38647   0.38677   0.39299   0.39455   0.40241
 Alpha virt. eigenvalues --    0.41333   0.42551   0.43096   0.43501   0.44299
 Alpha virt. eigenvalues --    0.44632   0.46191   0.47375   0.47404   0.48142
 Alpha virt. eigenvalues --    0.49004   0.50176   0.51520   0.51637   0.52639
 Alpha virt. eigenvalues --    0.52807   0.53039   0.53326   0.54118   0.54717
 Alpha virt. eigenvalues --    0.54884   0.55080   0.55476   0.55926   0.56347
 Alpha virt. eigenvalues --    0.56616   0.57245   0.57781   0.58073   0.58451
 Alpha virt. eigenvalues --    0.58635   0.59253   0.59833   0.60295   0.60897
 Alpha virt. eigenvalues --    0.61294   0.61594   0.62306   0.62824   0.63665
 Alpha virt. eigenvalues --    0.64200   0.64360   0.64918   0.65107   0.65670
 Alpha virt. eigenvalues --    0.66106   0.67041   0.67210   0.67784   0.68600
 Alpha virt. eigenvalues --    0.69337   0.69514   0.69881   0.70035   0.70437
 Alpha virt. eigenvalues --    0.70792   0.70901   0.71124   0.71853   0.72499
 Alpha virt. eigenvalues --    0.72647   0.73149   0.73259   0.73621   0.74323
 Alpha virt. eigenvalues --    0.74856   0.75212   0.75689   0.76002   0.76031
 Alpha virt. eigenvalues --    0.77091   0.77662   0.78339   0.79966   0.80639
 Alpha virt. eigenvalues --    0.81121   0.81564   0.82536   0.83350   0.83487
 Alpha virt. eigenvalues --    0.83978   0.85121   0.85875   0.86284   0.87559
 Alpha virt. eigenvalues --    0.88017   0.88352   0.88643   0.89198   0.89705
 Alpha virt. eigenvalues --    0.90393   0.91109   0.91603   0.92550   0.92943
 Alpha virt. eigenvalues --    0.93187   0.94125   0.94703   0.94997   0.95040
 Alpha virt. eigenvalues --    0.95584   0.96516   0.97052   0.97487   0.98021
 Alpha virt. eigenvalues --    0.98108   0.99082   0.99802   1.00006   1.00555
 Alpha virt. eigenvalues --    1.00791   1.01940   1.03194   1.04098   1.04529
 Alpha virt. eigenvalues --    1.05419   1.05946   1.06274   1.06945   1.07140
 Alpha virt. eigenvalues --    1.07916   1.08205   1.09508   1.09943   1.11738
 Alpha virt. eigenvalues --    1.11976   1.12125   1.13710   1.14741   1.15520
 Alpha virt. eigenvalues --    1.15576   1.15929   1.17463   1.17833   1.19671
 Alpha virt. eigenvalues --    1.22198   1.22690   1.24486   1.26014   1.26387
 Alpha virt. eigenvalues --    1.27655   1.28787   1.29317   1.31419   1.32892
 Alpha virt. eigenvalues --    1.34737   1.35576   1.36933   1.38178   1.39702
 Alpha virt. eigenvalues --    1.42250   1.42940   1.45450   1.45602   1.46317
 Alpha virt. eigenvalues --    1.47005   1.48229   1.49606   1.50041   1.50319
 Alpha virt. eigenvalues --    1.50575   1.51223   1.51948   1.53071   1.53424
 Alpha virt. eigenvalues --    1.54157   1.54844   1.55769   1.55990   1.56789
 Alpha virt. eigenvalues --    1.57540   1.57921   1.59684   1.60288   1.60724
 Alpha virt. eigenvalues --    1.61810   1.62329   1.62890   1.63605   1.64862
 Alpha virt. eigenvalues --    1.66149   1.66514   1.67498   1.68575   1.69812
 Alpha virt. eigenvalues --    1.70526   1.72349   1.72861   1.73278   1.74231
 Alpha virt. eigenvalues --    1.74383   1.75098   1.76092   1.77168   1.78553
 Alpha virt. eigenvalues --    1.79282   1.79789   1.80106   1.81795   1.82192
 Alpha virt. eigenvalues --    1.83545   1.84110   1.84919   1.85218   1.85361
 Alpha virt. eigenvalues --    1.86753   1.87887   1.88252   1.89068   1.90298
 Alpha virt. eigenvalues --    1.90885   1.91383   1.92050   1.92695   1.92998
 Alpha virt. eigenvalues --    1.93700   1.94207   1.94298   1.95016   1.96104
 Alpha virt. eigenvalues --    1.97405   1.98869   1.99445   1.99949   2.01396
 Alpha virt. eigenvalues --    2.01649   2.03172   2.03673   2.03930   2.05455
 Alpha virt. eigenvalues --    2.06071   2.06556   2.08105   2.08833   2.09944
 Alpha virt. eigenvalues --    2.11500   2.12476   2.13337   2.14207   2.15625
 Alpha virt. eigenvalues --    2.18172   2.18590   2.19715   2.20556   2.21815
 Alpha virt. eigenvalues --    2.22237   2.23469   2.25544   2.27140   2.28805
 Alpha virt. eigenvalues --    2.31928   2.33029   2.33401   2.35212   2.36283
 Alpha virt. eigenvalues --    2.37990   2.38282   2.40674   2.41515   2.43211
 Alpha virt. eigenvalues --    2.44196   2.44841   2.45861   2.47321   2.48990
 Alpha virt. eigenvalues --    2.51901   2.53260   2.55832   2.56529   2.56894
 Alpha virt. eigenvalues --    2.59426   2.62408   2.63904   2.64611   2.65105
 Alpha virt. eigenvalues --    2.65690   2.68127   2.69533   2.70070   2.70496
 Alpha virt. eigenvalues --    2.71031   2.71405   2.71722   2.72411   2.72902
 Alpha virt. eigenvalues --    2.73515   2.74465   2.74837   2.75316   2.75831
 Alpha virt. eigenvalues --    2.76082   2.76737   2.77049   2.77145   2.77633
 Alpha virt. eigenvalues --    2.78349   2.78618   2.79332   2.80842   2.82059
 Alpha virt. eigenvalues --    2.82286   2.83331   2.84265   2.85143   2.86133
 Alpha virt. eigenvalues --    2.86229   2.88131   2.88842   2.89128   2.90567
 Alpha virt. eigenvalues --    2.91238   2.92442   2.92884   2.95021   2.97222
 Alpha virt. eigenvalues --    3.00255   3.01164   3.02316   3.03798   3.04573
 Alpha virt. eigenvalues --    3.05139   3.08109   3.09856   3.11206   3.12709
 Alpha virt. eigenvalues --    3.13237   3.16554   3.17143   3.19382   3.20763
 Alpha virt. eigenvalues --    3.21494   3.23076   3.24637   3.26232   3.28691
 Alpha virt. eigenvalues --    3.32573   3.33540   3.34555   3.35026   3.36073
 Alpha virt. eigenvalues --    3.38545   3.39778   3.42215   3.43566   3.44915
 Alpha virt. eigenvalues --    3.46207   3.47563   3.48711   3.51319   3.53292
 Alpha virt. eigenvalues --    3.54099   3.55654   3.57738   3.57932   3.61893
 Alpha virt. eigenvalues --    3.63745   3.67930   3.68863   3.71748   3.80270
 Alpha virt. eigenvalues --    3.83018   3.89978   3.96473   4.03031   4.05704
 Alpha virt. eigenvalues --    4.06944   4.09126   4.10271   4.11262   4.21534
 Alpha virt. eigenvalues --    4.23921   4.27184   4.30372   4.37630   4.63277
 Alpha virt. eigenvalues --    4.72209   4.75883   4.78446   4.79539   4.80798
 Alpha virt. eigenvalues --    4.86997  23.44614  23.55794  23.68312  23.77688
 Alpha virt. eigenvalues --   23.81713  23.85791  23.89824  23.92358  23.93850
 Alpha virt. eigenvalues --   23.94975  23.95393  23.96782  23.99314  24.00456
 Alpha virt. eigenvalues --   24.04252  24.05847  24.06549  24.09178  24.10302
 Alpha virt. eigenvalues --   24.14057  24.15667  24.17495  24.18094  24.21988
 Alpha virt. eigenvalues --   25.15353
  Beta  occ. eigenvalues --  -10.21261 -10.20591 -10.20449 -10.19797 -10.19721
  Beta  occ. eigenvalues --  -10.19236 -10.19040 -10.18915 -10.18898 -10.18881
  Beta  occ. eigenvalues --  -10.18835 -10.18813 -10.18804 -10.18771 -10.18763
  Beta  occ. eigenvalues --  -10.18605 -10.18532 -10.18415 -10.18382 -10.18307
  Beta  occ. eigenvalues --  -10.18246 -10.18028 -10.17039 -10.16984 -10.16594
  Beta  occ. eigenvalues --   -0.91191  -0.89081  -0.85793  -0.83446  -0.83145
  Beta  occ. eigenvalues --   -0.80391  -0.78783  -0.76789  -0.75448  -0.73940
  Beta  occ. eigenvalues --   -0.72886  -0.71424  -0.68839  -0.65099  -0.64526
  Beta  occ. eigenvalues --   -0.62947  -0.61601  -0.59225  -0.58450  -0.57653
  Beta  occ. eigenvalues --   -0.54389  -0.52815  -0.52153  -0.51966  -0.50832
  Beta  occ. eigenvalues --   -0.48626  -0.48003  -0.47216  -0.46723  -0.45336
  Beta  occ. eigenvalues --   -0.44121  -0.43927  -0.43156  -0.42370  -0.41997
  Beta  occ. eigenvalues --   -0.41540  -0.40653  -0.40503  -0.39683  -0.38194
  Beta  occ. eigenvalues --   -0.37682  -0.37092  -0.35846  -0.35156  -0.34174
  Beta  occ. eigenvalues --   -0.33804  -0.33718  -0.33383  -0.31747  -0.29030
  Beta  occ. eigenvalues --   -0.28289  -0.27742  -0.25609  -0.24345  -0.22596
  Beta  occ. eigenvalues --   -0.21039
  Beta virt. eigenvalues --   -0.12298  -0.06539  -0.06010  -0.02454  -0.01943
  Beta virt. eigenvalues --    0.00036   0.00510   0.00852   0.01075   0.01712
  Beta virt. eigenvalues --    0.01812   0.02393   0.02799   0.03081   0.03213
  Beta virt. eigenvalues --    0.03383   0.03684   0.04012   0.04609   0.05069
  Beta virt. eigenvalues --    0.05374   0.05414   0.05923   0.06173   0.07139
  Beta virt. eigenvalues --    0.07385   0.07622   0.07773   0.08074   0.08362
  Beta virt. eigenvalues --    0.08837   0.09486   0.09826   0.10170   0.10602
  Beta virt. eigenvalues --    0.10844   0.10998   0.11099   0.12039   0.12533
  Beta virt. eigenvalues --    0.12684   0.12861   0.13391   0.13831   0.13959
  Beta virt. eigenvalues --    0.14350   0.14554   0.15097   0.15424   0.15570
  Beta virt. eigenvalues --    0.15875   0.16263   0.16451   0.16689   0.17000
  Beta virt. eigenvalues --    0.17169   0.17616   0.17753   0.17951   0.17993
  Beta virt. eigenvalues --    0.18240   0.18549   0.19071   0.19226   0.19404
  Beta virt. eigenvalues --    0.19679   0.19786   0.19911   0.20021   0.20653
  Beta virt. eigenvalues --    0.20682   0.21181   0.21377   0.21606   0.21963
  Beta virt. eigenvalues --    0.22108   0.22382   0.22820   0.22982   0.23122
  Beta virt. eigenvalues --    0.23535   0.23807   0.24104   0.24222   0.24502
  Beta virt. eigenvalues --    0.24908   0.25099   0.25424   0.25788   0.25812
  Beta virt. eigenvalues --    0.26090   0.26126   0.26718   0.27180   0.27555
  Beta virt. eigenvalues --    0.27652   0.28225   0.28256   0.28413   0.28846
  Beta virt. eigenvalues --    0.29164   0.29511   0.29796   0.30071   0.30687
  Beta virt. eigenvalues --    0.31028   0.31327   0.31862   0.31947   0.32387
  Beta virt. eigenvalues --    0.32611   0.33099   0.33464   0.33520   0.34004
  Beta virt. eigenvalues --    0.34695   0.35594   0.35941   0.36428   0.36728
  Beta virt. eigenvalues --    0.38036   0.38712   0.38767   0.39397   0.39537
  Beta virt. eigenvalues --    0.40261   0.41411   0.42703   0.43223   0.43597
  Beta virt. eigenvalues --    0.44456   0.44764   0.46264   0.47444   0.47519
  Beta virt. eigenvalues --    0.48256   0.49223   0.50418   0.51590   0.51745
  Beta virt. eigenvalues --    0.52742   0.52934   0.53233   0.53494   0.54248
  Beta virt. eigenvalues --    0.54855   0.55029   0.55333   0.55626   0.56132
  Beta virt. eigenvalues --    0.56463   0.56726   0.57518   0.57905   0.58217
  Beta virt. eigenvalues --    0.58565   0.58754   0.59329   0.60035   0.60336
  Beta virt. eigenvalues --    0.61083   0.61515   0.61740   0.62657   0.62935
  Beta virt. eigenvalues --    0.63878   0.64227   0.64414   0.65022   0.65250
  Beta virt. eigenvalues --    0.65971   0.66182   0.67198   0.67310   0.67935
  Beta virt. eigenvalues --    0.68671   0.69431   0.69716   0.70068   0.70120
  Beta virt. eigenvalues --    0.70571   0.71012   0.71161   0.71342   0.71951
  Beta virt. eigenvalues --    0.72560   0.72750   0.73203   0.73361   0.73690
  Beta virt. eigenvalues --    0.74381   0.74934   0.75291   0.75761   0.76092
  Beta virt. eigenvalues --    0.76199   0.77233   0.77855   0.78456   0.80201
  Beta virt. eigenvalues --    0.80809   0.81274   0.81752   0.82613   0.83442
  Beta virt. eigenvalues --    0.83656   0.84079   0.85241   0.85990   0.86428
  Beta virt. eigenvalues --    0.87682   0.88133   0.88506   0.88754   0.89292
  Beta virt. eigenvalues --    0.89830   0.90568   0.91160   0.91731   0.92597
  Beta virt. eigenvalues --    0.93145   0.93267   0.94233   0.94815   0.95119
  Beta virt. eigenvalues --    0.95153   0.95655   0.96600   0.97157   0.97611
  Beta virt. eigenvalues --    0.98158   0.98311   0.99270   0.99943   1.00236
  Beta virt. eigenvalues --    1.00791   1.01123   1.02079   1.03370   1.04305
  Beta virt. eigenvalues --    1.04710   1.05597   1.06195   1.06411   1.07176
  Beta virt. eigenvalues --    1.07351   1.08139   1.08298   1.09774   1.10131
  Beta virt. eigenvalues --    1.11936   1.12156   1.12271   1.13858   1.14956
  Beta virt. eigenvalues --    1.15631   1.15790   1.16147   1.17765   1.17972
  Beta virt. eigenvalues --    1.19816   1.22387   1.22832   1.24846   1.26204
  Beta virt. eigenvalues --    1.26599   1.27832   1.28934   1.29435   1.31604
  Beta virt. eigenvalues --    1.33082   1.34888   1.35772   1.37024   1.38346
  Beta virt. eigenvalues --    1.39850   1.42370   1.43063   1.45576   1.45705
  Beta virt. eigenvalues --    1.46443   1.47169   1.48371   1.49673   1.50186
  Beta virt. eigenvalues --    1.50516   1.50779   1.51359   1.52090   1.53251
  Beta virt. eigenvalues --    1.53494   1.54309   1.54970   1.55926   1.56109
  Beta virt. eigenvalues --    1.56906   1.57664   1.58099   1.59815   1.60485
  Beta virt. eigenvalues --    1.60791   1.61886   1.62452   1.63188   1.63696
  Beta virt. eigenvalues --    1.64940   1.66242   1.66571   1.67626   1.68751
  Beta virt. eigenvalues --    1.69933   1.70588   1.72493   1.72990   1.73387
  Beta virt. eigenvalues --    1.74411   1.74474   1.75232   1.76236   1.77433
  Beta virt. eigenvalues --    1.78827   1.79820   1.79995   1.80498   1.82104
  Beta virt. eigenvalues --    1.82281   1.83819   1.84268   1.85115   1.85439
  Beta virt. eigenvalues --    1.85688   1.87041   1.87905   1.88456   1.89286
  Beta virt. eigenvalues --    1.90465   1.91143   1.91512   1.92186   1.92800
  Beta virt. eigenvalues --    1.93216   1.93891   1.94340   1.94518   1.95131
  Beta virt. eigenvalues --    1.96174   1.97553   1.99054   1.99724   2.00211
  Beta virt. eigenvalues --    2.01515   2.01838   2.03304   2.03752   2.04285
  Beta virt. eigenvalues --    2.05506   2.06268   2.06681   2.08271   2.09025
  Beta virt. eigenvalues --    2.10432   2.11510   2.12597   2.13451   2.14488
  Beta virt. eigenvalues --    2.15772   2.18367   2.18683   2.19935   2.20712
  Beta virt. eigenvalues --    2.21910   2.22508   2.23788   2.25589   2.27270
  Beta virt. eigenvalues --    2.28905   2.32042   2.33148   2.33570   2.35469
  Beta virt. eigenvalues --    2.36466   2.38160   2.38505   2.40972   2.41639
  Beta virt. eigenvalues --    2.43280   2.44348   2.44997   2.46030   2.47509
  Beta virt. eigenvalues --    2.49354   2.52052   2.53302   2.55878   2.56633
  Beta virt. eigenvalues --    2.56972   2.59562   2.62570   2.64175   2.64724
  Beta virt. eigenvalues --    2.65161   2.65812   2.68392   2.69553   2.70154
  Beta virt. eigenvalues --    2.70607   2.71182   2.71480   2.71771   2.72496
  Beta virt. eigenvalues --    2.72975   2.73694   2.74519   2.74908   2.75376
  Beta virt. eigenvalues --    2.75963   2.76160   2.76951   2.77181   2.77263
  Beta virt. eigenvalues --    2.77774   2.78451   2.78734   2.79416   2.80913
  Beta virt. eigenvalues --    2.82371   2.82818   2.83402   2.84410   2.85312
  Beta virt. eigenvalues --    2.86250   2.86349   2.88292   2.88910   2.89789
  Beta virt. eigenvalues --    2.90638   2.91430   2.92540   2.92976   2.95115
  Beta virt. eigenvalues --    2.97440   3.00459   3.01675   3.03034   3.04377
  Beta virt. eigenvalues --    3.04957   3.05274   3.08362   3.09934   3.11349
  Beta virt. eigenvalues --    3.12972   3.13493   3.16685   3.17261   3.19435
  Beta virt. eigenvalues --    3.20808   3.21551   3.23162   3.24723   3.26272
  Beta virt. eigenvalues --    3.28771   3.32650   3.33574   3.34578   3.35132
  Beta virt. eigenvalues --    3.36128   3.38600   3.39851   3.42264   3.43650
  Beta virt. eigenvalues --    3.44971   3.46285   3.47699   3.48772   3.51350
  Beta virt. eigenvalues --    3.53359   3.54112   3.55701   3.57781   3.58001
  Beta virt. eigenvalues --    3.61959   3.63880   3.68199   3.68895   3.71939
  Beta virt. eigenvalues --    3.80384   3.83234   3.90179   3.96709   4.03177
  Beta virt. eigenvalues --    4.05755   4.06977   4.09138   4.10286   4.11509
  Beta virt. eigenvalues --    4.21788   4.24134   4.27382   4.30530   4.37834
  Beta virt. eigenvalues --    4.63550   4.72621   4.75970   4.78610   4.79726
  Beta virt. eigenvalues --    4.80848   4.87120  23.44670  23.55822  23.68336
  Beta virt. eigenvalues --   23.77737  23.81737  23.85876  23.89927  23.92677
  Beta virt. eigenvalues --   23.93816  23.95025  23.95441  23.97097  23.99301
  Beta virt. eigenvalues --   24.00508  24.04399  24.05991  24.06550  24.09297
  Beta virt. eigenvalues --   24.10388  24.14123  24.15706  24.17508  24.18171
  Beta virt. eigenvalues --   24.21987  25.15366
          Condensed to atoms (all electrons):
               1          2          3          4          5          6
     1  C   11.931097   1.358178  -2.320447   1.213658  -3.804712   1.004468
     2  C    1.358178   8.438272   1.229301   0.590045  -0.257876   0.115575
     3  C   -2.320447   1.229301  10.310166   0.531790   2.455790  -1.840200
     4  C    1.213658   0.590045   0.531790   9.483835  -2.081174   0.154959
     5  C   -3.804712  -0.257876   2.455790  -2.081174  11.369889  -0.301784
     6  C    1.004468   0.115575  -1.840200   0.154959  -0.301784   9.800888
     7  C   -0.936425  -1.477870   1.386189  -0.206890   0.242327  -1.178357
     8  C   -1.179535  -0.786191  -0.674277  -1.275916   0.610219  -0.963905
     9  C    0.215605   0.340749   0.100511   0.005078  -0.501374   0.140012
    10  C   -0.096483  -0.279317  -0.376379   0.968866  -0.525267  -0.236485
    11  C    0.048061  -0.151650   0.413302  -0.623877  -0.024839  -0.177728
    12  C    0.011398   0.053241  -0.282114  -0.019613  -0.014796   0.091131
    13  C   -0.078296  -0.059145  -0.188558  -0.135269   0.024729  -0.227547
    14  C   -0.052095   0.148729  -1.195824  -0.824918  -0.156164  -0.077013
    15  C   -0.076908  -0.224321  -0.606448  -0.359207   0.031502  -0.087847
    16  C    0.033653  -0.010376  -0.028909   0.014538  -0.004531   0.008228
    17  C   -0.004076   0.000474   0.001494  -0.032504   0.000374  -0.005407
    18  C    0.002023   0.031421  -0.156085   0.079677   0.002073   0.014026
    19  C   -0.652979  -1.945019  -1.307094   0.123092  -1.061944   0.624405
    20  C    0.110583   1.058268   0.019174  -0.168789  -0.472367  -0.141964
    21  C    0.984475  -1.722680  -1.671292   0.300160  -0.048510   0.377817
    22  C    0.493251   1.615240  -0.413170   0.123486  -0.702901   0.019963
    23  C   -2.094250  -1.751651   1.239787  -1.745850   1.242688  -1.151198
    24  H   -0.019553   0.040307   0.005072   0.000165  -0.003515  -0.002234
    25  H    0.012083  -0.005874   0.006638   0.000382   0.014641  -0.000944
    26  H   -0.081033   0.043065  -0.005282   0.003164   0.017302   0.017197
    27  H   -0.078856  -0.002948  -0.019741   0.022921   0.371134  -0.034487
    28  H   -0.049882  -0.002391   0.031089  -0.092219   0.012264   0.355478
    29  H    0.011043  -0.000508  -0.002893  -0.053127   0.003584   0.050638
    30  H    0.000241   0.001592   0.010187   0.056672   0.001014   0.008357
    31  H    0.000014   0.000070  -0.000250   0.002427   0.000003   0.000179
    32  H   -0.000008  -0.000002  -0.000301   0.000301   0.000002   0.000024
    33  H   -0.000031  -0.000216  -0.001460  -0.000269   0.000005  -0.000020
    34  H    0.000001  -0.000008  -0.000155   0.000049   0.000000   0.000001
    35  H    0.005419   0.010335   0.015382   0.009027  -0.004942   0.001143
    36  C   -0.008238   0.153403  -0.365490   0.090987   0.037024  -0.003889
    37  C   -0.111667  -0.369447  -0.102166  -0.229659   0.022957  -0.059638
    38  H   -0.000019  -0.001721   0.000532  -0.000365  -0.000046   0.000020
               7          8          9         10         11         12
     1  C   -0.936425  -1.179535   0.215605  -0.096483   0.048061   0.011398
     2  C   -1.477870  -0.786191   0.340749  -0.279317  -0.151650   0.053241
     3  C    1.386189  -0.674277   0.100511  -0.376379   0.413302  -0.282114
     4  C   -0.206890  -1.275916   0.005078   0.968866  -0.623877  -0.019613
     5  C    0.242327   0.610219  -0.501374  -0.525267  -0.024839  -0.014796
     6  C   -1.178357  -0.963905   0.140012  -0.236485  -0.177728   0.091131
     7  C    9.741129   1.109041  -0.111044  -0.121308   0.575513  -0.440784
     8  C    1.109041   9.151617  -2.053682  -0.173739   1.146345  -1.046025
     9  C   -0.111044  -2.053682  14.559934   1.545867  -0.526547   1.054242
    10  C   -0.121308  -0.173739   1.545867   8.002874  -0.731316  -0.376537
    11  C    0.575513   1.146345  -0.526547  -0.731316  10.445850  -0.387773
    12  C   -0.440784  -1.046025   1.054242  -0.376537  -0.387773  11.539307
    13  C   -0.417660   0.662830  -2.373032  -0.354964  -1.060141  -0.665736
    14  C   -0.717664  -0.012373  -0.007379  -1.669932   0.211474  -0.260759
    15  C    0.180317   1.120408  -1.939818  -0.111730   0.258289  -2.140076
    16  C   -0.774597  -0.807436   0.554180   0.120723  -1.796090   2.574738
    17  C    0.085116   0.107242  -0.419007  -0.086791   1.190487  -1.000181
    18  C    0.012507  -0.182199  -0.725289   0.023369  -0.737937  -1.283193
    19  C    0.114637  -0.084056   0.074531   0.113450   0.017595   0.008795
    20  C   -0.319063  -0.143498  -0.092433  -0.090788   0.011598  -0.009904
    21  C   -0.633478   0.469516  -0.044389   0.099933  -0.132927   0.030154
    22  C   -2.225951  -0.883654  -0.325720  -0.017932   0.325945  -0.010289
    23  C    1.522489   1.121607  -2.323208  -0.128198  -0.045229  -0.540052
    24  H   -0.001570   0.000114  -0.000626  -0.000223  -0.000359  -0.000066
    25  H    0.005917   0.000189   0.000086   0.000227  -0.000012  -0.000003
    26  H    0.001782  -0.000829  -0.000184  -0.000347   0.000015  -0.000007
    27  H    0.001747   0.000560   0.002467   0.005656   0.000083   0.000021
    28  H   -0.005679   0.013637   0.017893   0.050423   0.000736   0.000051
    29  H   -0.024673  -0.037293  -0.052915   0.338870  -0.009739   0.009359
    30  H   -0.009388  -0.008652  -0.082936   0.120644  -0.029672  -0.033310
    31  H   -0.000915  -0.013507   0.019014   0.008620  -0.023109  -0.105196
    32  H    0.002979  -0.012139   0.014326   0.001141   0.003217  -0.104472
    33  H   -0.001045  -0.005076  -0.004016  -0.000131  -0.009490  -0.020391
    34  H   -0.000845  -0.002921   0.002132   0.000306  -0.043949   0.027348
    35  H    0.035621   0.013002   0.020163   0.003517   0.011668  -0.000675
    36  C    0.247397   0.733164  -0.896815  -0.088815  -1.128708  -1.992835
    37  C    0.031288  -0.018040  -0.224466   0.083488  -0.482364   0.699210
    38  H   -0.002135   0.000329  -0.000052   0.000136   0.001363   0.002378
              13         14         15         16         17         18
     1  C   -0.078296  -0.052095  -0.076908   0.033653  -0.004076   0.002023
     2  C   -0.059145   0.148729  -0.224321  -0.010376   0.000474   0.031421
     3  C   -0.188558  -1.195824  -0.606448  -0.028909   0.001494  -0.156085
     4  C   -0.135269  -0.824918  -0.359207   0.014538  -0.032504   0.079677
     5  C    0.024729  -0.156164   0.031502  -0.004531   0.000374   0.002073
     6  C   -0.227547  -0.077013  -0.087847   0.008228  -0.005407   0.014026
     7  C   -0.417660  -0.717664   0.180317  -0.774597   0.085116   0.012507
     8  C    0.662830  -0.012373   1.120408  -0.807436   0.107242  -0.182199
     9  C   -2.373032  -0.007379  -1.939818   0.554180  -0.419007  -0.725289
    10  C   -0.354964  -1.669932  -0.111730   0.120723  -0.086791   0.023369
    11  C   -1.060141   0.211474   0.258289  -1.796090   1.190487  -0.737937
    12  C   -0.665736  -0.260759  -2.140076   2.574738  -1.000181  -1.283193
    13  C   11.013247   1.191904  -0.680494   0.392390  -0.509709  -0.874004
    14  C    1.191904  10.778876  -0.327516  -0.160846  -0.245236   0.071259
    15  C   -0.680494  -0.327516  10.509900  -3.012710   0.385327   1.146748
    16  C    0.392390  -0.160846  -3.012710  11.667714  -0.663818  -1.559559
    17  C   -0.509709  -0.245236   0.385327  -0.663818   7.268224   0.308701
    18  C   -0.874004   0.071259   1.146748  -1.559559   0.308701   9.372758
    19  C   -0.000338   0.029198  -0.005531   0.003856  -0.000368   0.002823
    20  C   -0.000203  -0.024511  -0.012096   0.000094   0.000356  -0.003026
    21  C   -0.021597   0.061629   0.006369   0.038022  -0.009450   0.024655
    22  C   -0.217997  -0.042520  -0.165592   0.191920  -0.019766   0.011126
    23  C    0.357195  -0.555976   0.506406   0.003630   0.045335  -0.307303
    24  H    0.000010  -0.000069  -0.000188  -0.000169   0.000032  -0.000021
    25  H    0.000002   0.000010  -0.000014   0.000001   0.000000   0.000000
    26  H    0.000000  -0.000020   0.000007   0.000001   0.000000   0.000000
    27  H   -0.000012   0.000242   0.000008   0.000000   0.000000   0.000001
    28  H    0.000308   0.005657   0.000169  -0.000001   0.000000   0.000002
    29  H    0.020701   0.079928  -0.001737   0.000041   0.000062  -0.000384
    30  H   -0.031774   0.326565  -0.002871   0.000080  -0.000470   0.008605
[...]
 00000807,0.00000020,0.00000458,0.00001052,-0.00001585,-0.00000451,-0.0
 0001211,0.00001552,0.00001337,0.00001518,0.00002100,0.00000452,0.00000
 214,0.00000365,-0.00000365,-0.00000446,0.00000282,-0.00000067,-0.00000
 425,-0.00000051,-0.00000109,-0.00000473,-0.00000067,-0.00000008,-0.000
 00008,-0.00000475,-0.00000146,-0.00000135,-0.00000355,-0.00000035,-0.0
 0002522,-0.00000497,-0.00000108,0.00001503,-0.00000801,-0.00002061,0.0
 0037772,-0.00013322,0.00134777,0.00048657,0.00060734,0.00116490,0.2950
 1982,0.00001297,0.00001907,0.00000441,-0.00002526,0.00000768,0.0000074
 1,0.00001872,0.00005845,0.00001216,0.00005160,-0.00005060,-0.00000583,
 0.00000476,-0.00001500,-0.00000186,-0.00001721,0.00000940,0.00000049,-
 0.00014341,0.00009174,0.00000713,0.00020018,0.00013552,-0.00017037,0.0
 0029119,-0.00005870,0.00012443,-0.00013841,0.00000085,-0.00001511,0.00
 028516,-0.00085073,0.00011434,0.00041322,-0.00543103,0.00192495,-0.001
 33256,0.00037295,-0.00021143,-0.00012607,-0.00056263,-0.00013460,0.002
 72517,-0.00107078,0.00271759,0.01762121,0.01100778,0.00344575,-0.10057
 873,-0.10279288,-0.01759033,-0.02930581,-0.00713463,-0.00636643,-0.000
 00501,0.00001052,0.00000065,-0.00001816,-0.00000753,-0.00000062,0.0000
 1691,-0.00001207,-0.00000859,-0.00004301,0.00001307,0.00000533,0.00003
 127,-0.00008658,-0.00001559,0.00000024,0.00000238,0.00000226,-0.000002
 02,0.00000131,0.00000079,-0.00000265,-0.00000013,0.00000003,-0.0000031
 7,-0.00000053,-0.00000024,0.00000016,-0.00000291,0.,0.00000595,0.00000
 182,-0.00000089,-0.00013252,-0.00006911,-0.00007210,0.00003140,-0.0000
 3718,0.00003821,0.00059471,0.00092006,-0.00061207,-0.00023574,0.000484
 12,-0.00100998,0.10908997,0.10478447,0.00000920,0.00000027,-0.00000282
 ,-0.00002153,0.00000603,-0.00000132,0.00002705,-0.00002272,0.00003467,
 -0.00001046,0.00000534,-0.00000712,-0.00000005,-0.00000038,0.00000052,
 0.00000225,-0.00000069,0.00000132,0.00002251,0.00008640,0.00002558,0.0
 0025919,-0.00015071,-0.00077525,-0.00002260,-0.00008194,0.00012062,0.0
 0002117,-0.00000376,0.00002920,0.00010844,0.00035785,-0.00078902,-0.00
 090347,0.00143359,0.00741553,0.00029534,0.00024791,0.00021047,0.000002
 44,0.00000236,-0.00041334,-0.00256702,0.00302485,0.00470558,-0.0098614
 0,-0.00477581,0.00108054,-0.05335435,-0.01712625,-0.04929489,0.0036735
 1,0.00120398,0.00429727,-0.00000169,0.00000683,0.00000211,-0.00000477,
 -0.00000342,-0.00000593,0.00000984,-0.00000322,0.00000084,-0.00000477,
 -0.00000244,-0.00000191,-0.00000651,0.00001067,-0.00000361,0.00000172,
 -0.00000236,0.00000136,0.,-0.00000038,0.00000105,-0.00000027,-0.000000
 52,0.00000099,-0.00000035,-0.00000008,-0.00000110,0.00000011,-0.000000
 83,0.00000123,0.00000173,-0.00000496,-0.00000339,0.00000725,0.00000493
 ,0.00000183,-0.00003813,-0.00001289,0.00006662,0.00110776,-0.00073791,
 -0.00386044,0.00127640,-0.00104300,-0.00283389,0.06031409,0.01765362,0
 .03993011,0.00087635,-0.00147776,-0.00042757,-0.00558605,0.00027335,0.
 00000654,-0.00129243,0.00307047,0.00071985,0.00066149,0.00007759,-0.00
 011085,-0.00046832,0.00011460,0.00004745,0.00004568,0.00012698,0.00002
 326,0.01094087,0.00835054,0.00362222,-0.00000821,-0.00041838,-0.000061
 23,-0.00005652,-0.00017656,-0.00014900,0.00015745,0.00005515,0.0000581
 5,0.00024819,0.00016036,-0.00002349,-0.00011020,0.00004541,-0.00007383
 ,-0.00003922,-0.00002995,0.00000373,0.00005989,-0.00004009,0.00000903,
 -0.00053342,0.00005435,0.00026992,-0.00014675,-0.00010252,-0.00010022,
 -0.00005094,-0.00010338,0.00001127,0.00010785,0.00000274,0.00005326,-0
 .00003928,0.00031888,0.00008229,-0.00031972,0.00003432,0.00009967,0.00
 121131,-0.00011603,0.00002550,-0.00584049,-0.02160084,-0.00778896,-0.1
 5897412,-0.13210203,-0.05285306,-0.00036201,0.00067101,0.00014823,-0.0
 0007434,0.00000553,-0.00000621,-0.00003529,0.00004444,-0.00000267,-0.0
 0001438,-0.00016740,-0.00001627,0.00009074,0.00002614,0.00000499,0.000
 00058,-0.00000402,0.00000798,-0.00000941,0.00000379,0.00000190,-0.0000
 0271,-0.00000908,-0.00000617,-0.00000444,-0.00000334,0.00000868,-0.000
 01414,-0.00000009,0.00001169,0.00001296,-0.00000600,0.00000798,0.16225
 885,-0.00001601,0.00052121,-0.00008871,0.00177801,0.00022484,-0.000917
 47,0.00182245,-0.00386475,-0.00199569,-0.00116496,0.00017231,-0.000218
 65,0.00011226,-0.00004247,0.00003508,0.00008467,-0.00035258,0.00000839
 ,-0.01619398,-0.00913228,-0.00453063,-0.00065222,0.00062171,0.00065725
 ,0.00004007,-0.00024208,0.00006192,0.00008715,0.00008050,-0.00001483,0
 .00019176,-0.00016301,-0.00006707,0.00018834,-0.00002190,0.00002801,0.
 00005151,-0.00000550,0.00002513,-0.00011229,0.00002113,-0.00001356,0.0
 0037002,-0.00010917,0.00008688,0.00017744,0.00011022,0.00006219,-0.000
 00488,0.00007789,-0.00001570,-0.00005599,-0.00002396,-0.00000500,0.000
 00031,0.00019621,0.00002530,-0.00027673,-0.00022855,0.00001536,-0.0003
 0545,0.00015719,0.00051179,0.00326014,0.00695985,0.00173371,-0.1302858
 2,-0.22693552,-0.07700201,-0.00024905,-0.00017490,-0.00018428,-0.00000
 346,-0.00000140,-0.00000986,-0.00001133,0.00000167,-0.00001097,-0.0000
 0296,0.00004515,0.00004661,-0.00012236,-0.00005573,0.00003735,0.000032
 40,-0.00003177,-0.00001135,0.00001890,-0.00001677,-0.00000010,0.000009
 40,0.00001294,0.00000135,0.00000434,0.00000224,-0.00000389,-0.00000280
 ,0.00000385,0.00001757,-0.00000721,0.00000797,-0.00001310,0.14332256,0
 .23224660,0.00049359,-0.00055045,0.00047771,0.00017290,-0.00131254,0.0
 0252822,-0.00005682,-0.00273174,0.00290378,-0.00112871,0.00053991,0.00
 056868,-0.00018434,0.00032821,-0.00011084,0.00037054,-0.00022998,-0.00
 022793,-0.00612392,-0.00090031,0.00148912,0.00082847,0.00015743,-0.001
 47752,0.00026840,0.00011400,-0.00005605,0.00032813,-0.00018581,0.00006
 963,-0.00001860,-0.00050122,-0.00018240,0.00003783,0.00003779,0.000002
 48,0.00003724,-0.00002290,0.00001477,-0.00005513,-0.00000410,-0.000002
 08,0.00012505,-0.00039698,0.00026995,0.00005869,0.00016168,-0.00000409
 ,-0.00001885,0.00007656,-0.00005582,-0.00009887,0.00000863,-0.00004329
 ,-0.00019122,0.00035265,0.00022128,-0.00029583,-0.00003878,-0.00030865
 ,-0.00014091,0.00062423,-0.00119925,0.00219621,0.00015949,0.00278454,-
 0.05190241,-0.07572937,-0.05261559,-0.00010950,-0.00015196,0.00033199,
 -0.00001382,-0.00001687,0.00001983,-0.00001402,-0.00000172,0.00004600,
 -0.00000932,0.00002084,-0.00014013,-0.00006544,-0.00000517,-0.00012644
 ,0.00001554,-0.00002779,0.00002998,0.00001682,-0.00000956,0.00000161,-
 0.00000136,0.00000966,0.00000517,0.00000010,0.00001280,0.00001665,0.00
 003042,0.00000397,0.00001313,-0.00002865,0.00001507,-0.00000196,0.0531
 8557,0.07975268,0.04654301,-0.00027187,-0.00001399,0.00008868,0.000458
 94,-0.00019183,-0.00019873,-0.00021341,0.00024187,-0.00003448,0.000378
 41,-0.00030374,-0.00005234,0.00004302,0.00004978,0.00002806,0.00000641
 ,0.00008454,0.00000403,0.00056115,-0.00206524,0.00083863,-0.00329065,-
 0.00298059,0.00070693,-0.00045372,0.00118840,-0.00013629,-0.00031506,0
 .00006651,0.00000423,0.01072642,0.01423056,-0.00227514,0.00230555,-0.0
 0241329,-0.00006620,0.00003864,-0.00050453,-0.00019999,0.00081127,-0.0
 0025406,0.00015943,-0.14639832,0.06784450,-0.07172988,-0.04274384,0.02
 014449,-0.02663070,-0.00142944,-0.00749241,-0.00116747,-0.00068094,0.0
 0144490,0.00031196,0.00001458,-0.00020868,-0.00009173,0.00022843,0.000
 22309,0.00009465,-0.00043945,0.00022851,-0.00004545,0.00064319,0.00018
 007,-0.00019812,-0.00335061,-0.00040031,0.00330530,-0.00003051,0.00002
 107,0.00004170,-0.00000551,0.00000905,0.00001383,-0.00000341,-0.000004
 67,-0.00000047,-0.00001407,0.00000800,-0.00000443,0.00000784,-0.000008
 48,0.00000540,-0.00001285,-0.00000919,-0.00002176,-0.00004562,-0.00001
 666,0.00003832,-0.00000311,-0.00020709,-0.00011163,0.00001639,0.000116
 97,0.00024256,-0.00004292,0.00143519,0.00077811,-0.00081392,0.00064189
 ,-0.00033637,-0.00167416,-0.00100883,0.00187902,0.49654117,0.00011650,
 0.00021718,0.00003767,-0.00047242,0.00026982,-0.00001381,0.00107032,0.
 00027150,0.00017784,0.00018481,-0.00017746,-0.00010020,0.00006957,-0.0
 0028703,-0.00004953,-0.00021033,0.00005220,0.00000253,-0.00160167,-0.0
 0193388,0.00075654,0.00310626,0.00199715,0.00019126,0.00011850,-0.0006
 9507,-0.00013642,0.00021035,0.00018833,0.00009273,0.01996911,-0.029114
 74,0.01982302,-0.00469412,-0.00370341,0.00090901,0.00153469,-0.0004910
 4,0.00029118,-0.00013957,0.00016364,-0.00002308,0.07178352,-0.14838760
 ,0.07208596,0.01146701,0.01192672,0.00324005,-0.00596602,0.00501233,-0
 .00033803,-0.00034558,-0.00310565,-0.00004760,0.00012459,-0.00002860,-
 0.00001035,0.00004296,0.00001770,0.00005261,0.00010754,-0.00001809,-0.
 00002228,-0.00042867,-0.00001620,-0.00005168,-0.00093622,0.00043801,0.
 00147776,0.00001367,-0.00001467,-0.00004712,0.00000998,-0.00000157,-0.
 00000337,0.00000357,0.00000245,-0.00001617,0.00001071,0.00000027,0.000
 00453,0.00000256,0.00001178,-0.00000542,0.00001393,0.00001897,0.000042
 44,-0.00001830,0.00000563,-0.00001398,-0.00003268,-0.00041192,-0.00001
 667,0.00010522,0.00004366,-0.00026994,-0.00105188,0.00022018,-0.002130
 01,-0.00049857,0.00056211,-0.00020026,-0.00044363,-0.00010759,0.000155
 24,-0.42336810,0.58447609,0.00009855,-0.00022775,-0.00004645,0.0002183
 9,-0.00021557,0.00013855,-0.00076952,-0.00029219,-0.00000425,-0.000315
 47,0.00032668,-0.00001252,-0.00010102,0.00023671,0.00006141,0.00019541
 ,-0.00004886,-0.00002382,0.00107037,0.00209312,0.00001590,-0.00042136,
 -0.00179160,-0.00210345,-0.00006081,0.00019741,0.00014283,0.00005225,-
 0.00021523,0.00010589,-0.00374023,0.01202015,-0.00614370,0.00007144,0.
 00076073,0.00566547,-0.00057580,0.00031929,0.00013554,-0.00002476,-0.0
 0020444,-0.00016606,-0.07681270,0.07875929,-0.11954209,-0.02523729,0.0
 0448289,-0.00765564,0.00073303,-0.00381950,0.00820369,0.00120342,0.002
 85603,-0.00121202,-0.00012178,0.00016173,0.00006530,-0.00015982,-0.000
 07740,-0.00009808,0.00005983,-0.00005780,-0.00000513,0.00040595,0.0001
 0713,0.00010232,0.00205841,-0.00017516,-0.00288817,-0.00001438,0.00001
 618,0.00005105,-0.00000728,-0.00000587,-0.00000029,-0.00000119,0.00000
 480,0.00001091,-0.00000206,0.00000217,-0.00001540,-0.00000229,-0.00000
 358,0.00000558,-0.00002354,-0.00001472,-0.00003962,-0.00001279,-0.0000
 1409,0.00000271,0.00003129,0.00009603,0.00004804,0.00027613,-0.0000621
 2,-0.00084662,0.00178489,-0.00047008,-0.00334451,-0.00009942,-0.000029
 31,0.00032715,0.00260965,0.00108850,-0.00132864,0.40906129,-0.46013144
 ,0.50365115,-0.00010692,0.00043323,0.00007772,-0.00051410,0.00040275,-
 0.00008232,0.00117976,0.00015369,0.00016892,0.00063784,-0.00038874,0.0
 0001579,0.00025416,-0.00043363,-0.00008717,-0.00048760,0.00001081,-0.0
 0001454,-0.00028748,-0.00177174,0.00027040,-0.00022111,0.00103487,0.00
 051409,0.00018973,-0.00029708,-0.00016384,-0.00030806,0.00006487,-0.00
 008322,-0.00364861,-0.00577356,0.00040011,-0.00055565,0.00056877,-0.00
 072404,0.00012212,-0.00001830,0.00008595,-0.00040948,0.00030580,-0.000
 02298,-0.00527120,0.01198227,-0.01020978,0.00521090,0.00204656,0.00062
 908,-0.00041411,0.00154217,-0.00040238,-0.00015885,-0.00026595,-0.0001
 4652,0.00019013,-0.00025676,-0.00005789,0.00022180,0.00007024,0.000054
 74,0.00005692,-0.00008953,0.00006913,-0.00041604,-0.00017506,0.0000373
 8,-0.00043326,0.00060694,0.00220606,0.00003677,-0.00003622,-0.00009809
 ,0.00000053,0.00000872,-0.00000894,-0.00000230,-0.00000999,-0.00001769
 ,0.00000164,-0.00001121,0.00000287,-0.00000230,0.00000588,-0.00001431,
 0.00000622,0.00000968,0.00005044,0.00004369,0.00002168,-0.00001308,0.0
 0000591,0.00010107,0.00005617,-0.00001979,0.00005019,0.00000557,0.0000
 3132,-0.00000571,0.00011642,-0.00019463,0.00011625,-0.00003074,-0.0011
 9022,-0.00112531,0.00041689,-0.31465603,0.33383066,-0.31540152,0.46582
 751,0.00015211,-0.00005583,-0.00005591,-0.00011974,-0.00019707,-0.0000
 9029,0.00000913,0.00014403,0.00031730,-0.00002674,-0.00001721,-0.00000
 543,-0.00009150,0.00002058,0.00000844,0.00007076,0.00009437,0.00000109
 ,0.00007843,-0.00036370,0.00040463,-0.00072709,-0.00035774,-0.00044016
 ,-0.00026693,0.00026810,-0.00009625,-0.00004017,0.00003229,0.00002002,
 0.00266165,0.00514494,-0.00043095,0.00003834,-0.00032675,0.00040962,0.
 00001474,0.00010764,-0.00007951,0.00014671,-0.00019497,0.00003649,0.01
 007320,-0.00497330,0.01016935,-0.00752319,-0.00359039,-0.00118884,0.00
 188301,-0.00165442,0.00078683,0.00044347,0.00125176,0.00000871,-0.0000
 8821,0.00011163,0.00003436,-0.00011163,0.00003872,-0.00002591,-0.00008
 739,-0.00004140,-0.00008705,0.00027893,0.00015089,0.00033671,-0.000932
 75,-0.00075457,-0.00005332,-0.00004077,0.00006094,0.00009281,-0.000027
 89,0.00000825,0.00001189,-0.00001629,0.00000366,0.00001382,-0.00001959
 ,0.00000299,0.00000541,-0.00000856,-0.00002015,-0.00000429,-0.00002131
 ,-0.00003456,-0.00000496,-0.00003612,-0.00004372,0.00000697,0.00002797
 ,-0.00010249,-0.00001577,0.00006102,-0.00001218,0.00001985,0.00046950,
 0.00048231,-0.00011164,0.00027699,-0.00028711,0.00013894,0.00006606,-0
 .00000146,0.00023798,0.33345483,-0.42027679,0.36521984,-0.47397498,0.5
 9157256,-0.00005627,0.00004683,0.00007814,0.00025132,0.00016433,0.0000
 3372,0.00030324,0.00014745,0.00017699,0.00004739,-0.00009614,-0.000024
 07,0.00007193,0.00003882,0.00000637,0.00004511,-0.00007251,-0.00000176
 ,-0.00021774,0.00007602,-0.00013344,0.00073182,0.00028519,0.00037729,0
 .00027606,-0.00013013,0.00002182,-0.00002575,-0.00002985,-0.00000775,-
 0.00377117,-0.00438602,0.00162197,-0.00020670,0.00055271,-0.00085833,-
 0.00009491,-0.00011544,-0.00003798,-0.00016856,0.00019332,0.00001782,-
 0.00720196,0.00872316,-0.00400194,0.00516264,0.00330987,0.00234765,-0.
 00109382,0.00120040,-0.00113439,-0.00019056,-0.00071879,0.00012143,0.0
 0004882,-0.00004370,-0.00000444,0.00005914,-0.00000201,0.00002276,0.00
 001825,-0.00000295,0.00001622,-0.00007949,0.00019453,-0.00017206,0.000
 58380,0.00002116,-0.00123898,-0.00000642,-0.00001669,-0.00002271,0.000
 02379,-0.00000790,-0.00001661,0.00001885,0.00000524,-0.00000987,0.0000
 2041,0.00000976,-0.00001901,0.00001002,0.00002558,-0.00000529,0.000020
 31,0.00003818,-0.00000711,0.00003970,0.00004238,-0.00001218,-0.0000115
 0,0.00011367,-0.00001354,-0.00007930,0.00004775,0.00006419,-0.00022740
 ,-0.00033037,0.00015805,-0.00018492,0.00016464,-0.00025771,0.00079847,
 0.00094546,-0.00034731,-0.31492305,0.36553617,-0.37590271,0.44961428,-
 0.51358677,0.52998251,0.00003132,-0.00003644,-0.00001655,-0.00002739,-
 0.00010814,0.00000459,-0.00002369,0.00000906,0.00001019,-0.00005447,0.
 00000399,0.00000170,-0.00004730,0.00000896,-0.00000107,0.00004550,0.00
 001934,0.00000058,-0.00007125,0.00009180,-0.00007452,0.00015673,-0.000
 03221,-0.00006372,-0.00001684,0.00000850,0.00003696,0.00002232,0.00000
 422,0.00001439,-0.00051124,0.00010935,-0.00033600,0.00001697,0.0002179
 4,0.00015397,-0.00011868,0.00003622,-0.00000908,0.00003884,-0.00005630
 ,-0.00000103,0.00388868,0.00275581,-0.00197733,0.00043829,-0.00061152,
 0.00043217,0.00005516,0.00002381,0.00014178,0.00012670,0.00000398,0.00
 001151,-0.00003146,0.00001979,-0.00000082,-0.00005613,0.00003325,-0.00
 001818,-0.00005884,0.00003899,-0.00004102,0.00007884,-0.00001315,-0.00
 001783,0.00007144,-0.00002166,-0.00014971,-0.00001360,0.00002357,0.000
 07540,-0.00000644,-0.00000318,0.00001391,0.00000064,0.00000287,0.00000
 874,0.00000128,0.00000178,0.00000433,-0.00000274,0.00000119,0.00000193
 ,-0.00000134,0.00000284,-0.00000732,-0.00000119,-0.00000008,-0.0000039
 5,0.00000204,0.00001493,-0.00000021,-0.00000015,-0.00001382,-0.0000220
 2,-0.00002065,-0.00006406,-0.00008789,0.00004069,-0.00003719,0.0000164
 8,0.00017456,0.00004990,-0.00000370,0.00410800,-0.00368825,0.00397473,
 -0.14471919,0.13395402,-0.12960586,0.13648453,0.00003904,-0.00005263,-
 0.00000862,0.00000618,-0.00001840,0.00001258,-0.00007929,-0.00005780,-
 0.00004789,-0.00007165,0.00003720,-0.00000117,-0.00001597,0.00002852,-
 0.00000049,0.00002102,-0.00002989,-0.00000425,-0.00003325,0.00010154,-
 0.00002553,0.00005568,-0.00005483,0.00007478,0.00006927,0.00002094,0.0
 0003790,0.00001317,-0.00002339,-0.00000145,-0.00066549,0.00015829,-0.0
 0030067,0.00010072,0.00012028,-0.00016751,-0.00003515,0.00002197,0.000
 01055,-0.00001418,-0.00001207,-0.00001819,0.00159244,0.00406055,0.0015
 1830,0.00053602,-0.00039508,0.00025128,0.00013582,0.00008100,-0.000137
 49,-0.00002944,0.00002890,0.00000846,-0.00001720,0.00004988,0.00001486
 ,-0.00002730,-0.00003913,-0.00000814,0.00000279,0.00007369,0.00004325,
 -0.00006947,-0.00002188,-0.00001416,0.00012265,0.00001579,-0.00011858,
 0.00000724,-0.00001512,-0.00002790,0.00001914,-0.00000490,-0.00000601,
 0.00000750,0.00000187,0.00000026,0.00000779,0.00000198,0.00000160,0.00
 000048,0.00000627,0.00000496,0.00000094,0.00000596,-0.00000025,0.00000
 513,0.00000775,0.00000047,-0.00000725,0.00002209,0.00000238,-0.0000138
 6,0.00000471,0.00001756,0.00000109,0.00002055,0.00008892,0.00000452,-0
 .00002114,0.00000407,-0.00002319,0.00004794,0.00004844,-0.00016251,0.0
 0287558,-0.00089196,0.13126667,-0.16618986,0.13765664,-0.13275012,0.15
 914288,-0.00005734,0.00003503,0.00000756,-0.00005725,0.00005119,-0.000
 01814,0.00003927,-0.00006290,-0.00004670,0.00004876,-0.00002357,-0.000
 01058,0.00001074,-0.00003777,-0.00001252,-0.00004400,0.00001385,-0.000
 00037,-0.00000007,-0.00008794,0.00008335,-0.00015222,-0.00000823,0.000
 10067,-0.00002722,0.00005443,-0.00001902,-0.00003188,-0.00000254,-0.00
 001270,-0.00004074,0.00041370,0.00001373,0.00018440,0.00007528,-0.0002
 0652,-0.00001511,-0.00000203,-0.00001295,0.00002476,-0.00001259,-0.000
 00039,-0.00084931,0.00118693,0.00375908,0.00005264,-0.00011864,-0.0000
 0417,-0.00000660,-0.00007490,-0.00026552,0.00000748,-0.00010125,0.0000
 5897,0.00000470,-0.00003437,-0.00002017,0.00003069,-0.00002431,-0.0000
 0213,0.00005001,0.00000567,0.00002191,-0.00005786,0.00001783,0.0000180
 1,0.00019561,0.00008219,0.00013654,0.00003862,-0.00002517,-0.00004814,
 -0.00000949,0.00000681,0.00000728,-0.00001159,-0.00001006,0.00000276,-
 0.00001107,-0.00000662,0.00000392,-0.00000319,-0.00001323,0.00000259,-
 0.00000179,-0.00001259,0.00000847,-0.00000471,-0.00001207,0.00000649,0
 .00000806,-0.00000550,0.00000064,-0.00000573,-0.00000645,0.00003862,-0
 .00006905,0.00004154,0.00015652,0.00001462,0.00000610,-0.00000084,-0.0
 0019772,-0.00003763,-0.00010952,0.00062211,-0.00124917,0.00264566,-0.1
 2721296,0.13799601,-0.15081773,0.12753443,-0.13801700,0.14453535\\-0.0
 0000667,-0.00000053,0.00000173,0.00000599,-0.00000190,-0.00001325,0.00
 000231,0.00000509,-0.00000924,0.00000370,-0.00000911,-0.00000495,0.000
 00164,-0.00000858,-0.00000341,-0.00000908,-0.00000074,-0.00000275,-0.0
 0000311,-0.00000051,0.00000572,0.00001425,0.00000852,0.00000753,0.0000
 0523,0.00000217,-0.00000330,-0.00000664,0.00000271,-0.00000314,-0.0000
 1336,0.00000334,-0.00000334,-0.00000711,-0.00000059,-0.00000303,0.0000
 0804,-0.00000290,-0.00000267,-0.00000061,-0.00000981,-0.00000258,-0.00
 001381,-0.00002178,0.00000866,0.00000164,0.00000809,-0.00000180,0.0000
 1351,0.00000162,0.00000773,0.00000868,0.00000165,0.00000026,-0.0000018
 5,-0.00000041,0.00000299,-0.00000677,0.00000288,0.00000390,-0.00000074
 ,0.00000040,0.00001722,0.00000232,0.00000177,0.00000017,-0.00000040,0.
 00000392,0.00000242,0.00000140,0.00000009,0.00000258,-0.00000031,-0.00
 000115,0.00000437,-0.00000174,-0.00000499,-0.00000094,-0.00000309,0.00
 000254,-0.00000279,0.00000494,-0.00000187,-0.00000579,0.00000159,-0.00
 000223,-0.00000630,-0.00000379,-0.00000013,-0.00000519,0.00000441,0.00
 000281,-0.00000507,-0.00000167,-0.00000511,-0.00000036,-0.00000305,0.0
 0000394,0.00000399,-0.00000036,0.00000134,0.00000055,-0.00000033,-0.00
 000043,0.00000273,0.00002140,-0.00000441,0.00001458,-0.00001276,0.0000
 1812,-0.00001145,-0.00000379,0.00000618,0.00000421\\\@


 IT IS NOT EASY TO DESCRIBE
     THE SEA WITH THE MOUTH

                   -- KOKYU
 Job cpu time:       3 days  8 hours 14 minutes 56.4 seconds.
 File lengths (MBytes):  RWF=   8451 Int=      0 D2E=      0 Chk=     40 Scr=      1
 Normal termination of Gaussian 09 at Sun Feb  2 22:21:01 2020.
