 Entering Gaussian System, Link 0=g09
 Initial command:
 /usr/local/Cluster-Apps/gaussian/g09/l1.exe "/rds/user/am2145/hpc-work/scratch/19189938/Gau-24937.inp" -scrdir="/rds/user/am2145/hpc-work/scratch/19189938/"
 Entering Link 1 = /usr/local/Cluster-Apps/gaussian/g09/l1.exe PID=     24938.
  
 Copyright (c) 1988,1990,1992,1993,1995,1998,2003,2009,2013,
            Gaussian, Inc.  All Rights Reserved.
  
 This is part of the Gaussian(R) 09 program.  It is based on
 the Gaussian(R) 03 system (copyright 2003, Gaussian, Inc.),
 the Gaussian(R) 98 system (copyright 1998, Gaussian, Inc.),
 the Gaussian(R) 94 system (copyright 1995, Gaussian, Inc.),
 the Gaussian 92(TM) system (copyright 1992, Gaussian, Inc.),
 the Gaussian 90(TM) system (copyright 1990, Gaussian, Inc.),
 the Gaussian 88(TM) system (copyright 1988, Gaussian, Inc.),
 the Gaussian 86(TM) system (copyright 1986, Carnegie Mellon
 University), and the Gaussian 82(TM) system (copyright 1983,
 Carnegie Mellon University). Gaussian is a federally registered
 trademark of Gaussian, Inc.
  
 This software contains proprietary and confidential information,
 including trade secrets, belonging to Gaussian, Inc.
  
 This software is provided under written license and may be
 used, copied, transmitted, or stored only in accord with that
 written license.
  
 The following legend is applicable only to US Government
 contracts under FAR:
  
                    RESTRICTED RIGHTS LEGEND
  
 Use, reproduction and disclosure by the US Government is
 subject to restrictions as set forth in subparagraphs (a)
 and (c) of the Commercial Computer Software - Restricted
 Rights clause in FAR 52.227-19.
  
 Gaussian, Inc.
 340 Quinnipiac St., Bldg. 40, Wallingford CT 06492
  
  
 ---------------------------------------------------------------
 Warning -- This program may not be used in any manner that
 competes with the business of Gaussian, Inc. or will provide
 assistance to any competitor of Gaussian, Inc.  The licensee
 of this program is prohibited from giving any competitor of
 Gaussian, Inc. access to this program.  By using this program,
 the user acknowledges that Gaussian, Inc. is engaged in the
 business of creating and licensing software in the field of
 computational chemistry and represents and warrants to the
 licensee that it is not a competitor of Gaussian, Inc. and that
 it will not use this program in any manner prohibited above.
 ---------------------------------------------------------------
  

 Cite this work as:
 Gaussian 09, Revision D.01,
 M. J. Frisch, G. W. Trucks, H. B. Schlegel, G. E. Scuseria, 
 M. A. Robb, J. R. Cheeseman, G. Scalmani, V. Barone, B. Mennucci, 
 G. A. Petersson, H. Nakatsuji, M. Caricato, X. Li, H. P. Hratchian, 
 A. F. Izmaylov, J. Bloino, G. Zheng, J. L. Sonnenberg, M. Hada, 
 M. Ehara, K. Toyota, R. Fukuda, J. Hasegawa, M. Ishida, T. Nakajima, 
 Y. Honda, O. Kitao, H. Nakai, T. Vreven, J. A. Montgomery, Jr., 
 J. E. Peralta, F. Ogliaro, M. Bearpark, J. J. Heyd, E. Brothers, 
 K. N. Kudin, V. N. Staroverov, T. Keith, R. Kobayashi, J. Normand, 
 K. Raghavachari, A. Rendell, J. C. Burant, S. S. Iyengar, J. Tomasi, 
 M. Cossi, N. Rega, J. M. Millam, M. Klene, J. E. Knox, J. B. Cross, 
 V. Bakken, C. Adamo, J. Jaramillo, R. Gomperts, R. E. Stratmann, 
 O. Yazyev, A. J. Austin, R. Cammi, C. Pomelli, J. W. Ochterski, 
 R. L. Martin, K. Morokuma, V. G. Zakrzewski, G. A. Voth, 
 P. Salvador, J. J. Dannenberg, S. Dapprich, A. D. Daniels, 
 O. Farkas, J. B. Foresman, J. V. Ortiz, J. Cioslowski, 
 and D. J. Fox, Gaussian, Inc., Wallingford CT, 2013.
 
 ******************************************
 Gaussian 09:  ES64L-G09RevD.01 24-Apr-2013
                 2-Feb-2020 
 ******************************************
 %NProcShared=20
 Will use up to   20 processors via shared memory.
 %mem=64GB
 %Chk=BS2a_ethy.chk
 ------------------------------
 #n opt freq b3lyp/6-311+g(d,p)
 ------------------------------
 1/14=-1,18=20,19=15,26=3,38=1/1,3;
 2/9=110,12=2,17=6,18=5,40=1/2;
 3/5=4,6=6,7=111,11=2,16=1,25=1,30=1,71=1,74=-5/1,2,3;
 4//1;
 5/5=2,38=5/2;
 6/7=2,8=2,9=2,10=2,28=1/1;
 7//1,2,3,16;
 1/14=-1,18=20,19=15,26=3/3(2);
 2/9=110/2;
 99//99;
 2/9=110/2;
 3/5=4,6=6,7=111,11=2,16=1,25=1,30=1,71=1,74=-5/1,2,3;
 4/5=5,16=3,69=1/1;
 5/5=2,38=5/2;
 7//1,2,3,16;
 1/14=-1,18=20,19=15,26=3/3(-5);
 2/9=110/2;
 6/7=2,8=2,9=2,10=2,19=2,28=1/1;
 99/9=1/99;
 ---------
 BS2a_ethy
 ---------
 Symbolic Z-matrix:
 Charge =  0 Multiplicity = 2
 C                     3.75453  -0.51593  -0.15813 
 C                     2.47821   0.03074  -0.10077 
 C                     1.30239  -0.73074  -0.08483 
 C                     1.34747  -2.12431  -0.07484 
 C                     3.80575  -1.95897  -0.20006 
 C                     2.66341  -2.71895  -0.15174 
 C                     0.15823   0.10786   0.00044 
 C                    -1.1101   -0.54924   0.01266 
 C                    -1.08319  -1.99493   0.14211 
 C                     0.10285  -2.75187   0.07946 
 C                    -2.41049   0.08858  -0.12159 
 C                    -3.59873  -0.65986   0.13707 
 C                    -3.50922  -2.06253   0.41547 
 C                    -2.31691  -2.70019   0.36482 
 C                    -2.56584   1.41524  -0.57909 
 C                    -3.80985   2.00548  -0.68563 
 C                    -4.96692   1.28916  -0.34436 
 C                    -4.85649  -0.02893   0.04756 
 C                     4.814     0.42807  -0.12949 
 C                     4.52821   1.78669  -0.02277 
 C                     3.21034   2.29664   0.06707 
 C                     2.15599   1.39374   0.0215 
 C                     0.69032   1.47114   0.12255 
 H                     3.04658   3.36308   0.17186 
 H                     5.35333   2.48983   0.00294 
 H                     5.84631   0.09847  -0.17934 
 H                     4.77072  -2.45259  -0.25117 
 H                     2.74461  -3.80096  -0.16051 
 H                     0.03202  -3.83136   0.166 
 H                    -2.26333  -3.77385   0.51004 
 H                    -4.42335  -2.61187   0.61335 
 H                    -5.74501  -0.61074   0.26942 
 H                    -1.6983    1.97757  -0.88255 
 H                    -3.88937   3.02438  -1.04736 
 H                    -5.94147   1.75853  -0.41761 
 C                     0.07044   2.67269   0.46871 
 C                    -0.36326   3.75709   0.79373 
 H                    -0.77975   4.68965   1.08585 
 

 GradGradGradGradGradGradGradGradGradGradGradGradGradGradGradGradGradGrad
 Berny optimization.
 Initialization pass.
                           ----------------------------
                           !    Initial Parameters    !
                           ! (Angstroms and Degrees)  !
 --------------------------                            --------------------------
 ! Name  Definition              Value          Derivative Info.                !
 --------------------------------------------------------------------------------
 ! R1    R(1,2)                  1.3897         estimate D2E/DX2                !
 ! R2    R(1,5)                  1.4446         estimate D2E/DX2                !
 ! R3    R(1,19)                 1.4193         estimate D2E/DX2                !
 ! R4    R(2,3)                  1.4009         estimate D2E/DX2                !
 ! R5    R(2,22)                 1.4059         estimate D2E/DX2                !
 ! R6    R(3,4)                  1.3943         estimate D2E/DX2                !
 ! R7    R(3,7)                  1.4211         estimate D2E/DX2                !
 ! R8    R(4,6)                  1.4461         estimate D2E/DX2                !
 ! R9    R(4,10)                 1.4024         estimate D2E/DX2                !
 ! R10   R(5,6)                  1.3729         estimate D2E/DX2                !
 ! R11   R(5,27)                 1.0851         estimate D2E/DX2                !
 ! R12   R(6,28)                 1.0851         estimate D2E/DX2                !
 ! R13   R(7,8)                  1.4285         estimate D2E/DX2                !
 ! R14   R(7,23)                 1.4685         estimate D2E/DX2                !
 ! R15   R(8,9)                  1.4517         estimate D2E/DX2                !
 ! R16   R(8,11)                 1.4546         estimate D2E/DX2                !
 ! R17   R(9,10)                 1.4084         estimate D2E/DX2                !
 ! R18   R(9,14)                 1.4384         estimate D2E/DX2                !
 ! R19   R(10,29)                1.0853         estimate D2E/DX2                !
 ! R20   R(11,12)                1.4279         estimate D2E/DX2                !
 ! R21   R(11,15)                1.4119         estimate D2E/DX2                !
 ! R22   R(12,13)                1.4328         estimate D2E/DX2                !
 ! R23   R(12,18)                1.41           estimate D2E/DX2                !
 ! R24   R(13,14)                1.3531         estimate D2E/DX2                !
 ! R25   R(13,31)                1.0847         estimate D2E/DX2                !
 ! R26   R(14,30)                1.0848         estimate D2E/DX2                !
 ! R27   R(15,16)                1.381          estimate D2E/DX2                !
 ! R28   R(15,33)                1.0775         estimate D2E/DX2                !
 ! R29   R(16,17)                1.403          estimate D2E/DX2                !
 ! R30   R(16,34)                1.0841         estimate D2E/DX2                !
 ! R31   R(17,18)                1.3795         estimate D2E/DX2                !
 ! R32   R(17,35)                1.0842         estimate D2E/DX2                !
 ! R33   R(18,32)                1.085          estimate D2E/DX2                !
 ! R34   R(19,20)                1.3924         estimate D2E/DX2                !
 ! R35   R(19,26)                1.0848         estimate D2E/DX2                !
 ! R36   R(20,21)                1.4159         estimate D2E/DX2                !
 ! R37   R(20,25)                1.0844         estimate D2E/DX2                !
 ! R38   R(21,22)                1.3889         estimate D2E/DX2                !
 ! R39   R(21,24)                1.084          estimate D2E/DX2                !
 ! R40   R(22,23)                1.4712         estimate D2E/DX2                !
 ! R41   R(23,36)                1.3956         estimate D2E/DX2                !
 ! R42   R(36,37)                1.2123         estimate D2E/DX2                !
 ! R43   R(37,38)                1.0623         estimate D2E/DX2                !
 ! A1    A(2,1,5)              115.2607         estimate D2E/DX2                !
 ! A2    A(2,1,19)             115.0313         estimate D2E/DX2                !
 ! A3    A(5,1,19)             129.6825         estimate D2E/DX2                !
 ! A4    A(1,2,3)              123.8831         estimate D2E/DX2                !
 ! A5    A(1,2,22)             126.5464         estimate D2E/DX2                !
 ! A6    A(3,2,22)             109.4881         estimate D2E/DX2                !
 ! A7    A(2,3,4)              121.0773         estimate D2E/DX2                !
 ! A8    A(2,3,7)              110.8343         estimate D2E/DX2                !
 ! A9    A(4,3,7)              127.9787         estimate D2E/DX2                !
 ! A10   A(3,4,6)              116.1049         estimate D2E/DX2                !
 ! A11   A(3,4,10)             114.7929         estimate D2E/DX2                !
 ! A12   A(6,4,10)             129.0099         estimate D2E/DX2                !
 ! A13   A(1,5,6)              121.497          estimate D2E/DX2                !
 ! A14   A(1,5,27)             119.1652         estimate D2E/DX2                !
 ! A15   A(6,5,27)             119.3267         estimate D2E/DX2                !
 ! A16   A(4,6,5)              122.1014         estimate D2E/DX2                !
 ! A17   A(4,6,28)             118.5916         estimate D2E/DX2                !
 ! A18   A(5,6,28)             119.3037         estimate D2E/DX2                !
 ! A19   A(3,7,8)              116.3535         estimate D2E/DX2                !
 ! A20   A(3,7,23)             105.1341         estimate D2E/DX2                !
 ! A21   A(8,7,23)             138.4194         estimate D2E/DX2                !
 ! A22   A(7,8,9)              116.2564         estimate D2E/DX2                !
 ! A23   A(7,8,11)             126.2466         estimate D2E/DX2                !
 ! A24   A(9,8,11)             117.4817         estimate D2E/DX2                !
 ! A25   A(8,9,10)             123.1518         estimate D2E/DX2                !
 ! A26   A(8,9,14)             119.0892         estimate D2E/DX2                !
 ! A27   A(10,9,14)            117.7526         estimate D2E/DX2                !
 ! A28   A(4,10,9)             120.7818         estimate D2E/DX2                !
 ! A29   A(4,10,29)            120.7841         estimate D2E/DX2                !
 ! A30   A(9,10,29)            118.4297         estimate D2E/DX2                !
 ! A31   A(8,11,12)            119.8265         estimate D2E/DX2                !
 ! A32   A(8,11,15)            122.7029         estimate D2E/DX2                !
 ! A33   A(12,11,15)           117.3636         estimate D2E/DX2                !
 ! A34   A(11,12,13)           119.757          estimate D2E/DX2                !
 ! A35   A(11,12,18)           119.7532         estimate D2E/DX2                !
 ! A36   A(13,12,18)           120.4055         estimate D2E/DX2                !
 ! A37   A(12,13,14)           120.6057         estimate D2E/DX2                !
 ! A38   A(12,13,31)           118.593          estimate D2E/DX2                !
 ! A39   A(14,13,31)           120.716          estimate D2E/DX2                !
 ! A40   A(9,14,13)            122.0407         estimate D2E/DX2                !
 ! A41   A(9,14,30)            117.6227         estimate D2E/DX2                !
 ! A42   A(13,14,30)           120.3289         estimate D2E/DX2                !
 ! A43   A(11,15,16)           121.7148         estimate D2E/DX2                !
 ! A44   A(11,15,33)           119.542          estimate D2E/DX2                !
 ! A45   A(16,15,33)           118.7176         estimate D2E/DX2                !
 ! A46   A(15,16,17)           120.3916         estimate D2E/DX2                !
 ! A47   A(15,16,34)           119.5698         estimate D2E/DX2                !
 ! A48   A(17,16,34)           120.0342         estimate D2E/DX2                !
 ! A49   A(16,17,18)           119.4002         estimate D2E/DX2                !
 ! A50   A(16,17,35)           120.2554         estimate D2E/DX2                !
 ! A51   A(18,17,35)           120.3176         estimate D2E/DX2                !
 ! A52   A(12,18,17)           121.1299         estimate D2E/DX2                !
 ! A53   A(12,18,32)           118.5274         estimate D2E/DX2                !
 ! A54   A(17,18,32)           120.3238         estimate D2E/DX2                !
 ! A55   A(1,19,20)            119.8211         estimate D2E/DX2                !
 ! A56   A(1,19,26)            120.4868         estimate D2E/DX2                !
 ! A57   A(20,19,26)           119.6888         estimate D2E/DX2                !
 ! A58   A(19,20,21)           123.1812         estimate D2E/DX2                !
 ! A59   A(19,20,25)           118.5755         estimate D2E/DX2                !
 ! A60   A(21,20,25)           118.2405         estimate D2E/DX2                !
 ! A61   A(20,21,22)           118.0569         estimate D2E/DX2                !
 ! A62   A(20,21,24)           120.0692         estimate D2E/DX2                !
 ! A63   A(22,21,24)           121.8735         estimate D2E/DX2                !
 ! A64   A(2,22,21)            117.3307         estimate D2E/DX2                !
 ! A65   A(2,22,23)            106.5775         estimate D2E/DX2                !
 ! A66   A(21,22,23)           136.0413         estimate D2E/DX2                !
 ! A67   A(7,23,22)            107.8436         estimate D2E/DX2                !
 ! A68   A(7,23,36)            131.2181         estimate D2E/DX2                !
 ! A69   A(22,23,36)           120.3195         estimate D2E/DX2                !
 ! A70   L(23,36,37,12,-1)     185.2861         estimate D2E/DX2                !
 ! A71   L(36,37,38,16,-1)     178.076          estimate D2E/DX2                !
 ! A72   L(23,36,37,12,-2)     178.6647         estimate D2E/DX2                !
 ! A73   L(36,37,38,16,-2)     178.8774         estimate D2E/DX2                !
 ! D1    D(5,1,2,3)             -0.08           estimate D2E/DX2                !
 ! D2    D(5,1,2,22)           176.2657         estimate D2E/DX2                !
 ! D3    D(19,1,2,3)          -178.4205         estimate D2E/DX2                !
 ! D4    D(19,1,2,22)           -2.0748         estimate D2E/DX2                !
 ! D5    D(2,1,5,6)             -1.556          estimate D2E/DX2                !
 ! D6    D(2,1,5,27)           179.6675         estimate D2E/DX2                !
 ! D7    D(19,1,5,6)           176.4901         estimate D2E/DX2                !
 ! D8    D(19,1,5,27)           -2.2863         estimate D2E/DX2                !
 ! D9    D(2,1,19,20)            1.2518         estimate D2E/DX2                !
 ! D10   D(2,1,19,26)         -179.4128         estimate D2E/DX2                !
 ! D11   D(5,1,19,20)         -176.798          estimate D2E/DX2                !
 ! D12   D(5,1,19,26)            2.5374         estimate D2E/DX2                !
 ! D13   D(1,2,3,4)              2.4982         estimate D2E/DX2                !
 ! D14   D(1,2,3,7)            178.9793         estimate D2E/DX2                !
 ! D15   D(22,2,3,4)          -174.3882         estimate D2E/DX2                !
 ! D16   D(22,2,3,7)             2.0929         estimate D2E/DX2                !
 ! D17   D(1,2,22,21)            1.2134         estimate D2E/DX2                !
 ! D18   D(1,2,22,23)         -176.6138         estimate D2E/DX2                !
 ! D19   D(3,2,22,21)          177.9959         estimate D2E/DX2                !
 ! D20   D(3,2,22,23)            0.1686         estimate D2E/DX2                !
 ! D21   D(2,3,4,6)             -3.0828         estimate D2E/DX2                !
 ! D22   D(2,3,4,10)           173.7434         estimate D2E/DX2                !
 ! D23   D(7,3,4,6)           -178.9093         estimate D2E/DX2                !
 ! D24   D(7,3,4,10)            -2.0831         estimate D2E/DX2                !
 ! D25   D(2,3,7,8)            179.4536         estimate D2E/DX2                !
 ! D26   D(2,3,7,23)            -3.4043         estimate D2E/DX2                !
 ! D27   D(4,3,7,8)             -4.3704         estimate D2E/DX2                !
 ! D28   D(4,3,7,23)           172.7717         estimate D2E/DX2                !
 ! D29   D(3,4,6,5)              1.4834         estimate D2E/DX2                !
 ! D30   D(3,4,6,28)          -179.1817         estimate D2E/DX2                !
 ! D31   D(10,4,6,5)          -174.8079         estimate D2E/DX2                !
 ! D32   D(10,4,6,28)            4.527          estimate D2E/DX2                !
 ! D33   D(3,4,10,9)             3.269          estimate D2E/DX2                !
 ! D34   D(3,4,10,29)         -175.9522         estimate D2E/DX2                !
 ! D35   D(6,4,10,9)           179.6005         estimate D2E/DX2                !
 ! D36   D(6,4,10,29)            0.3794         estimate D2E/DX2                !
 ! D37   D(1,5,6,4)              0.8559         estimate D2E/DX2                !
 ! D38   D(1,5,6,28)          -178.4744         estimate D2E/DX2                !
 ! D39   D(27,5,6,4)           179.6304         estimate D2E/DX2                !
 ! D40   D(27,5,6,28)            0.3            estimate D2E/DX2                !
 ! D41   D(3,7,8,9)              9.0598         estimate D2E/DX2                !
 ! D42   D(3,7,8,11)          -169.4703         estimate D2E/DX2                !
 ! D43   D(23,7,8,9)          -166.7815         estimate D2E/DX2                !
 ! D44   D(23,7,8,11)           14.6884         estimate D2E/DX2                !
 ! D45   D(3,7,23,22)            3.4157         estimate D2E/DX2                !
 ! D46   D(3,7,23,36)         -167.3424         estimate D2E/DX2                !
 ! D47   D(8,7,23,22)          179.5558         estimate D2E/DX2                !
 ! D48   D(8,7,23,36)            8.7977         estimate D2E/DX2                !
 ! D49   D(7,8,9,10)            -8.4023         estimate D2E/DX2                !
 ! D50   D(7,8,9,14)           170.6594         estimate D2E/DX2                !
 ! D51   D(11,8,9,10)          170.2615         estimate D2E/DX2                !
 ! D52   D(11,8,9,14)          -10.6768         estimate D2E/DX2                !
 ! D53   D(7,8,11,12)         -169.27           estimate D2E/DX2                !
 ! D54   D(7,8,11,15)           14.591          estimate D2E/DX2                !
 ! D55   D(9,8,11,12)           12.216          estimate D2E/DX2                !
 ! D56   D(9,8,11,15)         -163.9231         estimate D2E/DX2                !
 ! D57   D(8,9,10,4)             1.9635         estimate D2E/DX2                !
 ! D58   D(8,9,10,29)         -178.7973         estimate D2E/DX2                !
 ! D59   D(14,9,10,4)         -177.11           estimate D2E/DX2                !
 ! D60   D(14,9,10,29)           2.1292         estimate D2E/DX2                !
 ! D61   D(8,9,14,13)            2.1379         estimate D2E/DX2                !
 ! D62   D(8,9,14,30)         -176.8549         estimate D2E/DX2                !
 ! D63   D(10,9,14,13)        -178.7498         estimate D2E/DX2                !
 ! D64   D(10,9,14,30)           2.2574         estimate D2E/DX2                !
 ! D65   D(8,11,12,13)          -5.3203         estimate D2E/DX2                !
 ! D66   D(8,11,12,18)         178.0051         estimate D2E/DX2                !
 ! D67   D(15,11,12,13)        171.0217         estimate D2E/DX2                !
 ! D68   D(15,11,12,18)         -5.6529         estimate D2E/DX2                !
 ! D69   D(8,11,15,16)        -179.3183         estimate D2E/DX2                !
 ! D70   D(8,11,15,33)           2.5472         estimate D2E/DX2                !
 ! D71   D(12,11,15,16)          4.4531         estimate D2E/DX2                !
 ! D72   D(12,11,15,33)       -173.6814         estimate D2E/DX2                !
 ! D73   D(11,12,13,14)         -3.5857         estimate D2E/DX2                !
 ! D74   D(11,12,13,31)        179.7482         estimate D2E/DX2                !
 ! D75   D(18,12,13,14)        173.0669         estimate D2E/DX2                !
 ! D76   D(18,12,13,31)         -3.5992         estimate D2E/DX2                !
 ! D77   D(11,12,18,17)          2.8984         estimate D2E/DX2                !
 ! D78   D(11,12,18,32)       -178.6748         estimate D2E/DX2                !
 ! D79   D(13,12,18,17)       -173.7543         estimate D2E/DX2                !
 ! D80   D(13,12,18,32)          4.6725         estimate D2E/DX2                !
 ! D81   D(12,13,14,9)           5.1948         estimate D2E/DX2                !
 ! D82   D(12,13,14,30)       -175.8391         estimate D2E/DX2                !
 ! D83   D(31,13,14,9)        -178.2103         estimate D2E/DX2                !
 ! D84   D(31,13,14,30)          0.7558         estimate D2E/DX2                !
 ! D85   D(11,15,16,17)         -0.3654         estimate D2E/DX2                !
 ! D86   D(11,15,16,34)       -179.596          estimate D2E/DX2                !
 ! D87   D(33,15,16,17)        177.784          estimate D2E/DX2                !
 ! D88   D(33,15,16,34)         -1.4466         estimate D2E/DX2                !
 ! D89   D(15,16,17,18)         -2.6065         estimate D2E/DX2                !
 ! D90   D(15,16,17,35)        179.2716         estimate D2E/DX2                !
 ! D91   D(34,16,17,18)        176.6205         estimate D2E/DX2                !
 ! D92   D(34,16,17,35)         -1.5014         estimate D2E/DX2                !
 ! D93   D(16,17,18,12)          1.3056         estimate D2E/DX2                !
 ! D94   D(16,17,18,32)       -177.0932         estimate D2E/DX2                !
 ! D95   D(35,17,18,12)        179.4263         estimate D2E/DX2                !
 ! D96   D(35,17,18,32)          1.0276         estimate D2E/DX2                !
 ! D97   D(1,19,20,21)           0.2886         estimate D2E/DX2                !
 ! D98   D(1,19,20,25)         179.6594         estimate D2E/DX2                !
 ! D99   D(26,19,20,21)       -179.0522         estimate D2E/DX2                !
 ! D100  D(26,19,20,25)          0.3186         estimate D2E/DX2                !
 ! D101  D(19,20,21,22)         -1.2029         estimate D2E/DX2                !
 ! D102  D(19,20,21,24)        178.5686         estimate D2E/DX2                !
 ! D103  D(25,20,21,22)        179.4243         estimate D2E/DX2                !
 ! D104  D(25,20,21,24)         -0.8042         estimate D2E/DX2                !
 ! D105  D(20,21,22,2)           0.4859         estimate D2E/DX2                !
 ! D106  D(20,21,22,23)        177.4852         estimate D2E/DX2                !
 ! D107  D(24,21,22,2)        -179.2812         estimate D2E/DX2                !
 ! D108  D(24,21,22,23)         -2.2819         estimate D2E/DX2                !
 ! D109  D(2,22,23,7)           -2.2589         estimate D2E/DX2                !
 ! D110  D(2,22,23,36)         169.6962         estimate D2E/DX2                !
 ! D111  D(21,22,23,7)        -179.4778         estimate D2E/DX2                !
 ! D112  D(21,22,23,36)         -7.5226         estimate D2E/DX2                !
 --------------------------------------------------------------------------------
 Trust Radius=3.00D-01 FncErr=1.00D-07 GrdErr=1.00D-06
 Number of steps in this run=    228 maximum allowed number of steps=    228.
 GradGradGradGradGradGradGradGradGradGradGradGradGradGradGradGradGradGrad

                          Input orientation:                          
 ---------------------------------------------------------------------
 Center     Atomic      Atomic             Coordinates (Angstroms)
 Number     Number       Type             X           Y           Z
 ---------------------------------------------------------------------
      1          6           0        3.754530   -0.515930   -0.158130
      2          6           0        2.478210    0.030740   -0.100770
      3          6           0        1.302390   -0.730740   -0.084830
      4          6           0        1.347470   -2.124310   -0.074840
      5          6           0        3.805750   -1.958970   -0.200060
      6          6           0        2.663410   -2.718950   -0.151740
      7          6           0        0.158230    0.107860    0.000440
      8          6           0       -1.110100   -0.549240    0.012660
      9          6           0       -1.083190   -1.994930    0.142110
     10          6           0        0.102850   -2.751870    0.079460
     11          6           0       -2.410490    0.088580   -0.121590
     12          6           0       -3.598730   -0.659860    0.137070
     13          6           0       -3.509220   -2.062530    0.415470
     14          6           0       -2.316910   -2.700190    0.364820
     15          6           0       -2.565840    1.415240   -0.579090
     16          6           0       -3.809850    2.005480   -0.685630
     17          6           0       -4.966920    1.289160   -0.344360
     18          6           0       -4.856490   -0.028930    0.047560
     19          6           0        4.814000    0.428070   -0.129490
     20          6           0        4.528210    1.786690   -0.022770
     21          6           0        3.210340    2.296640    0.067070
     22          6           0        2.155990    1.393740    0.021500
     23          6           0        0.690320    1.471140    0.122550
     24          1           0        3.046580    3.363080    0.171860
     25          1           0        5.353330    2.489830    0.002940
     26          1           0        5.846310    0.098470   -0.179340
     27          1           0        4.770720   -2.452590   -0.251170
     28          1           0        2.744610   -3.800960   -0.160510
     29          1           0        0.032020   -3.831360    0.166000
     30          1           0       -2.263330   -3.773850    0.510040
     31          1           0       -4.423350   -2.611870    0.613350
     32          1           0       -5.745010   -0.610740    0.269420
     33          1           0       -1.698300    1.977570   -0.882550
     34          1           0       -3.889370    3.024380   -1.047360
     35          1           0       -5.941470    1.758530   -0.417610
     36          6           0        0.070440    2.672690    0.468710
     37          6           0       -0.363260    3.757090    0.793730
     38          1           0       -0.779750    4.689650    1.085850
 ---------------------------------------------------------------------
                    Distance matrix (angstroms):
                    1          2          3          4          5
     1  C    0.000000
     2  C    1.389651   0.000000
     3  C    2.462622   1.400949   0.000000
     4  C    2.896163   2.433821   1.394335   0.000000
     5  C    1.444557   2.393986   2.790813   2.467014   0.000000
     6  C    2.458431   2.756391   2.410359   1.446101   1.372897
     7  C    3.653441   2.323467   1.421134   2.530324   4.197188
     8  C    4.867741   3.636648   2.421271   2.920300   5.118415
     9  C    5.067654   4.104376   2.709367   2.443750   4.901031
    10  C    4.288431   3.663023   2.356025   1.402398   3.797142
    11  C    6.194694   4.889086   3.802383   4.361345   6.545247
    12  C    7.360590   6.120678   4.906653   5.162791   7.525136
    13  C    7.448695   6.363773   5.017525   4.881768   7.341552
    14  C    6.473550   5.537863   4.144907   3.735321   6.193179
    15  C    6.622213   5.252435   4.451149   5.300630   7.219842
    16  C    7.990970   6.616748   5.829482   6.635223   8.599419
    17  C    8.908239   7.554662   6.591783   7.183031   9.355796
    18  C    8.627233   7.336442   6.200151   6.549406   8.878106
    19  C    1.419307   2.369517   3.698140   4.305167   2.592201
    20  C    2.432892   2.700360   4.092337   5.041403   3.818815
    21  C    2.873571   2.387150   3.581672   4.799502   4.305356
    22  C    2.496885   1.405896   2.292020   3.611047   3.743189
    23  C    3.662869   2.306767   2.294757   3.660337   4.644958
    24  H    3.956868   3.391439   4.457292   5.749720   5.388773
    25  H    3.408328   3.784732   5.175895   6.110913   4.714662
    26  H    2.180248   3.369697   4.619928   5.019087   2.897822
    27  H    2.189052   3.383068   3.875790   3.443472   1.085099
    28  H    3.436767   3.841414   3.392930   2.184146   2.126149
    29  H    4.995420   4.579392   3.360149   2.168509   4.228579
    30  H    6.875691   6.109844   4.725330   4.012598   6.374305
    31  H    8.477374   7.424613   6.067141   5.832125   8.294938
    32  H    9.509629   8.256506   7.057318   7.260350   9.656871
    33  H    6.039510   4.673817   4.120126   5.172478   6.801228
    34  H    8.470757   7.099577   6.479333   7.408056   9.206876
    35  H    9.962576   8.600968   7.666858   8.265748  10.434339
    36  C    4.912509   3.619608   3.661618   4.993742   5.987660
    37  C    6.010069   4.770720   4.866916   6.186427   7.144341
    38  H    7.014645   5.807565   5.923380   7.232034   8.178296
                    6          7          8          9         10
     6  C    0.000000
     7  C    3.780204   0.000000
     8  C    4.355921   1.428492   0.000000
     9  C    3.827214   2.446001   1.451723   0.000000
    10  C    2.571187   2.861358   2.515410   1.408394   0.000000
    11  C    5.798930   2.571689   1.454597   2.484407   3.798086
    12  C    6.598307   3.837031   2.494192   2.847873   4.252237
    13  C    6.233296   4.281709   2.864975   2.442318   3.692579
    14  C    5.007072   3.760882   2.491384   1.438422   2.437076
    15  C    6.679761   3.076630   2.515657   3.787828   4.992034
    16  C    8.031710   4.451664   3.781911   4.911528   6.207009
    17  C    8.621136   5.270818   4.287451   5.109331   6.497085
    18  C    7.989044   5.016807   3.782510   4.255806   5.657780
    19  C    3.811728   4.668577   6.005856   6.381344   5.687760
    20  C    4.878002   4.681424   6.103144   6.768726   6.339778
    21  C    5.050065   3.756404   5.173799   6.071046   5.928246
    22  C    4.147494   2.375916   3.800341   4.689341   4.626535
    23  C    4.639523   1.468524   2.708417   3.893502   4.263894
    24  H    6.102674   4.355274   5.710480   6.764921   6.787245
    25  H    5.864383   5.715142   7.142266   7.846096   7.419489
    26  H    4.250820   5.690928   6.989137   7.245938   6.417067
    27  H    2.126403   5.281503   6.186792   5.884929   4.689125
    28  H    1.085088   4.689791   5.046034   4.243274   2.852555
    29  H    2.874479   3.944717   3.478543   2.148660   1.085267
    30  H    5.081686   4.603403   3.460554   2.166255   2.613169
    31  H    7.128744   5.363158   3.948784   3.429191   4.559729
    32  H    8.678908   5.952897   4.642424   4.864643   6.230408
    33  H    6.451038   2.778883   2.744476   4.148379   5.151428
    34  H    8.759389   5.097748   4.649596   5.872219   7.111442
    35  H    9.703735   6.332915   5.371505   6.164790   7.558081
    36  C    6.014834   2.608704   3.461573   4.819150   5.438604
    37  C    7.210668   3.770695   4.439856   5.833407   6.564602
    38  H    8.262828   4.801117   5.357876   6.757687   7.560954
                   11         12         13         14         15
    11  C    0.000000
    12  C    1.427929   0.000000
    13  C    2.474453   1.432830   0.000000
    14  C    2.832418   2.420306   1.353063   0.000000
    15  C    1.411902   2.426064   3.738181   4.229621   0.000000
    16  C    2.439437   2.797400   4.225104   5.047340   1.381048
    17  C    2.833082   2.429485   3.733103   4.841529   2.415819
    18  C    2.454656   1.409980   2.466987   3.699426   2.779459
    19  C    7.232466   8.486971   8.704945   7.802578   7.459134
    20  C    7.144151   8.488717   8.922378   8.193777   7.125518
    21  C    6.041924   7.423559   8.017246   7.457041   5.878660
    22  C    4.751490   6.111255   6.647979   6.073299   4.759921
    23  C    3.403836   4.789292   5.496250   5.148021   3.331366
    24  H    6.370877   7.768230   8.513231   8.097376   5.988094
    25  H    8.127633   9.490939   9.971908   9.268217   8.012912
    26  H    8.257008   9.480715   9.620273   8.646778   8.523963
    27  H    7.618669   8.568098   8.315886   7.118655   8.300166
    28  H    6.457948   7.084704   6.516462   5.206405   7.455524
    29  H    4.627580   4.820954   3.966280   2.614679   5.901766
    30  H    3.916501   3.408714   2.118915   1.084761   5.310779
    31  H    3.447343   2.171908   1.084696   2.122889   4.592371
    32  H    3.429426   2.150918   2.669791   4.015815   3.864154
    33  H    2.157442   3.406948   4.613751   4.880579   1.077464
    34  H    3.415122   3.880847   5.306698   6.102261   2.135495
    35  H    3.917165   3.412435   4.605471   5.799122   3.396881
    36  C    3.630577   4.967764   5.936254   5.880312   3.103069
    37  C    4.299643   5.514428   6.626320   6.759969   3.495748
    38  H    5.028625   6.120792   7.313778   7.582380   4.084593
                   16         17         18         19         20
    16  C    0.000000
    17  C    1.402993   0.000000
    18  C    2.402467   1.379550   0.000000
    19  C    8.784549   9.821102   9.682901   0.000000
    20  C    8.367228   9.513593   9.558976   1.392449   0.000000
    21  C    7.066428   8.249356   8.395380   2.470205   1.415945
    22  C    6.038668   7.133066   7.155386   2.832019   2.404953
    23  C    4.603282   5.679391   5.746559   4.261016   3.853581
    24  H    7.041946   8.293601   8.601145   3.439312   2.172122
    25  H    9.201771  10.395662  10.516015   2.135244   1.084385
    26  H    9.855681  10.879840  10.705963   1.084797   2.147554
    27  H    9.679325  10.432210   9.932096   2.883554   4.252349
    28  H    8.772197   9.241797   8.488123   4.708294   5.867029
    29  H    7.039456   7.174231   6.194355   6.410725   7.198183
    30  H    6.100984   5.802884   4.578514   8.255527   8.793663
    31  H    4.835665   4.053481   2.679423   9.753034   9.994119
    32  H    3.391397   2.142842   1.084985  10.617483  10.553298
    33  H    2.120896   3.383406   3.855556   6.736327   6.288488
    34  H    1.084126   2.160165   3.384800   9.128634   8.569557
    35  H    2.162550   1.084169   2.142097  10.841276  10.477160
    36  C    4.102965   5.286798   5.634781   5.281811   4.571462
    37  C    4.139520   5.345990   5.922823   6.224045   5.336256
    38  H    4.418644   5.580432   6.321618   7.136396   6.150663
                   21         22         23         24         25
    21  C    0.000000
    22  C    1.388870   0.000000
    23  C    2.652363   1.471187   0.000000
    24  H    1.084017   2.166578   3.022223   0.000000
    25  H    2.152636   3.380050   4.774484   2.472285   0.000000
    26  H    3.441076   3.916187   5.344118   4.315033   2.448440
    27  H    5.009116   4.658907   5.673181   6.080595   4.983124
    28  H    6.119593   5.231110   5.665269   7.178100   6.812208
    29  H    6.903904   5.642145   5.343384   7.800485   8.264404
    30  H    8.185850   6.817114   6.031925   8.901982   9.874429
    31  H    9.092036   7.725472   6.562124   9.575740  11.044610
    32  H    9.417648   8.155072   6.765299   9.648462  11.526391
    33  H    5.009823   4.001714   2.640493   5.054236   7.125447
    34  H    7.223395   6.351994   4.975420   7.050434   9.317531
    35  H    9.180420   8.117558   6.659955   9.149158  11.326260
    36  C    3.187742   2.487012   1.395636   3.069555   5.306534
    37  C    3.928303   3.539546   2.605011   3.488406   5.908528
    38  H    4.762901   4.540312   3.667132   4.151622   6.605041
                   26         27         28         29         30
    26  H    0.000000
    27  H    2.769469   0.000000
    28  H    4.982615   2.435455   0.000000
    29  H    7.026293   4.952809   2.732339   0.000000
    30  H    9.013122   7.197432   5.052706   2.321703   0.000000
    31  H   10.650832   9.236000   7.307013   4.640862   2.454905
    32  H   11.621664  10.688499   9.079427   6.614920   4.710123
    33  H    7.806834   7.865951   7.324766   6.151189   5.944527
    34  H   10.202837  10.277562   9.559365   7.990664   7.161385
    35  H   11.906483  11.511396  10.316105   8.201832   6.707941
    36  C    6.356670   6.991377   7.032442   6.511204   6.856097
    37  C    7.272628   8.124635   8.227609   7.624622   7.772117
    38  H    8.159921   9.143683   9.277122   8.608874   8.611817
                   31         32         33         34         35
    31  H    0.000000
    32  H    2.422725   0.000000
    33  H    5.543156   4.939863   0.000000
    34  H    5.900034   4.288520   2.433878   0.000000
    35  H    4.740038   2.474681   4.274183   2.492002   0.000000
    36  C    6.938418   6.681324   2.331853   4.254674   6.145268
    37  C    7.555165   6.950976   2.785487   4.044741   6.047976
    38  H    8.173816   7.308522   3.474725   4.122311   6.123333
                   36         37         38
    36  C    0.000000
    37  C    1.212294   0.000000
    38  H    2.274162   1.062293   0.000000
 Stoichiometry    C25H13(2)
 Framework group  C1[X(C25H13)]
 Deg. of freedom   108
 Full point group                 C1      NOp   1
 Largest Abelian subgroup         C1      NOp   1
 Largest concise Abelian subgroup C1      NOp   1
                         Standard orientation:                         
 ---------------------------------------------------------------------
 Center     Atomic      Atomic             Coordinates (Angstroms)
 Number     Number       Type             X           Y           Z
 ---------------------------------------------------------------------
      1          6           0        3.754531   -0.515930   -0.158130
      2          6           0        2.478211    0.030740   -0.100770
      3          6           0        1.302391   -0.730741   -0.084830
      4          6           0        1.347472   -2.124311   -0.074840
      5          6           0        3.805752   -1.958970   -0.200060
      6          6           0        2.663412   -2.718950   -0.151740
      7          6           0        0.158231    0.107859    0.000440
      8          6           0       -1.110099   -0.549241    0.012660
      9          6           0       -1.083188   -1.994931    0.142110
     10          6           0        0.102852   -2.751871    0.079460
     11          6           0       -2.410489    0.088578   -0.121590
     12          6           0       -3.598729   -0.659862    0.137070
     13          6           0       -3.509218   -2.062532    0.415470
     14          6           0       -2.316908   -2.700192    0.364820
     15          6           0       -2.565839    1.415238   -0.579090
     16          6           0       -3.809850    2.005478   -0.685630
     17          6           0       -4.966919    1.289157   -0.344360
     18          6           0       -4.856489   -0.028933    0.047560
     19          6           0        4.814001    0.428071   -0.129490
     20          6           0        4.528210    1.786690   -0.022770
     21          6           0        3.210340    2.296640    0.067070
     22          6           0        2.155991    1.393740    0.021500
     23          6           0        0.690321    1.471139    0.122550
     24          1           0        3.046580    3.363080    0.171860
     25          1           0        5.353330    2.489831    0.002940
     26          1           0        5.846311    0.098471   -0.179340
     27          1           0        4.770722   -2.452589   -0.251170
     28          1           0        2.744612   -3.800960   -0.160510
     29          1           0        0.032022   -3.831361    0.166000
     30          1           0       -2.263328   -3.773852    0.510040
     31          1           0       -4.423348   -2.611872    0.613350
     32          1           0       -5.745009   -0.610743    0.269420
     33          1           0       -1.698300    1.977568   -0.882550
     34          1           0       -3.889370    3.024378   -1.047360
     35          1           0       -5.941470    1.758527   -0.417610
     36          6           0        0.070440    2.672689    0.468710
     37          6           0       -0.363260    3.757089    0.793730
     38          1           0       -0.779750    4.689649    1.085850
 ---------------------------------------------------------------------
 Rotational constants (GHZ):      0.4472534      0.1804232      0.1306634
 Standard basis: 6-311+G(d,p) (5D, 7F)
 There are   653 symmetry adapted cartesian basis functions of A   symmetry.
 There are   628 symmetry adapted basis functions of A   symmetry.
   628 basis functions,  1004 primitive gaussians,   653 cartesian basis functions
    82 alpha electrons       81 beta electrons
       nuclear repulsion energy      1892.6806215879 Hartrees.
 NAtoms=   38 NActive=   38 NUniq=   38 SFac= 1.00D+00 NAtFMM=   60 NAOKFM=F Big=F
 Integral buffers will be    131072 words long.
 Raffenetti 2 integral format.
 Two-electron integral symmetry is turned on.
 One-electron integrals computed using PRISM.
 NBasis=   628 RedAO= T EigKep=  1.51D-06  NBF=   628
 NBsUse=   611 1.00D-06 EigRej=  9.94D-07 NBFU=   611
 ExpMin= 4.38D-02 ExpMax= 4.56D+03 ExpMxC= 6.82D+02 IAcc=2 IRadAn=         4 AccDes= 0.00D+00
 Harris functional with IExCor=  402 and IRadAn=       4 diagonalized for initial guess.
 HarFok:  IExCor=  402 AccDes= 0.00D+00 IRadAn=         4 IDoV= 1 UseB2=F ITyADJ=14
 ICtDFT=  3500011 ScaDFX=  1.000000  1.000000  1.000000  1.000000
 FoFCou: FMM=F IPFlag=           0 FMFlag=      100000 FMFlg1=           0
         NFxFlg=           0 DoJE=T BraDBF=F KetDBF=T FulRan=T
         wScrn=  0.000000 ICntrl=     500 IOpCl=  0 I1Cent=   200000004 NGrid=           0
         NMat0=    1 NMatS0=      1 NMatT0=    0 NMatD0=    1 NMtDS0=    0 NMtDT0=    0
 Petite list used in FoFCou.
 Initial guess <Sx>= 0.0000 <Sy>= 0.0000 <Sz>= 0.5000 <S**2>= 0.7500 S= 0.5000
 Requested convergence on RMS density matrix=1.00D-08 within 128 cycles.
 Requested convergence on MAX density matrix=1.00D-06.
 Requested convergence on             energy=1.00D-06.
 No special actions if energy rises.
 Restarting incremental Fock formation.
 SCF Done:  E(UB3LYP) =  -960.658245681     A.U. after   23 cycles
            NFock= 23  Conv=0.85D-08     -V/T= 2.0044
 <Sx>= 0.0000 <Sy>= 0.0000 <Sz>= 0.5000 <S**2>= 0.7803 S= 0.5150
 <L.S>= 0.000000000000E+00
 Annihilation of the first spin contaminant:
 S**2 before annihilation     0.7803,   after     0.7508

 **********************************************************************

            Population analysis using the SCF density.

 **********************************************************************

 Orbital symmetries:
 Alpha Orbitals:
       Occupied  (A) (A) (A) (A) (A) (A) (A) (A) (A) (A) (A) (A)
                 (A) (A) (A) (A) (A) (A) (A) (A) (A) (A) (A) (A)
                 (A) (A) (A) (A) (A) (A) (A) (A) (A) (A) (A) (A)
                 (A) (A) (A) (A) (A) (A) (A) (A) (A) (A) (A) (A)
                 (A) (A) (A) (A) (A) (A) (A) (A) (A) (A) (A) (A)
                 (A) (A) (A) (A) (A) (A) (A) (A) (A) (A) (A) (A)
                 (A) (A) (A) (A) (A) (A) (A) (A) (A) (A)
       Virtual   (A) (A) (A) (A) (A) (A) (A) (A) (A) (A) (A) (A)
                 (A) (A) (A) (A) (A) (A) (A) (A) (A) (A) (A) (A)
                 (A) (A) (A) (A) (A) (A) (A) (A) (A) (A) (A) (A)
                 (A) (A) (A) (A) (A) (A) (A) (A) (A) (A) (A) (A)
                 (A) (A) (A) (A) (A) (A) (A) (A) (A) (A) (A) (A)
                 (A) (A) (A) (A) (A) (A) (A) (A) (A) (A) (A) (A)
                 (A) (A) (A) (A) (A) (A) (A) (A) (A) (A) (A) (A)
                 (A) (A) (A) (A) (A) (A) (A) (A) (A) (A) (A) (A)
                 (A) (A) (A) (A) (A) (A) (A) (A) (A) (A) (A) (A)
                 (A) (A) (A) (A) (A) (A) (A) (A) (A) (A) (A) (A)
                 (A) (A) (A) (A) (A) (A) (A) (A) (A) (A) (A) (A)
                 (A) (A) (A) (A) (A) (A) (A) (A) (A) (A) (A) (A)
                 (A) (A) (A) (A) (A) (A) (A) (A) (A) (A) (A) (A)
                 (A) (A) (A) (A) (A) (A) (A) (A) (A) (A) (A) (A)
                 (A) (A) (A) (A) (A) (A) (A) (A) (A) (A) (A) (A)
                 (A) (A) (A) (A) (A) (A) (A) (A) (A) (A) (A) (A)
                 (A) (A) (A) (A) (A) (A) (A) (A) (A) (A) (A) (A)
                 (A) (A) (A) (A) (A) (A) (A) (A) (A) (A) (A) (A)
                 (A) (A) (A) (A) (A) (A) (A) (A) (A) (A) (A) (A)
                 (A) (A) (A) (A) (A) (A) (A) (A) (A) (A) (A) (A)
                 (A) (A) (A) (A) (A) (A) (A) (A) (A) (A) (A) (A)
                 (A) (A) (A) (A) (A) (A) (A) (A) (A) (A) (A) (A)
                 (A) (A) (A) (A) (A) (A) (A) (A) (A) (A) (A) (A)
                 (A) (A) (A) (A) (A) (A) (A) (A) (A) (A) (A) (A)
                 (A) (A) (A) (A) (A) (A) (A) (A) (A) (A) (A) (A)
                 (A) (A) (A) (A) (A) (A) (A) (A) (A) (A) (A) (A)
                 (A) (A) (A) (A) (A) (A) (A) (A) (A) (A) (A) (A)
                 (A) (A) (A) (A) (A) (A) (A) (A) (A) (A) (A) (A)
                 (A) (A) (A) (A) (A) (A) (A) (A) (A) (A) (A) (A)
                 (A) (A) (A) (A) (A) (A) (A) (A) (A) (A) (A) (A)
                 (A) (A) (A) (A) (A) (A) (A) (A) (A) (A) (A) (A)
                 (A) (A) (A) (A) (A) (A) (A) (A) (A) (A) (A) (A)
                 (A) (A) (A) (A) (A) (A) (A) (A) (A) (A) (A) (A)
                 (A) (A) (A) (A) (A) (A) (A) (A) (A) (A) (A) (A)
                 (A) (A) (A) (A) (A) (A) (A) (A) (A) (A) (A) (A)
                 (A) (A) (A) (A) (A) (A) (A) (A) (A) (A) (A) (A)
                 (A) (A) (A) (A) (A) (A) (A) (A) (A) (A) (A) (A)
                 (A) (A) (A) (A) (A) (A) (A) (A) (A) (A) (A) (A)
                 (A) (A) (A) (A) (A) (A) (A) (A) (A) (A) (A) (A)
                 (A) (A) (A) (A) (A) (A) (A) (A) (A) (A) (A) (A)
                 (A) (A) (A) (A) (A) (A) (A) (A) (A) (A) (A) (A)
                 (A) (A) (A) (A) (A) (A) (A) (A) (A) (A) (A) (A)
                 (A) (A) (A) (A) (A) (A) (A) (A) (A) (A) (A) (A)
                 (A) (A) (A) (A) (A) (A) (A) (A) (A) (A) (A) (A)
                 (A)
 Beta  Orbitals:
       Occupied  (A) (A) (A) (A) (A) (A) (A) (A) (A) (A) (A) (A)
                 (A) (A) (A) (A) (A) (A) (A) (A) (A) (A) (A) (A)
                 (A) (A) (A) (A) (A) (A) (A) (A) (A) (A) (A) (A)
                 (A) (A) (A) (A) (A) (A) (A) (A) (A) (A) (A) (A)
                 (A) (A) (A) (A) (A) (A) (A) (A) (A) (A) (A) (A)
                 (A) (A) (A) (A) (A) (A) (A) (A) (A) (A) (A) (A)
                 (A) (A) (A) (A) (A) (A) (A) (A) (A)
       Virtual   (A) (A) (A) (A) (A) (A) (A) (A) (A) (A) (A) (A)
                 (A) (A) (A) (A) (A) (A) (A) (A) (A) (A) (A) (A)
                 (A) (A) (A) (A) (A) (A) (A) (A) (A) (A) (A) (A)
                 (A) (A) (A) (A) (A) (A) (A) (A) (A) (A) (A) (A)
                 (A) (A) (A) (A) (A) (A) (A) (A) (A) (A) (A) (A)
                 (A) (A) (A) (A) (A) (A) (A) (A) (A) (A) (A) (A)
                 (A) (A) (A) (A) (A) (A) (A) (A) (A) (A) (A) (A)
                 (A) (A) (A) (A) (A) (A) (A) (A) (A) (A) (A) (A)
                 (A) (A) (A) (A) (A) (A) (A) (A) (A) (A) (A) (A)
                 (A) (A) (A) (A) (A) (A) (A) (A) (A) (A) (A) (A)
                 (A) (A) (A) (A) (A) (A) (A) (A) (A) (A) (A) (A)
                 (A) (A) (A) (A) (A) (A) (A) (A) (A) (A) (A) (A)
                 (A) (A) (A) (A) (A) (A) (A) (A) (A) (A) (A) (A)
                 (A) (A) (A) (A) (A) (A) (A) (A) (A) (A) (A) (A)
                 (A) (A) (A) (A) (A) (A) (A) (A) (A) (A) (A) (A)
                 (A) (A) (A) (A) (A) (A) (A) (A) (A) (A) (A) (A)
                 (A) (A) (A) (A) (A) (A) (A) (A) (A) (A) (A) (A)
                 (A) (A) (A) (A) (A) (A) (A) (A) (A) (A) (A) (A)
                 (A) (A) (A) (A) (A) (A) (A) (A) (A) (A) (A) (A)
                 (A) (A) (A) (A) (A) (A) (A) (A) (A) (A) (A) (A)
                 (A) (A) (A) (A) (A) (A) (A) (A) (A) (A) (A) (A)
                 (A) (A) (A) (A) (A) (A) (A) (A) (A) (A) (A) (A)
                 (A) (A) (A) (A) (A) (A) (A) (A) (A) (A) (A) (A)
                 (A) (A) (A) (A) (A) (A) (A) (A) (A) (A) (A) (A)
                 (A) (A) (A) (A) (A) (A) (A) (A) (A) (A) (A) (A)
                 (A) (A) (A) (A) (A) (A) (A) (A) (A) (A) (A) (A)
                 (A) (A) (A) (A) (A) (A) (A) (A) (A) (A) (A) (A)
                 (A) (A) (A) (A) (A) (A) (A) (A) (A) (A) (A) (A)
                 (A) (A) (A) (A) (A) (A) (A) (A) (A) (A) (A) (A)
                 (A) (A) (A) (A) (A) (A) (A) (A) (A) (A) (A) (A)
                 (A) (A) (A) (A) (A) (A) (A) (A) (A) (A) (A) (A)
                 (A) (A) (A) (A) (A) (A) (A) (A) (A) (A) (A) (A)
                 (A) (A) (A) (A) (A) (A) (A) (A) (A) (A) (A) (A)
                 (A) (A) (A) (A) (A) (A) (A) (A) (A) (A) (A) (A)
                 (A) (A) (A) (A) (A) (A) (A) (A) (A) (A) (A) (A)
                 (A) (A) (A) (A) (A) (A) (A) (A) (A) (A) (A) (A)
                 (A) (A) (A) (A) (A) (A) (A) (A) (A) (A) (A) (A)
                 (A) (A) (A) (A) (A) (A) (A) (A) (A) (A) (A) (A)
                 (A) (A) (A) (A) (A) (A) (A) (A) (A) (A) (A) (A)
                 (A) (A) (A) (A) (A) (A) (A) (A) (A) (A) (A) (A)
                 (A) (A) (A) (A) (A) (A) (A) (A) (A) (A) (A) (A)
                 (A) (A) (A) (A) (A) (A) (A) (A) (A) (A) (A) (A)
                 (A) (A) (A) (A) (A) (A) (A) (A) (A) (A) (A) (A)
                 (A) (A) (A) (A) (A) (A) (A) (A) (A) (A) (A) (A)
                 (A) (A)
 The electronic state is 2-A.
 Alpha  occ. eigenvalues --  -10.22462 -10.20918 -10.19924 -10.19734 -10.19411
 Alpha  occ. eigenvalues --  -10.19358 -10.19337 -10.19319 -10.19170 -10.19139
 Alpha  occ. eigenvalues --  -10.19111 -10.19048 -10.18952 -10.18921 -10.18899
 Alpha  occ. eigenvalues --  -10.18512 -10.18441 -10.18288 -10.18102 -10.18013
 Alpha  occ. eigenvalues --  -10.17938 -10.17856 -10.17766 -10.17676 -10.17160
 Alpha  occ. eigenvalues --   -0.91970  -0.88624  -0.85817  -0.84737  -0.82907
 Alpha  occ. eigenvalues --   -0.79547  -0.78539  -0.78434  -0.75425  -0.74825
 Alpha  occ. eigenvalues --   -0.73185  -0.71708  -0.70502  -0.64945  -0.64640
 Alpha  occ. eigenvalues --   -0.62932  -0.61838  -0.60261  -0.59555  -0.56985
 Alpha  occ. eigenvalues --   -0.54620  -0.53177  -0.52067  -0.52005  -0.51052
 Alpha  occ. eigenvalues --   -0.49379  -0.48094  -0.47052  -0.46431  -0.45306
 Alpha  occ. eigenvalues --   -0.44425  -0.43901  -0.43517  -0.43052  -0.42364
 Alpha  occ. eigenvalues --   -0.41523  -0.41069  -0.40276  -0.39921  -0.38471
 Alpha  occ. eigenvalues --   -0.37741  -0.37275  -0.36678  -0.35865  -0.34675
 Alpha  occ. eigenvalues --   -0.34236  -0.33926  -0.33300  -0.31506  -0.29821
 Alpha  occ. eigenvalues --   -0.29505  -0.28774  -0.25873  -0.25121  -0.23867
 Alpha  occ. eigenvalues --   -0.21492  -0.19338
 Alpha virt. eigenvalues --   -0.07148  -0.05525  -0.02447  -0.01864   0.00118
 Alpha virt. eigenvalues --    0.00225   0.00547   0.00644   0.00781   0.01438
 Alpha virt. eigenvalues --    0.01755   0.02040   0.02888   0.03164   0.03270
 Alpha virt. eigenvalues --    0.03633   0.04243   0.04618   0.05227   0.05240
 Alpha virt. eigenvalues --    0.05726   0.05908   0.06223   0.06773   0.07425
 Alpha virt. eigenvalues --    0.07624   0.07938   0.07988   0.08294   0.08712
 Alpha virt. eigenvalues --    0.09377   0.09651   0.10075   0.10570   0.10898
 Alpha virt. eigenvalues --    0.11102   0.11298   0.12278   0.12564   0.12835
 Alpha virt. eigenvalues --    0.13099   0.13589   0.13752   0.14486   0.14507
 Alpha virt. eigenvalues --    0.14759   0.15186   0.15310   0.15773   0.16114
 Alpha virt. eigenvalues --    0.16345   0.16610   0.16794   0.16971   0.17243
 Alpha virt. eigenvalues --    0.17411   0.17646   0.17742   0.18050   0.18398
 Alpha virt. eigenvalues --    0.18742   0.18867   0.19102   0.19210   0.19776
 Alpha virt. eigenvalues --    0.19993   0.20321   0.20403   0.20761   0.20922
 Alpha virt. eigenvalues --    0.21095   0.21231   0.21830   0.22044   0.22253
 Alpha virt. eigenvalues --    0.22512   0.22720   0.22861   0.23489   0.23786
 Alpha virt. eigenvalues --    0.23906   0.24251   0.24346   0.24622   0.25007
 Alpha virt. eigenvalues --    0.25356   0.25379   0.25803   0.26251   0.26333
 Alpha virt. eigenvalues --    0.26639   0.27129   0.27429   0.27908   0.28248
 Alpha virt. eigenvalues --    0.28489   0.28988   0.29144   0.29238   0.29640
 Alpha virt. eigenvalues --    0.29797   0.29938   0.30284   0.30523   0.31050
 Alpha virt. eigenvalues --    0.31402   0.31843   0.32117   0.32377   0.32805
 Alpha virt. eigenvalues --    0.33427   0.33568   0.33943   0.34671   0.34946
 Alpha virt. eigenvalues --    0.35651   0.36957   0.37176   0.37747   0.39083
 Alpha virt. eigenvalues --    0.39389   0.39989   0.41293   0.41815   0.42244
 Alpha virt. eigenvalues --    0.43278   0.44067   0.44600   0.45103   0.45702
 Alpha virt. eigenvalues --    0.46564   0.47625   0.48215   0.48897   0.50126
 Alpha virt. eigenvalues --    0.51239   0.52250   0.52551   0.52986   0.53151
 Alpha virt. eigenvalues --    0.53640   0.53898   0.54277   0.54665   0.54992
 Alpha virt. eigenvalues --    0.55388   0.55623   0.56198   0.56475   0.56866
 Alpha virt. eigenvalues --    0.57483   0.58087   0.58489   0.58563   0.59195
 Alpha virt. eigenvalues --    0.59767   0.60322   0.60931   0.61062   0.61477
 Alpha virt. eigenvalues --    0.62029   0.62837   0.63057   0.63434   0.63590
 Alpha virt. eigenvalues --    0.64161   0.64868   0.64926   0.65695   0.66265
 Alpha virt. eigenvalues --    0.66610   0.66953   0.67599   0.67867   0.68746
 Alpha virt. eigenvalues --    0.69344   0.69689   0.69794   0.70138   0.70637
 Alpha virt. eigenvalues --    0.71029   0.71559   0.71738   0.72223   0.72536
 Alpha virt. eigenvalues --    0.73442   0.73483   0.74027   0.74619   0.74947
 Alpha virt. eigenvalues --    0.75374   0.75814   0.76230   0.76609   0.77216
 Alpha virt. eigenvalues --    0.78377   0.79284   0.80008   0.80800   0.81048
 Alpha virt. eigenvalues --    0.82416   0.83093   0.83900   0.84879   0.85455
 Alpha virt. eigenvalues --    0.86489   0.86697   0.87224   0.88072   0.88604
 Alpha virt. eigenvalues --    0.89055   0.89853   0.90766   0.91545   0.91831
 Alpha virt. eigenvalues --    0.92316   0.92822   0.93259   0.93590   0.94876
 Alpha virt. eigenvalues --    0.95082   0.95359   0.95670   0.95850   0.96438
 Alpha virt. eigenvalues --    0.96653   0.96777   0.97579   0.99029   0.99237
 Alpha virt. eigenvalues --    0.99974   1.00536   1.01660   1.02154   1.02421
 Alpha virt. eigenvalues --    1.02839   1.03294   1.03902   1.04898   1.05512
 Alpha virt. eigenvalues --    1.05991   1.07055   1.07734   1.08363   1.09063
 Alpha virt. eigenvalues --    1.09291   1.10329   1.11070   1.11985   1.12553
 Alpha virt. eigenvalues --    1.13181   1.14481   1.15224   1.15920   1.16778
 Alpha virt. eigenvalues --    1.19052   1.20123   1.20344   1.21002   1.21518
 Alpha virt. eigenvalues --    1.23811   1.24447   1.26943   1.27681   1.30153
 Alpha virt. eigenvalues --    1.32485   1.32839   1.33192   1.35032   1.37092
 Alpha virt. eigenvalues --    1.37442   1.39314   1.39604   1.41270   1.44217
 Alpha virt. eigenvalues --    1.45297   1.47039   1.47144   1.47680   1.48579
 Alpha virt. eigenvalues --    1.48795   1.49389   1.50309   1.50515   1.51492
 Alpha virt. eigenvalues --    1.51919   1.52284   1.53616   1.54120   1.54985
 Alpha virt. eigenvalues --    1.55440   1.55819   1.56643   1.56733   1.57718
 Alpha virt. eigenvalues --    1.58156   1.59879   1.60549   1.61682   1.62322
 Alpha virt. eigenvalues --    1.63168   1.63806   1.65360   1.66074   1.67141
 Alpha virt. eigenvalues --    1.67716   1.68151   1.69265   1.70730   1.71790
 Alpha virt. eigenvalues --    1.72960   1.73634   1.73890   1.74604   1.74795
 Alpha virt. eigenvalues --    1.75747   1.76885   1.77564   1.78392   1.79925
 Alpha virt. eigenvalues --    1.81078   1.82060   1.82742   1.83040   1.83813
 Alpha virt. eigenvalues --    1.84680   1.85880   1.86676   1.87100   1.88151
 Alpha virt. eigenvalues --    1.88511   1.89350   1.89617   1.90509   1.91459
 Alpha virt. eigenvalues --    1.91809   1.92375   1.92843   1.93728   1.94343
 Alpha virt. eigenvalues --    1.94446   1.95008   1.95569   1.97333   1.97691
 Alpha virt. eigenvalues --    1.98291   1.99565   2.00567   2.00732   2.02140
 Alpha virt. eigenvalues --    2.03554   2.04389   2.04823   2.05659   2.06605
 Alpha virt. eigenvalues --    2.07890   2.08193   2.09794   2.11584   2.13174
 Alpha virt. eigenvalues --    2.13594   2.14670   2.15246   2.16246   2.18594
 Alpha virt. eigenvalues --    2.19044   2.20452   2.21681   2.22345   2.23600
 Alpha virt. eigenvalues --    2.24465   2.27365   2.29114   2.31678   2.32718
 Alpha virt. eigenvalues --    2.35758   2.36402   2.37791   2.39300   2.39479
 Alpha virt. eigenvalues --    2.41982   2.42607   2.43392   2.44603   2.45114
 Alpha virt. eigenvalues --    2.46600   2.47129   2.49801   2.53230   2.54142
 Alpha virt. eigenvalues --    2.55150   2.55960   2.58346   2.60354   2.63175
 Alpha virt. eigenvalues --    2.63830   2.64607   2.65883   2.66628   2.67811
 Alpha virt. eigenvalues --    2.68717   2.69353   2.70074   2.71036   2.71494
 Alpha virt. eigenvalues --    2.72082   2.72147   2.72493   2.72857   2.74174
 Alpha virt. eigenvalues --    2.75001   2.75073   2.75908   2.76146   2.76524
 Alpha virt. eigenvalues --    2.77591   2.77793   2.78270   2.78618   2.79029
 Alpha virt. eigenvalues --    2.79956   2.80505   2.81208   2.82601   2.83284
 Alpha virt. eigenvalues --    2.83649   2.84502   2.85910   2.86930   2.87716
 Alpha virt. eigenvalues --    2.88360   2.89643   2.90353   2.91696   2.92280
 Alpha virt. eigenvalues --    2.92963   2.93894   2.94633   2.97842   2.99071
 Alpha virt. eigenvalues --    3.00452   3.01340   3.04188   3.05780   3.07698
 Alpha virt. eigenvalues --    3.08277   3.10501   3.11514   3.12841   3.13734
 Alpha virt. eigenvalues --    3.16085   3.18884   3.20527   3.22599   3.23253
 Alpha virt. eigenvalues --    3.23543   3.24533   3.27869   3.32993   3.33817
 Alpha virt. eigenvalues --    3.35601   3.37117   3.37706   3.39198   3.39403
 Alpha virt. eigenvalues --    3.41362   3.43635   3.46386   3.47309   3.48373
 Alpha virt. eigenvalues --    3.49052   3.52227   3.52635   3.55789   3.57356
 Alpha virt. eigenvalues --    3.58775   3.59017   3.62124   3.63701   3.67018
 Alpha virt. eigenvalues --    3.70766   3.74325   3.78502   3.82699   3.88528
 Alpha virt. eigenvalues --    4.00598   4.04071   4.04595   4.06904   4.07324
 Alpha virt. eigenvalues --    4.09379   4.12127   4.19137   4.23666   4.29148
 Alpha virt. eigenvalues --    4.32221   4.36887   4.61682   4.73847   4.77646
 Alpha virt. eigenvalues --    4.79395   4.80745   4.84106   4.86954  23.40479
 Alpha virt. eigenvalues --   23.58710  23.64024  23.76640  23.82205  23.84890
 Alpha virt. eigenvalues --   23.89834  23.90595  23.94213  23.94990  23.95900
 Alpha virt. eigenvalues --   23.96948  23.99637  24.01495  24.02361  24.05674
 Alpha virt. eigenvalues --   24.08389  24.10324  24.11398  24.13527  24.15766
 Alpha virt. eigenvalues --   24.17937  24.19630  24.22425  25.14804
  Beta  occ. eigenvalues --  -10.21765 -10.20717 -10.20095 -10.19823 -10.19471
  Beta  occ. eigenvalues --  -10.19409 -10.19348 -10.19121 -10.19110 -10.19109
  Beta  occ. eigenvalues --  -10.19050 -10.19034 -10.19028 -10.18937 -10.18787
  Beta  occ. eigenvalues --  -10.18566 -10.18239 -10.18063 -10.18052 -10.18036
  Beta  occ. eigenvalues --  -10.17966 -10.17792 -10.17709 -10.17631 -10.17107
  Beta  occ. eigenvalues --   -0.91701  -0.88526  -0.85650  -0.84380  -0.82802
  Beta  occ. eigenvalues --   -0.79367  -0.78363  -0.78040  -0.75322  -0.74732
  Beta  occ. eigenvalues --   -0.72872  -0.71638  -0.69610  -0.64843  -0.64528
  Beta  occ. eigenvalues --   -0.62677  -0.61766  -0.60155  -0.59361  -0.56946
  Beta  occ. eigenvalues --   -0.54384  -0.52954  -0.51957  -0.51905  -0.50995
  Beta  occ. eigenvalues --   -0.49256  -0.47999  -0.46976  -0.46362  -0.45124
  Beta  occ. eigenvalues --   -0.44350  -0.43634  -0.43277  -0.42775  -0.42312
  Beta  occ. eigenvalues --   -0.41447  -0.41028  -0.40024  -0.39851  -0.38353
  Beta  occ. eigenvalues --   -0.37672  -0.36627  -0.35856  -0.35528  -0.34646
  Beta  occ. eigenvalues --   -0.34169  -0.33807  -0.33075  -0.30743  -0.29375
  Beta  occ. eigenvalues --   -0.28777  -0.28454  -0.25519  -0.24920  -0.22733
  Beta  occ. eigenvalues --   -0.21257
  Beta virt. eigenvalues --   -0.13150  -0.06438  -0.05159  -0.02221  -0.01337
  Beta virt. eigenvalues --    0.00134   0.00590   0.00727   0.00804   0.00977
  Beta virt. eigenvalues --    0.01539   0.01772   0.02066   0.02927   0.03188
  Beta virt. eigenvalues --    0.03330   0.03661   0.04301   0.04751   0.05266
  Beta virt. eigenvalues --    0.05293   0.05753   0.05961   0.06313   0.06992
  Beta virt. eigenvalues --    0.07469   0.07642   0.08034   0.08077   0.08354
  Beta virt. eigenvalues --    0.08998   0.09668   0.09823   0.10147   0.10665
  Beta virt. eigenvalues --    0.10991   0.11313   0.11384   0.12298   0.12670
  Beta virt. eigenvalues --    0.12870   0.13162   0.13692   0.13790   0.14562
  Beta virt. eigenvalues --    0.14630   0.15085   0.15225   0.15428   0.15893
  Beta virt. eigenvalues --    0.16302   0.16389   0.16677   0.16904   0.17045
  Beta virt. eigenvalues --    0.17290   0.17650   0.17698   0.17920   0.18152
  Beta virt. eigenvalues --    0.18456   0.18834   0.18914   0.19172   0.19357
  Beta virt. eigenvalues --    0.19824   0.20047   0.20388   0.20446   0.20889
  Beta virt. eigenvalues --    0.20972   0.21149   0.21369   0.21876   0.22119
  Beta virt. eigenvalues --    0.22374   0.22584   0.22793   0.23057   0.23555
  Beta virt. eigenvalues --    0.23807   0.23939   0.24333   0.24415   0.24644
  Beta virt. eigenvalues --    0.25070   0.25411   0.25431   0.25870   0.26280
  Beta virt. eigenvalues --    0.26420   0.26717   0.27216   0.27493   0.27946
  Beta virt. eigenvalues --    0.28284   0.28569   0.29035   0.29286   0.29329
  Beta virt. eigenvalues --    0.29744   0.29872   0.29978   0.30380   0.30574
  Beta virt. eigenvalues --    0.31087   0.31477   0.31953   0.32191   0.32448
  Beta virt. eigenvalues --    0.32845   0.33446   0.33593   0.34038   0.34736
  Beta virt. eigenvalues --    0.35134   0.35716   0.36989   0.37254   0.37799
  Beta virt. eigenvalues --    0.39167   0.39433   0.40120   0.41319   0.41913
  Beta virt. eigenvalues --    0.42470   0.43364   0.44148   0.44692   0.45211
  Beta virt. eigenvalues --    0.45784   0.46698   0.47685   0.48270   0.49030
  Beta virt. eigenvalues --    0.50253   0.51384   0.52344   0.52756   0.53048
  Beta virt. eigenvalues --    0.53340   0.53710   0.54068   0.54401   0.54830
  Beta virt. eigenvalues --    0.55170   0.55495   0.55799   0.56286   0.56625
  Beta virt. eigenvalues --    0.57298   0.57561   0.58395   0.58586   0.58661
  Beta virt. eigenvalues --    0.59345   0.59832   0.60704   0.61009   0.61136
  Beta virt. eigenvalues --    0.61647   0.62155   0.62947   0.63222   0.63647
  Beta virt. eigenvalues --    0.63826   0.64375   0.64916   0.65053   0.65822
  Beta virt. eigenvalues --    0.66332   0.66695   0.66984   0.67645   0.67975
  Beta virt. eigenvalues --    0.68871   0.69392   0.69792   0.69879   0.70316
  Beta virt. eigenvalues --    0.70871   0.71151   0.71606   0.71829   0.72351
  Beta virt. eigenvalues --    0.72570   0.73517   0.73767   0.74119   0.74772
  Beta virt. eigenvalues --    0.75191   0.75681   0.75954   0.76340   0.76718
  Beta virt. eigenvalues --    0.77323   0.78585   0.79369   0.80093   0.80915
  Beta virt. eigenvalues --    0.81075   0.82514   0.83225   0.83959   0.84988
  Beta virt. eigenvalues --    0.85607   0.86561   0.86800   0.87480   0.88138
  Beta virt. eigenvalues --    0.88700   0.89145   0.89978   0.90840   0.91705
  Beta virt. eigenvalues --    0.91904   0.92381   0.93023   0.93375   0.93708
  Beta virt. eigenvalues --    0.95056   0.95223   0.95497   0.95777   0.96132
  Beta virt. eigenvalues --    0.96498   0.96769   0.96895   0.97735   0.99153
  Beta virt. eigenvalues --    0.99407   1.00108   1.00683   1.01857   1.02250
  Beta virt. eigenvalues --    1.02540   1.02958   1.03415   1.04161   1.05119
  Beta virt. eigenvalues --    1.05777   1.06265   1.07262   1.07915   1.08629
  Beta virt. eigenvalues --    1.09197   1.09405   1.10519   1.11161   1.12127
  Beta virt. eigenvalues --    1.12723   1.13363   1.14642   1.15367   1.16123
  Beta virt. eigenvalues --    1.16964   1.19332   1.20238   1.20461   1.21193
  Beta virt. eigenvalues --    1.21708   1.24259   1.24618   1.27205   1.27988
  Beta virt. eigenvalues --    1.30567   1.32653   1.33170   1.33399   1.35198
  Beta virt. eigenvalues --    1.37342   1.37827   1.39459   1.39976   1.41481
  Beta virt. eigenvalues --    1.44384   1.45499   1.47166   1.47339   1.47758
  Beta virt. eigenvalues --    1.48893   1.49078   1.49541   1.50419   1.50613
  Beta virt. eigenvalues --    1.51625   1.52037   1.52451   1.53753   1.54232
  Beta virt. eigenvalues --    1.55127   1.55549   1.55946   1.56749   1.56856
  Beta virt. eigenvalues --    1.57775   1.58364   1.60001   1.60652   1.61838
  Beta virt. eigenvalues --    1.62412   1.63391   1.63935   1.65468   1.66158
  Beta virt. eigenvalues --    1.67242   1.67796   1.68323   1.69382   1.70799
  Beta virt. eigenvalues --    1.71821   1.73046   1.73740   1.73977   1.74658
  Beta virt. eigenvalues --    1.74925   1.75793   1.76977   1.77672   1.78544
  Beta virt. eigenvalues --    1.80273   1.81429   1.82226   1.82981   1.83207
  Beta virt. eigenvalues --    1.84076   1.84941   1.86028   1.86810   1.87255
  Beta virt. eigenvalues --    1.88275   1.88696   1.89516   1.89736   1.90695
  Beta virt. eigenvalues --    1.91579   1.91970   1.92528   1.92971   1.93863
  Beta virt. eigenvalues --    1.94434   1.94551   1.95146   1.95838   1.97491
  Beta virt. eigenvalues --    1.97781   1.98421   1.99726   2.00735   2.00901
  Beta virt. eigenvalues --    2.02689   2.03746   2.04401   2.05098   2.05786
  Beta virt. eigenvalues --    2.06887   2.08033   2.08467   2.09944   2.11616
  Beta virt. eigenvalues --    2.13324   2.13662   2.14870   2.15353   2.16538
  Beta virt. eigenvalues --    2.18793   2.19166   2.20688   2.21860   2.22405
  Beta virt. eigenvalues --    2.23861   2.24639   2.27455   2.29431   2.31878
  Beta virt. eigenvalues --    2.32817   2.35878   2.36577   2.37974   2.39399
  Beta virt. eigenvalues --    2.39762   2.42048   2.42708   2.43433   2.44732
  Beta virt. eigenvalues --    2.45278   2.46694   2.47334   2.49889   2.53432
  Beta virt. eigenvalues --    2.54391   2.55228   2.56531   2.58481   2.60459
  Beta virt. eigenvalues --    2.63334   2.64230   2.64746   2.65984   2.66738
  Beta virt. eigenvalues --    2.68051   2.68955   2.69498   2.70310   2.71082
  Beta virt. eigenvalues --    2.71621   2.72178   2.72237   2.72578   2.72891
  Beta virt. eigenvalues --    2.74229   2.75067   2.75303   2.75953   2.76187
  Beta virt. eigenvalues --    2.76674   2.77755   2.77870   2.78366   2.78698
  Beta virt. eigenvalues --    2.79412   2.80005   2.80616   2.81455   2.82635
  Beta virt. eigenvalues --    2.83468   2.83856   2.84564   2.86110   2.86999
  Beta virt. eigenvalues --    2.87847   2.88595   2.89848   2.90459   2.91798
  Beta virt. eigenvalues --    2.92398   2.93126   2.93994   2.94791   2.97985
  Beta virt. eigenvalues --    2.99352   3.00723   3.01623   3.04323   3.07312
  Beta virt. eigenvalues --    3.08178   3.08481   3.10701   3.11451   3.13074
  Beta virt. eigenvalues --    3.13916   3.16214   3.18934   3.20640   3.22703
  Beta virt. eigenvalues --    3.23329   3.23609   3.24602   3.27966   3.33061
  Beta virt. eigenvalues --    3.33905   3.35664   3.37147   3.37769   3.39251
  Beta virt. eigenvalues --    3.39449   3.41465   3.43715   3.46460   3.47376
  Beta virt. eigenvalues --    3.48460   3.49132   3.52282   3.52738   3.55813
  Beta virt. eigenvalues --    3.57504   3.58845   3.59112   3.62172   3.63762
  Beta virt. eigenvalues --    3.67152   3.70859   3.74451   3.78595   3.82867
  Beta virt. eigenvalues --    3.88579   4.00777   4.04128   4.04668   4.06935
  Beta virt. eigenvalues --    4.07392   4.09411   4.12332   4.19207   4.23794
  Beta virt. eigenvalues --    4.29256   4.32685   4.37065   4.61885   4.74215
  Beta virt. eigenvalues --    4.77733   4.79518   4.80906   4.84146   4.87046
  Beta virt. eigenvalues --   23.40566  23.58829  23.64093  23.76680  23.82214
  Beta virt. eigenvalues --   23.84932  23.89909  23.91062  23.94329  23.95002
  Beta virt. eigenvalues --   23.95940  23.96963  23.99609  24.01580  24.02388
  Beta virt. eigenvalues --   24.05820  24.08455  24.10404  24.11411  24.13602
  Beta virt. eigenvalues --   24.15786  24.17985  24.19643  24.22423  25.14966
          Condensed to atoms (all electrons):
               1          2          3          4          5          6
     1  C    8.712498   1.523891   0.137215   0.350617  -0.292695  -0.962509
     2  C    1.523891   6.690546   0.706461   0.116503  -0.193197   0.095524
     3  C    0.137215   0.706461   6.707709   1.253363   0.174180   0.102281
     4  C    0.350617   0.116503   1.253363   9.652183  -1.119778   0.172116
     5  C   -0.292695  -0.193197   0.174180  -1.119778   7.729443   1.619804
     6  C   -0.962509   0.095524   0.102281   0.172116   1.619804   8.357316
     7  C   -0.051176  -0.427137   0.393628   0.241103  -0.207340  -0.579504
     8  C   -0.314682  -0.166689  -0.133313  -1.055427  -0.171248  -0.615800
     9  C   -0.112379  -0.141862  -0.240068  -0.654814  -0.208433  -0.139629
    10  C   -0.380309  -0.373054   0.223031   1.421564  -0.360998  -0.612907
    11  C   -0.062126  -0.199645  -0.358578  -0.790383  -0.014806  -0.131472
    12  C   -0.025642  -0.014901  -0.329511  -0.239010  -0.011727   0.006521
    13  C    0.039573   0.020292  -0.050164   0.229480  -0.044566  -0.103581
    14  C   -0.014592   0.006324  -1.163943  -1.483689  -0.244560  -0.349173
    15  C   -0.109520  -0.286149  -0.666346  -0.539081  -0.017583  -0.105162
    16  C   -0.003735  -0.077300   0.025194   0.038758   0.002454  -0.005396
    17  C    0.000182   0.012201  -0.006248  -0.044484  -0.001179  -0.005389
    18  C   -0.000337  -0.011228  -0.169492  -0.039984  -0.001925   0.006379
    19  C   -2.035034  -1.802960  -0.301296  -0.147545   0.052498   0.135640
    20  C    0.285493   0.528652  -0.004529  -0.166432  -0.168376  -0.066311
    21  C    0.152701   0.247656  -0.016188   0.003399  -0.191830   0.008250
    22  C   -0.519383   0.053138   0.039825  -0.305141  -0.120664  -0.351555
    23  C   -0.256852  -0.340540  -0.223591  -0.699164  -0.178573  -0.417285
    24  H   -0.016441   0.032854  -0.005000   0.002621  -0.005819  -0.001590
    25  H   -0.005692  -0.007854  -0.001849   0.001972   0.005585   0.000409
    26  H   -0.085466   0.023682  -0.012683   0.002049   0.032183   0.012623
    27  H   -0.094628   0.007609  -0.000076   0.019702   0.378835  -0.024007
    28  H   -0.016491  -0.010547   0.012419  -0.070643  -0.067363   0.386554
    29  H    0.006369  -0.001995   0.015375  -0.043512   0.011361   0.034768
    30  H    0.000675   0.001157   0.011417   0.064852   0.001030   0.009764
    31  H    0.000008   0.000017   0.000476   0.001486   0.000002   0.000181
    32  H   -0.000007  -0.000022  -0.000418   0.000092   0.000002   0.000022
    33  H    0.000966  -0.005512   0.003675  -0.002515  -0.000107  -0.000352
    34  H   -0.000003   0.000122  -0.000309  -0.000297  -0.000002  -0.000017
    35  H    0.000000   0.000008   0.000002   0.000095   0.000000   0.000003
    36  C   -0.085021  -0.248642  -0.097956  -0.064532  -0.052917  -0.105896
    37  C   -0.053948   0.057477  -0.031837  -0.262592   0.025318  -0.000528
    38  H   -0.000062   0.000685  -0.000206  -0.000135   0.000014   0.000011
               7          8          9         10         11         12
     1  C   -0.051176  -0.314682  -0.112379  -0.380309  -0.062126  -0.025642
     2  C   -0.427137  -0.166689  -0.141862  -0.373054  -0.199645  -0.014901
     3  C    0.393628  -0.133313  -0.240068   0.223031  -0.358578  -0.329511
     4  C    0.241103  -1.055427  -0.654814   1.421564  -0.790383  -0.239010
     5  C   -0.207340  -0.171248  -0.208433  -0.360998  -0.014806  -0.011727
     6  C   -0.579504  -0.615800  -0.139629  -0.612907  -0.131472   0.006521
     7  C    7.688417   0.443841   0.161285   0.284397   0.136903   0.154814
     8  C    0.443841   7.517084   0.636771   0.332859   1.949882  -0.481619
     9  C    0.161285   0.636771  12.633797   1.520529   0.041359   0.041356
    10  C    0.284397   0.332859   1.520529   8.458736  -0.667169  -1.056960
    11  C    0.136903   1.949882   0.041359  -0.667169  10.214099   1.301149
    12  C    0.154814  -0.481619   0.041356  -1.056960   1.301149  11.232264
    13  C   -0.403679  -0.051807  -1.668471  -0.008894  -1.543843  -1.713978
    14  C   -0.674264  -0.041386  -1.632737  -2.428566   0.249947  -0.705023
    15  C   -0.268168  -1.143270  -1.996050  -0.339658  -1.487480  -0.585592
    16  C   -0.084298  -0.133639   0.319305   0.100054  -1.633570   0.702366
    17  C    0.006121   0.021688  -0.347044  -0.107782   1.180995  -0.295704
    18  C   -0.216549  -1.086849  -1.369020  -0.070898  -2.757546  -1.673539
    19  C    0.145030  -0.032382   0.040409   0.050522  -0.020292  -0.000524
    20  C   -0.218328  -0.014993  -0.086652  -0.074688  -0.020297  -0.004593
    21  C   -0.439756   0.044764   0.048742  -0.040242   0.048671   0.011506
    22  C   -0.069036   0.047331  -0.111123  -0.235846   0.073715   0.036349
    23  C    0.109137   0.357839  -0.829689  -0.053918   0.228678  -0.350919
    24  H   -0.004377   0.001184  -0.001077   0.000025   0.000084   0.000130
    25  H    0.003064  -0.000182   0.000071   0.000290   0.000029  -0.000003
    26  H    0.001946  -0.000513  -0.000421  -0.000264  -0.000016  -0.000005
    27  H   -0.000194   0.000488   0.003812   0.004733   0.000038   0.000020
    28  H   -0.004513   0.010004   0.026449   0.067530   0.001432  -0.000030
    29  H   -0.012966  -0.026881  -0.071069   0.314146  -0.010643   0.014479
    30  H   -0.009077  -0.009549  -0.058823   0.148954  -0.037666  -0.052572
    31  H   -0.000332  -0.014029   0.007367   0.001016  -0.008161  -0.089206
    32  H    0.003000  -0.012505   0.008499   0.000276  -0.004441  -0.129118
    33  H   -0.003543   0.010430   0.000770   0.001606   0.018476   0.005157
    34  H   -0.001388   0.003239   0.001038   0.000131   0.064380  -0.012693
    35  H    0.000277   0.002553   0.003484   0.000412   0.000089   0.026484
    36  C    1.193427  -0.045444  -0.010402   0.046320  -0.141876   0.228516
    37  C   -1.272515   0.187604  -0.222170  -0.021849   0.252101  -0.356421
    38  H   -0.008489   0.001395  -0.000158   0.000028   0.000727  -0.000849
              13         14         15         16         17         18
     1  C    0.039573  -0.014592  -0.109520  -0.003735   0.000182  -0.000337
     2  C    0.020292   0.006324  -0.286149  -0.077300   0.012201  -0.011228
     3  C   -0.050164  -1.163943  -0.666346   0.025194  -0.006248  -0.169492
     4  C    0.229480  -1.483689  -0.539081   0.038758  -0.044484  -0.039984
     5  C   -0.044566  -0.244560  -0.017583   0.002454  -0.001179  -0.001925
     6  C   -0.103581  -0.349173  -0.105162  -0.005396  -0.005389   0.006379
     7  C   -0.403679  -0.674264  -0.268168  -0.084298   0.006121  -0.216549
     8  C   -0.051807  -0.041386  -1.143270  -0.133639   0.021688  -1.086849
     9  C   -1.668471  -1.632737  -1.996050   0.319305  -0.347044  -1.369020
    10  C   -0.008894  -2.428566  -0.339658   0.100054  -0.107782  -0.070898
    11  C   -1.543843   0.249947  -1.487480  -1.633570   1.180995  -2.757546
    12  C   -1.713978  -0.705023  -0.585592   0.702366  -0.295704  -1.673539
    13  C    9.948502   1.636087  -0.279355   0.868927  -1.123802   0.487379
    14  C    1.636087  11.067373   1.030416  -0.091758  -0.232757   0.823209
    15  C   -0.279355   1.030416  12.108203  -2.434951  -0.069403   2.729881
    16  C    0.868927  -0.091758  -2.434951  10.340496  -0.071278  -0.920782
    17  C   -1.123802  -0.232757  -0.069403  -0.071278   6.827305   0.048203
    18  C    0.487379   0.823209   2.729881  -0.920782   0.048203   9.662981
    19  C    0.010867   0.038629   0.005362  -0.001669  -0.000080   0.002100
    20  C   -0.001824  -0.018897  -0.005694   0.001177   0.000416  -0.001275
    21  C   -0.003133   0.047923   0.106466  -0.019221   0.005742   0.002434
    22  C   -0.076113   0.062196  -0.150221  -0.176168   0.030443  -0.021659
    23  C   -0.022412   0.180313   0.586698  -0.423508   0.127072   0.012297
    24  H   -0.000009  -0.000078   0.001149   0.000187   0.000007   0.000009
    25  H    0.000000   0.000005   0.000033   0.000004   0.000000   0.000000
    26  H   -0.000001  -0.000024  -0.000031  -0.000001   0.000000   0.000000
    27  H    0.000022   0.000427  -0.000021  -0.000003   0.000000   0.000001
    28  H   -0.000739   0.002422   0.000169   0.000004  -0.000002  -0.000012
    29  H    0.031621   0.067093  -0.002205  -0.000209   0.000218  -0.000368
    30  H   -0.034921   0.305103  -0.006555   0.001159  -0.001564   0.001297
    31  H    0.378350  -0.051554   0.006280  -0.000260   0.022388   0.080710
    32  H    0.060348   0.034869   0.004437  -0.015287  -0.038081   0.424523
[...]
 00000623,0.00001423,0.00000676,-0.00000042,-0.00002267,-0.00003601,-0.
 00000368,0.00002587,0.00024086,0.00002470,-0.00000824,-0.00000583,-0.0
 0000353,-0.00000098,0.00000045,-0.00000110,-0.00000018,-0.00000247,-0.
 00000077,-0.00000021,-0.00000141,0.00000005,-0.00000064,-0.00000002,-0
 .00000096,-0.00003720,0.00003006,0.00000413,0.00001333,0.00000774,0.00
 000737,0.00001136,0.00008700,-0.00001743,0.00010159,-0.00130568,0.0002
 8356,0.00102335,-0.00038638,-0.00034732,0.05968600,0.00000769,-0.00001
 842,0.00000481,-0.00000875,-0.00004064,-0.00000240,0.00005301,0.000024
 25,-0.00002640,0.00004446,0.00000542,0.00000634,0.00002972,0.00001535,
 -0.00000307,-0.00003031,0.00001968,-0.00000194,0.00005434,0.00006561,0
 .00004514,-0.00060971,-0.00032789,0.00020308,0.00020758,-0.00011831,-0
 .00009056,-0.00005611,-0.00006513,0.00000331,0.00257044,0.00165027,0.0
 0220013,0.00006081,0.00035494,-0.00044189,-0.00007588,0.00003825,-0.00
 033838,0.00014523,0.00003466,0.00004256,-0.00128863,-0.00856032,0.0045
 5687,0.01977578,-0.29834846,0.09578819,0.00362105,-0.01083787,0.004771
 02,-0.00310785,0.00113602,0.00218099,0.00000782,0.00000123,-0.00000217
 ,0.00000977,0.00000505,-0.00000735,0.00000245,-0.00000987,0.,-0.000003
 45,0.00003400,-0.00000332,-0.00008966,-0.00013924,-0.00000523,0.000000
 21,0.00000537,0.00000298,0.00000596,0.00000333,0.00000325,0.00000534,-
 0.00000126,0.00000071,0.00000642,-0.00000037,0.00000118,0.00000155,-0.
 00000769,0.00000136,0.00001894,-0.00002155,-0.00001943,0.00001156,-0.0
 0001852,0.00002359,-0.00000974,0.00001320,0.00000947,0.00022335,-0.000
 60224,0.00020985,-0.00007675,0.00008529,-0.00184630,-0.02119694,0.3152
 6352,0.00003662,0.00005499,0.00000218,0.00001611,0.00003373,0.00002463
 ,-0.00003508,0.00004979,-0.00006008,-0.00010316,-0.00008643,0.00003648
 ,-0.00002843,-0.00004457,0.00000425,0.00005423,-0.00001113,-0.00001325
 ,0.00013006,0.00014814,0.00008032,-0.00039944,0.00023329,0.00019443,-0
 .00034211,-0.00008696,-0.00032277,0.00019589,-0.00007932,-0.00001872,0
 .00049371,0.00111050,0.00752317,0.00048645,-0.00082893,-0.00065775,-0.
 00026100,0.00014349,-0.00088228,0.00039103,0.00004898,0.00009154,-0.00
 069990,0.00333826,0.00243836,-0.00336008,0.09623779,-0.07168681,-0.002
 50693,0.00633970,0.00066784,0.00191707,0.00226123,0.00502511,-0.000015
 75,-0.00004415,-0.00000430,-0.00002372,0.00000964,0.00000352,-0.000005
 18,-0.00000953,-0.00001246,0.00003072,-0.00004741,-0.00004278,-0.00008
 359,-0.00002039,0.00003938,-0.00000698,-0.00000199,0.00000095,0.000000
 33,-0.00000058,0.00000431,0.00000056,-0.00000156,-0.00000094,-0.000000
 52,-0.00000238,0.00000244,0.00000047,-0.00000063,0.00000041,0.00000252
 ,-0.00000262,-0.00003079,0.00000598,0.00001015,0.00005919,0.00000988,-
 0.00000760,0.00004028,-0.00009754,0.00052244,0.00012326,-0.00034986,-0
 .00179959,-0.00396864,0.00488769,-0.10603344,0.06418702,-0.00000772,0.
 00000656,0.00000469,-0.00001762,0.00002218,0.00000913,-0.00000822,0.00
 000458,-0.00001369,-0.00002275,-0.00001963,-0.00000415,-0.00001075,-0.
 00001308,0.00000104,0.00001759,-0.00001586,0.00000047,0.00004198,0.000
 01629,0.00000116,-0.00005149,0.00005844,-0.00010643,-0.00011922,-0.000
 00032,0.00002436,0.00006737,-0.00001782,0.00000659,0.00041440,-0.00070
 042,0.00016666,0.00195126,-0.00021274,0.00051407,-0.00022893,-0.000022
 66,0.00004523,0.00016979,0.00011563,-0.00007722,-0.00248020,-0.0036827
 0,0.00220235,-0.01769261,0.01374976,-0.00310282,-0.28197634,0.10806891
 ,-0.01597809,0.00141068,-0.00111014,0.00052007,-0.00000309,-0.00000537
 ,-0.00000223,-0.00000946,0.00000037,0.00000456,0.00000394,0.00001383,-
 0.00000248,0.00000116,-0.00003314,-0.00001725,0.00002226,-0.00000600,-
 0.00000555,0.00000378,-0.00000190,-0.00000076,-0.00000600,-0.00000311,
 -0.00000004,-0.00000532,0.00000170,-0.00000003,-0.00000632,0.00000120,
 -0.00000029,-0.00000044,0.00000614,0.00000021,-0.00000119,0.00000722,0
 .00000163,-0.00001803,0.00000355,-0.00000310,0.00001086,0.00001623,0.0
 0000187,0.00074427,0.00024591,-0.00045401,-0.00090333,0.00074770,-0.00
 016709,0.00089120,-0.00040351,-0.00025685,0.29789102,-0.00000627,0.000
 01238,0.00000273,0.00001684,0.00000435,0.00000503,-0.00000161,0.000048
 13,-0.00000452,-0.00003776,-0.00003334,0.00000242,-0.00000421,-0.00000
 555,0.00000088,0.00000799,0.00000653,-0.00000145,0.00012248,0.00008710
 ,-0.00002510,-0.00024263,0.00008734,-0.00032849,-0.00027407,-0.0000554
 0,0.00010950,0.00010184,-0.00000168,0.00000724,-0.00030318,-0.00082268
 ,0.00003753,-0.00099119,-0.00442262,0.00387738,0.00130863,0.00031206,-
 0.00003174,0.00011405,-0.00057861,-0.00007940,-0.00300435,-0.00039836,
 0.00259605,-0.01547788,0.01089042,-0.00142473,0.10749650,-0.10866564,0
 .01519747,0.02861547,-0.00813523,0.00183289,0.00000456,0.00000941,-0.0
 0000025,0.00001446,-0.00000796,-0.00000403,-0.00001506,-0.00000885,-0.
 00000036,0.00002926,0.00000801,-0.00000682,-0.00001860,-0.00007816,-0.
 00000460,-0.00000093,0.00000208,0.00000089,0.00000234,0.00000189,0.000
 00079,0.00000223,-0.00000046,0.00000017,0.00000349,-0.00000063,-0.0000
 0073,-0.00000046,-0.00000250,0.00000082,-0.00000682,0.00000074,-0.0000
 0198,0.00013582,-0.00008423,-0.00003918,-0.00003317,-0.00002650,0.0000
 4588,-0.00047226,0.00054760,-0.00152710,-0.00074165,0.00035749,-0.0000
 4425,0.00049566,0.00027844,-0.00129223,-0.11681830,0.11064953,0.000015
 03,0.00000309,-0.00000569,-0.00001025,-0.00000789,0.00000203,-0.000004
 15,-0.00002490,0.00003321,-0.00000692,-0.00000117,-0.00001151,-0.00000
 973,0.00000574,0.00000123,-0.00000199,-0.00000521,0.00000560,-0.000107
 49,0.00005640,-0.00005011,-0.00012082,-0.00027544,-0.00082793,0.000063
 86,-0.00004878,0.00011926,-0.00003651,-0.00000233,0.00004307,0.0002713
 2,0.00025659,-0.00093077,0.00040104,0.00365329,0.00705762,-0.00056025,
 0.00012282,0.00015132,0.00000716,0.00006467,-0.00043575,0.00178262,0.0
 0269947,0.00506956,0.00702104,-0.00355797,0.00387561,-0.01613594,0.015
 50948,-0.04083125,-0.00897580,0.00335335,0.00320715,0.00000058,-0.0000
 1882,-0.00000048,-0.00002262,0.00001585,-0.00000480,0.00003322,0.00001
 212,-0.00000164,-0.00006948,-0.00000478,0.00001419,0.00007825,0.000065
 08,-0.00000138,-0.00000191,-0.00000211,0.00000348,0.00000008,0.0000001
 4,0.00000138,-0.00000066,-0.00000084,0.00000167,-0.00000008,-0.0000004
 3,-0.00000146,-0.00000023,0.00000034,0.00000118,-0.00000021,-0.0000044
 9,-0.00000342,-0.00003959,0.00001933,0.00000367,0.00003189,0.00001564,
 0.00007109,-0.00014924,-0.00151967,-0.00401811,0.00037471,-0.00019130,
 0.00004827,-0.00051711,-0.00131927,-0.00274483,0.01671896,-0.01890423,
 0.03012452,-0.00226959,-0.00004525,0.00005893,-0.00588066,-0.00408297,
 -0.00049658,0.00346664,-0.00798553,-0.00060391,0.00375789,0.00358709,-
 0.00019524,0.00042912,0.00097268,-0.00001139,-0.00123600,-0.00045349,0
 .00013807,0.01625088,0.01351072,-0.00052019,-0.00421018,-0.00285861,-0
 .00012703,-0.00139758,0.00126710,0.00050285,-0.00134508,-0.00180057,0.
 00017842,0.00162515,-0.00115254,-0.00024282,-0.00055460,-0.00064390,0.
 00014038,-0.00035273,0.00044293,-0.00007194,0.00058061,-0.00008818,-0.
 00006671,-0.00256491,-0.00110924,-0.00191651,0.00044432,0.00010974,0.0
 0013288,-0.00003830,-0.00000463,0.00014600,-0.00002783,-0.00010448,0.0
 0006297,0.00108698,0.00094466,0.00004290,0.00061379,0.00075149,-0.0001
 1089,0.00217464,0.00154451,0.00025637,-0.02664432,0.03267897,0.0101447
 7,-0.11858239,0.07262695,0.02741227,-0.00001848,-0.00034629,0.00006008
 ,0.00002201,-0.00007184,0.00002857,0.00000325,0.00003731,0.00000599,0.
 00001470,0.00013619,-0.00002367,0.00014925,-0.00007461,-0.00001084,-0.
 00004310,-0.00005034,-0.00003628,-0.00004513,-0.00004757,-0.00000173,-
 0.00001407,0.00002122,0.00001382,-0.00000116,0.00000455,-0.00000207,-0
 .00285333,-0.00165481,-0.00228803,-0.00002762,0.00007289,-0.00004776,-
 0.00001264,-0.00000197,-0.00005417,0.29031511,0.00629241,0.00325902,-0
 .00023071,-0.00256432,0.00996396,0.00106055,-0.01398569,0.00365793,0.0
 0193939,-0.00461030,-0.00674211,0.00065754,-0.00175357,-0.00215260,-0.
 00001191,0.00216909,0.00039299,-0.00024999,0.00605184,-0.05418964,-0.0
 1153412,0.00945040,0.00582382,-0.00016650,0.00286618,-0.00244152,-0.00
 052454,0.00249385,0.00324221,-0.00039127,-0.00359132,0.00141877,0.0000
 5250,0.00066797,0.00161372,0.00019797,0.00070618,-0.00076246,0.0000154
 4,-0.00088289,0.00002599,0.00015297,-0.00093803,-0.00242831,-0.0012365
 4,-0.00096365,-0.00025818,-0.00029365,0.00040944,0.00041531,-0.0001603
 3,0.00000466,-0.00018743,-0.00002400,-0.00296351,-0.00164453,0.0000227
 8,-0.00018200,-0.00144673,-0.00006536,-0.00665134,-0.00294607,-0.00019
 552,0.03902874,-0.00389559,-0.00494292,0.07785636,-0.22419856,-0.05349
 387,-0.00039721,0.00008174,0.00004730,-0.00011239,0.00010382,-0.000011
 95,-0.00005998,-0.00005814,0.00000394,-0.00001851,0.00013967,0.0000371
 4,0.00004408,0.00001790,-0.00001409,0.00006066,0.00004140,0.00005462,0
 .00004542,0.00002677,-0.00000517,-0.00001446,-0.00003669,-0.00003546,-
 0.00001951,-0.00001209,-0.00001110,-0.00174045,-0.00032574,-0.00051791
 ,-0.00001520,0.00005760,0.00005080,-0.00001067,0.00003992,0.00007600,-
 0.40497246,1.02367968,0.00142722,0.00056593,0.00088620,-0.00025387,0.0
 0160790,0.00259644,-0.00224849,0.00143098,0.00369243,-0.00101382,-0.00
 134348,0.00133225,-0.00033632,-0.00041137,-0.00016345,0.00040977,0.000
 09693,-0.00031736,-0.00027280,-0.00904534,-0.00273710,0.00143638,0.001
 14105,-0.00155919,0.00061448,-0.00032604,-0.00019151,0.00059448,0.0006
 2425,-0.00011091,-0.00107277,0.00006743,0.00038803,0.00025056,0.000354
 06,0.00013363,0.00013720,-0.00018788,-0.00003163,-0.00022215,0.0000695
 2,0.00008493,-0.00141059,-0.00187918,-0.00081290,0.00002866,-0.0000259
 9,-0.00015226,0.00004466,0.00002228,0.00001905,-0.00004181,0.00000506,
 -0.00002841,-0.00065474,-0.00043232,-0.00001764,-0.00013080,-0.0003259
 0,0.00000308,-0.00152418,-0.00063797,-0.00080505,0.00933301,-0.0041233
 6,0.00066062,0.03014160,-0.05606613,-0.05993419,-0.00008089,0.00006912
 ,-0.00000200,-0.00004817,0.00003803,0.00003031,-0.00000881,-0.00001855
 ,0.00000474,-0.00000732,0.00001629,-0.00014238,-0.00000881,0.00000375,
 -0.00016147,0.00003130,0.00001329,0.00005808,0.00001132,0.00000617,0.0
 0000059,-0.00000827,-0.00001791,-0.00000581,-0.00001199,0.00000022,-0.
 00001019,-0.00272391,-0.00076450,-0.00063728,0.00001073,0.00006239,-0.
 00003570,-0.00000276,0.00002495,0.00004814,-0.12709344,0.29621274,0.15
 920743,0.00077776,0.00020851,-0.00009674,-0.00011763,0.00177929,0.0004
 6699,-0.00188944,0.00244018,0.00045684,-0.00077492,-0.00117474,0.00008
 579,-0.00007581,-0.00012701,-0.00001371,0.00009777,0.00021701,-0.00005
 995,-0.00359346,-0.00785266,-0.00064351,0.00104733,0.00137644,-0.00023
 677,0.00079433,-0.00066268,-0.00006120,0.00004898,0.00073402,-0.000025
 09,-0.00092779,0.00042749,-0.00013956,0.00000772,0.00027636,0.00028260
 ,0.00022070,-0.00008227,-0.00003665,-0.00031804,-0.00017308,0.00007622
 ,0.00020570,-0.00104288,-0.00183334,-0.00009410,-0.00051407,-0.0002938
 8,0.00035117,0.00012964,0.00002276,-0.00012031,-0.00034470,0.00013435,
 -0.00036913,-0.00005663,0.00000908,0.00002441,-0.00012372,0.00002474,-
 0.00038910,-0.00035108,-0.00008153,0.00519646,-0.00067254,-0.00056065,
 -0.00422433,0.02562745,0.00675245,0.00020147,0.00001676,-0.00011288,-0
 .00003280,0.00000030,0.00000096,-0.00002743,0.00000684,-0.00000068,-0.
 00001984,0.00003273,0.00000929,-0.00002845,0.00003169,0.00000923,0.000
 02197,0.00002237,-0.00000880,0.00002996,0.00001533,0.00000250,0.000008
 51,-0.00003701,-0.00000595,0.00000357,-0.00002796,-0.00001175,-0.00177
 664,-0.00102439,0.00012869,0.00010383,0.00000733,0.00011895,-0.0000435
 1,-0.00000794,0.00003460,-0.15564872,0.30311748,0.09641872,0.24506756,
 -0.00268785,-0.00115731,0.00004969,0.00183519,-0.00496725,-0.00076921,
 0.00521611,-0.00474223,-0.00111642,0.00223355,0.00293096,-0.00019217,0
 .00068644,0.00054062,0.00002407,-0.00064302,-0.00027890,0.00007178,0.0
 0662789,0.01738120,0.00181195,-0.00335058,-0.00242231,0.00031709,-0.00
 137342,0.00105270,0.00024590,-0.00075288,-0.00159857,0.00013289,0.0013
 6292,-0.00086473,-0.00002019,-0.00025056,-0.00052469,-0.00003152,-0.00
 040728,0.00035913,0.00000385,0.00056682,0.00013761,-0.00007476,-0.0000
 6533,0.00100277,-0.00072220,0.00040956,-0.00004814,0.00011480,-0.00041
 058,-0.00017265,0.00020714,-0.00005109,0.00028378,-0.00005226,0.001111
 48,0.00048667,-0.00002284,0.00023682,0.00101129,0.00011119,0.00202963,
 0.00102864,0.00037403,-0.01651919,-0.00091396,0.00044774,0.02386023,-0
 .04878038,-0.01510148,0.00051497,0.00027721,-0.00004923,0.00014575,-0.
 00002908,-0.00000541,0.00006715,0.00005402,-0.00000969,0.00005083,-0.0
 0009449,0.00000279,0.00006798,-0.00008260,0.00000811,-0.00004919,-0.00
 006748,-0.00003059,-0.00003499,-0.00005873,0.00001405,-0.00003688,0.00
 001739,-0.00000016,-0.00002529,0.00000046,-0.00001270,-0.00076742,-0.0
 0094025,-0.00038738,-0.00013206,0.00002946,-0.00014302,-0.00003273,-0.
 00001429,-0.00003749,0.29934876,-0.75465281,-0.22776666,-0.45814328,1.
 12131378,-0.00086952,-0.00043253,-0.00018762,0.00054377,-0.00143125,-0
 .00038911,0.00160963,-0.00170387,-0.00027177,0.00085707,0.00101755,-0.
 00042189,0.00025014,0.00020072,0.00002513,-0.00024808,-0.00010386,0.00
 005858,0.00245108,0.00521806,0.00202046,-0.00141258,-0.00083757,0.0001
 1067,-0.00043848,0.00031039,0.00002694,-0.00032243,-0.00048774,0.00009
 010,0.00027453,-0.00042425,0.00005201,-0.00018687,-0.00024538,0.000214
 89,-0.00016087,0.00013643,0.00000918,0.00018145,-0.00001677,-0.0000180
 3,0.00075826,0.00018837,-0.00079537,-0.00010121,-0.00005475,0.00016182
 ,-0.00006567,0.00005619,0.00006214,-0.00002076,-0.00007649,0.00001728,
 0.00036570,0.00024221,-0.00000396,0.00015877,0.00017280,-0.00004300,0.
 00046788,0.00037247,0.00008845,-0.00437092,-0.00051266,0.00165957,0.00
 600821,-0.01583894,0.00050221,0.00005574,0.00008745,-0.00007077,0.0000
 4296,-0.00001034,-0.00001327,0.00002291,0.00001684,0.00001112,0.000014
 79,-0.00002760,0.00000473,0.00002274,-0.00002464,0.00001010,-0.0000175
 5,-0.00002689,-0.00000913,-0.00000795,-0.00002398,-0.00000034,-0.00001
 270,-0.00001240,-0.00001634,-0.00001187,-0.00001934,-0.00001404,-0.001
 02575,-0.00073750,-0.00014339,0.00005692,0.00000471,-0.00003869,-0.000
 03966,-0.00001968,-0.00002620,0.09527515,-0.22830341,-0.10238872,-0.14
 612597,0.34326935,0.14790082,0.00003898,-0.00000246,0.00001419,0.00023
 203,0.00002507,-0.00005856,0.00014220,0.00024868,-0.00000214,-0.000201
 27,-0.00008681,-0.00000868,-0.00004256,-0.00003193,-0.00000360,0.00008
 138,-0.00000137,-0.00000012,-0.00075141,0.00022421,0.00019657,0.000155
 35,-0.00001783,0.00003369,-0.00002755,0.00004055,-0.00003619,0.0001180
 3,-0.00002344,-0.00000952,-0.00000848,-0.00003659,0.00007309,0.0000885
 1,-0.00000197,-0.00004633,-0.00004878,-0.00002302,0.00001811,0.0000333
 4,0.00007528,-0.00001866,0.00002176,0.00009904,0.00007667,-0.00000990,
 -0.00003361,0.00013856,-0.00013963,0.00000909,0.00004462,-0.00001407,0
 .00009088,-0.00003599,-0.00002293,-0.00007084,-0.00000326,-0.00008318,
 -0.00002365,-0.00000739,0.00001687,0.00012253,-0.00000431,0.00008012,-
 0.00093253,-0.00015611,0.00545326,0.00280296,0.00054272,-0.00007099,0.
 00002364,0.00004332,-0.00000872,0.00000682,0.00000405,0.00000415,-0.00
 001026,0.00000039,0.00000228,-0.00001198,0.00000162,-0.00001080,0.0000
 0096,0.00000092,0.00000133,0.00000150,0.00000759,-0.00000236,0.0000019
 5,-0.00000074,-0.00000179,0.00000319,-0.00000274,-0.00000198,0.0000099
 7,-0.00000552,0.00024026,0.00003717,0.00002743,-0.00007570,0.00001356,
 -0.00015439,-0.00001639,-0.00001130,-0.00000918,0.00283408,-0.00481732
 ,-0.00171339,-0.08373776,0.13936156,0.04602115,0.07573230,-0.00013497,
 -0.00013131,0.00001836,0.00003181,0.00000575,0.00000873,0.00013982,0.0
 0009905,0.00006269,0.00013569,0.00008966,-0.00003022,0.00005153,0.0000
 8399,-0.00000126,-0.00008276,-0.00002987,0.00001141,-0.00026090,0.0001
 7958,0.00001774,-0.00013534,0.00000601,-0.00003268,-0.00003940,0.00000
 964,0.00002832,-0.00008987,-0.00000732,0.00001520,0.00010501,-0.000050
 83,0.00003343,0.00002619,-0.00005987,-0.00001557,-0.00002231,0.0000170
 3,0.00000865,0.00002101,-0.00001665,-0.00000865,-0.00001798,0.00004096
 ,0.00012336,0.00006122,0.00011031,0.00002450,-0.00006516,-0.00006177,0
 .00004427,-0.00001854,0.00004439,-0.00001865,0.00003866,0.00013576,0.0
 0000424,0.00008908,-0.00008743,-0.00000336,-0.00006481,0.00006947,0.00
 000100,0.00022652,-0.00035725,-0.00005827,0.00156835,0.00203422,-0.000
 84071,0.00001743,0.00001938,-0.00000755,-0.00002539,-0.00000692,-0.000
 00083,-0.00000963,0.00000705,-0.00000034,-0.00001182,0.00000305,-0.000
 00218,-0.00000480,0.00001293,-0.00000156,-0.00000054,0.00000940,-0.000
 00166,-0.00000270,0.00001213,-0.00000547,0.00001211,0.00000665,-0.0000
 0258,0.00000960,0.00001120,-0.00000402,0.00007617,0.00001180,-0.000088
 97,-0.00002845,-0.00000313,-0.00004847,0.00002390,-0.00000072,-0.00000
 226,-0.00050849,0.00437698,0.00094022,0.13595142,-0.32549684,-0.099921
 66,-0.13706169,0.31891351,-0.00000234,0.00000958,-0.00005217,-0.000001
 73,0.00002945,-0.00003045,-0.00011568,0.00005892,-0.00023123,-0.000020
 85,-0.00005714,-0.00003266,-0.00000895,0.00000496,-0.00000763,-0.00000
 498,-0.00000717,0.00001323,0.00008620,-0.00036788,0.00021705,0.0001013
 1,0.00006098,0.00006678,0.00003702,-0.00005179,-0.00000222,-0.00001490
 ,0.00004031,-0.00001597,0.00001797,-0.00001484,0.00001790,0.00003352,0
 .00005564,-0.00004941,0.00002716,-0.00004599,-0.00000108,-0.00003854,0
 .00001871,-0.00000391,-0.00017141,0.00004631,0.00004060,0.00001124,-0.
 00010671,0.00003281,-0.00002647,0.00004217,-0.00003242,0.00003938,0.00
 002877,-0.00002293,-0.00001208,0.00000408,0.00001753,-0.00000516,0.000
 02165,-0.00003319,0.00001574,-0.00000863,0.00001364,0.00004200,-0.0000
 0368,-0.00001027,0.00022016,-0.00067079,0.00399142,0.00002777,-0.00000
 962,0.00005270,-0.00000598,-0.00000343,0.00001097,-0.00000429,0.000001
 96,0.00000392,-0.00000346,0.00000233,0.00001066,-0.00000024,0.00000514
 ,0.00001469,-0.00000022,0.00000607,0.00000167,-0.00000100,0.00000720,0
 .00000330,0.00000752,0.00000827,0.00000519,0.00000720,0.00001692,0.000
 00505,0.00018078,-0.00007163,-0.00000891,-0.00009493,0.00001920,-0.000
 02822,0.00001143,-0.00000173,0.00001207,-0.00067919,0.00183863,0.00109
 919,0.04531386,-0.10066104,-0.04817455,-0.04496787,0.09975481,0.043106
 87\\-0.00000653,0.00000086,-0.00000592,0.00000426,0.00000777,0.0000130
 7,0.00000047,-0.00000670,0.00000494,0.00000416,0.00000815,-0.00000366,
 0.00000182,0.00000702,0.00000141,-0.00000607,0.00000032,-0.00000190,0.
 00000699,0.00000360,-0.00000699,0.00000270,-0.00000673,-0.00000638,-0.
 00000564,0.00000596,0.00000245,-0.00000057,-0.00000529,-0.00000333,-0.
 00000972,0.00000580,0.00000202,0.00000507,0.00000307,-0.00000158,0.000
 00137,0.00000318,-0.00000214,0.00000322,0.00000205,-0.00000349,-0.0000
 0095,-0.00000579,0.00000061,-0.00000172,-0.00000511,0.00000465,0.00000
 742,-0.00000237,0.00000064,0.00000234,-0.00000010,-0.00000182,-0.00000
 161,-0.00000014,0.00000051,-0.00000376,-0.00000489,0.00000086,-0.00000
 911,-0.00000566,-0.00001153,0.00002271,0.00000003,-0.00000440,-0.00001
 671,-0.00000625,0.00001577,0.00000266,-0.00000127,0.00000346,-0.000000
 04,-0.00000030,0.00000144,-0.00000114,0.00000444,-0.00000064,-0.000002
 58,-0.00000070,-0.00000193,0.00000312,0.00000257,-0.00000160,0.0000010
 3,0.00000319,-0.00000090,-0.00000198,0.00000092,-0.00000097,0.00000335
 ,-0.00000203,0.00000011,0.00000049,0.00000172,0.00000061,-0.00000371,0
 .00000218,0.00000112,-0.00000078,-0.00000141,0.00000110,0.00000019,-0.
 00000126,0.00000092,-0.00000198,0.00000749,0.00000490,0.00000053,-0.00
 001089,-0.00000149,0.00000067,-0.00000344,0.00000009\\\@


 It takes a long time to grow an old friend.
                            -- John Leonard
 Job cpu time:       3 days  6 hours 26 minutes 20.8 seconds.
 File lengths (MBytes):  RWF=   8674 Int=      0 D2E=      0 Chk=     44 Scr=      1
 Normal termination of Gaussian 09 at Sun Feb  2 22:09:05 2020.
