 Entering Gaussian System, Link 0=/share/apps/gaussian16/g16/g16
 Initial command:
 /share/apps/gaussian16/g16/l1.exe "/home/amen01//scratch/612/Gau-9184.inp" -scrdir="/home/amen01//scratch/612/"
 Entering Link 1 = /share/apps/gaussian16/g16/l1.exe PID=      9185.
  
 Copyright (c) 1988-2017, Gaussian, Inc.  All Rights Reserved.
  
 This is part of the Gaussian(R) 16 program.  It is based on
 the Gaussian(R) 09 system (copyright 2009, Gaussian, Inc.),
 the Gaussian(R) 03 system (copyright 2003, Gaussian, Inc.),
 the Gaussian(R) 98 system (copyright 1998, Gaussian, Inc.),
 the Gaussian(R) 94 system (copyright 1995, Gaussian, Inc.),
 the Gaussian 92(TM) system (copyright 1992, Gaussian, Inc.),
 the Gaussian 90(TM) system (copyright 1990, Gaussian, Inc.),
 the Gaussian 88(TM) system (copyright 1988, Gaussian, Inc.),
 the Gaussian 86(TM) system (copyright 1986, Carnegie Mellon
 University), and the Gaussian 82(TM) system (copyright 1983,
 Carnegie Mellon University). Gaussian is a federally registered
 trademark of Gaussian, Inc.
  
 This software contains proprietary and confidential information,
 including trade secrets, belonging to Gaussian, Inc.
  
 This software is provided under written license and may be
 used, copied, transmitted, or stored only in accord with that
 written license.
  
 The following legend is applicable only to US Government
 contracts under FAR:
  
                    RESTRICTED RIGHTS LEGEND
  
 Use, reproduction and disclosure by the US Government is
 subject to restrictions as set forth in subparagraphs (a)
 and (c) of the Commercial Computer Software - Restricted
 Rights clause in FAR 52.227-19.
  
 Gaussian, Inc.
 340 Quinnipiac St., Bldg. 40, Wallingford CT 06492
  
  
 ---------------------------------------------------------------
 Warning -- This program may not be used in any manner that
 competes with the business of Gaussian, Inc. or will provide
 assistance to any competitor of Gaussian, Inc.  The licensee
 of this program is prohibited from giving any competitor of
 Gaussian, Inc. access to this program.  By using this program,
 the user acknowledges that Gaussian, Inc. is engaged in the
 business of creating and licensing software in the field of
 computational chemistry and represents and warrants to the
 licensee that it is not a competitor of Gaussian, Inc. and that
 it will not use this program in any manner prohibited above.
 ---------------------------------------------------------------
  

 Cite this work as:
 Gaussian 16, Revision B.01,
 M. J. Frisch, G. W. Trucks, H. B. Schlegel, G. E. Scuseria, 
 M. A. Robb, J. R. Cheeseman, G. Scalmani, V. Barone, 
 G. A. Petersson, H. Nakatsuji, X. Li, M. Caricato, A. V. Marenich, 
 J. Bloino, B. G. Janesko, R. Gomperts, B. Mennucci, H. P. Hratchian, 
 J. V. Ortiz, A. F. Izmaylov, J. L. Sonnenberg, D. Williams-Young, 
 F. Ding, F. Lipparini, F. Egidi, J. Goings, B. Peng, A. Petrone, 
 T. Henderson, D. Ranasinghe, V. G. Zakrzewski, J. Gao, N. Rega, 
 G. Zheng, W. Liang, M. Hada, M. Ehara, K. Toyota, R. Fukuda, 
 J. Hasegawa, M. Ishida, T. Nakajima, Y. Honda, O. Kitao, H. Nakai, 
 T. Vreven, K. Throssell, J. A. Montgomery, Jr., J. E. Peralta, 
 F. Ogliaro, M. J. Bearpark, J. J. Heyd, E. N. Brothers, K. N. Kudin, 
 V. N. Staroverov, T. A. Keith, R. Kobayashi, J. Normand, 
 K. Raghavachari, A. P. Rendell, J. C. Burant, S. S. Iyengar, 
 J. Tomasi, M. Cossi, J. M. Millam, M. Klene, C. Adamo, R. Cammi, 
 J. W. Ochterski, R. L. Martin, K. Morokuma, O. Farkas, 
 J. B. Foresman, and D. J. Fox, Gaussian, Inc., Wallingford CT, 2016.
 
 ******************************************
 Gaussian 16:  ES64L-G16RevB.01 20-Dec-2017
                24-Jun-2019 
 ******************************************
 %nprocshared=20
 Will use up to   20 processors via shared memory.
 %mem=100GB
 %chk=7-HACAsite2TSguess-1b.chk
 ----------------------------------------------------------------------
 # opt=(ts,calcfc,noeigen) freq b3lyp/6-311+g(d,p) scf=xqc int=grid=fin
 e
 ----------------------------------------------------------------------
 1/5=1,10=4,11=1,18=20,26=3,38=1/1,3;
 2/9=110,12=2,17=6,18=5,40=1/2;
 3/5=4,6=6,7=111,11=2,25=1,30=1,71=2,74=-5,75=-4,140=1/1,2,3;
 4//1;
 5/5=2,8=3,13=1,38=5/2,8;
 8/6=4,10=90,11=11/1;
 11/6=1,8=1,9=11,15=111,16=1/1,2,10;
 10/6=1,13=1/2;
 6/7=2,8=2,9=2,10=2,28=1/1;
 7/10=1,18=20,25=1/1,2,3,16;
 1/5=1,10=4,11=1,18=20,26=3/3(2);
 2/9=110/2;
 99//99;
 2/9=110/2;
 3/5=4,6=6,7=111,11=2,25=1,30=1,71=1,74=-5,75=-4/1,2,3;
 4/5=5,16=3,69=1/1;
 5/5=2,8=3,13=1,38=5/2,8;
 7//1,2,3,16;
 1/5=1,11=1,18=20,26=3/3(-5);
 2/9=110/2;
 6/7=2,8=2,9=2,10=2,19=2,28=1/1;
 99/9=1/99;
 ---------------------
 7-HACAsite2TSguess-1b
 ---------------------
 Symbolic Z-matrix:
 Charge =  0 Multiplicity = 3
 C                    -8.49449  -0.24361   0. 
 C                    -7.24469   0.49539   0. 
 C                    -5.94879  -0.12111   0. 
 C                    -5.78279  -1.55561   0. 
 C                    -8.35889  -1.70961   0. 
 C                    -7.02419  -2.35401   0. 
 C                    -4.89829   0.91119   0. 
 C                    -3.48119   0.46729   0. 
 C                    -3.26099  -1.06561   0. 
 C                    -4.40559  -2.01111   0. 
 C                    -2.26429   1.35819   0. 
 C                    -0.88079   0.72829   0. 
 C                    -0.75049  -0.72061   0. 
 C                    -1.89769  -1.58531   0. 
 C                    -2.30089   2.83299   0. 
 C                    -1.10149   3.65049   0. 
 C                     0.20151   3.03269   0. 
 C                     0.30841   1.59139   0. 
 C                    -9.70389   0.58359   0. 
 C                    -9.60139   2.05459   0. 
 C                    -8.29889   2.74059   0. 
 C                    -7.09149   1.94289   0. 
 C                    -5.63969   2.20639   0. 
 H                    -8.25099   3.82099   0. 
 H                    -10.50949   2.64599   0. 
 H                    -10.68039   0.11629   0. 
 H                    -9.24569  -2.33091   0. 
 H                    -6.96409  -3.43551   0. 
 H                    -4.20859  -3.07651   0. 
 H                    -1.73589  -2.65701   0. 
 H                     0.23681  -1.16741   0. 
 H                     1.29431   1.14199   0. 
 H                    -3.56825   3.55783   0. 
 H                    -1.18719   4.73019   0. 
 H                     1.09491   3.64409   0. 
 H                    -5.32903   3.24227   0. 
 H                    -4.32883   4.01412   0.07461 
 
 Add virtual bond connecting atoms H37        and H33        Dist= 1.68D+00.
 Add virtual bond connecting atoms H37        and H36        Dist= 2.39D+00.

 GradGradGradGradGradGradGradGradGradGradGradGradGradGradGradGradGradGrad
 Berny optimization.
 Initialization pass.
                           ----------------------------
                           !    Initial Parameters    !
                           ! (Angstroms and Degrees)  !
 --------------------------                            --------------------------
 ! Name  Definition              Value          Derivative Info.                !
 --------------------------------------------------------------------------------
 ! R1    R(1,2)                  1.4519         calculate D2E/DX2 analytically  !
 ! R2    R(1,5)                  1.4723         calculate D2E/DX2 analytically  !
 ! R3    R(1,19)                 1.4652         calculate D2E/DX2 analytically  !
 ! R4    R(2,3)                  1.4351         calculate D2E/DX2 analytically  !
 ! R5    R(2,22)                 1.4556         calculate D2E/DX2 analytically  !
 ! R6    R(3,4)                  1.4441         calculate D2E/DX2 analytically  !
 ! R7    R(3,7)                  1.4728         calculate D2E/DX2 analytically  !
 ! R8    R(4,6)                  1.476          calculate D2E/DX2 analytically  !
 ! R9    R(4,10)                 1.4506         calculate D2E/DX2 analytically  !
 ! R10   R(5,6)                  1.4821         calculate D2E/DX2 analytically  !
 ! R11   R(5,27)                 1.0828         calculate D2E/DX2 analytically  !
 ! R12   R(6,28)                 1.0832         calculate D2E/DX2 analytically  !
 ! R13   R(7,8)                  1.485          calculate D2E/DX2 analytically  !
 ! R14   R(7,23)                 1.4924         calculate D2E/DX2 analytically  !
 ! R15   R(8,9)                  1.5486         calculate D2E/DX2 analytically  !
 ! R16   R(8,11)                 1.5082         calculate D2E/DX2 analytically  !
 ! R17   R(9,10)                 1.4846         calculate D2E/DX2 analytically  !
 ! R18   R(9,14)                 1.459          calculate D2E/DX2 analytically  !
 ! R19   R(10,29)                1.0835         calculate D2E/DX2 analytically  !
 ! R20   R(11,12)                1.5201         calculate D2E/DX2 analytically  !
 ! R21   R(11,15)                1.4753         calculate D2E/DX2 analytically  !
 ! R22   R(12,13)                1.4547         calculate D2E/DX2 analytically  !
 ! R23   R(12,18)                1.4694         calculate D2E/DX2 analytically  !
 ! R24   R(13,14)                1.4366         calculate D2E/DX2 analytically  !
 ! R25   R(13,31)                1.0837         calculate D2E/DX2 analytically  !
 ! R26   R(14,30)                1.0838         calculate D2E/DX2 analytically  !
 ! R27   R(15,16)                1.4515         calculate D2E/DX2 analytically  !
 ! R28   R(16,17)                1.442          calculate D2E/DX2 analytically  !
 ! R29   R(16,34)                1.0831         calculate D2E/DX2 analytically  !
 ! R30   R(17,18)                1.4453         calculate D2E/DX2 analytically  !
 ! R31   R(17,35)                1.0826         calculate D2E/DX2 analytically  !
 ! R32   R(18,32)                1.0835         calculate D2E/DX2 analytically  !
 ! R33   R(19,20)                1.4746         calculate D2E/DX2 analytically  !
 ! R34   R(19,26)                1.0826         calculate D2E/DX2 analytically  !
 ! R35   R(20,21)                1.4721         calculate D2E/DX2 analytically  !
 ! R36   R(20,25)                1.0837         calculate D2E/DX2 analytically  !
 ! R37   R(21,22)                1.4471         calculate D2E/DX2 analytically  !
 ! R38   R(21,24)                1.0815         calculate D2E/DX2 analytically  !
 ! R39   R(22,23)                1.4755         calculate D2E/DX2 analytically  !
 ! R40   R(23,36)                1.0815         calculate D2E/DX2 analytically  !
 ! R41   R(33,37)                0.8901         calculate D2E/DX2 analytically  !
 ! R42   R(36,37)                1.2656         calculate D2E/DX2 analytically  !
 ! A1    A(2,1,5)              115.311          calculate D2E/DX2 analytically  !
 ! A2    A(2,1,19)             115.0332         calculate D2E/DX2 analytically  !
 ! A3    A(5,1,19)             129.6558         calculate D2E/DX2 analytically  !
 ! A4    A(1,2,3)              123.9625         calculate D2E/DX2 analytically  !
 ! A5    A(1,2,22)             126.6372         calculate D2E/DX2 analytically  !
 ! A6    A(3,2,22)             109.4003         calculate D2E/DX2 analytically  !
 ! A7    A(2,3,4)              122.0428         calculate D2E/DX2 analytically  !
 ! A8    A(2,3,7)              110.0588         calculate D2E/DX2 analytically  !
 ! A9    A(4,3,7)              127.8985         calculate D2E/DX2 analytically  !
 ! A10   A(3,4,6)              116.146          calculate D2E/DX2 analytically  !
 ! A11   A(3,4,10)             114.9022         calculate D2E/DX2 analytically  !
 ! A12   A(6,4,10)             128.9518         calculate D2E/DX2 analytically  !
 ! A13   A(1,5,6)              121.0561         calculate D2E/DX2 analytically  !
 ! A14   A(1,5,27)             119.7308         calculate D2E/DX2 analytically  !
 ! A15   A(6,5,27)             119.2131         calculate D2E/DX2 analytically  !
 ! A16   A(4,6,5)              121.4816         calculate D2E/DX2 analytically  !
 ! A17   A(4,6,28)             119.5662         calculate D2E/DX2 analytically  !
 ! A18   A(5,6,28)             118.9522         calculate D2E/DX2 analytically  !
 ! A19   A(3,7,8)              118.1077         calculate D2E/DX2 analytically  !
 ! A20   A(3,7,23)             104.7116         calculate D2E/DX2 analytically  !
 ! A21   A(8,7,23)             137.1807         calculate D2E/DX2 analytically  !
 ! A22   A(7,8,9)              115.5675         calculate D2E/DX2 analytically  !
 ! A23   A(7,8,11)             126.399          calculate D2E/DX2 analytically  !
 ! A24   A(9,8,11)             118.0335         calculate D2E/DX2 analytically  !
 ! A25   A(8,9,10)             121.3839         calculate D2E/DX2 analytically  !
 ! A26   A(8,9,14)             119.0418         calculate D2E/DX2 analytically  !
 ! A27   A(10,9,14)            119.5743         calculate D2E/DX2 analytically  !
 ! A28   A(4,10,9)             122.1402         calculate D2E/DX2 analytically  !
 ! A29   A(4,10,29)            118.7774         calculate D2E/DX2 analytically  !
 ! A30   A(9,10,29)            119.0824         calculate D2E/DX2 analytically  !
 ! A31   A(8,11,12)            119.3124         calculate D2E/DX2 analytically  !
 ! A32   A(8,11,15)            124.7865         calculate D2E/DX2 analytically  !
 ! A33   A(12,11,15)           115.9011         calculate D2E/DX2 analytically  !
 ! A34   A(11,12,13)           119.6183         calculate D2E/DX2 analytically  !
 ! A35   A(11,12,18)           119.549          calculate D2E/DX2 analytically  !
 ! A36   A(13,12,18)           120.8327         calculate D2E/DX2 analytically  !
 ! A37   A(12,13,14)           121.8683         calculate D2E/DX2 analytically  !
 ! A38   A(12,13,31)           119.4878         calculate D2E/DX2 analytically  !
 ! A39   A(14,13,31)           118.6439         calculate D2E/DX2 analytically  !
 ! A40   A(9,14,13)            122.1257         calculate D2E/DX2 analytically  !
 ! A41   A(9,14,30)            119.4526         calculate D2E/DX2 analytically  !
 ! A42   A(13,14,30)           118.4217         calculate D2E/DX2 analytically  !
 ! A43   A(11,15,16)           122.8564         calculate D2E/DX2 analytically  !
 ! A44   A(15,16,17)           120.3547         calculate D2E/DX2 analytically  !
 ! A45   A(15,16,34)           119.7397         calculate D2E/DX2 analytically  !
 ! A46   A(17,16,34)           119.9056         calculate D2E/DX2 analytically  !
 ! A47   A(16,17,18)           119.6092         calculate D2E/DX2 analytically  !
 ! A48   A(16,17,35)           120.2468         calculate D2E/DX2 analytically  !
 ! A49   A(18,17,35)           120.144          calculate D2E/DX2 analytically  !
 ! A50   A(12,18,17)           121.7297         calculate D2E/DX2 analytically  !
 ! A51   A(12,18,32)           119.5237         calculate D2E/DX2 analytically  !
 ! A52   A(17,18,32)           118.7466         calculate D2E/DX2 analytically  !
 ! A53   A(1,19,20)            120.3852         calculate D2E/DX2 analytically  !
 ! A54   A(1,19,26)            120.0556         calculate D2E/DX2 analytically  !
 ! A55   A(20,19,26)           119.5592         calculate D2E/DX2 analytically  !
 ! A56   A(19,20,21)           121.7608         calculate D2E/DX2 analytically  !
 ! A57   A(19,20,25)           119.0882         calculate D2E/DX2 analytically  !
 ! A58   A(21,20,25)           119.151          calculate D2E/DX2 analytically  !
 ! A59   A(20,21,22)           118.7734         calculate D2E/DX2 analytically  !
 ! A60   A(20,21,24)           120.3134         calculate D2E/DX2 analytically  !
 ! A61   A(22,21,24)           120.9132         calculate D2E/DX2 analytically  !
 ! A62   A(2,22,21)            117.4102         calculate D2E/DX2 analytically  !
 ! A63   A(2,22,23)            106.3287         calculate D2E/DX2 analytically  !
 ! A64   A(21,22,23)           136.2611         calculate D2E/DX2 analytically  !
 ! A65   A(7,23,22)            109.5006         calculate D2E/DX2 analytically  !
 ! A66   A(7,23,36)            133.5183         calculate D2E/DX2 analytically  !
 ! A67   A(22,23,36)           116.9811         calculate D2E/DX2 analytically  !
 ! A68   A(23,36,37)           144.2125         calculate D2E/DX2 analytically  !
 ! A69   A(33,37,36)           110.961          calculate D2E/DX2 analytically  !
 ! D1    D(5,1,2,3)              0.0            calculate D2E/DX2 analytically  !
 ! D2    D(5,1,2,22)           180.0            calculate D2E/DX2 analytically  !
 ! D3    D(19,1,2,3)           180.0            calculate D2E/DX2 analytically  !
 ! D4    D(19,1,2,22)            0.0            calculate D2E/DX2 analytically  !
 ! D5    D(2,1,5,6)              0.0            calculate D2E/DX2 analytically  !
 ! D6    D(2,1,5,27)           180.0            calculate D2E/DX2 analytically  !
 ! D7    D(19,1,5,6)           180.0            calculate D2E/DX2 analytically  !
 ! D8    D(19,1,5,27)            0.0            calculate D2E/DX2 analytically  !
 ! D9    D(2,1,19,20)            0.0            calculate D2E/DX2 analytically  !
 ! D10   D(2,1,19,26)          180.0            calculate D2E/DX2 analytically  !
 ! D11   D(5,1,19,20)          180.0            calculate D2E/DX2 analytically  !
 ! D12   D(5,1,19,26)            0.0            calculate D2E/DX2 analytically  !
 ! D13   D(1,2,3,4)              0.0            calculate D2E/DX2 analytically  !
 ! D14   D(1,2,3,7)            180.0            calculate D2E/DX2 analytically  !
 ! D15   D(22,2,3,4)           180.0            calculate D2E/DX2 analytically  !
 ! D16   D(22,2,3,7)             0.0            calculate D2E/DX2 analytically  !
 ! D17   D(1,2,22,21)            0.0            calculate D2E/DX2 analytically  !
 ! D18   D(1,2,22,23)          180.0            calculate D2E/DX2 analytically  !
 ! D19   D(3,2,22,21)          180.0            calculate D2E/DX2 analytically  !
 ! D20   D(3,2,22,23)            0.0            calculate D2E/DX2 analytically  !
 ! D21   D(2,3,4,6)              0.0            calculate D2E/DX2 analytically  !
 ! D22   D(2,3,4,10)           180.0            calculate D2E/DX2 analytically  !
 ! D23   D(7,3,4,6)            180.0            calculate D2E/DX2 analytically  !
 ! D24   D(7,3,4,10)             0.0            calculate D2E/DX2 analytically  !
 ! D25   D(2,3,7,8)            180.0            calculate D2E/DX2 analytically  !
 ! D26   D(2,3,7,23)             0.0            calculate D2E/DX2 analytically  !
 ! D27   D(4,3,7,8)              0.0            calculate D2E/DX2 analytically  !
 ! D28   D(4,3,7,23)           180.0            calculate D2E/DX2 analytically  !
 ! D29   D(3,4,6,5)              0.0            calculate D2E/DX2 analytically  !
 ! D30   D(3,4,6,28)           180.0            calculate D2E/DX2 analytically  !
 ! D31   D(10,4,6,5)           180.0            calculate D2E/DX2 analytically  !
 ! D32   D(10,4,6,28)            0.0            calculate D2E/DX2 analytically  !
 ! D33   D(3,4,10,9)             0.0            calculate D2E/DX2 analytically  !
 ! D34   D(3,4,10,29)          180.0            calculate D2E/DX2 analytically  !
 ! D35   D(6,4,10,9)           180.0            calculate D2E/DX2 analytically  !
 ! D36   D(6,4,10,29)            0.0            calculate D2E/DX2 analytically  !
 ! D37   D(1,5,6,4)              0.0            calculate D2E/DX2 analytically  !
 ! D38   D(1,5,6,28)           180.0            calculate D2E/DX2 analytically  !
 ! D39   D(27,5,6,4)           180.0            calculate D2E/DX2 analytically  !
 ! D40   D(27,5,6,28)            0.0            calculate D2E/DX2 analytically  !
 ! D41   D(3,7,8,9)              0.0            calculate D2E/DX2 analytically  !
 ! D42   D(3,7,8,11)           180.0            calculate D2E/DX2 analytically  !
 ! D43   D(23,7,8,9)           180.0            calculate D2E/DX2 analytically  !
 ! D44   D(23,7,8,11)            0.0            calculate D2E/DX2 analytically  !
 ! D45   D(3,7,23,22)            0.0            calculate D2E/DX2 analytically  !
 ! D46   D(3,7,23,36)          180.0            calculate D2E/DX2 analytically  !
 ! D47   D(8,7,23,22)          180.0            calculate D2E/DX2 analytically  !
 ! D48   D(8,7,23,36)            0.0            calculate D2E/DX2 analytically  !
 ! D49   D(7,8,9,10)             0.0            calculate D2E/DX2 analytically  !
 ! D50   D(7,8,9,14)           180.0            calculate D2E/DX2 analytically  !
 ! D51   D(11,8,9,10)          180.0            calculate D2E/DX2 analytically  !
 ! D52   D(11,8,9,14)            0.0            calculate D2E/DX2 analytically  !
 ! D53   D(7,8,11,12)          180.0            calculate D2E/DX2 analytically  !
 ! D54   D(7,8,11,15)            0.0            calculate D2E/DX2 analytically  !
 ! D55   D(9,8,11,12)            0.0            calculate D2E/DX2 analytically  !
 ! D56   D(9,8,11,15)          180.0            calculate D2E/DX2 analytically  !
 ! D57   D(8,9,10,4)             0.0            calculate D2E/DX2 analytically  !
 ! D58   D(8,9,10,29)          180.0            calculate D2E/DX2 analytically  !
 ! D59   D(14,9,10,4)          180.0            calculate D2E/DX2 analytically  !
 ! D60   D(14,9,10,29)           0.0            calculate D2E/DX2 analytically  !
 ! D61   D(8,9,14,13)            0.0            calculate D2E/DX2 analytically  !
 ! D62   D(8,9,14,30)          180.0            calculate D2E/DX2 analytically  !
 ! D63   D(10,9,14,13)         180.0            calculate D2E/DX2 analytically  !
 ! D64   D(10,9,14,30)           0.0            calculate D2E/DX2 analytically  !
 ! D65   D(8,11,12,13)           0.0            calculate D2E/DX2 analytically  !
 ! D66   D(8,11,12,18)         180.0            calculate D2E/DX2 analytically  !
 ! D67   D(15,11,12,13)        180.0            calculate D2E/DX2 analytically  !
 ! D68   D(15,11,12,18)          0.0            calculate D2E/DX2 analytically  !
 ! D69   D(8,11,15,16)         180.0            calculate D2E/DX2 analytically  !
 ! D70   D(12,11,15,16)          0.0            calculate D2E/DX2 analytically  !
 ! D71   D(11,12,13,14)          0.0            calculate D2E/DX2 analytically  !
 ! D72   D(11,12,13,31)        180.0            calculate D2E/DX2 analytically  !
 ! D73   D(18,12,13,14)        180.0            calculate D2E/DX2 analytically  !
 ! D74   D(18,12,13,31)          0.0            calculate D2E/DX2 analytically  !
 ! D75   D(11,12,18,17)          0.0            calculate D2E/DX2 analytically  !
 ! D76   D(11,12,18,32)        180.0            calculate D2E/DX2 analytically  !
 ! D77   D(13,12,18,17)        180.0            calculate D2E/DX2 analytically  !
 ! D78   D(13,12,18,32)          0.0            calculate D2E/DX2 analytically  !
 ! D79   D(12,13,14,9)           0.0            calculate D2E/DX2 analytically  !
 ! D80   D(12,13,14,30)        180.0            calculate D2E/DX2 analytically  !
 ! D81   D(31,13,14,9)         180.0            calculate D2E/DX2 analytically  !
 ! D82   D(31,13,14,30)          0.0            calculate D2E/DX2 analytically  !
 ! D83   D(11,15,16,17)          0.0            calculate D2E/DX2 analytically  !
 ! D84   D(11,15,16,34)        180.0            calculate D2E/DX2 analytically  !
 ! D85   D(15,16,17,18)          0.0            calculate D2E/DX2 analytically  !
 ! D86   D(15,16,17,35)        180.0            calculate D2E/DX2 analytically  !
 ! D87   D(34,16,17,18)        180.0            calculate D2E/DX2 analytically  !
 ! D88   D(34,16,17,35)          0.0            calculate D2E/DX2 analytically  !
 ! D89   D(16,17,18,12)          0.0            calculate D2E/DX2 analytically  !
 ! D90   D(16,17,18,32)        180.0            calculate D2E/DX2 analytically  !
 ! D91   D(35,17,18,12)        180.0            calculate D2E/DX2 analytically  !
 ! D92   D(35,17,18,32)          0.0            calculate D2E/DX2 analytically  !
 ! D93   D(1,19,20,21)           0.0            calculate D2E/DX2 analytically  !
 ! D94   D(1,19,20,25)         180.0            calculate D2E/DX2 analytically  !
 ! D95   D(26,19,20,21)        180.0            calculate D2E/DX2 analytically  !
 ! D96   D(26,19,20,25)          0.0            calculate D2E/DX2 analytically  !
 ! D97   D(19,20,21,22)          0.0            calculate D2E/DX2 analytically  !
 ! D98   D(19,20,21,24)        180.0            calculate D2E/DX2 analytically  !
 ! D99   D(25,20,21,22)        180.0            calculate D2E/DX2 analytically  !
 ! D100  D(25,20,21,24)          0.0            calculate D2E/DX2 analytically  !
 ! D101  D(20,21,22,2)           0.0            calculate D2E/DX2 analytically  !
 ! D102  D(20,21,22,23)        180.0            calculate D2E/DX2 analytically  !
 ! D103  D(24,21,22,2)         180.0            calculate D2E/DX2 analytically  !
 ! D104  D(24,21,22,23)          0.0            calculate D2E/DX2 analytically  !
 ! D105  D(2,22,23,7)            0.0            calculate D2E/DX2 analytically  !
 ! D106  D(2,22,23,36)         180.0            calculate D2E/DX2 analytically  !
 ! D107  D(21,22,23,7)         180.0            calculate D2E/DX2 analytically  !
 ! D108  D(21,22,23,36)          0.0            calculate D2E/DX2 analytically  !
 ! D109  D(7,23,36,37)          -5.7859         calculate D2E/DX2 analytically  !
 ! D110  D(22,23,36,37)        174.2141         calculate D2E/DX2 analytically  !
 ! D111  D(23,36,37,33)         11.1609         calculate D2E/DX2 analytically  !
 --------------------------------------------------------------------------------
 Trust Radius=3.00D-01 FncErr=1.00D-07 GrdErr=1.00D-06 EigMax=2.50D+02 EigMin=1.00D-04
 Number of steps in this run=    222 maximum allowed number of steps=    222.
 Search for a saddle point of order  1.
 GradGradGradGradGradGradGradGradGradGradGradGradGradGradGradGradGradGrad

                          Input orientation:                          
 ---------------------------------------------------------------------
 Center     Atomic      Atomic             Coordinates (Angstroms)
 Number     Number       Type             X           Y           Z
 ---------------------------------------------------------------------
      1          6           0       -8.494490   -0.243610    0.000000
      2          6           0       -7.244690    0.495390    0.000000
      3          6           0       -5.948790   -0.121110    0.000000
      4          6           0       -5.782790   -1.555610    0.000000
      5          6           0       -8.358890   -1.709610    0.000000
      6          6           0       -7.024190   -2.354010    0.000000
      7          6           0       -4.898290    0.911190    0.000000
      8          6           0       -3.481190    0.467290    0.000000
      9          6           0       -3.260990   -1.065610    0.000000
     10          6           0       -4.405590   -2.011110    0.000000
     11          6           0       -2.264290    1.358190    0.000000
     12          6           0       -0.880790    0.728290    0.000000
     13          6           0       -0.750490   -0.720610    0.000000
     14          6           0       -1.897690   -1.585310    0.000000
     15          6           0       -2.300890    2.832990    0.000000
     16          6           0       -1.101490    3.650490    0.000000
     17          6           0        0.201510    3.032690    0.000000
     18          6           0        0.308410    1.591390    0.000000
     19          6           0       -9.703890    0.583590    0.000000
     20          6           0       -9.601390    2.054590    0.000000
     21          6           0       -8.298890    2.740590    0.000000
     22          6           0       -7.091490    1.942890    0.000000
     23          6           0       -5.639690    2.206390    0.000000
     24          1           0       -8.250990    3.820990    0.000000
     25          1           0      -10.509490    2.645990    0.000000
     26          1           0      -10.680390    0.116290    0.000000
     27          1           0       -9.245690   -2.330910    0.000000
     28          1           0       -6.964090   -3.435510    0.000000
     29          1           0       -4.208590   -3.076510    0.000000
     30          1           0       -1.735890   -2.657010    0.000000
     31          1           0        0.236810   -1.167410    0.000000
     32          1           0        1.294310    1.141990    0.000000
     33          1           0       -3.568250    3.557830    0.000000
     34          1           0       -1.187190    4.730190    0.000000
     35          1           0        1.094910    3.644090    0.000000
     36          1           0       -5.329030    3.242270    0.000000
     37          1           0       -4.328830    4.014120    0.074610
 ---------------------------------------------------------------------
                    Distance matrix (angstroms):
                    1          2          3          4          5
     1  C    0.000000
     2  C    1.451937   0.000000
     3  C    2.548646   1.435071   0.000000
     4  C    3.012418   2.518681   1.444073   0.000000
     5  C    1.472258   2.470520   2.886506   2.580699   0.000000
     6  C    2.572075   2.857919   2.478372   1.475980   1.482119
     7  C    3.777065   2.382957   1.472818   2.620581   4.341007
     8  C    5.063453   3.763605   2.536782   3.064227   5.341428
     9  C    5.297660   4.278620   2.848921   2.568964   5.138416
    10  C    4.454566   3.787219   2.439993   1.450572   3.964780
    11  C    6.432819   5.054583   3.970374   4.568377   6.823162
    12  C    7.675482   6.368160   5.138687   5.407939   7.865452
    13  C    7.758677   6.607064   5.232755   5.101105   7.672410
    14  C    6.731859   5.737571   4.307586   3.885214   6.462396
    15  C    6.915645   5.468595   4.694026   5.602092   7.571960
    16  C    8.355864   6.906053   6.141766   7.001289   9.022224
    17  C    9.292715   7.866625   6.911776   7.540845   9.786208
    18  C    8.992123   7.632204   6.487311   6.856116   9.274626
    19  C    1.465233   2.460781   3.820652   4.466677   2.658532
    20  C    2.550873   2.825799   4.251489   5.255021   3.963964
    21  C    2.990603   2.480375   3.703012   4.978764   4.450604
    22  C    2.597921   1.455585   2.359207   3.735264   3.866143
    23  C    3.761965   2.345964   2.347935   3.764721   4.767505
    24  H    4.071887   3.474515   4.565115   5.916066   5.531652
    25  H    3.522785   3.909476   5.334494   6.324171   4.857606
    26  H    2.215330   3.456552   4.737552   5.175107   2.953519
    27  H    2.218360   3.462943   3.968975   3.548629   1.082787
    28  H    3.539823   3.940902   3.466422   2.220246   2.219053
    29  H    5.137535   4.687896   3.429677   2.188891   4.369600
    30  H    7.176571   6.347007   4.917247   4.194101   6.690418
    31  H    8.780035   7.664055   6.273467   6.032104   8.612783
    32  H    9.886379   8.563446   7.352409   7.573796  10.065580
    33  H    6.222442   4.784846   4.381960   5.572383   7.120123
    34  H    8.839419   7.390997   6.797643   7.786580   9.638688
    35  H   10.347502   8.914216   7.986892   8.622044  10.864458
    36  H    4.708662   3.348896   3.420004   4.819289   5.805271
    37  H    5.957059   4.570478   4.441842   5.756862   7.000574
                    6          7          8          9         10
     6  C    0.000000
     7  C    3.896278   0.000000
     8  C    4.529082   1.484998   0.000000
     9  C    3.977644   2.566805   1.548635   0.000000
    10  C    2.640956   2.963544   2.645181   1.484614   0.000000
    11  C    6.036313   2.671660   1.508161   2.620728   3.992161
    12  C    6.873277   4.021661   2.613465   2.980508   4.464138
    13  C    6.482847   4.457243   2.977890   2.534095   3.876228
    14  C    5.183812   3.903346   2.592420   1.458998   2.543790
    15  C    7.015307   3.231068   2.643794   4.015081   5.281578
    16  C    8.434002   4.681822   3.974385   5.187007   6.555211
    17  C    9.012618   5.523470   4.488157   5.365163   6.831200
    18  C    8.326656   5.250942   3.952805   4.449749   5.932942
    19  C    3.976215   4.816753   6.223787   6.650626   5.899530
    20  C    5.106634   4.840094   6.322687   7.066564   6.597443
    21  C    5.251648   3.861449   5.327112   6.314079   6.142999
    22  C    4.297427   2.423743   3.900213   4.870709   4.779976
    23  C    4.765930   1.492386   2.771929   4.045269   4.394350
    24  H    6.295686   4.439317   5.830806   6.984194   6.985735
    25  H    6.094860   5.873253   7.358243   8.143508   7.677641
    26  H    4.412503   5.836484   7.207751   7.512948   6.625628
    27  H    2.221620   5.423200   6.407760   6.116994   4.850654
    28  H    1.083169   4.812622   5.230912   4.396519   2.928282
    29  H    2.906821   4.046905   3.617683   2.222986   1.083460
    30  H    5.296973   4.767895   3.578732   2.204197   2.746723
    31  H    7.357319   5.539840   4.061498   3.499281   4.718443
    32  H    9.023273   6.196899   4.822927   5.062041   6.513900
    33  H    6.847874   2.962045   3.091766   4.633639   5.631539
    34  H    9.179132   5.325131   4.840945   6.155643   7.470156
    35  H   10.094404   6.586895   5.570705   6.415227   7.889030
    36  H    5.847386   2.370542   3.333921   4.778558   5.333924
    37  H    6.915462   3.155634   3.647474   5.191291   6.026181
                   11         12         13         14         15
    11  C    0.000000
    12  C    1.520147   0.000000
    13  C    2.571575   1.454747   0.000000
    14  C    2.966241   2.527218   1.436584   0.000000
    15  C    1.475254   2.538985   3.877088   4.436659   0.000000
    16  C    2.570359   2.930522   4.385170   5.295992   1.451505
    17  C    2.980624   2.545905   3.872152   5.072728   2.510356
    18  C    2.583247   1.469401   2.542954   3.867596   2.889640
    19  C    7.479816   8.824286   9.047890   8.101906   7.737196
    20  C    7.370075   8.820881   9.275784   8.520321   7.341880
    21  C    6.190915   7.686193   8.304110   7.725851   5.998712
    22  C    4.862482   6.328353   6.877682   6.278834   4.872589
    23  C    3.480340   4.983163   5.698386   5.327246   3.397089
    24  H    6.473481   7.992787   8.768331   8.342212   6.031570
    25  H    8.345163   9.817812  10.323375   9.595155   8.210730
    26  H    8.507235   9.818692   9.965105   8.946019   8.808886
    27  H    7.896164   8.906753   8.646473   7.385731   8.654254
    28  H    6.713247   7.371823   6.780819   5.393667   7.812780
    29  H    4.842196   5.054776   4.184342   2.750261   6.209791
    30  H    4.049819   3.491626   2.172708   1.083845   5.518997
    31  H    3.554456   2.200615   1.083693   2.175024   4.737417
    32  H    3.565161   2.214093   2.765951   4.198456   3.973027
    33  H    2.557094   3.902402   5.122970   5.407648   1.459998
    34  H    3.539849   4.013612   5.468265   6.355340   2.199931
    35  H    4.063196   3.522113   4.738788   6.025137   3.491324
    36  H    3.597553   5.109495   6.055365   5.922805   3.055674
    37  H    3.364797   4.763531   5.935297   6.104885   2.348015
                   16         17         18         19         20
    16  C    0.000000
    17  C    1.442042   0.000000
    18  C    2.495538   1.445259   0.000000
    19  C    9.132752  10.203678  10.062893   0.000000
    20  C    8.648422   9.851575   9.920619   1.474567   0.000000
    21  C    7.254687   8.505417   8.683679   2.574233   1.472108
    22  C    6.228643   7.373975   7.408244   2.944882   2.512384
    23  C    4.762424   5.899355   5.979809   4.376209   3.964607
    24  H    7.151533   8.489180   8.845024   3.548475   2.223454
    25  H    9.461474  10.717978  10.869183   2.214156   1.083697
    26  H   10.210088  11.265928  11.087364   1.082553   2.218389
    27  H   10.104709  10.863599  10.327888   2.950298   4.399901
    28  H    9.196819   9.653157   8.840757   4.864121   6.090694
    29  H    7.409899   7.534674   6.495582   6.602625   7.443822
    30  H    6.339323   6.010508   4.714665   8.601774   9.168711
    31  H    5.000321   4.200248   2.759729  10.093737  10.352365
    32  H    3.468779   2.183794   1.083494  11.012366  10.933852
    33  H    2.468500   3.806161   4.346882   6.818518   6.217597
    34  H    1.083096   2.193170   3.476907   9.472511   8.829360
    35  H    2.196409   1.082577   2.198217  11.224114  10.813757
    36  H    4.247204   5.534510   5.874192   5.119373   4.434371
    37  H    3.248618   4.636028   5.232512   6.376941   5.625408
                   21         22         23         24         25
    21  C    0.000000
    22  C    1.447114   0.000000
    23  C    2.712326   1.475519   0.000000
    24  H    1.081461   2.207193   3.070150   0.000000
    25  H    2.212623   3.489566   4.889601   2.545869   0.000000
    26  H    3.543796   4.026993   5.456847   4.430213   2.535466
    27  H    5.159122   4.786015   5.795716   6.231798   5.134854
    28  H    6.318695   5.379909   5.795263   7.369729   7.039496
    29  H    7.111203   5.788393   5.473306   7.994780   8.511659
    30  H    8.497473   7.059853   6.236370   9.187547  10.251725
    31  H    9.387792   7.961027   6.776118   9.845145  11.402850
    32  H    9.725482   8.423959   7.015219   9.914121  11.899232
    33  H    4.800712   3.875726   2.473308   4.690129   7.000876
    34  H    7.384767   6.529150   5.118039   7.122072   9.552443
    35  H    9.437150   8.361293   6.886350   9.347574  11.647244
    36  H    3.011935   2.189670   1.081461   2.978719   5.214664
    37  H    4.169991   3.453672   2.234236   3.927621   6.330711
                   26         27         28         29         30
    26  H    0.000000
    27  H    2.836750   0.000000
    28  H    5.140639   2.534924   0.000000
    29  H    7.216520   5.091983   2.778788   0.000000
    30  H    9.364575   7.516877   5.285843   2.508032   0.000000
    31  H   10.992413   9.553614   7.549652   4.838000   2.471933
    32  H   12.018548  11.097416   9.442175   6.933805   4.859477
    33  H    7.901059   8.179889   7.774222   6.665171   6.479335
    34  H   10.555042  10.714409  10.002561   8.370987   7.407550
    35  H   12.292399  11.942723  10.726985   8.561167   6.907770
    36  H    6.197484   6.811796   6.875039   6.417349   6.907399
    37  H    7.452581   8.027483   7.902351   7.092042   7.157715
                   31         32         33         34         35
    31  H    0.000000
    32  H    2.540007   0.000000
    33  H    6.066826   5.429620   0.000000
    34  H    6.067080   4.362685   2.654030   0.000000
    35  H    4.887419   2.510033   4.663958   2.527369   0.000000
    36  H    7.100975   6.948367   1.788833   4.400994   6.436495
    37  H    6.906438   6.314618   0.890084   3.223077   5.436860
                   36         37
    36  H    0.000000
    37  H    1.265590   0.000000
 Stoichiometry    C23H14(3)
 Framework group  C1[X(C23H14)]
 Deg. of freedom   105
 Full point group                 C1      NOp   1
 Largest Abelian subgroup         C1      NOp   1
 Largest concise Abelian subgroup C1      NOp   1
                         Standard orientation:                         
 ---------------------------------------------------------------------
 Center     Atomic      Atomic             Coordinates (Angstroms)
 Number     Number       Type             X           Y           Z
 ---------------------------------------------------------------------
      1          6           0        3.902606    0.285501   -0.000200
      2          6           0        2.557254   -0.260529   -0.000516
      3          6           0        1.366784    0.540852   -0.000176
      4          6           0        1.414769    1.984127    0.000523
      5          6           0        3.985315    1.755434    0.000514
      6          6           0        2.760599    2.590146    0.000869
      7          6           0        0.175162   -0.324729   -0.000641
      8          6           0       -1.160702    0.323876   -0.000380
      9          6           0       -1.151768    1.872485    0.000368
     10          6           0        0.120082    2.638303    0.000788
     11          6           0       -2.495981   -0.377250   -0.000771
     12          6           0       -3.771106    0.450340   -0.000422
     13          6           0       -3.685684    1.902576    0.000283
     14          6           0       -2.423212    2.588099    0.000664
     15          6           0       -2.677904   -1.841244   -0.001486
     16          6           0       -3.985020   -2.472365   -0.001842
     17          6           0       -5.182319   -1.668648   -0.001501
     18          6           0       -5.074878   -0.227388   -0.000800
     19          6           0        4.976364   -0.711469   -0.000639
     20          6           0        4.657434   -2.151133   -0.001347
     21          6           0        3.267800   -2.636951   -0.001636
     22          6           0        2.191656   -1.669452   -0.001211
     23          6           0        0.716851   -1.715336   -0.001291
     24          1           0        3.060638   -3.698385   -0.002157
     25          1           0        5.468080   -2.870335   -0.001662
     26          1           0        6.011238   -0.393731   -0.000445
     27          1           0        4.954252    2.238745    0.000785
     28          1           0        2.861111    3.668641    0.001394
     29          1           0        0.082819    3.721122    0.001310
     30          1           0       -2.424731    3.671942    0.001188
     31          1           0       -4.596045    2.490482    0.000532
     32          1           0       -5.983471    0.362882   -0.000551
     33          1           0       -1.531684   -2.745552   -0.001877
     34          1           0       -4.059948   -3.552865   -0.002367
     35          1           0       -6.156319   -2.141192   -0.001767
     36          1           0        0.256403   -2.693878   -0.001782
     37          1           0       -0.846955   -3.309348    0.072487
 ---------------------------------------------------------------------
 Rotational constants (GHZ):           0.5578379           0.1690892           0.1297580
 Standard basis: 6-311+G(d,p) (5D, 7F)
 There are   613 symmetry adapted cartesian basis functions of A   symmetry.
 There are   590 symmetry adapted basis functions of A   symmetry.
   590 basis functions,   940 primitive gaussians,   613 cartesian basis functions
    77 alpha electrons       75 beta electrons
       nuclear repulsion energy      1621.0739598512 Hartrees.
 NAtoms=   37 NActive=   37 NUniq=   37 SFac= 1.00D+00 NAtFMM=   60 NAOKFM=F Big=F
 Integral buffers will be    131072 words long.
 Raffenetti 2 integral format.
 Two-electron integral symmetry is turned on.
 One-electron integrals computed using PRISM.
 NBasis=   590 RedAO= T EigKep=  1.16D-06  NBF=   590
 NBsUse=   577 1.00D-06 EigRej=  7.51D-07 NBFU=   577
 ExpMin= 4.38D-02 ExpMax= 4.56D+03 ExpMxC= 6.82D+02 IAcc=2 IRadAn=         4 AccDes= 0.00D+00
 Harris functional with IExCor=  402 and IRadAn=       4 diagonalized for initial guess.
 HarFok:  IExCor=  402 AccDes= 0.00D+00 IRadAn=         4 IDoV= 1 UseB2=F ITyADJ=14
 ICtDFT=  3500011 ScaDFX=  1.000000  1.000000  1.000000  1.000000
 FoFCou: FMM=F IPFlag=           0 FMFlag=      100000 FMFlg1=           0
         NFxFlg=           0 DoJE=T BraDBF=F KetDBF=T FulRan=T
         wScrn=  0.000000 ICntrl=       500 IOpCl=  0 I1Cent=   200000004 NGrid=           0
         NMat0=    1 NMatS0=      1 NMatT0=    0 NMatD0=    1 NMtDS0=    0 NMtDT0=    0
 Petite list used in FoFCou.
 Initial guess <Sx>= 0.0000 <Sy>= 0.0000 <Sz>= 1.0000 <S**2>= 2.0000 S= 1.0000
 Requested convergence on RMS density matrix=1.00D-08 within  32 cycles.
 Requested convergence on MAX density matrix=1.00D-06.
 Requested convergence on             energy=1.00D-06.
 No special actions if energy rises.
 Restarting incremental Fock formation.
 SCF Done:  E(UB3LYP) =  -884.873032936     A.U. after   25 cycles
            NFock= 25  Conv=0.62D-08     -V/T= 2.0081
 <Sx>= 0.0000 <Sy>= 0.0000 <Sz>= 1.0000 <S**2>= 2.0769 S= 1.0254
 <L.S>=  0.00000000000    
 Annihilation of the first spin contaminant:
 S**2 before annihilation     2.0769,   after     2.0037
 QCSCF skips out because SCF is already converged.
 DoSCS=F DFT=T ScalE2(SS,OS)=  1.000000  1.000000
 Range of M.O.s used for correlation:     1   577
 NBasis=   590 NAE=    77 NBE=    75 NFC=     0 NFV=     0
 NROrb=    577 NOA=    77 NOB=    75 NVA=   500 NVB=   502

 **** Warning!!: The largest alpha MO coefficient is  0.14463608D+03


 **** Warning!!: The largest beta MO coefficient is  0.15229501D+03


 **** Warning!!: The smallest beta delta epsilon is  0.79251208D-01

 Symmetrizing basis deriv contribution to polar:
 IMax=3 JMax=2 DiffMx= 0.00D+00
 G2DrvN: will do    38 centers at a time, making    1 passes.
 Calling FoFCou, ICntrl=  3107 FMM=F I1Cent=   0 AccDes= 0.00D+00.
 End of G2Drv F.D. properties file   721 does not exist.
 End of G2Drv F.D. properties file   722 does not exist.
 End of G2Drv F.D. properties file   788 does not exist.
          IDoAtm=1111111111111111111111111111111111111
          Differentiating once with respect to nuclear coordinates.
 CalDSu exits because no D1Ps are significant.
          There are   114 degrees of freedom in the 1st order CPHF.  IDoFFX=6 NUNeed=     0.
    108 vectors produced by pass  0 Test12= 7.62D-14 1.00D-09 XBig12= 5.49D-01 2.41D-01.
 AX will form   108 AO Fock derivatives at one time.
    108 vectors produced by pass  1 Test12= 7.62D-14 1.00D-09 XBig12= 2.12D-01 7.39D-02.
    108 vectors produced by pass  2 Test12= 7.62D-14 1.00D-09 XBig12= 3.49D-03 1.26D-02.
    108 vectors produced by pass  3 Test12= 7.62D-14 1.00D-09 XBig12= 6.72D-05 1.34D-03.
    108 vectors produced by pass  4 Test12= 7.62D-14 1.00D-09 XBig12= 6.96D-07 9.25D-05.
    108 vectors produced by pass  5 Test12= 7.62D-14 1.00D-09 XBig12= 4.67D-09 6.53D-06.
    108 vectors produced by pass  6 Test12= 7.62D-14 1.00D-09 XBig12= 7.79D-11 8.01D-07.
    100 vectors produced by pass  7 Test12= 7.62D-14 1.00D-09 XBig12= 2.25D-11 3.34D-07.
     70 vectors produced by pass  8 Test12= 7.62D-14 1.00D-09 XBig12= 3.18D-12 1.17D-07.
     29 vectors produced by pass  9 Test12= 7.62D-14 1.00D-09 XBig12= 4.25D-14 1.14D-08.
      3 vectors produced by pass 10 Test12= 7.62D-14 1.00D-09 XBig12= 2.86D-16 1.30D-09.
      2 vectors produced by pass 11 Test12= 7.62D-14 1.00D-09 XBig12= 6.36D-16 1.50D-09.
      2 vectors produced by pass 12 Test12= 7.62D-14 1.00D-09 XBig12= 5.31D-16 1.55D-09.
      2 vectors produced by pass 13 Test12= 7.62D-14 1.00D-09 XBig12= 8.76D-16 2.18D-09.
      2 vectors produced by pass 14 Test12= 7.62D-14 1.00D-09 XBig12= 5.60D-16 1.94D-09.
      2 vectors produced by pass 15 Test12= 7.62D-14 1.00D-09 XBig12= 5.71D-16 1.56D-09.
      2 vectors produced by pass 16 Test12= 7.62D-14 1.00D-09 XBig12= 6.18D-16 1.59D-09.
      2 vectors produced by pass 17 Test12= 7.62D-14 1.00D-09 XBig12= 6.76D-16 1.65D-09.
      2 vectors produced by pass 18 Test12= 7.62D-14 1.00D-09 XBig12= 8.96D-16 2.06D-09.
      2 vectors produced by pass 19 Test12= 7.62D-14 1.00D-09 XBig12= 4.81D-16 1.54D-09.
      2 vectors produced by pass 20 Test12= 7.62D-14 1.00D-09 XBig12= 5.67D-16 1.58D-09.
      1 vectors produced by pass 21 Test12= 7.62D-14 1.00D-09 XBig12= 5.20D-16 1.60D-09.
 InvSVY:  IOpt=1 It=  1 EMax= 1.22D-15
 Solved reduced A of dimension   979 with   114 vectors.
 End of Minotr F.D. properties file   721 does not exist.
 End of Minotr F.D. properties file   722 does not exist.
 End of Minotr F.D. properties file   788 does not exist.

 **********************************************************************

            Population analysis using the SCF Density.

 **********************************************************************

 Orbital symmetries:
 Alpha Orbitals:
       Occupied  (A) (A) (A) (A) (A) (A) (A) (A) (A) (A) (A) (A)
                 (A) (A) (A) (A) (A) (A) (A) (A) (A) (A) (A) (A)
                 (A) (A) (A) (A) (A) (A) (A) (A) (A) (A) (A) (A)
                 (A) (A) (A) (A) (A) (A) (A) (A) (A) (A) (A) (A)
                 (A) (A) (A) (A) (A) (A) (A) (A) (A) (A) (A) (A)
                 (A) (A) (A) (A) (A) (A) (A) (A) (A) (A) (A) (A)
                 (A) (A) (A) (A) (A)
       Virtual   (A) (A) (A) (A) (A) (A) (A) (A) (A) (A) (A) (A)
                 (A) (A) (A) (A) (A) (A) (A) (A) (A) (A) (A) (A)
                 (A) (A) (A) (A) (A) (A) (A) (A) (A) (A) (A) (A)
                 (A) (A) (A) (A) (A) (A) (A) (A) (A) (A) (A) (A)
                 (A) (A) (A) (A) (A) (A) (A) (A) (A) (A) (A) (A)
                 (A) (A) (A) (A) (A) (A) (A) (A) (A) (A) (A) (A)
                 (A) (A) (A) (A) (A) (A) (A) (A) (A) (A) (A) (A)
                 (A) (A) (A) (A) (A) (A) (A) (A) (A) (A) (A) (A)
                 (A) (A) (A) (A) (A) (A) (A) (A) (A) (A) (A) (A)
                 (A) (A) (A) (A) (A) (A) (A) (A) (A) (A) (A) (A)
                 (A) (A) (A) (A) (A) (A) (A) (A) (A) (A) (A) (A)
                 (A) (A) (A) (A) (A) (A) (A) (A) (A) (A) (A) (A)
                 (A) (A) (A) (A) (A) (A) (A) (A) (A) (A) (A) (A)
                 (A) (A) (A) (A) (A) (A) (A) (A) (A) (A) (A) (A)
                 (A) (A) (A) (A) (A) (A) (A) (A) (A) (A) (A) (A)
                 (A) (A) (A) (A) (A) (A) (A) (A) (A) (A) (A) (A)
                 (A) (A) (A) (A) (A) (A) (A) (A) (A) (A) (A) (A)
                 (A) (A) (A) (A) (A) (A) (A) (A) (A) (A) (A) (A)
                 (A) (A) (A) (A) (A) (A) (A) (A) (A) (A) (A) (A)
                 (A) (A) (A) (A) (A) (A) (A) (A) (A) (A) (A) (A)
                 (A) (A) (A) (A) (A) (A) (A) (A) (A) (A) (A) (A)
                 (A) (A) (A) (A) (A) (A) (A) (A) (A) (A) (A) (A)
                 (A) (A) (A) (A) (A) (A) (A) (A) (A) (A) (A) (A)
                 (A) (A) (A) (A) (A) (A) (A) (A) (A) (A) (A) (A)
                 (A) (A) (A) (A) (A) (A) (A) (A) (A) (A) (A) (A)
                 (A) (A) (A) (A) (A) (A) (A) (A) (A) (A) (A) (A)
                 (A) (A) (A) (A) (A) (A) (A) (A) (A) (A) (A) (A)
                 (A) (A) (A) (A) (A) (A) (A) (A) (A) (A) (A) (A)
                 (A) (A) (A) (A) (A) (A) (A) (A) (A) (A) (A) (A)
                 (A) (A) (A) (A) (A) (A) (A) (A) (A) (A) (A) (A)
                 (A) (A) (A) (A) (A) (A) (A) (A) (A) (A) (A) (A)
                 (A) (A) (A) (A) (A) (A) (A) (A) (A) (A) (A) (A)
                 (A) (A) (A) (A) (A) (A) (A) (A) (A) (A) (A) (A)
                 (A) (A) (A) (A) (A) (A) (A) (A) (A) (A) (A) (A)
                 (A) (A) (A) (A) (A) (A) (A) (A) (A) (A) (A) (A)
                 (A) (A) (A) (A) (A) (A) (A) (A) (A) (A) (A) (A)
                 (A) (A) (A) (A) (A) (A) (A) (A) (A) (A) (A) (A)
                 (A) (A) (A) (A) (A) (A) (A) (A) (A) (A) (A) (A)
                 (A) (A) (A) (A) (A) (A) (A) (A) (A) (A) (A) (A)
                 (A) (A) (A) (A) (A) (A) (A) (A) (A) (A) (A) (A)
                 (A) (A) (A) (A) (A) (A) (A) (A) (A) (A) (A) (A)
                 (A) (A) (A) (A) (A) (A) (A) (A)
 Beta  Orbitals:
       Occupied  (A) (A) (A) (A) (A) (A) (A) (A) (A) (A) (A) (A)
                 (A) (A) (A) (A) (A) (A) (A) (A) (A) (A) (A) (A)
                 (A) (A) (A) (A) (A) (A) (A) (A) (A) (A) (A) (A)
                 (A) (A) (A) (A) (A) (A) (A) (A) (A) (A) (A) (A)
                 (A) (A) (A) (A) (A) (A) (A) (A) (A) (A) (A) (A)
                 (A) (A) (A) (A) (A) (A) (A) (A) (A) (A) (A) (A)
                 (A) (A) (A)
       Virtual   (A) (A) (A) (A) (A) (A) (A) (A) (A) (A) (A) (A)
                 (A) (A) (A) (A) (A) (A) (A) (A) (A) (A) (A) (A)
                 (A) (A) (A) (A) (A) (A) (A) (A) (A) (A) (A) (A)
                 (A) (A) (A) (A) (A) (A) (A) (A) (A) (A) (A) (A)
                 (A) (A) (A) (A) (A) (A) (A) (A) (A) (A) (A) (A)
                 (A) (A) (A) (A) (A) (A) (A) (A) (A) (A) (A) (A)
                 (A) (A) (A) (A) (A) (A) (A) (A) (A) (A) (A) (A)
                 (A) (A) (A) (A) (A) (A) (A) (A) (A) (A) (A) (A)
                 (A) (A) (A) (A) (A) (A) (A) (A) (A) (A) (A) (A)
                 (A) (A) (A) (A) (A) (A) (A) (A) (A) (A) (A) (A)
                 (A) (A) (A) (A) (A) (A) (A) (A) (A) (A) (A) (A)
                 (A) (A) (A) (A) (A) (A) (A) (A) (A) (A) (A) (A)
                 (A) (A) (A) (A) (A) (A) (A) (A) (A) (A) (A) (A)
                 (A) (A) (A) (A) (A) (A) (A) (A) (A) (A) (A) (A)
                 (A) (A) (A) (A) (A) (A) (A) (A) (A) (A) (A) (A)
                 (A) (A) (A) (A) (A) (A) (A) (A) (A) (A) (A) (A)
                 (A) (A) (A) (A) (A) (A) (A) (A) (A) (A) (A) (A)
                 (A) (A) (A) (A) (A) (A) (A) (A) (A) (A) (A) (A)
                 (A) (A) (A) (A) (A) (A) (A) (A) (A) (A) (A) (A)
                 (A) (A) (A) (A) (A) (A) (A) (A) (A) (A) (A) (A)
                 (A) (A) (A) (A) (A) (A) (A) (A) (A) (A) (A) (A)
                 (A) (A) (A) (A) (A) (A) (A) (A) (A) (A) (A) (A)
                 (A) (A) (A) (A) (A) (A) (A) (A) (A) (A) (A) (A)
                 (A) (A) (A) (A) (A) (A) (A) (A) (A) (A) (A) (A)
                 (A) (A) (A) (A) (A) (A) (A) (A) (A) (A) (A) (A)
                 (A) (A) (A) (A) (A) (A) (A) (A) (A) (A) (A) (A)
                 (A) (A) (A) (A) (A) (A) (A) (A) (A) (A) (A) (A)
                 (A) (A) (A) (A) (A) (A) (A) (A) (A) (A) (A) (A)
                 (A) (A) (A) (A) (A) (A) (A) (A) (A) (A) (A) (A)
                 (A) (A) (A) (A) (A) (A) (A) (A) (A) (A) (A) (A)
                 (A) (A) (A) (A) (A) (A) (A) (A) (A) (A) (A) (A)
                 (A) (A) (A) (A) (A) (A) (A) (A) (A) (A) (A) (A)
                 (A) (A) (A) (A) (A) (A) (A) (A) (A) (A) (A) (A)
                 (A) (A) (A) (A) (A) (A) (A) (A) (A) (A) (A) (A)
                 (A) (A) (A) (A) (A) (A) (A) (A) (A) (A) (A) (A)
                 (A) (A) (A) (A) (A) (A) (A) (A) (A) (A) (A) (A)
                 (A) (A) (A) (A) (A) (A) (A) (A) (A) (A) (A) (A)
                 (A) (A) (A) (A) (A) (A) (A) (A) (A) (A) (A) (A)
                 (A) (A) (A) (A) (A) (A) (A) (A) (A) (A) (A) (A)
                 (A) (A) (A) (A) (A) (A) (A) (A) (A) (A) (A) (A)
                 (A) (A) (A) (A) (A) (A) (A) (A) (A) (A) (A) (A)
                 (A) (A) (A) (A) (A) (A) (A) (A) (A) (A)
 The electronic state is 3-A.
 Alpha  occ. eigenvalues --  -10.23400 -10.22686 -10.22538 -10.22224 -10.22070
 Alpha  occ. eigenvalues --  -10.21225 -10.21192 -10.21147 -10.21058 -10.20952
 Alpha  occ. eigenvalues --  -10.20916 -10.20825 -10.20747 -10.20608 -10.20375
 Alpha  occ. eigenvalues --  -10.20338 -10.20280 -10.20268 -10.20146 -10.19912
 Alpha  occ. eigenvalues --  -10.19776 -10.19411 -10.18677  -0.89020  -0.86050
 Alpha  occ. eigenvalues --   -0.83407  -0.81967  -0.80934  -0.77769  -0.77097
 Alpha  occ. eigenvalues --   -0.74571  -0.73697  -0.72002  -0.70397  -0.69479
 Alpha  occ. eigenvalues --   -0.64393  -0.63730  -0.61681  -0.60182  -0.59504
 Alpha  occ. eigenvalues --   -0.58869  -0.56448  -0.53090  -0.52325  -0.51159
 Alpha  occ. eigenvalues --   -0.50738  -0.49054  -0.47902  -0.46737  -0.46367
 Alpha  occ. eigenvalues --   -0.44541  -0.44183  -0.43086  -0.42306  -0.41916
 Alpha  occ. eigenvalues --   -0.41517  -0.41351  -0.40860  -0.39922  -0.39288
 Alpha  occ. eigenvalues --   -0.38588  -0.37780  -0.35740  -0.35683  -0.35593
 Alpha  occ. eigenvalues --   -0.34075  -0.33872  -0.33701  -0.32542  -0.29455
 Alpha  occ. eigenvalues --   -0.29012  -0.25705  -0.24899  -0.23940  -0.23609
 Alpha  occ. eigenvalues --   -0.21040  -0.19633
 Alpha virt. eigenvalues --   -0.08587  -0.07310  -0.03762  -0.02534  -0.00934
 Alpha virt. eigenvalues --    0.00168   0.00531   0.00947   0.00969   0.01553
 Alpha virt. eigenvalues --    0.02000   0.02104   0.02897   0.03137   0.03739
 Alpha virt. eigenvalues --    0.04382   0.04590   0.04767   0.04954   0.05635
 Alpha virt. eigenvalues --    0.05918   0.06752   0.06967   0.07346   0.07524
 Alpha virt. eigenvalues --    0.08001   0.08176   0.08918   0.09115   0.09267
 Alpha virt. eigenvalues --    0.09592   0.10128   0.10306   0.10400   0.11818
 Alpha virt. eigenvalues --    0.12341   0.12557   0.12681   0.13014   0.13148
 Alpha virt. eigenvalues --    0.13201   0.13468   0.14030   0.14323   0.14646
 Alpha virt. eigenvalues --    0.15109   0.15689   0.15774   0.15795   0.16172
 Alpha virt. eigenvalues --    0.16319   0.16344   0.16633   0.16770   0.17264
 Alpha virt. eigenvalues --    0.17501   0.17650   0.17913   0.18254   0.18311
 Alpha virt. eigenvalues --    0.18482   0.18735   0.19197   0.19362   0.19392
 Alpha virt. eigenvalues --    0.20069   0.20329   0.20375   0.20729   0.21229
 Alpha virt. eigenvalues --    0.21331   0.21454   0.21743   0.22344   0.22370
 Alpha virt. eigenvalues --    0.22738   0.22889   0.23044   0.23281   0.23332
 Alpha virt. eigenvalues --    0.23753   0.24285   0.24427   0.24772   0.25124
 Alpha virt. eigenvalues --    0.25439   0.25681   0.26064   0.26408   0.26927
 Alpha virt. eigenvalues --    0.27448   0.27504   0.27922   0.28234   0.28379
 Alpha virt. eigenvalues --    0.28536   0.28843   0.29590   0.29802   0.29905
 Alpha virt. eigenvalues --    0.30257   0.30936   0.31487   0.31945   0.32377
 Alpha virt. eigenvalues --    0.32754   0.33957   0.34695   0.34850   0.35796
 Alpha virt. eigenvalues --    0.36212   0.36662   0.37473   0.38719   0.38963
 Alpha virt. eigenvalues --    0.39485   0.40018   0.41058   0.41937   0.42544
 Alpha virt. eigenvalues --    0.42858   0.43293   0.44112   0.44505   0.45090
 Alpha virt. eigenvalues --    0.45746   0.46802   0.48516   0.48859   0.49485
 Alpha virt. eigenvalues --    0.50543   0.50906   0.51594   0.52020   0.52090
 Alpha virt. eigenvalues --    0.53341   0.53568   0.54042   0.54247   0.54309
 Alpha virt. eigenvalues --    0.54880   0.55131   0.55457   0.56130   0.56802
 Alpha virt. eigenvalues --    0.57014   0.57332   0.57538   0.58273   0.58412
 Alpha virt. eigenvalues --    0.58646   0.59378   0.60497   0.60778   0.60952
 Alpha virt. eigenvalues --    0.61678   0.62394   0.62910   0.63250   0.63351
 Alpha virt. eigenvalues --    0.63992   0.64132   0.64859   0.65240   0.65682
 Alpha virt. eigenvalues --    0.66245   0.66731   0.67202   0.67747   0.68480
 Alpha virt. eigenvalues --    0.68579   0.68932   0.68970   0.69080   0.69285
 Alpha virt. eigenvalues --    0.70153   0.70388   0.71934   0.72351   0.72699
 Alpha virt. eigenvalues --    0.73685   0.74288   0.74436   0.76219   0.76827
 Alpha virt. eigenvalues --    0.77334   0.78895   0.80470   0.80928   0.81814
 Alpha virt. eigenvalues --    0.82137   0.82255   0.83415   0.84263   0.85311
 Alpha virt. eigenvalues --    0.86368   0.88011   0.88489   0.88833   0.89995
 Alpha virt. eigenvalues --    0.90461   0.90613   0.91316   0.91823   0.92095
 Alpha virt. eigenvalues --    0.92200   0.93376   0.93952   0.94670   0.94716
 Alpha virt. eigenvalues --    0.94878   0.95620   0.96520   0.96800   0.97084
 Alpha virt. eigenvalues --    0.97575   0.97858   0.99076   0.99724   1.00158
 Alpha virt. eigenvalues --    1.00468   1.01141   1.01561   1.01978   1.03024
 Alpha virt. eigenvalues --    1.03463   1.04201   1.04345   1.05398   1.05711
 Alpha virt. eigenvalues --    1.05887   1.06327   1.07600   1.08207   1.08295
 Alpha virt. eigenvalues --    1.09827   1.10505   1.11220   1.11710   1.12176
 Alpha virt. eigenvalues --    1.12600   1.13250   1.13708   1.14552   1.16026
 Alpha virt. eigenvalues --    1.18379   1.22134   1.23906   1.24247   1.27329
 Alpha virt. eigenvalues --    1.28283   1.30765   1.32319   1.33650   1.36509
 Alpha virt. eigenvalues --    1.37741   1.38116   1.40737   1.42022   1.42588
 Alpha virt. eigenvalues --    1.44258   1.44345   1.44800   1.45665   1.45773
 Alpha virt. eigenvalues --    1.45826   1.46478   1.46649   1.47488   1.48261
 Alpha virt. eigenvalues --    1.48365   1.50009   1.50552   1.51027   1.52128
 Alpha virt. eigenvalues --    1.52235   1.53196   1.53437   1.54287   1.55246
 Alpha virt. eigenvalues --    1.56792   1.57433   1.58752   1.59586   1.60009
 Alpha virt. eigenvalues --    1.61565   1.63481   1.64538   1.65088   1.65271
 Alpha virt. eigenvalues --    1.67452   1.69240   1.69623   1.70294   1.72059
 Alpha virt. eigenvalues --    1.72818   1.72939   1.73341   1.73693   1.74621
 Alpha virt. eigenvalues --    1.75792   1.76577   1.77847   1.78828   1.79079
 Alpha virt. eigenvalues --    1.79523   1.80155   1.81714   1.82023   1.83920
 Alpha virt. eigenvalues --    1.84362   1.84588   1.84802   1.85408   1.86072
 Alpha virt. eigenvalues --    1.87543   1.87735   1.87880   1.88525   1.89683
 Alpha virt. eigenvalues --    1.90426   1.91333   1.92073   1.92938   1.93911
 Alpha virt. eigenvalues --    1.94414   1.95585   1.96747   1.98481   1.99460
 Alpha virt. eigenvalues --    1.99803   2.00159   2.00930   2.01549   2.01885
 Alpha virt. eigenvalues --    2.04168   2.05489   2.05929   2.06467   2.07053
 Alpha virt. eigenvalues --    2.08524   2.09079   2.10047   2.10750   2.12845
 Alpha virt. eigenvalues --    2.13864   2.14537   2.16629   2.17055   2.17217
 Alpha virt. eigenvalues --    2.18852   2.20316   2.23124   2.23520   2.26526
 Alpha virt. eigenvalues --    2.26641   2.27699   2.30320   2.31222   2.32806
 Alpha virt. eigenvalues --    2.33410   2.33644   2.36294   2.36378   2.37958
 Alpha virt. eigenvalues --    2.38530   2.40272   2.42519   2.46189   2.47525
 Alpha virt. eigenvalues --    2.49352   2.52277   2.53422   2.54668   2.55282
 Alpha virt. eigenvalues --    2.56652   2.59320   2.61410   2.62058   2.62833
 Alpha virt. eigenvalues --    2.64095   2.64429   2.65794   2.67206   2.67558
 Alpha virt. eigenvalues --    2.68416   2.68608   2.69005   2.69946   2.70628
 Alpha virt. eigenvalues --    2.71288   2.71941   2.72034   2.72852   2.73200
 Alpha virt. eigenvalues --    2.73658   2.74496   2.75703   2.76049   2.76290
 Alpha virt. eigenvalues --    2.76418   2.76668   2.78402   2.78477   2.78741
 Alpha virt. eigenvalues --    2.79436   2.80323   2.80694   2.81223   2.83296
 Alpha virt. eigenvalues --    2.84383   2.84722   2.87020   2.87305   2.88909
 Alpha virt. eigenvalues --    2.89478   2.92206   2.92784   2.94942   2.96480
 Alpha virt. eigenvalues --    2.98538   3.00795   3.01642   3.03490   3.04850
 Alpha virt. eigenvalues --    3.05531   3.07952   3.08771   3.09365   3.10316
 Alpha virt. eigenvalues --    3.11414   3.13933   3.14441   3.18000   3.22510
 Alpha virt. eigenvalues --    3.23869   3.26327   3.26487   3.28175   3.29505
 Alpha virt. eigenvalues --    3.30568   3.33152   3.34224   3.35196   3.37612
 Alpha virt. eigenvalues --    3.39149   3.40293   3.42939   3.46894   3.47424
 Alpha virt. eigenvalues --    3.51099   3.53167   3.56642   3.60346   3.64177
 Alpha virt. eigenvalues --    3.66831   3.72587   3.77658   3.86141   3.98474
 Alpha virt. eigenvalues --    4.00302   4.03275   4.03719   4.06724   4.08501
 Alpha virt. eigenvalues --    4.12040   4.18383   4.21787   4.25870   4.33126
 Alpha virt. eigenvalues --    4.54996   4.63562   4.64722   4.67374   4.68329
 Alpha virt. eigenvalues --    4.70092   4.74649  23.42084  23.55913  23.69276
 Alpha virt. eigenvalues --   23.70690  23.75567  23.76896  23.79097  23.80839
 Alpha virt. eigenvalues --   23.83890  23.84407  23.85434  23.86499  23.87425
 Alpha virt. eigenvalues --   23.89344  23.89559  23.91095  23.91372  23.92162
 Alpha virt. eigenvalues --   23.93803  23.96547  23.98500  23.98779  24.00528
  Beta  occ. eigenvalues --  -10.23108 -10.22768 -10.22368 -10.21904 -10.21418
  Beta  occ. eigenvalues --  -10.21319 -10.21308 -10.21165 -10.20975 -10.20908
  Beta  occ. eigenvalues --  -10.20663 -10.20575 -10.20510 -10.20460 -10.20386
  Beta  occ. eigenvalues --  -10.20269 -10.20164 -10.20161 -10.20008 -10.19926
  Beta  occ. eigenvalues --  -10.19672 -10.19222 -10.18586  -0.88674  -0.85734
  Beta  occ. eigenvalues --   -0.83081  -0.81612  -0.80681  -0.77395  -0.76718
  Beta  occ. eigenvalues --   -0.74419  -0.73235  -0.71408  -0.70297  -0.68168
  Beta  occ. eigenvalues --   -0.64226  -0.63414  -0.61256  -0.59621  -0.59011
  Beta  occ. eigenvalues --   -0.58252  -0.56053  -0.52562  -0.52073  -0.50517
  Beta  occ. eigenvalues --   -0.50184  -0.48478  -0.47570  -0.46360  -0.46068
  Beta  occ. eigenvalues --   -0.44182  -0.43774  -0.42745  -0.41793  -0.41349
  Beta  occ. eigenvalues --   -0.41314  -0.40692  -0.40623  -0.39610  -0.38932
  Beta  occ. eigenvalues --   -0.38236  -0.37494  -0.35422  -0.35085  -0.34954
  Beta  occ. eigenvalues --   -0.33905  -0.33241  -0.32976  -0.32120  -0.28727
  Beta  occ. eigenvalues --   -0.28234  -0.25418  -0.24296  -0.22462  -0.20869
  Beta virt. eigenvalues --   -0.12944  -0.11258  -0.07651  -0.06668  -0.03586
  Beta virt. eigenvalues --   -0.01772  -0.00187   0.00187   0.00549   0.01026
  Beta virt. eigenvalues --    0.01588   0.01823   0.02101   0.02365   0.02962
  Beta virt. eigenvalues --    0.03155   0.03819   0.04446   0.04632   0.04996
  Beta virt. eigenvalues --    0.05090   0.05657   0.06012   0.06874   0.07410
  Beta virt. eigenvalues --    0.07425   0.07638   0.08135   0.08342   0.09048
  Beta virt. eigenvalues --    0.09422   0.09467   0.09712   0.10410   0.10480
  Beta virt. eigenvalues --    0.10549   0.12018   0.12494   0.12620   0.12767
  Beta virt. eigenvalues --    0.13154   0.13323   0.13397   0.13652   0.14212
  Beta virt. eigenvalues --    0.14546   0.14797   0.15191   0.15828   0.15993
  Beta virt. eigenvalues --    0.16078   0.16253   0.16413   0.16458   0.16965
  Beta virt. eigenvalues --    0.17033   0.17330   0.17716   0.17777   0.18066
  Beta virt. eigenvalues --    0.18346   0.18456   0.18598   0.18905   0.19313
  Beta virt. eigenvalues --    0.19476   0.19754   0.20191   0.20377   0.20479
  Beta virt. eigenvalues --    0.20969   0.21342   0.21465   0.21581   0.21750
  Beta virt. eigenvalues --    0.22382   0.22486   0.22845   0.23073   0.23149
  Beta virt. eigenvalues --    0.23394   0.23478   0.23870   0.24341   0.24524
  Beta virt. eigenvalues --    0.24977   0.25185   0.25570   0.25806   0.26192
  Beta virt. eigenvalues --    0.26534   0.27131   0.27542   0.27578   0.28001
  Beta virt. eigenvalues --    0.28355   0.28429   0.28714   0.29080   0.29829
  Beta virt. eigenvalues --    0.29911   0.30008   0.30412   0.31178   0.31769
  Beta virt. eigenvalues --    0.32087   0.32636   0.32938   0.34382   0.34801
  Beta virt. eigenvalues --    0.34957   0.36036   0.36479   0.37015   0.37747
  Beta virt. eigenvalues --    0.38977   0.39307   0.39864   0.40314   0.41281
  Beta virt. eigenvalues --    0.42190   0.42731   0.42985   0.43419   0.44309
  Beta virt. eigenvalues --    0.44742   0.45339   0.46105   0.47009   0.48889
  Beta virt. eigenvalues --    0.49034   0.50148   0.50655   0.51233   0.51767
  Beta virt. eigenvalues --    0.52143   0.52536   0.53641   0.53738   0.54229
  Beta virt. eigenvalues --    0.54494   0.54800   0.55109   0.55393   0.56117
  Beta virt. eigenvalues --    0.56491   0.57027   0.57159   0.57541   0.57670
  Beta virt. eigenvalues --    0.58408   0.59052   0.59319   0.59826   0.60770
  Beta virt. eigenvalues --    0.61119   0.61357   0.61954   0.62563   0.63184
  Beta virt. eigenvalues --    0.63496   0.63758   0.64200   0.64736   0.64947
  Beta virt. eigenvalues --    0.65410   0.65668   0.66509   0.67200   0.67280
  Beta virt. eigenvalues --    0.67871   0.68751   0.68770   0.69086   0.69108
  Beta virt. eigenvalues --    0.69253   0.69837   0.70290   0.70668   0.72034
  Beta virt. eigenvalues --    0.72242   0.72836   0.73869   0.74430   0.74512
  Beta virt. eigenvalues --    0.76557   0.76980   0.77761   0.79190   0.80610
  Beta virt. eigenvalues --    0.81046   0.81950   0.82256   0.82387   0.83419
  Beta virt. eigenvalues --    0.84380   0.85567   0.86565   0.88254   0.88776
  Beta virt. eigenvalues --    0.89016   0.90378   0.90588   0.90821   0.91554
  Beta virt. eigenvalues --    0.92206   0.92314   0.92343   0.93501   0.94220
  Beta virt. eigenvalues --    0.94821   0.95008   0.95087   0.96092   0.96851
  Beta virt. eigenvalues --    0.97102   0.97334   0.97743   0.98073   0.99433
  Beta virt. eigenvalues --    1.00312   1.00392   1.00792   1.01429   1.02143
  Beta virt. eigenvalues --    1.02755   1.03331   1.03749   1.04444   1.04806
  Beta virt. eigenvalues --    1.05919   1.06141   1.06335   1.06651   1.07964
  Beta virt. eigenvalues --    1.08438   1.08769   1.10132   1.10801   1.11627
  Beta virt. eigenvalues --    1.12121   1.12488   1.12965   1.13490   1.13944
  Beta virt. eigenvalues --    1.15066   1.16280   1.18800   1.23295   1.24460
  Beta virt. eigenvalues --    1.25853   1.28038   1.28580   1.31358   1.32748
  Beta virt. eigenvalues --    1.34303   1.36972   1.38257   1.38451   1.40934
  Beta virt. eigenvalues --    1.42204   1.42723   1.44617   1.44714   1.45338
  Beta virt. eigenvalues --    1.45866   1.46025   1.46195   1.46791   1.46836
  Beta virt. eigenvalues --    1.47772   1.48382   1.48688   1.50325   1.50921
  Beta virt. eigenvalues --    1.51239   1.52389   1.52489   1.53678   1.54113
  Beta virt. eigenvalues --    1.54504   1.55677   1.57137   1.57791   1.59238
  Beta virt. eigenvalues --    1.60031   1.60097   1.61816   1.63615   1.64733
  Beta virt. eigenvalues --    1.65443   1.65733   1.67718   1.70017   1.70120
  Beta virt. eigenvalues --    1.70648   1.72493   1.73020   1.73072   1.73728
  Beta virt. eigenvalues --    1.74104   1.75129   1.76019   1.77191   1.78476
  Beta virt. eigenvalues --    1.79149   1.79414   1.79859   1.80638   1.82200
  Beta virt. eigenvalues --    1.82270   1.84176   1.84632   1.84921   1.85116
  Beta virt. eigenvalues --    1.85746   1.86316   1.87801   1.88031   1.88222
  Beta virt. eigenvalues --    1.88742   1.90101   1.90865   1.91634   1.92429
  Beta virt. eigenvalues --    1.93214   1.94322   1.94701   1.96202   1.96941
  Beta virt. eigenvalues --    1.98746   1.99898   2.00248   2.00355   2.01056
  Beta virt. eigenvalues --    2.01895   2.01937   2.05073   2.05836   2.06687
  Beta virt. eigenvalues --    2.07013   2.08043   2.08897   2.09649   2.10800
  Beta virt. eigenvalues --    2.11059   2.13114   2.14360   2.15092   2.16850
  Beta virt. eigenvalues --    2.17463   2.17483   2.19124   2.20464   2.23528
  Beta virt. eigenvalues --    2.24000   2.26857   2.26929   2.28017   2.30551
  Beta virt. eigenvalues --    2.31921   2.33083   2.33847   2.34015   2.36657
  Beta virt. eigenvalues --    2.36742   2.38105   2.39033   2.40421   2.42862
  Beta virt. eigenvalues --    2.46567   2.47726   2.49502   2.52475   2.53672
  Beta virt. eigenvalues --    2.55325   2.56290   2.57091   2.59761   2.61676
  Beta virt. eigenvalues --    2.63105   2.63735   2.63932   2.64857   2.66034
  Beta virt. eigenvalues --    2.67513   2.68144   2.68614   2.69209   2.69308
  Beta virt. eigenvalues --    2.70390   2.70840   2.71368   2.72017   2.72184
  Beta virt. eigenvalues --    2.72917   2.73214   2.74199   2.74965   2.76108
  Beta virt. eigenvalues --    2.76222   2.76469   2.76651   2.76896   2.78511
  Beta virt. eigenvalues --    2.78882   2.79119   2.79547   2.80477   2.80786
  Beta virt. eigenvalues --    2.81829   2.83765   2.85209   2.85513   2.87229
  Beta virt. eigenvalues --    2.87607   2.88941   2.90863   2.92591   2.94377
  Beta virt. eigenvalues --    2.95853   2.97595   2.98663   3.00961   3.01744
  Beta virt. eigenvalues --    3.03714   3.04986   3.05802   3.08284   3.08958
  Beta virt. eigenvalues --    3.09453   3.10476   3.11491   3.14035   3.15328
  Beta virt. eigenvalues --    3.18168   3.22716   3.24130   3.26606   3.26955
  Beta virt. eigenvalues --    3.28413   3.29613   3.30646   3.33353   3.34452
  Beta virt. eigenvalues --    3.35408   3.37704   3.39274   3.40376   3.43228
  Beta virt. eigenvalues --    3.47064   3.47712   3.51412   3.53504   3.56804
  Beta virt. eigenvalues --    3.60491   3.64453   3.67332   3.72820   3.78081
  Beta virt. eigenvalues --    3.86855   3.99273   4.00468   4.03628   4.03825
  Beta virt. eigenvalues --    4.06763   4.08769   4.12682   4.18673   4.22574
  Beta virt. eigenvalues --    4.26021   4.33434   4.55352   4.63872   4.64905
  Beta virt. eigenvalues --    4.67602   4.68541   4.70291   4.74764  23.42206
  Beta virt. eigenvalues --   23.56239  23.69424  23.70908  23.75702  23.76953
  Beta virt. eigenvalues --   23.79250  23.81139  23.83912  23.84721  23.85496
  Beta virt. eigenvalues --   23.86513  23.87468  23.89541  23.89776  23.91043
  Beta virt. eigenvalues --   23.91412  23.92666  23.94039  23.96715  23.98603
  Beta virt. eigenvalues --   23.98848  24.00549
          Condensed to atoms (all electrons):
               1          2          3          4          5          6
     1  C   10.371366   1.145257  -1.523363   0.831390  -2.199494   0.092422
     2  C    1.145257   8.446306   1.679937  -1.856828  -1.733382   1.607599
     3  C   -1.523363   1.679937   8.740249  -0.389398   1.126652  -0.163043
     4  C    0.831390  -1.856828  -0.389398  11.062329   1.085047  -2.607674
     5  C   -2.199494  -1.733382   1.126652   1.085047  11.482130  -1.099112
     6  C    0.092422   1.607599  -0.163043  -2.607674  -1.099112  10.684658
     7  C   -0.238389  -0.813803   0.753367   0.718004   0.047445  -0.972612
     8  C   -0.233449  -0.497001  -0.591191  -0.011515   0.270807  -1.016889
     9  C   -0.558880   0.081825   0.462707  -1.493927  -0.279274   0.082664
    10  C   -0.091807  -0.654155  -0.263371   2.131223   0.237731  -1.369448
    11  C   -0.137896  -0.337964  -0.082379  -0.745470  -0.040993  -0.063539
    12  C   -0.013600   0.050262  -0.045986  -0.084608  -0.025395   0.100596
    13  C   -0.019017  -0.070098  -0.227339  -0.094464   0.012567  -0.242772
    14  C   -0.120453  -0.002313  -0.568473  -1.146527  -0.117103  -0.062337
    15  C    0.059400  -0.186830  -0.503635  -0.086498   0.040494  -0.153172
    16  C    0.028243  -0.012166   0.142636  -0.006409  -0.003265  -0.004706
    17  C    0.000339   0.004746  -0.050874  -0.012444   0.000868  -0.006004
    18  C   -0.010290  -0.012074  -0.000572  -0.050294  -0.004614   0.022677
    19  C   -1.040635  -2.330710  -1.640026   0.261878  -0.744661   0.474786
    20  C   -0.082697   0.689394   0.183617  -0.277638  -0.343779   0.010301
    21  C    1.508676  -1.560669  -1.583687   0.861954   0.618998   0.051677
    22  C   -0.448849   2.035675  -0.411874  -1.107163  -2.097997   0.810025
    23  C   -1.413898   0.331461   1.063649  -1.397428  -0.116402  -0.121812
    24  H   -0.024828   0.035916   0.008649  -0.000440  -0.005371  -0.001477
    25  H    0.008956   0.007444   0.006116   0.002380   0.012471  -0.001226
    26  H   -0.055340   0.041550   0.005736   0.003135   0.045871   0.000233
    27  H   -0.015310   0.026482  -0.023157   0.018187   0.258671   0.004577
    28  H   -0.032079  -0.029429  -0.002680  -0.001849   0.005115   0.267761
    29  H    0.004065   0.008280   0.016267  -0.061939  -0.002715   0.060138
    30  H    0.000710   0.000879   0.009714   0.051618   0.000691   0.007764
    31  H    0.000019   0.000110   0.000793   0.002855  -0.000002   0.000348
    32  H   -0.000000   0.000011  -0.000233   0.000195   0.000001   0.000010
    33  H   -0.001751  -0.003626  -0.009528  -0.000059  -0.000219   0.000707
    34  H    0.000015   0.000218  -0.000552   0.000022   0.000003  -0.000007
    35  H    0.000001   0.000018   0.000111   0.000046  -0.000000   0.000002
    36  H    0.017195   0.005927   0.008945   0.011019  -0.000244  -0.004040
    37  H    0.000549  -0.014187   0.007123   0.004600  -0.001224   0.001034
               7          8          9         10         11         12
     1  C   -0.238389  -0.233449  -0.558880  -0.091807  -0.137896  -0.013600
     2  C   -0.813803  -0.497001   0.081825  -0.654155  -0.337964   0.050262
     3  C    0.753367  -0.591191   0.462707  -0.263371  -0.082379  -0.045986
     4  C    0.718004  -0.011515  -1.493927   2.131223  -0.745470  -0.084608
     5  C    0.047445   0.270807  -0.279274   0.237731  -0.040993  -0.025395
     6  C   -0.972612  -1.016889   0.082664  -1.369448  -0.063539   0.100596
     7  C    8.180466   1.087222   0.148551   0.290450   0.389953  -0.052694
     8  C    1.087222   7.579038   0.513831   0.571125   1.528283  -0.585196
     9  C    0.148551   0.513831  11.343006   0.468056   0.284198   0.698367
    10  C    0.290450   0.571125   0.468056   8.705444  -0.818427  -0.711101
    11  C    0.389953   1.528283   0.284198  -0.818427  11.177450  -0.193510
    12  C   -0.052694  -0.585196   0.698367  -0.711101  -0.193510  11.112972
    13  C   -0.412042   0.591668  -1.831017  -0.194230  -1.863065  -1.446735
    14  C   -0.628253  -0.614267  -0.352603  -2.013252   0.169887  -0.922900
    15  C   -0.052207  -0.755265  -1.884709   0.083216  -1.773320  -0.482288
    16  C   -0.446790  -0.463541   0.018856   0.048008  -2.336994   1.386227
    17  C    0.060395   0.132024  -0.173507  -0.052079   0.941867  -0.212942
    18  C   -0.093312  -1.040774  -0.802923  -0.213456  -0.618543  -2.189922
    19  C   -0.040082  -0.039696  -0.046267   0.075987  -0.026899   0.000259
    20  C   -0.234748  -0.058355  -0.035089  -0.061145   0.011483  -0.002457
    21  C   -0.959109   0.180086  -0.087177   0.072752  -0.097242   0.001051
    22  C   -1.497501  -0.567561  -0.330001  -0.319011  -0.295037   0.012672
    23  C    0.323421  -0.174335  -0.780246  -0.380998   0.431596  -0.519894
    24  H    0.010135   0.000054  -0.000135  -0.000079   0.000538   0.000060
    25  H    0.005637   0.000023   0.000114   0.000235   0.000011  -0.000001
    26  H    0.004306  -0.000189  -0.000165  -0.000207   0.000008  -0.000003
    27  H    0.001614   0.000048   0.003433   0.005872   0.000107   0.000015
    28  H   -0.002015   0.011579   0.029311   0.080136   0.000662   0.000048
    29  H   -0.021600  -0.035548  -0.057894   0.321062  -0.007662   0.012600
    30  H   -0.008056  -0.014695  -0.040941   0.144348  -0.040496  -0.032079
    31  H    0.001569  -0.022314   0.040182   0.009255  -0.020111  -0.087046
    32  H    0.002293  -0.006034   0.011338   0.001092  -0.010223  -0.079628
    33  H   -0.017959   0.052723   0.003097  -0.002429   0.131266  -0.055467
    34  H    0.001619   0.013035   0.001962   0.000223   0.078281  -0.016050
    35  H    0.000151   0.002859   0.003277   0.000268  -0.000150   0.037946
    36  H    0.066818   0.020609   0.008469   0.006943  -0.018867   0.012388
    37  H    0.082982   0.086138   0.025013  -0.000241   0.116649  -0.019105
              13         14         15         16         17         18
     1  C   -0.019017  -0.120453   0.059400   0.028243   0.000339  -0.010290
     2  C   -0.070098  -0.002313  -0.186830  -0.012166   0.004746  -0.012074
     3  C   -0.227339  -0.568473  -0.503635   0.142636  -0.050874  -0.000572
     4  C   -0.094464  -1.146527  -0.086498  -0.006409  -0.012444  -0.050294
     5  C    0.012567  -0.117103   0.040494  -0.003265   0.000868  -0.004614
     6  C   -0.242772  -0.062337  -0.153172  -0.004706  -0.006004   0.022677
     7  C   -0.412042  -0.628253  -0.052207  -0.446790   0.060395  -0.093312
     8  C    0.591668  -0.614267  -0.755265  -0.463541   0.132024  -1.040774
     9  C   -1.831017  -0.352603  -1.884709   0.018856  -0.173507  -0.802923
    10  C   -0.194230  -2.013252   0.083216   0.048008  -0.052079  -0.213456
    11  C   -1.863065   0.169887  -1.773320  -2.336994   0.941867  -0.618543
    12  C   -1.446735  -0.922900  -0.482288   1.386227  -0.212942  -2.189922
    13  C   11.203017   0.981671   0.434945   0.609524  -0.746817  -0.595625
    14  C    0.981671  10.398335   0.186448   0.144784  -0.363377   0.895004
    15  C    0.434945   0.186448  11.341512  -1.116925   0.040341   0.976158
    16  C    0.609524   0.144784  -1.116925   9.275137  -0.029349  -0.531560
    17  C   -0.746817  -0.363377   0.040341  -0.029349   6.521863  -0.156955
    18  C   -0.595625   0.895004   0.976158  -0.531560  -0.156955  10.209566
    19  C   -0.000350   0.008375  -0.019001  -0.000358  -0.000081   0.000416
    20  C   -0.000553  -0.007472  -0.007802  -0.001926  -0.000352   0.000310
[...]
 150911,-0.00040482,0.00004835,0.00009160,0.00008737,0.00014277,0.00004
 571,-0.00183029,0.00438794,0.00090616,0.00358674,-0.00012976,0.0021893
 7,-0.00036773,-0.00049658,0.00033163,0.00033715,0.00002001,-0.00012993
 ,0.02560905,-0.03905891,-0.03783487,-0.02058199,0.00825862,0.00966705,
 -0.00073518,-0.00351927,0.00349083,-0.00033912,-0.00119348,-0.00056906
 ,0.00008436,-0.00005627,0.00001594,0.00002594,0.00006913,-0.00002027,-
 0.00001177,-0.00001951,-0.00000907,-0.00019432,-0.00006282,-0.00000039
 ,-0.00086232,-0.00012456,-0.00134537,-0.00001440,0.00001417,0.00000100
 ,-0.00000461,0.00000484,-0.00000566,-0.00000431,-0.00000069,0.00000351
 ,-0.00000444,0.00000062,-0.00001163,0.00000013,-0.00000429,-0.00000448
 ,-0.00000035,-0.00000490,-0.00000671,0.00000116,0.00000183,-0.00000825
 ,0.00004727,0.00000701,0.00004287,-0.00012923,0.00015790,-0.00044338,0
 .02094319,-0.00000376,-0.00009431,-0.00002306,0.00020007,0.00006757,-0
 .00001689,-0.00028150,-0.00002873,0.00010611,-0.00004907,0.00004124,0.
 00001531,-0.00003625,0.00010069,-0.00001858,0.00008513,-0.00001710,0.0
 0000570,-0.00009422,-0.00001298,-0.00031001,0.00109524,0.00094192,0.00
 111366,0.00022630,-0.00000430,0.00005435,-0.00000407,-0.00005269,-0.00
 007481,0.00999211,-0.00558159,-0.00423620,-0.00252347,-0.00150563,-0.0
 0208314,0.00073761,0.00030054,-0.00023168,-0.00011356,-0.00002830,0.00
 007782,-0.04707963,0.01453854,0.03804887,0.00367886,-0.00075055,-0.001
 98077,-0.00155713,0.00238493,-0.00262793,-0.00003080,0.00005265,0.0004
 1461,-0.00003992,0.00003250,-0.00000634,-0.00000614,-0.00004629,0.0000
 0386,0.00001401,0.00004118,0.00000722,0.00004146,-0.00002182,0.0000683
 2,-0.00125760,-0.00015529,-0.00068171,0.00001051,-0.00001748,0.0000138
 8,0.00000788,-0.00000314,0.00000330,0.00000684,0.00000122,0.00000396,0
 .00000494,0.00000237,0.00000631,0.00000562,0.00000858,0.00000113,0.000
 00174,0.00001034,-0.00000144,-0.00002101,-0.00000362,0.00000274,-0.000
 02209,-0.00015931,-0.00004161,0.00012354,-0.00008150,0.00038543,0.0211
 9952,0.02211783,0.00018705,-0.00005472,0.00001967,-0.00002166,0.000054
 63,-0.00002745,-0.00009879,0.00003018,0.00005407,0.00003155,-0.0000563
 9,0.00004950,-0.00002938,0.00000605,-0.00000479,0.00001589,-0.00002220
 ,-0.00000951,0.00011321,0.00003644,-0.00014058,0.00021294,0.00030121,0
 .00025798,0.00048652,0.00072219,-0.00011606,-0.00042257,-0.00019902,-0
 .00001251,0.00353692,-0.00227776,0.00004949,-0.00250877,-0.00014575,-0
 .00003941,0.00038794,0.00049233,-0.00021314,-0.00024350,-0.00009333,0.
 00009150,-0.04350596,0.03559719,0.01927288,0.01042400,-0.00474942,-0.0
 0161017,0.00039896,0.00134595,-0.00027067,0.00039658,0.00100313,0.0002
 2916,-0.00012140,0.00016159,-0.00001962,-0.00008978,-0.00015283,0.0000
 1207,0.00010897,0.00003890,0.00000488,-0.00008604,-0.00005075,-0.00002
 662,-0.00111421,-0.00037110,-0.00057843,0.00000890,-0.00001271,0.00001
 329,0.00000505,-0.00000406,0.00000562,0.00000509,0.00000256,-0.0000008
 3,0.00000605,0.00000217,0.00000065,-0.00000008,0.00000432,0.00000150,-
 0.00000214,0.00000004,0.00001146,-0.00000450,-0.00000715,0.00002005,-0
 .00004977,-0.00003023,-0.00006927,0.00006610,-0.00010004,0.00006160,0.
 01709601,-0.01291997,0.01232796,0.00001419,0.00001442,0.00000610,-0.00
 000397,-0.00000499,0.00000105,0.00000696,0.00009069,-0.00001208,0.0000
 3783,-0.00002709,0.00000416,-0.00000261,-0.00000893,-0.00000014,-0.000
 00315,0.00000517,-0.00000282,-0.00006129,0.00001267,0.00004164,0.00078
 661,-0.00080831,-0.00009180,-0.00020016,-0.00012142,-0.00008699,0.0000
 0167,-0.00010847,0.00002328,-0.00389773,-0.00285334,0.00143954,-0.0009
 2246,-0.00002988,0.00006774,0.00006128,0.00014606,-0.00014708,-0.00009
 642,-0.00000797,0.00001526,0.00430525,-0.02562862,-0.00509117,-0.05561
 315,0.02059064,0.00866238,0.00180218,0.02828112,0.00536191,-0.00447715
 ,0.00128299,0.00205028,-0.00000277,0.00000526,-0.00000637,-0.00001416,
 0.00001180,0.00000309,-0.00001137,-0.00001279,0.00000116,-0.00001884,0
 .00003191,-0.00000887,-0.00002796,-0.00011439,0.00003717,-0.00001007,0
 .00000626,-0.00000551,0.00000019,-0.00000082,-0.00000049,0.00000009,0.
 00000218,-0.00000060,0.00000030,0.00000148,-0.00000023,0.00000007,0.00
 000105,-0.00000031,-0.00002608,-0.00002308,-0.00000583,0.00001372,0.00
 000292,0.00001061,0.00003265,-0.00005676,0.00001931,-0.00009376,0.0013
 2308,-0.00003039,0.00010917,-0.00075360,-0.00057259,0.05706451,-0.0000
 0738,0.00000111,0.00000105,-0.00000123,-0.00002681,-0.00000109,-0.0000
 4678,0.00001805,0.00000912,-0.00001780,-0.00001181,0.00000082,-0.00001
 754,-0.00000262,0.00000066,0.00001158,0.00001469,-0.00000289,-0.000022
 78,0.00007433,-0.00001054,0.00065503,-0.00029250,-0.00010403,-0.000216
 06,-0.00007436,0.00003772,0.00003866,-0.00007764,0.00000210,-0.0021422
 5,-0.00030085,-0.00094414,-0.00049399,0.00029226,0.00027742,0.00015152
 ,0.00012533,0.00011585,-0.00016217,0.00002787,0.00000765,-0.00120073,-
 0.01489132,-0.00247225,0.02198487,-0.31895602,-0.05561345,-0.00098550,
 -0.00811455,-0.00173968,0.00225603,0.00155776,-0.00135924,-0.00001100,
 -0.00000351,-0.00000078,-0.00000618,-0.00000495,0.00000107,0.00000778,
 -0.00001714,0.00000436,-0.00001652,0.00003083,-0.00000009,0.00007588,-
 0.00010064,0.00002993,-0.00000201,0.00000577,-0.00000050,-0.00000603,0
 .00000149,-0.00000111,-0.00000373,-0.00000107,-0.00000010,-0.00000422,
 -0.00000107,-0.00000009,-0.00000038,-0.00000571,-0.00000015,-0.0000185
 9,-0.00002359,0.00001033,-0.00000014,-0.00002067,-0.00000625,0.0000195
 2,-0.00000062,-0.00002860,-0.00012491,-0.00045309,-0.00004223,0.001817
 72,-0.00109198,-0.00119272,-0.02092285,0.34053453,-0.00002176,-0.00002
 682,0.00000007,0.00004606,-0.00004061,0.00003887,0.00003725,0.00000308
 ,-0.00003271,-0.00001953,0.00004241,-0.00000377,-0.00001222,0.00001953
 ,-0.00000051,0.00002075,0.00003002,-0.00000681,0.00017124,-0.00035775,
 0.00004783,-0.00063338,-0.00009430,0.00047833,-0.00038889,-0.00006975,
 -0.00025681,0.00019264,0.00019498,-0.00000118,0.00185983,0.00087846,0.
 00640192,0.00104756,0.00115855,-0.00111521,-0.00046050,-0.00070288,-0.
 00059372,0.00066363,0.00009202,-0.00003051,-0.00145719,-0.00059897,0.0
 0071366,0.01264009,-0.05549441,-0.04713241,-0.00195420,-0.00599667,0.0
 0366260,0.00190650,-0.00207873,0.00493078,0.00003517,-0.00003677,0.000
 00395,0.00003083,0.00009466,-0.00001516,-0.00011457,0.00001260,-0.0000
 1726,0.00015814,0.00004837,-0.00000189,-0.00031765,0.00011951,-0.00008
 073,-0.00000705,0.00000587,0.00000660,-0.00000007,0.00000210,0.0000029
 8,-0.00000192,-0.00000042,0.00000002,-0.00000293,0.00000144,0.00000192
 ,0.00000101,-0.00000023,0.00000066,0.00000933,0.00001112,-0.00003754,0
 .00000050,0.00000535,0.00003583,0.00002423,0.00003169,0.00017406,-0.00
 001546,-0.00048618,0.00010015,-0.00190659,0.00196746,-0.00007762,-0.01
 041850,0.06117797,0.03622568,-0.00000373,0.00000670,0.00000463,-0.0000
 4601,-0.00001854,0.00000320,0.00003312,-0.00000293,-0.00000405,0.00000
 508,0.00000176,-0.00000350,0.00000358,-0.00000447,0.00000021,-0.000004
 59,0.00001016,-0.00000098,0.00006593,-0.00006779,-0.00000492,-0.000123
 55,-0.00012471,-0.00014553,-0.00014814,0.00001375,0.00003327,0.0000485
 2,0.00002624,0.00001138,0.00044514,0.00094006,-0.00011487,0.00150463,0
 .00124764,0.00114619,0.00007014,0.00001586,0.00005913,0.00017904,0.000
 01374,-0.00009607,-0.00332989,0.00210288,0.00210505,-0.01748694,-0.017
 41083,0.00144513,-0.23925618,-0.13132929,0.02163328,0.00558183,0.00363
 159,-0.00000397,0.00000128,-0.00000155,-0.00000172,0.00000004,0.000004
 38,-0.00000294,0.00000281,-0.00000822,-0.00000237,0.00001149,0.0000065
 1,0.00000406,-0.00003265,0.00005264,-0.00006003,0.00000440,0.00000213,
 0.00000521,-0.00000553,0.00000191,0.00000088,-0.00000420,-0.00000224,0
 .00000065,-0.00000459,-0.00000236,0.00000004,0.00000010,-0.00000472,0.
 00000099,-0.00000134,-0.00000664,0.00000052,0.00000478,0.00001111,-0.0
 0001113,0.00000829,-0.00002820,0.00001764,0.00062152,-0.00032320,-0.00
 085340,-0.00069267,0.00003988,0.00028110,0.00086146,0.00029599,-0.0008
 3358,0.25165692,0.00000530,0.00000752,-0.00000226,-0.00001159,-0.00000
 443,-0.00000497,-0.00002384,0.00004719,0.00000424,0.00002071,-0.000016
 58,0.00000352,-0.00000705,0.00000031,-0.00000011,0.00000091,0.00001244
 ,-0.00000202,-0.00014877,0.00007305,0.00000022,0.00020630,0.00018778,0
 .00009481,0.00024125,-0.00001733,-0.00006775,-0.00007608,-0.00000795,0
 .00000432,0.00031371,-0.00072788,-0.00005562,0.00204960,-0.00479949,-0
 .00135045,-0.00148458,0.00010991,0.00013312,0.00004022,-0.00059289,0.0
 0006315,0.00207585,0.00081567,-0.00089852,0.01248410,0.01020238,-0.001
 31755,-0.12997637,-0.15114033,0.01025532,-0.02694685,-0.01267137,0.002
 79378,-0.00000952,0.00001391,-0.00000105,-0.00002211,-0.00001514,0.000
 00226,0.00002592,-0.00001486,0.00000535,-0.00005516,0.00001438,-0.0000
 0752,0.00006177,-0.00008009,0.00003749,-0.00000147,0.00000455,-0.00000
 307,-0.00000358,0.00000134,-0.00000074,-0.00000349,-0.00000069,-0.0000
 0010,-0.00000421,-0.00000121,-0.00000003,0.00000082,-0.00000371,-0.000
 00022,0.00000544,0.00000175,-0.00000011,-0.00012683,-0.00009847,0.0000
 3681,0.00005440,-0.00001261,-0.00002881,0.00041485,0.00090383,0.000410
 31,0.00064832,-0.00038386,-0.00046871,-0.00056510,0.00056560,0.0006740
 5,0.14089920,0.15749706,0.00005313,0.00002230,0.00000147,-0.00005113,-
 0.00000657,-0.00001473,0.00005858,0.00007084,0.00002439,0.00008234,-0.
 00007381,0.00000479,0.00001515,-0.00004083,0.00000473,-0.00003543,-0.0
 0000019,0.00000472,-0.00002725,-0.00012525,-0.00002537,-0.00014844,-0.
 00001267,-0.00071444,0.00015336,0.00020355,0.00009159,-0.00019720,-0.0
 0005925,0.00003472,-0.00001607,-0.00062672,-0.00073661,0.00048146,-0.0
 0116788,0.00767195,-0.00019806,-0.00007822,0.00023367,-0.00010799,-0.0
 0005052,-0.00040801,0.00213381,-0.00090523,0.00522420,0.00528849,0.003
 75572,0.00302606,0.02147873,0.00985073,-0.03895391,-0.00291178,-0.0014
 2351,0.00391506,-0.00001874,0.00002700,-0.00000201,-0.00001204,-0.0000
 1043,-0.00000508,-0.00000572,0.00001298,0.00000095,0.00002182,0.000013
 79,0.00001363,-0.00004520,-0.00009947,-0.00005981,-0.00000287,0.000002
 28,0.00000021,-0.00000003,-0.00000009,0.00000157,0.00000031,0.00000076
 ,-0.00000023,0.00000089,0.00000052,-0.00000189,-0.00000114,0.00000015,
 0.00000115,-0.00000387,0.00000054,-0.00000163,-0.00000919,-0.00000911,
 0.00000235,0.00002262,0.00001898,0.00004790,-0.00070777,0.00049524,-0.
 00422190,0.00003330,-0.00002838,-0.00008888,-0.00087720,0.00068539,-0.
 00289170,-0.02470855,-0.01036638,0.02783234,0.00112356,-0.00137099,0.0
 0019395,-0.00573423,-0.00087447,-0.00007139,-0.00226568,0.00363886,-0.
 00032127,0.00090354,0.00013626,0.00004748,-0.00049064,0.00003158,-0.00
 001529,-0.00000344,0.00019667,-0.00003740,0.01208734,0.01237525,-0.002
 75287,-0.00002103,-0.00051515,-0.00002462,-0.00007929,-0.00014346,0.00
 013997,0.00011431,0.00007405,-0.00001244,0.00023731,0.00052645,-0.0001
 9946,-0.00018862,-0.00003541,0.00004888,-0.00000701,-0.00005735,0.0000
 2103,0.00011447,-0.00003024,-0.00002133,-0.00089071,-0.00019313,-0.000
 06072,-0.00017330,-0.00020019,-0.00006704,-0.00002423,-0.00004574,0.00
 007854,0.00009169,-0.00003772,-0.00000917,-0.00008780,0.00025260,-0.00
 003394,-0.00026270,0.00006078,-0.00007722,0.00120750,0.00008803,0.0000
 0174,-0.00170527,-0.02401776,0.00478346,-0.11002990,-0.11228259,0.0227
 0978,-0.00043638,0.00063808,-0.00006957,-0.00007015,-0.00000794,0.0000
 0533,-0.00003953,0.00003527,0.00000236,0.00001932,-0.00017181,0.000007
 84,0.00010415,0.00005775,0.00000190,-0.00000676,0.00000227,-0.00001441
 ,-0.00001380,0.00000443,-0.00000202,-0.00000111,-0.00002371,0.00001124
 ,-0.00000522,-0.00000754,-0.00004127,-0.00180410,-0.00067507,-0.001992
 56,-0.00003717,0.00000864,-0.00002795,0.00003378,-0.00001289,-0.000011
 43,0.10917294,0.00020541,0.00014262,0.00017503,0.00064201,0.00014423,0
 .00055977,0.00221802,-0.00339355,0.00120426,-0.00126585,0.00002615,0.0
 0014232,-0.00003205,0.00005130,-0.00002025,0.00023830,-0.00033664,-0.0
 0004359,-0.01329023,-0.01015598,0.00260983,-0.00058291,0.00027688,-0.0
 0045893,0.00013849,-0.00020704,-0.00005561,0.00015996,0.00009003,0.000
 02314,0.00033068,-0.00014505,0.00011708,0.00020840,-0.00003224,0.00007
 135,0.00004733,-0.00002339,-0.00001534,-0.00008832,-0.00000745,0.00000
 508,0.00002104,-0.00046270,-0.00089658,-0.00001400,0.00024292,0.000007
 80,-0.00000701,0.00005298,0.00009435,-0.00011623,-0.00000320,0.0000177
 8,-0.00010889,0.00030900,-0.00003067,-0.00033817,-0.00031075,-0.000032
 48,-0.00010245,0.00022495,-0.00030932,0.00165310,0.00288614,-0.0001148
 6,-0.10961807,-0.29250485,0.05409121,-0.00029995,-0.00012763,0.0001116
 0,-0.00002174,-0.00000912,0.00000666,-0.00002212,0.00000656,0.00000844
 ,-0.00000986,0.00000954,-0.00004298,-0.00010263,-0.00007015,-0.0000237
 7,0.00004214,-0.00002892,0.00000836,0.00002287,-0.00001226,-0.00000155
 ,0.00000421,0.00001291,-0.00000360,-0.00000101,0.00000533,-0.00001917,
 -0.00115846,-0.00009058,-0.00078432,-0.00001737,0.00000563,-0.00004458
 ,-0.00002454,0.00000843,0.00000757,0.12263320,0.30344249,-0.00054084,0
 .00032062,0.00069138,-0.00015474,0.00086425,0.00274466,-0.00010494,0.0
 0167669,0.00373871,0.00087136,-0.00030263,0.00064407,0.00019110,-0.000
 16557,-0.00014935,-0.00027192,0.00009649,-0.00026047,0.00355001,0.0004
 6586,0.00211845,-0.00076274,0.00002725,-0.00176342,-0.00032818,-0.0004
 6726,-0.00014404,-0.00012154,0.00021209,0.00009088,0.00031619,0.000431
 42,0.00005095,0.00007725,-0.00010695,0.00006211,-0.00003199,-0.0001107
 3,0.00001907,0.00015107,0.00003588,-0.00001640,-0.00131390,0.00049498,
 0.00026160,0.00067416,-0.00021044,-0.00024401,-0.00019388,0.00033888,0
 .00008040,-0.00010425,-0.00024005,-0.00002736,0.00023323,-0.00027880,0
 .00016355,0.00020915,0.00010891,-0.00030615,0.00011744,-0.00036709,-0.
 00132663,-0.00161100,-0.00029834,0.00230434,0.02255755,0.05416857,-0.0
 3587228,0.00005326,0.00008749,0.00035015,0.00000595,0.00001242,0.00002
 244,0.00000976,-0.00000142,0.00004623,0.00000592,-0.00000856,-0.000165
 35,0.00003920,0.00001420,-0.00014122,-0.00001117,0.00001984,0.00004032
 ,-0.00001514,0.00000597,0.00000261,0.00000435,-0.00002536,0.00001560,-
 0.00000271,-0.00001983,-0.00001136,-0.00125096,-0.00055896,-0.00078725
 ,-0.00003974,0.00000532,0.00003031,0.00005572,-0.00002188,0.00000195,-
 0.02178043,-0.05594229,0.02793213,-0.00001742,0.00001470,0.00002838,-0
 .00008527,-0.00004643,0.00007750,0.00000811,-0.00003682,0.00003768,0.0
 0009604,-0.00001882,-0.00000590,0.00002092,-0.00000288,-0.00002248,-0.
 00002569,-0.00003977,0.00001537,0.00007856,0.00012501,-0.00011999,0.00
 011140,0.00018861,0.00047618,0.00017958,0.00008491,-0.00005235,-0.0000
 9943,-0.00010002,0.00000058,-0.00119920,-0.00100558,-0.00063815,-0.000
 60565,0.00057181,-0.00065940,-0.00015483,0.00009232,-0.00012422,-0.000
 13631,0.00004283,0.00004612,-0.03134385,0.02739242,0.03024933,0.002642
 43,0.00099256,-0.00193453,0.00075529,-0.00022698,-0.00064454,-0.000062
 80,0.00056455,0.00017500,-0.00000036,-0.00006468,0.00001026,0.00004318
 ,0.00004712,-0.00000966,-0.00007166,0.00001413,0.00000838,0.00030831,-
 0.00025523,-0.00005332,-0.00120584,-0.00001247,-0.00163529,0.00000453,
 -0.00000402,-0.00000498,-0.00000565,-0.00000105,0.00000270,-0.00000003
 ,-0.00000290,-0.00000016,0.00000024,-0.00000731,-0.00000256,0.00000045
 ,-0.00000034,0.00000482,0.00000570,0.00000716,0.00000503,0.00001165,0.
 00000914,0.00000305,-0.00003136,0.00010024,-0.00000596,0.00000612,-0.0
 0001615,-0.00001181,-0.02199901,0.01707764,0.01709487,0.00042219,-0.00
 089248,-0.00025083,-0.00000385,-0.00006920,0.00027311,-0.00083183,-0.0
 0134329,-0.00048261,0.05318533,0.00001745,-0.00000740,0.00002349,0.000
 07598,-0.00015211,0.00004675,-0.00016636,0.00006505,-0.00000158,-0.000
 03897,-0.00002334,0.00000509,-0.00003448,0.00004265,-0.00001391,0.0000
 6849,0.00002726,0.00000364,-0.00010532,0.00007779,-0.00015295,-0.00022
 253,-0.00010407,-0.00028664,-0.00010856,-0.00008565,-0.00001637,0.0000
 5299,0.00001350,0.00001615,0.00073177,0.00180345,0.00087204,0.00034556
 ,-0.00060204,0.00089207,0.00019979,-0.00003200,-0.00001469,0.00002273,
 0.00001013,-0.00003256,0.03508394,-0.02403678,-0.03106305,-0.00377003,
 0.00035325,0.00208608,0.00041264,-0.00038678,0.00122250,-0.00001168,-0
 .00022961,-0.00020106,-0.00006103,-0.00003187,0.00000217,0.00003433,0.
 00005541,-0.00000508,-0.00015591,0.00002043,0.00001412,0.00040794,0.00
 018747,-0.00009752,-0.00056190,-0.00063369,-0.00050163,-0.00001652,0.0
 0001540,-0.00001738,-0.00000650,0.00000250,-0.00000215,-0.00000199,-0.
 00000051,-0.00000459,-0.00000561,0.00000043,-0.00000087,0.00000249,-0.
 00000486,-0.00000237,-0.00000345,-0.00000946,0.00000928,-0.00000709,-0
 .00001303,0.00000205,0.00003183,-0.00009466,0.00001598,-0.00002077,0.0
 0006565,-0.00011713,0.01075432,-0.03051105,-0.01610572,0.00025609,0.00
 121726,-0.00054218,0.00003612,0.00012180,-0.00008385,-0.00005702,-0.00
 001660,-0.00026097,-0.04317873,0.05289608,0.00000414,-0.00002507,0.000
 00917,0.00000979,-0.00008510,0.00003350,-0.00015717,-0.00005544,0.0000
 2489,-0.00010986,0.00006907,-0.00001605,-0.00003723,0.00002658,0.00000
 288,0.00003922,0.00001523,0.00000013,-0.00025422,0.00011496,-0.0000737
 2,-0.00003216,-0.00030310,-0.00049711,-0.00012061,-0.00009828,0.000012
 92,0.00014175,0.00002146,0.00003242,0.00062818,0.00097343,-0.00030783,
 0.00048366,-0.00067814,0.00079058,0.00017683,-0.00015193,0.00011309,0.
 00009234,0.00001433,-0.00006550,0.03463494,-0.02769096,-0.02316081,-0.
 00387963,0.00015797,0.00112226,0.00001462,-0.00011786,0.00147272,-0.00
 019296,-0.00029699,-0.00027299,-0.00000390,-0.00001164,0.00000303,-0.0
 0000301,0.00002108,0.00000372,-0.00002499,-0.00000216,-0.00000357,0.00
 013157,-0.00004229,-0.00007162,-0.00014560,-0.00046245,-0.00039174,-0.
 00000834,0.00000472,-0.00001966,-0.00000198,0.00000059,-0.00000289,-0.
 00000227,0.00000035,-0.00000324,-0.00000242,-0.00000075,0.00000008,0.0
 0000060,-0.00000253,-0.00000184,-0.00000178,-0.00000503,0.00000173,-0.
 00000649,-0.00000631,-0.00001166,0.00004057,-0.00009378,0.00007167,-0.
 00003510,0.00004516,-0.00020605,0.01118748,-0.01645856,-0.02839054,-0.
 00034598,0.00115318,-0.00056069,0.00003933,0.00007911,-0.00001322,-0.0
 0040970,-0.00042171,-0.00019664,-0.04184961,0.04431284,0.05057258\\0.0
 0000562,0.00000426,0.00000336,-0.00000878,-0.00000026,0.00000372,0.000
 00279,-0.00000184,-0.00000998,0.00000060,0.00000109,0.00001049,-0.0000
 0656,0.00000320,0.00000021,0.00000499,-0.00000352,-0.00000475,0.000002
 60,-0.00000866,-0.00000971,-0.00000857,0.00000275,0.00003989,0.0000034
 9,-0.00000155,-0.00000838,-0.00000512,-0.00000303,-0.00001462,0.000006
 79,0.00000789,-0.00001818,0.00000322,0.00000077,0.00001115,-0.00000064
 ,-0.00000126,-0.00001261,-0.00000135,-0.00000206,-0.00000187,0.0000003
 9,-0.00001018,0.00000642,0.00000526,-0.00000258,0.00000262,-0.00000067
 ,0.00000055,0.00000159,-0.00000338,-0.00000325,-0.00001156,-0.00000166
 ,-0.00000416,-0.00000138,-0.00000250,0.00000563,0.00000020,0.00000457,
 0.00000182,0.00000417,-0.00000375,0.00000024,-0.00000048,-0.00000318,0
 .00000396,0.00000282,0.00000085,0.00000077,-0.00000121,0.00000035,0.00
 000144,-0.00000028,-0.00000034,0.00000193,0.00000245,-0.00000091,0.000
 00129,0.00000136,-0.00000130,0.00000081,0.00000281,-0.00000085,0.00000
 031,0.00000789,0.00000013,-0.00000058,0.00000658,-0.00000003,-0.000001
 76,0.00000387,0.00000036,-0.00000163,0.00000060,0.00002599,0.00000431,
 -0.00001038,-0.00000032,-0.00000012,-0.00000744,0.00000129,-0.00000226
 ,-0.00000007,-0.00000365,0.00000088,-0.00000912,-0.00001572,0.00000479
 ,0.00000981\\\@


 The theorems and results in mathematical physics are
 not theorems and results about Nature, but about our
 description of it.
                   --Gerard 't Hooft
 Job cpu time:       0 days 17 hours 14 minutes 16.0 seconds.
 Elapsed time:       0 days  0 hours 51 minutes 51.8 seconds.
 File lengths (MBytes):  RWF=   2177 Int=      0 D2E=      0 Chk=     47 Scr=      1
 Normal termination of Gaussian 16 at Tue Jun 25 01:33:51 2019.
