 Entering Gaussian System, Link 0=g09
 Initial command:
 /usr/local/Cluster-Apps/gaussian/g09/l1.exe "/rds/user/am2145/hpc-work/scratch/18732137/Gau-50704.inp" -scrdir="/rds/user/am2145/hpc-work/scratch/18732137/"
 Entering Link 1 = /usr/local/Cluster-Apps/gaussian/g09/l1.exe PID=     50705.
  
 Copyright (c) 1988,1990,1992,1993,1995,1998,2003,2009,2013,
            Gaussian, Inc.  All Rights Reserved.
  
 This is part of the Gaussian(R) 09 program.  It is based on
 the Gaussian(R) 03 system (copyright 2003, Gaussian, Inc.),
 the Gaussian(R) 98 system (copyright 1998, Gaussian, Inc.),
 the Gaussian(R) 94 system (copyright 1995, Gaussian, Inc.),
 the Gaussian 92(TM) system (copyright 1992, Gaussian, Inc.),
 the Gaussian 90(TM) system (copyright 1990, Gaussian, Inc.),
 the Gaussian 88(TM) system (copyright 1988, Gaussian, Inc.),
 the Gaussian 86(TM) system (copyright 1986, Carnegie Mellon
 University), and the Gaussian 82(TM) system (copyright 1983,
 Carnegie Mellon University). Gaussian is a federally registered
 trademark of Gaussian, Inc.
  
 This software contains proprietary and confidential information,
 including trade secrets, belonging to Gaussian, Inc.
  
 This software is provided under written license and may be
 used, copied, transmitted, or stored only in accord with that
 written license.
  
 The following legend is applicable only to US Government
 contracts under FAR:
  
                    RESTRICTED RIGHTS LEGEND
  
 Use, reproduction and disclosure by the US Government is
 subject to restrictions as set forth in subparagraphs (a)
 and (c) of the Commercial Computer Software - Restricted
 Rights clause in FAR 52.227-19.
  
 Gaussian, Inc.
 340 Quinnipiac St., Bldg. 40, Wallingford CT 06492
  
  
 ---------------------------------------------------------------
 Warning -- This program may not be used in any manner that
 competes with the business of Gaussian, Inc. or will provide
 assistance to any competitor of Gaussian, Inc.  The licensee
 of this program is prohibited from giving any competitor of
 Gaussian, Inc. access to this program.  By using this program,
 the user acknowledges that Gaussian, Inc. is engaged in the
 business of creating and licensing software in the field of
 computational chemistry and represents and warrants to the
 licensee that it is not a competitor of Gaussian, Inc. and that
 it will not use this program in any manner prohibited above.
 ---------------------------------------------------------------
  

 Cite this work as:
 Gaussian 09, Revision D.01,
 M. J. Frisch, G. W. Trucks, H. B. Schlegel, G. E. Scuseria, 
 M. A. Robb, J. R. Cheeseman, G. Scalmani, V. Barone, B. Mennucci, 
 G. A. Petersson, H. Nakatsuji, M. Caricato, X. Li, H. P. Hratchian, 
 A. F. Izmaylov, J. Bloino, G. Zheng, J. L. Sonnenberg, M. Hada, 
 M. Ehara, K. Toyota, R. Fukuda, J. Hasegawa, M. Ishida, T. Nakajima, 
 Y. Honda, O. Kitao, H. Nakai, T. Vreven, J. A. Montgomery, Jr., 
 J. E. Peralta, F. Ogliaro, M. Bearpark, J. J. Heyd, E. Brothers, 
 K. N. Kudin, V. N. Staroverov, T. Keith, R. Kobayashi, J. Normand, 
 K. Raghavachari, A. Rendell, J. C. Burant, S. S. Iyengar, J. Tomasi, 
 M. Cossi, N. Rega, J. M. Millam, M. Klene, J. E. Knox, J. B. Cross, 
 V. Bakken, C. Adamo, J. Jaramillo, R. Gomperts, R. E. Stratmann, 
 O. Yazyev, A. J. Austin, R. Cammi, C. Pomelli, J. W. Ochterski, 
 R. L. Martin, K. Morokuma, V. G. Zakrzewski, G. A. Voth, 
 P. Salvador, J. J. Dannenberg, S. Dapprich, A. D. Daniels, 
 O. Farkas, J. B. Foresman, J. V. Ortiz, J. Cioslowski, 
 and D. J. Fox, Gaussian, Inc., Wallingford CT, 2013.
 
 ******************************************
 Gaussian 09:  ES64L-G09RevD.01 24-Apr-2013
                17-Jan-2020 
 ******************************************
 %nprocshared=16
 Will use up to   16 processors via shared memory.
 %mem=64GB
 %chk=BTS1ab_guess.chk
 ------------------------------------------------
 # opt=(ts,calcfc,noeigen) freq b3lyp/6-311g(d,p)
 ------------------------------------------------
 1/5=1,10=4,11=1,14=-1,18=20,26=3,38=1/1,3;
 2/9=110,12=2,17=6,18=5,40=1/2;
 3/5=4,6=6,7=101,11=2,16=1,25=1,30=1,71=2,74=-5,140=1/1,2,3;
 4//1;
 5/5=2,38=5/2;
 8/6=4,10=90,11=11/1;
 11/6=1,8=1,9=11,15=111,16=1/1,2,10;
 10/6=1,13=1/2;
 6/7=2,8=2,9=2,10=2,28=1/1;
 7/10=1,18=20,25=1/1,2,3,16;
 1/5=1,10=4,11=1,14=-1,18=20,26=3/3(2);
 2/9=110/2;
 99//99;
 2/9=110/2;
 3/5=4,6=6,7=101,11=2,16=1,25=1,30=1,71=1,74=-5/1,2,3;
 4/5=5,16=3,69=1/1;
 5/5=2,38=5/2;
 7//1,2,3,16;
 1/5=1,11=1,14=-1,18=20,26=3/3(-5);
 2/9=110/2;
 6/7=2,8=2,9=2,10=2,19=2,28=1/1;
 99/9=1/99;
 ------------
 BTS1ab_guess
 ------------
 Symbolic Z-matrix:
 Charge =  0 Multiplicity = 3
 C                    -3.64282  -0.1799   -0.00004 
 C                    -2.33845   0.28356   0.00004 
 C                    -1.25086  -0.59238   0.00008 
 C                    -1.31747  -1.98083   0.0001 
 C                    -3.76778  -1.62755  -0.00001 
 C                    -2.68077  -2.47847   0.00007 
 C                    -0.08267   0.16891   0.00006 
 C                     1.13926  -0.48707   0.00003 
 C                     1.16143  -1.91188   0.00003 
 C                    -0.05779  -2.64712   0.0001 
 C                     2.30591   0.32361   0.00002 
 C                     3.57807  -0.28976  -0.00008 
 C                     3.61368  -1.73333  -0.00013 
 C                     2.48028  -2.49931  -0.00007 
 C                     2.15519   1.72192   0.00013 
 C                     3.25676   2.54111   0.0001 
 C                     4.54091   1.93988  -0.00005 
 C                     4.70309   0.56444  -0.00013 
 C                    -4.63126   0.84365  -0.00014 
 C                    -4.23411   2.17767  -0.00013 
 C                    -2.87712   2.60396  -0.00003 
 C                    -1.87768   1.64079   0.00004 
 C                    -0.40262   1.54279   0.00009 
 H                    -2.65427   3.66506  -0.00005 
 H                    -5.00287   2.94261  -0.0002 
 H                    -5.6881    0.59898  -0.0002 
 H                    -4.76279  -2.06121  -0.00005 
 H                    -2.85799  -3.54909   0.00008 
 H                    -0.01116  -3.73165   0.00007 
 H                     2.56907  -3.5809   -0.00009 
 H                     4.58383  -2.2198   -0.0002 
 H                     5.701     0.13843  -0.00022 
 H                     0.89993   2.04804   0.00031 
 H                     3.16766   3.6215    0.00019 
 H                     5.41657   2.58005  -0.00008 
 

 GradGradGradGradGradGradGradGradGradGradGradGradGradGradGradGradGradGrad
 Berny optimization.
 Initialization pass.
                           ----------------------------
                           !    Initial Parameters    !
                           ! (Angstroms and Degrees)  !
 --------------------------                            --------------------------
 ! Name  Definition              Value          Derivative Info.                !
 --------------------------------------------------------------------------------
 ! R1    R(1,2)                  1.3843         calculate D2E/DX2 analytically  !
 ! R2    R(1,5)                  1.453          calculate D2E/DX2 analytically  !
 ! R3    R(1,19)                 1.4229         calculate D2E/DX2 analytically  !
 ! R4    R(2,3)                  1.3965         calculate D2E/DX2 analytically  !
 ! R5    R(2,22)                 1.4333         calculate D2E/DX2 analytically  !
 ! R6    R(3,4)                  1.39           calculate D2E/DX2 analytically  !
 ! R7    R(3,7)                  1.3944         calculate D2E/DX2 analytically  !
 ! R8    R(4,6)                  1.4513         calculate D2E/DX2 analytically  !
 ! R9    R(4,10)                 1.425          calculate D2E/DX2 analytically  !
 ! R10   R(5,6)                  1.3805         calculate D2E/DX2 analytically  !
 ! R11   R(5,27)                 1.0854         calculate D2E/DX2 analytically  !
 ! R12   R(6,28)                 1.0852         calculate D2E/DX2 analytically  !
 ! R13   R(7,8)                  1.3869         calculate D2E/DX2 analytically  !
 ! R14   R(7,23)                 1.4106         calculate D2E/DX2 analytically  !
 ! R15   R(8,9)                  1.425          calculate D2E/DX2 analytically  !
 ! R16   R(8,11)                 1.4207         calculate D2E/DX2 analytically  !
 ! R17   R(9,10)                 1.4238         calculate D2E/DX2 analytically  !
 ! R18   R(9,14)                 1.4437         calculate D2E/DX2 analytically  !
 ! R19   R(10,29)                1.0855         calculate D2E/DX2 analytically  !
 ! R20   R(11,12)                1.4123         calculate D2E/DX2 analytically  !
 ! R21   R(11,15)                1.4064         calculate D2E/DX2 analytically  !
 ! R22   R(12,13)                1.444          calculate D2E/DX2 analytically  !
 ! R23   R(12,18)                1.4126         calculate D2E/DX2 analytically  !
 ! R24   R(13,14)                1.368          calculate D2E/DX2 analytically  !
 ! R25   R(13,31)                1.0853         calculate D2E/DX2 analytically  !
 ! R26   R(14,30)                1.0852         calculate D2E/DX2 analytically  !
 ! R27   R(15,16)                1.3728         calculate D2E/DX2 analytically  !
 ! R28   R(15,33)                1.2969         calculate D2E/DX2 analytically  !
 ! R29   R(16,17)                1.4179         calculate D2E/DX2 analytically  !
 ! R30   R(16,34)                1.0841         calculate D2E/DX2 analytically  !
 ! R31   R(17,18)                1.385          calculate D2E/DX2 analytically  !
 ! R32   R(17,35)                1.0847         calculate D2E/DX2 analytically  !
 ! R33   R(18,32)                1.085          calculate D2E/DX2 analytically  !
 ! R34   R(19,20)                1.3919         calculate D2E/DX2 analytically  !
 ! R35   R(19,26)                1.0848         calculate D2E/DX2 analytically  !
 ! R36   R(20,21)                1.4224         calculate D2E/DX2 analytically  !
 ! R37   R(20,25)                1.0845         calculate D2E/DX2 analytically  !
 ! R38   R(21,22)                1.388          calculate D2E/DX2 analytically  !
 ! R39   R(21,24)                1.0842         calculate D2E/DX2 analytically  !
 ! R40   R(22,23)                1.4783         calculate D2E/DX2 analytically  !
 ! A1    A(2,1,5)              114.4944         calculate D2E/DX2 analytically  !
 ! A2    A(2,1,19)             114.4397         calculate D2E/DX2 analytically  !
 ! A3    A(5,1,19)             131.0659         calculate D2E/DX2 analytically  !
 ! A4    A(1,2,3)              121.591          calculate D2E/DX2 analytically  !
 ! A5    A(1,2,22)             128.3128         calculate D2E/DX2 analytically  !
 ! A6    A(3,2,22)             110.0962         calculate D2E/DX2 analytically  !
 ! A7    A(2,3,4)              126.1013         calculate D2E/DX2 analytically  !
 ! A8    A(2,3,7)              108.0602         calculate D2E/DX2 analytically  !
 ! A9    A(4,3,7)              125.8385         calculate D2E/DX2 analytically  !
 ! A10   A(3,4,6)              112.8001         calculate D2E/DX2 analytically  !
 ! A11   A(3,4,10)             115.1289         calculate D2E/DX2 analytically  !
 ! A12   A(6,4,10)             132.071          calculate D2E/DX2 analytically  !
 ! A13   A(1,5,6)              123.121          calculate D2E/DX2 analytically  !
 ! A14   A(1,5,27)             118.4829         calculate D2E/DX2 analytically  !
 ! A15   A(6,5,27)             118.3961         calculate D2E/DX2 analytically  !
 ! A16   A(4,6,5)              121.8922         calculate D2E/DX2 analytically  !
 ! A17   A(4,6,28)             119.4518         calculate D2E/DX2 analytically  !
 ! A18   A(5,6,28)             118.656          calculate D2E/DX2 analytically  !
 ! A19   A(3,7,8)              118.6794         calculate D2E/DX2 analytically  !
 ! A20   A(3,7,23)             109.9822         calculate D2E/DX2 analytically  !
 ! A21   A(8,7,23)             131.3384         calculate D2E/DX2 analytically  !
 ! A22   A(7,8,9)              119.1204         calculate D2E/DX2 analytically  !
 ! A23   A(7,8,11)             116.9765         calculate D2E/DX2 analytically  !
 ! A24   A(9,8,11)             123.9031         calculate D2E/DX2 analytically  !
 ! A25   A(8,9,10)             120.2            calculate D2E/DX2 analytically  !
 ! A26   A(8,9,14)             114.9003         calculate D2E/DX2 analytically  !
 ! A27   A(10,9,14)            124.8998         calculate D2E/DX2 analytically  !
 ! A28   A(4,10,9)             121.0328         calculate D2E/DX2 analytically  !
 ! A29   A(4,10,29)            120.3375         calculate D2E/DX2 analytically  !
 ! A30   A(9,10,29)            118.6297         calculate D2E/DX2 analytically  !
 ! A31   A(8,11,12)            119.4642         calculate D2E/DX2 analytically  !
 ! A32   A(8,11,15)            118.6425         calculate D2E/DX2 analytically  !
 ! A33   A(12,11,15)           121.8933         calculate D2E/DX2 analytically  !
 ! A34   A(11,12,13)           117.1544         calculate D2E/DX2 analytically  !
 ! A35   A(11,12,18)           117.0504         calculate D2E/DX2 analytically  !
 ! A36   A(13,12,18)           125.7952         calculate D2E/DX2 analytically  !
 ! A37   A(12,13,14)           122.6383         calculate D2E/DX2 analytically  !
 ! A38   A(12,13,31)           118.0439         calculate D2E/DX2 analytically  !
 ! A39   A(14,13,31)           119.3178         calculate D2E/DX2 analytically  !
 ! A40   A(9,14,13)            121.9398         calculate D2E/DX2 analytically  !
 ! A41   A(9,14,30)            118.7016         calculate D2E/DX2 analytically  !
 ! A42   A(13,14,30)           119.3586         calculate D2E/DX2 analytically  !
 ! A43   A(11,15,16)           120.4845         calculate D2E/DX2 analytically  !
 ! A44   A(11,15,33)           110.7163         calculate D2E/DX2 analytically  !
 ! A45   A(16,15,33)           128.7992         calculate D2E/DX2 analytically  !
 ! A46   A(15,16,17)           118.2748         calculate D2E/DX2 analytically  !
 ! A47   A(15,16,34)           121.9224         calculate D2E/DX2 analytically  !
 ! A48   A(17,16,34)           119.8028         calculate D2E/DX2 analytically  !
 ! A49   A(16,17,18)           121.8129         calculate D2E/DX2 analytically  !
 ! A50   A(16,17,35)           118.7417         calculate D2E/DX2 analytically  !
 ! A51   A(18,17,35)           119.4455         calculate D2E/DX2 analytically  !
 ! A52   A(12,18,17)           120.484          calculate D2E/DX2 analytically  !
 ! A53   A(12,18,32)           119.6739         calculate D2E/DX2 analytically  !
 ! A54   A(17,18,32)           119.8421         calculate D2E/DX2 analytically  !
 ! A55   A(1,19,20)            119.4205         calculate D2E/DX2 analytically  !
 ! A56   A(1,19,26)            120.9657         calculate D2E/DX2 analytically  !
 ! A57   A(20,19,26)           119.6138         calculate D2E/DX2 analytically  !
 ! A58   A(19,20,21)           124.019          calculate D2E/DX2 analytically  !
 ! A59   A(19,20,25)           118.2784         calculate D2E/DX2 analytically  !
 ! A60   A(21,20,25)           117.7026         calculate D2E/DX2 analytically  !
 ! A61   A(20,21,22)           118.6185         calculate D2E/DX2 analytically  !
 ! A62   A(20,21,24)           119.3005         calculate D2E/DX2 analytically  !
 ! A63   A(22,21,24)           122.081          calculate D2E/DX2 analytically  !
 ! A64   A(2,22,21)            115.1895         calculate D2E/DX2 analytically  !
 ! A65   A(2,22,23)            104.951          calculate D2E/DX2 analytically  !
 ! A66   A(21,22,23)           139.8595         calculate D2E/DX2 analytically  !
 ! A67   A(7,23,22)            106.9104         calculate D2E/DX2 analytically  !
 ! D1    D(5,1,2,3)              0.0022         calculate D2E/DX2 analytically  !
 ! D2    D(5,1,2,22)          -179.9999         calculate D2E/DX2 analytically  !
 ! D3    D(19,1,2,3)          -179.9972         calculate D2E/DX2 analytically  !
 ! D4    D(19,1,2,22)            0.0008         calculate D2E/DX2 analytically  !
 ! D5    D(2,1,5,6)             -0.0002         calculate D2E/DX2 analytically  !
 ! D6    D(2,1,5,27)           179.9987         calculate D2E/DX2 analytically  !
 ! D7    D(19,1,5,6)           179.9991         calculate D2E/DX2 analytically  !
 ! D8    D(19,1,5,27)           -0.0021         calculate D2E/DX2 analytically  !
 ! D9    D(2,1,19,20)           -0.001          calculate D2E/DX2 analytically  !
 ! D10   D(2,1,19,26)         -179.9996         calculate D2E/DX2 analytically  !
 ! D11   D(5,1,19,20)          179.9998         calculate D2E/DX2 analytically  !
 ! D12   D(5,1,19,26)            0.0012         calculate D2E/DX2 analytically  !
 ! D13   D(1,2,3,4)             -0.0019         calculate D2E/DX2 analytically  !
 ! D14   D(1,2,3,7)            179.9957         calculate D2E/DX2 analytically  !
 ! D15   D(22,2,3,4)           179.9998         calculate D2E/DX2 analytically  !
 ! D16   D(22,2,3,7)            -0.0026         calculate D2E/DX2 analytically  !
 ! D17   D(1,2,22,21)            0.0004         calculate D2E/DX2 analytically  !
 ! D18   D(1,2,22,23)         -179.9981         calculate D2E/DX2 analytically  !
 ! D19   D(3,2,22,21)          179.9985         calculate D2E/DX2 analytically  !
 ! D20   D(3,2,22,23)            0.0            calculate D2E/DX2 analytically  !
 ! D21   D(2,3,4,6)             -0.0005         calculate D2E/DX2 analytically  !
 ! D22   D(2,3,4,10)           179.998          calculate D2E/DX2 analytically  !
 ! D23   D(7,3,4,6)           -179.9977         calculate D2E/DX2 analytically  !
 ! D24   D(7,3,4,10)             0.0009         calculate D2E/DX2 analytically  !
 ! D25   D(2,3,7,8)           -179.9971         calculate D2E/DX2 analytically  !
 ! D26   D(2,3,7,23)             0.0042         calculate D2E/DX2 analytically  !
 ! D27   D(4,3,7,8)              0.0005         calculate D2E/DX2 analytically  !
 ! D28   D(4,3,7,23)          -179.9981         calculate D2E/DX2 analytically  !
 ! D29   D(3,4,6,5)              0.0026         calculate D2E/DX2 analytically  !
 ! D30   D(3,4,6,28)           179.9997         calculate D2E/DX2 analytically  !
 ! D31   D(10,4,6,5)          -179.9957         calculate D2E/DX2 analytically  !
 ! D32   D(10,4,6,28)            0.0014         calculate D2E/DX2 analytically  !
 ! D33   D(3,4,10,9)            -0.0028         calculate D2E/DX2 analytically  !
 ! D34   D(3,4,10,29)         -179.9976         calculate D2E/DX2 analytically  !
 ! D35   D(6,4,10,9)           179.9954         calculate D2E/DX2 analytically  !
 ! D36   D(6,4,10,29)            0.0006         calculate D2E/DX2 analytically  !
 ! D37   D(1,5,6,4)             -0.0024         calculate D2E/DX2 analytically  !
 ! D38   D(1,5,6,28)          -179.9995         calculate D2E/DX2 analytically  !
 ! D39   D(27,5,6,4)           179.9988         calculate D2E/DX2 analytically  !
 ! D40   D(27,5,6,28)            0.0017         calculate D2E/DX2 analytically  !
 ! D41   D(3,7,8,9)              0.0001         calculate D2E/DX2 analytically  !
 ! D42   D(3,7,8,11)          -179.9991         calculate D2E/DX2 analytically  !
 ! D43   D(23,7,8,9)           179.9984         calculate D2E/DX2 analytically  !
 ! D44   D(23,7,8,11)           -0.0009         calculate D2E/DX2 analytically  !
 ! D45   D(3,7,23,22)           -0.0042         calculate D2E/DX2 analytically  !
 ! D46   D(8,7,23,22)          179.9974         calculate D2E/DX2 analytically  !
 ! D47   D(7,8,9,10)            -0.0021         calculate D2E/DX2 analytically  !
 ! D48   D(7,8,9,14)           179.9969         calculate D2E/DX2 analytically  !
 ! D49   D(11,8,9,10)          179.9971         calculate D2E/DX2 analytically  !
 ! D50   D(11,8,9,14)           -0.0039         calculate D2E/DX2 analytically  !
 ! D51   D(7,8,11,12)         -179.9964         calculate D2E/DX2 analytically  !
 ! D52   D(7,8,11,15)            0.0043         calculate D2E/DX2 analytically  !
 ! D53   D(9,8,11,12)            0.0044         calculate D2E/DX2 analytically  !
 ! D54   D(9,8,11,15)         -179.9949         calculate D2E/DX2 analytically  !
 ! D55   D(8,9,10,4)             0.0035         calculate D2E/DX2 analytically  !
 ! D56   D(8,9,10,29)          179.9984         calculate D2E/DX2 analytically  !
 ! D57   D(14,9,10,4)         -179.9954         calculate D2E/DX2 analytically  !
 ! D58   D(14,9,10,29)          -0.0005         calculate D2E/DX2 analytically  !
 ! D59   D(8,9,14,13)            0.001          calculate D2E/DX2 analytically  !
 ! D60   D(8,9,14,30)         -179.9993         calculate D2E/DX2 analytically  !
 ! D61   D(10,9,14,13)         180.0            calculate D2E/DX2 analytically  !
 ! D62   D(10,9,14,30)          -0.0003         calculate D2E/DX2 analytically  !
 ! D63   D(8,11,12,13)          -0.0019         calculate D2E/DX2 analytically  !
 ! D64   D(8,11,12,18)         179.9983         calculate D2E/DX2 analytically  !
 ! D65   D(15,11,12,13)        179.9974         calculate D2E/DX2 analytically  !
 ! D66   D(15,11,12,18)         -0.0024         calculate D2E/DX2 analytically  !
 ! D67   D(8,11,15,16)        -179.9986         calculate D2E/DX2 analytically  !
 ! D68   D(8,11,15,33)           0.0037         calculate D2E/DX2 analytically  !
 ! D69   D(12,11,15,16)          0.0022         calculate D2E/DX2 analytically  !
 ! D70   D(12,11,15,33)       -179.9956         calculate D2E/DX2 analytically  !
 ! D71   D(11,12,13,14)         -0.0008         calculate D2E/DX2 analytically  !
 ! D72   D(11,12,13,31)       -179.9992         calculate D2E/DX2 analytically  !
 ! D73   D(18,12,13,14)        179.999          calculate D2E/DX2 analytically  !
 ! D74   D(18,12,13,31)          0.0005         calculate D2E/DX2 analytically  !
 ! D75   D(11,12,18,17)          0.0007         calculate D2E/DX2 analytically  !
 ! D76   D(11,12,18,32)       -179.9991         calculate D2E/DX2 analytically  !
 ! D77   D(13,12,18,17)       -179.9991         calculate D2E/DX2 analytically  !
 ! D78   D(13,12,18,32)          0.0012         calculate D2E/DX2 analytically  !
 ! D79   D(12,13,14,9)           0.0012         calculate D2E/DX2 analytically  !
 ! D80   D(12,13,14,30)       -179.9985         calculate D2E/DX2 analytically  !
 ! D81   D(31,13,14,9)         179.9996         calculate D2E/DX2 analytically  !
 ! D82   D(31,13,14,30)          0.0            calculate D2E/DX2 analytically  !
 ! D83   D(11,15,16,17)         -0.0001         calculate D2E/DX2 analytically  !
 ! D84   D(11,15,16,34)       -179.9993         calculate D2E/DX2 analytically  !
 ! D85   D(33,15,16,17)        179.9971         calculate D2E/DX2 analytically  !
 ! D86   D(33,15,16,34)         -0.002          calculate D2E/DX2 analytically  !
 ! D87   D(15,16,17,18)         -0.0016         calculate D2E/DX2 analytically  !
 ! D88   D(15,16,17,35)        179.9996         calculate D2E/DX2 analytically  !
 ! D89   D(34,16,17,18)        179.9976         calculate D2E/DX2 analytically  !
 ! D90   D(34,16,17,35)         -0.0012         calculate D2E/DX2 analytically  !
 ! D91   D(16,17,18,12)          0.0013         calculate D2E/DX2 analytically  !
 ! D92   D(16,17,18,32)       -179.9989         calculate D2E/DX2 analytically  !
 ! D93   D(35,17,18,12)       -179.9999         calculate D2E/DX2 analytically  !
 ! D94   D(35,17,18,32)         -0.0002         calculate D2E/DX2 analytically  !
 ! D95   D(1,19,20,21)           0.0001         calculate D2E/DX2 analytically  !
 ! D96   D(1,19,20,25)        -179.9995         calculate D2E/DX2 analytically  !
 ! D97   D(26,19,20,21)        179.9987         calculate D2E/DX2 analytically  !
 ! D98   D(26,19,20,25)         -0.0009         calculate D2E/DX2 analytically  !
 ! D99   D(19,20,21,22)          0.0012         calculate D2E/DX2 analytically  !
 ! D100  D(19,20,21,24)        179.9991         calculate D2E/DX2 analytically  !
 ! D101  D(25,20,21,22)       -179.9992         calculate D2E/DX2 analytically  !
 ! D102  D(25,20,21,24)         -0.0013         calculate D2E/DX2 analytically  !
 ! D103  D(20,21,22,2)          -0.0014         calculate D2E/DX2 analytically  !
 ! D104  D(20,21,22,23)        179.9964         calculate D2E/DX2 analytically  !
 ! D105  D(24,21,22,2)        -179.9992         calculate D2E/DX2 analytically  !
 ! D106  D(24,21,22,23)         -0.0014         calculate D2E/DX2 analytically  !
 ! D107  D(2,22,23,7)            0.0025         calculate D2E/DX2 analytically  !
 ! D108  D(21,22,23,7)        -179.9954         calculate D2E/DX2 analytically  !
 --------------------------------------------------------------------------------
 Trust Radius=3.00D-01 FncErr=1.00D-07 GrdErr=1.00D-06
 Number of steps in this run=    210 maximum allowed number of steps=    210.
 Search for a saddle point of order  1.
 GradGradGradGradGradGradGradGradGradGradGradGradGradGradGradGradGradGrad

                          Input orientation:                          
 ---------------------------------------------------------------------
 Center     Atomic      Atomic             Coordinates (Angstroms)
 Number     Number       Type             X           Y           Z
 ---------------------------------------------------------------------
      1          6           0       -3.642815   -0.179901   -0.000036
      2          6           0       -2.338445    0.283562    0.000039
      3          6           0       -1.250859   -0.592384    0.000083
      4          6           0       -1.317473   -1.980834    0.000097
      5          6           0       -3.767775   -1.627547   -0.000013
      6          6           0       -2.680774   -2.478471    0.000073
      7          6           0       -0.082666    0.168911    0.000055
      8          6           0        1.139262   -0.487073    0.000029
      9          6           0        1.161435   -1.911881    0.000029
     10          6           0       -0.057789   -2.647118    0.000100
     11          6           0        2.305913    0.323609    0.000020
     12          6           0        3.578065   -0.289762   -0.000084
     13          6           0        3.613679   -1.733334   -0.000134
     14          6           0        2.480277   -2.499307   -0.000069
     15          6           0        2.155189    1.721915    0.000131
     16          6           0        3.256757    2.541107    0.000097
     17          6           0        4.540913    1.939880   -0.000050
     18          6           0        4.703085    0.564436   -0.000125
     19          6           0       -4.631263    0.843646   -0.000137
     20          6           0       -4.234109    2.177665   -0.000132
     21          6           0       -2.877117    2.603963   -0.000032
     22          6           0       -1.877678    1.640789    0.000042
     23          6           0       -0.402620    1.542793    0.000091
     24          1           0       -2.654274    3.665060   -0.000051
     25          1           0       -5.002871    2.942609   -0.000202
     26          1           0       -5.688103    0.598977   -0.000195
     27          1           0       -4.762790   -2.061212   -0.000047
     28          1           0       -2.857986   -3.549093    0.000076
     29          1           0       -0.011162   -3.731651    0.000072
     30          1           0        2.569066   -3.580902   -0.000086
     31          1           0        4.583832   -2.219800   -0.000201
     32          1           0        5.700995    0.138428   -0.000220
     33          1           0        0.899934    2.048044    0.000307
     34          1           0        3.167661    3.621499    0.000192
     35          1           0        5.416565    2.580054   -0.000084
 ---------------------------------------------------------------------
                    Distance matrix (angstroms):
                    1          2          3          4          5
     1  C    0.000000
     2  C    1.384261   0.000000
     3  C    2.427261   1.396469   0.000000
     4  C    2.941186   2.483923   1.390047   0.000000
     5  C    1.453029   2.386487   2.721475   2.475640   0.000000
     6  C    2.491776   2.783166   2.366850   1.451286   1.380450
     7  C    3.577196   2.258691   1.394362   2.479143   4.099669
     8  C    4.791932   3.562067   2.392440   2.875216   5.037826
     9  C    5.106914   4.131480   2.749588   2.479867   4.937404
    10  C    4.351962   3.713526   2.375994   1.425040   3.847534
    11  C    5.969999   4.644531   3.672829   4.294110   6.379396
    12  C    7.221716   5.944223   4.838397   5.179384   7.466662
    13  C    7.420907   6.284556   4.996548   4.937359   7.382212
    14  C    6.547664   5.564570   4.190195   3.832978   6.308575
    15  C    6.101947   4.718221   4.117905   5.076390   6.804440
    16  C    7.416736   6.033473   5.489751   6.432070   8.168337
    17  C    8.453808   7.075942   6.321154   7.049304   9.042170
    18  C    8.379026   7.047130   6.065285   6.536476   8.749872
    19  C    1.422912   2.360235   3.672780   4.354181   2.617710
    20  C    2.430586   2.679770   4.070989   5.079358   3.833680
    21  C    2.887246   2.382106   3.586272   4.842815   4.324228
    22  C    2.535867   1.433308   2.319475   3.664694   3.775511
    23  C    3.669678   2.309346   2.297497   3.640454   4.623346
    24  H    3.970005   3.396215   4.482790   5.801996   5.408472
    25  H    3.405851   3.764266   5.154975   6.149996   4.734109
    26  H    2.188574   3.364476   4.594396   5.075217   2.940250
    27  H    2.189446   3.372746   3.806720   3.446254   1.085412
    28  H    3.459395   3.867708   3.365262   2.198321   2.126042
    29  H    5.079747   4.640925   3.375181   2.184447   4.305740
    30  H    7.081968   6.246419   4.850058   4.203023   6.631075
    31  H    8.475784   7.361028   6.057401   5.906141   8.372580
    32  H    9.349231   8.040750   6.990162   7.331450   9.632044
    33  H    5.059675   3.687885   3.405550   4.598777   5.941168
    34  H    7.799566   6.438868   6.105746   7.176529   8.697859
    35  H    9.470466   8.087896   7.383692   8.133202  10.102277
                    6          7          8          9         10
     6  C    0.000000
     7  C    3.709285   0.000000
     8  C    4.307939   1.386875   0.000000
     9  C    3.883760   2.424352   1.424981   0.000000
    10  C    2.628401   2.816139   2.469560   1.423756   0.000000
    11  C    5.720026   2.393583   1.420662   2.511423   3.796354
    12  C    6.630499   3.689354   2.446772   2.910562   4.333193
    13  C    6.338404   4.157103   2.770543   2.458735   3.783474
    14  C    5.161093   3.699738   2.418141   1.443750   2.542366
    15  C    6.405449   2.723934   2.431406   3.767230   4.897522
    16  C    7.774988   4.096225   3.695086   4.921329   6.156614
    17  C    8.466085   4.951143   4.178676   5.124152   6.495276
    18  C    7.986279   4.802068   3.715711   4.321508   5.742822
    19  C    3.852385   4.598369   5.921974   6.414692   5.753442
    20  C    4.908406   4.611895   5.997828   6.770250   6.381237
    21  C    5.086225   3.706539   5.068116   6.058279   5.960072
    22  C    4.196816   2.321313   3.691846   4.675219   4.658126
    23  C    4.621747   1.410646   2.549070   3.792234   4.204077
    24  H    6.143588   4.340072   5.624155   6.757359   6.825344
    25  H    5.897478   5.648169   7.034807   7.846320   7.463168
    26  H    4.302873   5.621911   6.913206   7.295244   6.499044
    27  H    2.123416   5.184304   6.108366   5.926107   4.741342
    28  H    1.085189   4.639607   5.035271   4.340070   2.941881
    29  H    2.949117   3.901217   3.442494   2.164843   1.085535
    30  H    5.364343   4.592688   3.408243   2.183359   2.787888
    31  H    7.269210   5.242341   3.855827   3.436221   4.661249
    32  H    8.780787   5.783741   4.604417   4.981101   6.397098
    33  H    5.771552   2.120529   2.546389   3.968550   4.791845
    34  H    8.450670   4.741834   4.582005   5.885851   7.049758
    35  H    9.547543   6.004594   5.263325   6.187375   7.569140
                   11         12         13         14         15
    11  C    0.000000
    12  C    1.412301   0.000000
    13  C    2.437471   1.444011   0.000000
    14  C    2.828296   2.467231   1.367960   0.000000
    15  C    1.406406   2.464025   3.750458   4.233721   0.000000
    16  C    2.412758   2.849045   4.289317   5.099872   1.372781
    17  C    2.758180   2.428658   3.788438   4.894140   2.395660
    18  C    2.409239   1.412559   2.542942   3.785155   2.798487
    19  C    6.956641   8.287200   8.638281   7.858075   6.843047
    20  C    6.797750   8.192573   8.768334   8.182729   6.405532
    21  C    5.662492   7.074109   7.806573   7.398989   5.109023
    22  C    4.386046   5.787241   6.445131   6.011004   4.033683
    23  C    2.970280   4.382250   5.183017   4.964843   2.564073
    24  H    5.980698   7.381237   8.272236   8.022658   5.187171
    25  H    7.763858   9.169552   9.803539   9.252673   7.261399
    26  H    7.998757   9.308691   9.589725   8.736235   7.923271
    27  H    7.460156   8.526893   8.382884   7.256304   7.884826
    28  H    6.454740   7.214291   6.721564   5.440506   7.274301
    29  H    4.670543   4.972841   4.139172   2.779558   5.868088
    30  H    3.913369   3.442337   2.122433   1.085233   5.318944
    31  H    3.414359   2.176376   1.085286   2.122043   4.629841
    32  H    3.400129   2.165682   2.803637   4.163012   3.883320
    33  H    2.224961   3.554957   4.654378   4.814134   1.296929
    34  H    3.408620   3.932734   5.373376   6.159283   2.152561
    35  H    3.842877   3.408215   4.675010   5.867001   3.372384
                   16         17         18         19         20
    16  C    0.000000
    17  C    1.417932   0.000000
    18  C    2.449305   1.384971   0.000000
    19  C    8.068596   9.237453   9.338523   0.000000
    20  C    7.499678   8.778243   9.081627   1.391883   0.000000
    21  C    6.134196   7.447696   7.849786   2.485104   1.422377
    22  C    5.212772   6.425556   6.668206   2.866647   2.416817
    23  C    3.793108   4.959455   5.198597   4.286050   3.883732
    24  H    6.016939   7.399119   7.984022   3.445122   2.169844
    25  H    8.269381   9.596316   9.993062   2.131605   1.084497
    26  H    9.153272  10.316530  10.391245   1.084792   2.146242
    27  H    9.246322  10.127568   9.823279   2.907834   4.271719
    28  H    8.630215   9.212629   8.607608   4.737158   5.889777
    29  H    7.072962   7.272390   6.378126   6.502205   7.263146
    30  H    6.160512   5.862356   4.662388   8.451116   8.913152
    31  H    4.942405   4.159901   2.786789   9.710957   9.853618
    32  H    3.427414   2.142666   1.085038  10.356297  10.142228
    33  H    2.407847   3.642585   4.082285   5.660805   5.135679
    34  H    1.084059   2.171097   3.420988   8.278870   7.541277
    35  H    2.160159   1.084707   2.138170  10.196762   9.659059
                   21         22         23         24         25
    21  C    0.000000
    22  C    1.388014   0.000000
    23  C    2.692437   1.478310   0.000000
    24  H    1.084244   2.168127   3.094182   0.000000
    25  H    2.152559   3.385494   4.808513   2.457202   0.000000
    26  H    3.452769   3.950280   5.369089   4.313349   2.441752
    27  H    5.031861   4.693472   5.656848   6.102133   5.009577
    28  H    6.153086   5.281655   5.652975   7.217029   6.836865
    29  H    6.953683   5.687442   5.288951   7.854768   8.334441
    30  H    8.240963   6.858541   5.923105   8.932371   9.994520
    31  H    8.884506   7.526969   6.246744   9.328545  10.888312
    32  H    8.925406   7.726149   6.263095   9.069049  11.065088
    33  H    3.817743   2.807309   1.397113   3.904758   5.970205
    34  H    6.129822   5.420208   4.131335   5.822098   8.198688
    35  H    8.293716   7.354468   5.910907   8.143444  10.425742
                   26         27         28         29         30
    26  H    0.000000
    27  H    2.816524   0.000000
    28  H    5.021558   2.417037   0.000000
    29  H    7.140168   5.036699   2.852671   0.000000
    30  H    9.254849   7.487695   5.427145   2.584628   0.000000
    31  H   10.651674   9.347967   7.559608   4.837320   2.431436
    32  H   11.398406  10.692484   9.319548   6.899728   4.862345
    33  H    6.745519   6.996601   6.741654   5.851066   5.871204
    34  H    9.357360   9.756293   9.366206   8.010851   7.227233
    35  H   11.279996  11.187521  10.297312   8.324532   6.787167
                   31         32         33         34         35
    31  H    0.000000
    32  H    2.609462   0.000000
    33  H    5.637872   5.166897   0.000000
    34  H    6.010517   4.306921   2.760135   0.000000
    35  H    4.871554   2.458137   4.547856   2.478342   0.000000
 Stoichiometry    C23H12(3)
 Framework group  C1[X(C23H12)]
 Deg. of freedom    99
 Full point group                 C1      NOp   1
 Largest Abelian subgroup         C1      NOp   1
 Largest concise Abelian subgroup C1      NOp   1
                         Standard orientation:                         
 ---------------------------------------------------------------------
 Center     Atomic      Atomic             Coordinates (Angstroms)
 Number     Number       Type             X           Y           Z
 ---------------------------------------------------------------------
      1          6           0       -3.642815    0.179901    0.000036
      2          6           0       -2.338445   -0.283562   -0.000039
      3          6           0       -1.250859    0.592384   -0.000083
      4          6           0       -1.317473    1.980834   -0.000097
      5          6           0       -3.767775    1.627547    0.000013
      6          6           0       -2.680774    2.478471   -0.000073
      7          6           0       -0.082666   -0.168911   -0.000055
      8          6           0        1.139262    0.487073   -0.000029
      9          6           0        1.161435    1.911881   -0.000029
     10          6           0       -0.057789    2.647118   -0.000100
     11          6           0        2.305913   -0.323609   -0.000020
     12          6           0        3.578065    0.289762    0.000084
     13          6           0        3.613679    1.733334    0.000134
     14          6           0        2.480277    2.499307    0.000069
     15          6           0        2.155189   -1.721915   -0.000131
     16          6           0        3.256757   -2.541107   -0.000097
     17          6           0        4.540913   -1.939880    0.000050
     18          6           0        4.703085   -0.564436    0.000125
     19          6           0       -4.631263   -0.843646    0.000137
     20          6           0       -4.234109   -2.177665    0.000132
     21          6           0       -2.877117   -2.603963    0.000032
     22          6           0       -1.877678   -1.640789   -0.000042
     23          6           0       -0.402620   -1.542793   -0.000091
     24          1           0       -2.654274   -3.665060    0.000051
     25          1           0       -5.002871   -2.942609    0.000202
     26          1           0       -5.688103   -0.598977    0.000195
     27          1           0       -4.762790    2.061212    0.000047
     28          1           0       -2.857986    3.549093   -0.000076
     29          1           0       -0.011162    3.731651   -0.000072
     30          1           0        2.569066    3.580902    0.000086
     31          1           0        4.583832    2.219800    0.000201
     32          1           0        5.700995   -0.138428    0.000220
     33          1           0        0.899934   -2.048044   -0.000307
     34          1           0        3.167661   -3.621499   -0.000192
     35          1           0        5.416565   -2.580054    0.000084
 ---------------------------------------------------------------------
 Rotational constants (GHZ):      0.5822378      0.2013469      0.1496096
 Standard basis: 6-311G(d,p) (5D, 7F)
 There are   509 symmetry adapted cartesian basis functions of A   symmetry.
 There are   486 symmetry adapted basis functions of A   symmetry.
   486 basis functions,   832 primitive gaussians,   509 cartesian basis functions
    76 alpha electrons       74 beta electrons
       nuclear repulsion energy      1663.4057697506 Hartrees.
 NAtoms=   35 NActive=   35 NUniq=   35 SFac= 1.00D+00 NAtFMM=   60 NAOKFM=F Big=F
 Integral buffers will be    131072 words long.
 Raffenetti 2 integral format.
 Two-electron integral symmetry is turned on.
 One-electron integrals computed using PRISM.
 NBasis=   486 RedAO= T EigKep=  3.81D-05  NBF=   486
 NBsUse=   486 1.00D-06 EigRej= -1.00D+00 NBFU=   486
 ExpMin= 1.03D-01 ExpMax= 4.56D+03 ExpMxC= 6.82D+02 IAcc=1 IRadAn=         1 AccDes= 0.00D+00
 Harris functional with IExCor=  402 and IRadAn=       1 diagonalized for initial guess.
 HarFok:  IExCor=  402 AccDes= 0.00D+00 IRadAn=         1 IDoV= 1 UseB2=F ITyADJ=14
 ICtDFT=  3500011 ScaDFX=  1.000000  1.000000  1.000000  1.000000
 FoFCou: FMM=F IPFlag=           0 FMFlag=      100000 FMFlg1=           0
         NFxFlg=           0 DoJE=T BraDBF=F KetDBF=T FulRan=T
         wScrn=  0.000000 ICntrl=     500 IOpCl=  0 I1Cent=   200000004 NGrid=           0
         NMat0=    1 NMatS0=      1 NMatT0=    0 NMatD0=    1 NMtDS0=    0 NMtDT0=    0
 Petite list used in FoFCou.
 Initial guess <Sx>= 0.0000 <Sy>= 0.0000 <Sz>= 1.0000 <S**2>= 2.0000 S= 1.0000
 Requested convergence on RMS density matrix=1.00D-08 within 128 cycles.
 Requested convergence on MAX density matrix=1.00D-06.
 Requested convergence on             energy=1.00D-06.
 No special actions if energy rises.
 Integral accuracy reduced to 1.0D-05 until final iterations.
 Initial convergence to 1.0D-05 achieved.  Increase integral accuracy.
 SCF Done:  E(UB3LYP) =  -883.759583078     A.U. after   22 cycles
            NFock= 22  Conv=0.83D-08     -V/T= 2.0042
 <Sx>= 0.0000 <Sy>= 0.0000 <Sz>= 1.0000 <S**2>= 2.0480 S= 1.0159
 <L.S>= 0.000000000000E+00
 Annihilation of the first spin contaminant:
 S**2 before annihilation     2.0480,   after     2.0013
 DoSCS=F DFT=T ScalE2(SS,OS)=  1.000000  1.000000
 Range of M.O.s used for correlation:     1   486
 NBasis=   486 NAE=    76 NBE=    74 NFC=     0 NFV=     0
 NROrb=    486 NOA=    76 NOB=    74 NVA=   410 NVB=   412

 **** Warning!!: The largest alpha MO coefficient is  0.26298004D+02


 **** Warning!!: The largest beta MO coefficient is  0.26407400D+02


 **** Warning!!: The smallest beta delta epsilon is  0.90889027D-01

 Symmetrizing basis deriv contribution to polar:
 IMax=3 JMax=2 DiffMx= 0.00D+00
 G2DrvN: will do    36 centers at a time, making    1 passes.
 Calling FoFCou, ICntrl=  3107 FMM=F I1Cent=   0 AccDes= 0.00D+00.
 End of G2Drv F.D. properties file   721 does not exist.
 End of G2Drv F.D. properties file   722 does not exist.
 End of G2Drv F.D. properties file   788 does not exist.
          IDoAtm=11111111111111111111111111111111111
          Differentiating once with respect to nuclear coordinates.
          There are   108 degrees of freedom in the 1st order CPHF.  IDoFFX=6 NUNeed=     0.
    102 vectors produced by pass  0 Test12= 6.16D-14 1.00D-09 XBig12= 3.28D-01 2.38D-01.
 AX will form   102 AO Fock derivatives at one time.
    102 vectors produced by pass  1 Test12= 6.16D-14 1.00D-09 XBig12= 1.18D-01 5.59D-02.
    102 vectors produced by pass  2 Test12= 6.16D-14 1.00D-09 XBig12= 2.46D-03 9.06D-03.
    102 vectors produced by pass  3 Test12= 6.16D-14 1.00D-09 XBig12= 4.21D-05 1.16D-03.
    102 vectors produced by pass  4 Test12= 6.16D-14 1.00D-09 XBig12= 3.03D-07 5.25D-05.
    102 vectors produced by pass  5 Test12= 6.16D-14 1.00D-09 XBig12= 1.70D-09 3.18D-06.
     94 vectors produced by pass  6 Test12= 6.16D-14 1.00D-09 XBig12= 9.26D-12 1.99D-07.
     50 vectors produced by pass  7 Test12= 6.16D-14 1.00D-09 XBig12= 5.41D-14 1.43D-08.
      5 vectors produced by pass  8 Test12= 6.16D-14 1.00D-09 XBig12= 9.95D-16 2.77D-09.
      4 vectors produced by pass  9 Test12= 6.16D-14 1.00D-09 XBig12= 1.48D-15 2.40D-09.
      4 vectors produced by pass 10 Test12= 6.16D-14 1.00D-09 XBig12= 8.31D-15 6.41D-09.
      4 vectors produced by pass 11 Test12= 6.16D-14 1.00D-09 XBig12= 9.17D-15 5.41D-09.
      3 vectors produced by pass 12 Test12= 6.16D-14 1.00D-09 XBig12= 5.19D-15 5.04D-09.
      3 vectors produced by pass 13 Test12= 6.16D-14 1.00D-09 XBig12= 5.57D-15 5.30D-09.
      2 vectors produced by pass 14 Test12= 6.16D-14 1.00D-09 XBig12= 3.68D-15 4.61D-09.
 InvSVY:  IOpt=1 It=  1 EMax= 1.33D-15
 Solved reduced A of dimension   781 with   108 vectors.
 End of Minotr F.D. properties file   721 does not exist.
 End of Minotr F.D. properties file   722 does not exist.
 End of Minotr F.D. properties file   788 does not exist.

 **********************************************************************

            Population analysis using the SCF density.

 **********************************************************************

 Orbital symmetries:
 Alpha Orbitals:
       Occupied  (A) (A) (A) (A) (A) (A) (A) (A) (A) (A) (A) (A)
                 (A) (A) (A) (A) (A) (A) (A) (A) (A) (A) (A) (A)
                 (A) (A) (A) (A) (A) (A) (A) (A) (A) (A) (A) (A)
                 (A) (A) (A) (A) (A) (A) (A) (A) (A) (A) (A) (A)
                 (A) (A) (A) (A) (A) (A) (A) (A) (A) (A) (A) (A)
                 (A) (A) (A) (A) (A) (A) (A) (A) (A) (A) (A) (A)
                 (A) (A) (A) (A)
       Virtual   (A) (A) (A) (A) (A) (A) (A) (A) (A) (A) (A) (A)
                 (A) (A) (A) (A) (A) (A) (A) (A) (A) (A) (A) (A)
                 (A) (A) (A) (A) (A) (A) (A) (A) (A) (A) (A) (A)
                 (A) (A) (A) (A) (A) (A) (A) (A) (A) (A) (A) (A)
                 (A) (A) (A) (A) (A) (A) (A) (A) (A) (A) (A) (A)
                 (A) (A) (A) (A) (A) (A) (A) (A) (A) (A) (A) (A)
                 (A) (A) (A) (A) (A) (A) (A) (A) (A) (A) (A) (A)
                 (A) (A) (A) (A) (A) (A) (A) (A) (A) (A) (A) (A)
                 (A) (A) (A) (A) (A) (A) (A) (A) (A) (A) (A) (A)
                 (A) (A) (A) (A) (A) (A) (A) (A) (A) (A) (A) (A)
                 (A) (A) (A) (A) (A) (A) (A) (A) (A) (A) (A) (A)
                 (A) (A) (A) (A) (A) (A) (A) (A) (A) (A) (A) (A)
                 (A) (A) (A) (A) (A) (A) (A) (A) (A) (A) (A) (A)
                 (A) (A) (A) (A) (A) (A) (A) (A) (A) (A) (A) (A)
                 (A) (A) (A) (A) (A) (A) (A) (A) (A) (A) (A) (A)
                 (A) (A) (A) (A) (A) (A) (A) (A) (A) (A) (A) (A)
                 (A) (A) (A) (A) (A) (A) (A) (A) (A) (A) (A) (A)
                 (A) (A) (A) (A) (A) (A) (A) (A) (A) (A) (A) (A)
                 (A) (A) (A) (A) (A) (A) (A) (A) (A) (A) (A) (A)
                 (A) (A) (A) (A) (A) (A) (A) (A) (A) (A) (A) (A)
                 (A) (A) (A) (A) (A) (A) (A) (A) (A) (A) (A) (A)
                 (A) (A) (A) (A) (A) (A) (A) (A) (A) (A) (A) (A)
                 (A) (A) (A) (A) (A) (A) (A) (A) (A) (A) (A) (A)
                 (A) (A) (A) (A) (A) (A) (A) (A) (A) (A) (A) (A)
                 (A) (A) (A) (A) (A) (A) (A) (A) (A) (A) (A) (A)
                 (A) (A) (A) (A) (A) (A) (A) (A) (A) (A) (A) (A)
                 (A) (A) (A) (A) (A) (A) (A) (A) (A) (A) (A) (A)
                 (A) (A) (A) (A) (A) (A) (A) (A) (A) (A) (A) (A)
                 (A) (A) (A) (A) (A) (A) (A) (A) (A) (A) (A) (A)
                 (A) (A) (A) (A) (A) (A) (A) (A) (A) (A) (A) (A)
                 (A) (A) (A) (A) (A) (A) (A) (A) (A) (A) (A) (A)
                 (A) (A) (A) (A) (A) (A) (A) (A) (A) (A) (A) (A)
                 (A) (A) (A) (A) (A) (A) (A) (A) (A) (A) (A) (A)
                 (A) (A) (A) (A) (A) (A) (A) (A) (A) (A) (A) (A)
                 (A) (A)
 Beta  Orbitals:
       Occupied  (A) (A) (A) (A) (A) (A) (A) (A) (A) (A) (A) (A)
                 (A) (A) (A) (A) (A) (A) (A) (A) (A) (A) (A) (A)
                 (A) (A) (A) (A) (A) (A) (A) (A) (A) (A) (A) (A)
                 (A) (A) (A) (A) (A) (A) (A) (A) (A) (A) (A) (A)
                 (A) (A) (A) (A) (A) (A) (A) (A) (A) (A) (A) (A)
                 (A) (A) (A) (A) (A) (A) (A) (A) (A) (A) (A) (A)
                 (A) (A)
       Virtual   (A) (A) (A) (A) (A) (A) (A) (A) (A) (A) (A) (A)
                 (A) (A) (A) (A) (A) (A) (A) (A) (A) (A) (A) (A)
                 (A) (A) (A) (A) (A) (A) (A) (A) (A) (A) (A) (A)
                 (A) (A) (A) (A) (A) (A) (A) (A) (A) (A) (A) (A)
                 (A) (A) (A) (A) (A) (A) (A) (A) (A) (A) (A) (A)
                 (A) (A) (A) (A) (A) (A) (A) (A) (A) (A) (A) (A)
                 (A) (A) (A) (A) (A) (A) (A) (A) (A) (A) (A) (A)
                 (A) (A) (A) (A) (A) (A) (A) (A) (A) (A) (A) (A)
                 (A) (A) (A) (A) (A) (A) (A) (A) (A) (A) (A) (A)
                 (A) (A) (A) (A) (A) (A) (A) (A) (A) (A) (A) (A)
                 (A) (A) (A) (A) (A) (A) (A) (A) (A) (A) (A) (A)
                 (A) (A) (A) (A) (A) (A) (A) (A) (A) (A) (A) (A)
                 (A) (A) (A) (A) (A) (A) (A) (A) (A) (A) (A) (A)
                 (A) (A) (A) (A) (A) (A) (A) (A) (A) (A) (A) (A)
                 (A) (A) (A) (A) (A) (A) (A) (A) (A) (A) (A) (A)
                 (A) (A) (A) (A) (A) (A) (A) (A) (A) (A) (A) (A)
                 (A) (A) (A) (A) (A) (A) (A) (A) (A) (A) (A) (A)
                 (A) (A) (A) (A) (A) (A) (A) (A) (A) (A) (A) (A)
                 (A) (A) (A) (A) (A) (A) (A) (A) (A) (A) (A) (A)
                 (A) (A) (A) (A) (A) (A) (A) (A) (A) (A) (A) (A)
                 (A) (A) (A) (A) (A) (A) (A) (A) (A) (A) (A) (A)
                 (A) (A) (A) (A) (A) (A) (A) (A) (A) (A) (A) (A)
                 (A) (A) (A) (A) (A) (A) (A) (A) (A) (A) (A) (A)
                 (A) (A) (A) (A) (A) (A) (A) (A) (A) (A) (A) (A)
                 (A) (A) (A) (A) (A) (A) (A) (A) (A) (A) (A) (A)
                 (A) (A) (A) (A) (A) (A) (A) (A) (A) (A) (A) (A)
                 (A) (A) (A) (A) (A) (A) (A) (A) (A) (A) (A) (A)
                 (A) (A) (A) (A) (A) (A) (A) (A) (A) (A) (A) (A)
                 (A) (A) (A) (A) (A) (A) (A) (A) (A) (A) (A) (A)
                 (A) (A) (A) (A) (A) (A) (A) (A) (A) (A) (A) (A)
                 (A) (A) (A) (A) (A) (A) (A) (A) (A) (A) (A) (A)
                 (A) (A) (A) (A) (A) (A) (A) (A) (A) (A) (A) (A)
                 (A) (A) (A) (A) (A) (A) (A) (A) (A) (A) (A) (A)
                 (A) (A) (A) (A) (A) (A) (A) (A) (A) (A) (A) (A)
                 (A) (A) (A) (A)
 The electronic state is 3-A.
 Alpha  occ. eigenvalues --  -10.21234 -10.19550 -10.19501 -10.19412 -10.19366
 Alpha  occ. eigenvalues --  -10.19334 -10.19310 -10.19017 -10.19009 -10.18894
 Alpha  occ. eigenvalues --  -10.18834 -10.18819 -10.18671 -10.18592 -10.18576
 Alpha  occ. eigenvalues --  -10.18541 -10.18533 -10.18341 -10.18249 -10.18208
 Alpha  occ. eigenvalues --  -10.16985 -10.16971 -10.16872  -0.92005  -0.88887
 Alpha  occ. eigenvalues --   -0.85567  -0.83954  -0.82813  -0.79329  -0.78730
 Alpha  occ. eigenvalues --   -0.75408  -0.74949  -0.72647  -0.71666  -0.69953
 Alpha  occ. eigenvalues --   -0.64649  -0.64019  -0.63342  -0.60245  -0.59745
 Alpha  occ. eigenvalues --   -0.58579  -0.56117  -0.52655  -0.52388  -0.51675
 Alpha  occ. eigenvalues --   -0.51226  -0.47839  -0.47244  -0.46695  -0.45982
 Alpha  occ. eigenvalues --   -0.44419  -0.43621  -0.43519  -0.43418  -0.42011
 Alpha  occ. eigenvalues --   -0.41638  -0.40696  -0.40333  -0.40082  -0.39298
 Alpha  occ. eigenvalues --   -0.37861  -0.36791  -0.36538  -0.34965  -0.34589
 Alpha  occ. eigenvalues --   -0.34068  -0.33494  -0.33333  -0.29865  -0.29429
 Alpha  occ. eigenvalues --   -0.25868  -0.25420  -0.23910  -0.23716  -0.21570
 Alpha  occ. eigenvalues --   -0.19425
 Alpha virt. eigenvalues --   -0.06706  -0.05461  -0.02228  -0.00118   0.01285
 Alpha virt. eigenvalues --    0.03227   0.04780   0.05052   0.05549   0.05678
 Alpha virt. eigenvalues --    0.06400   0.07516   0.08026   0.08578   0.08747
 Alpha virt. eigenvalues --    0.10499   0.10925   0.12970   0.13913   0.14238
 Alpha virt. eigenvalues --    0.16011   0.18602   0.19470   0.20416   0.20573
 Alpha virt. eigenvalues --    0.21421   0.22355   0.23724   0.24139   0.25425
 Alpha virt. eigenvalues --    0.25913   0.26349   0.26654   0.27538   0.28535
 Alpha virt. eigenvalues --    0.29195   0.29778   0.30819   0.32437   0.33588
 Alpha virt. eigenvalues --    0.33907   0.34549   0.35744   0.36648   0.37421
 Alpha virt. eigenvalues --    0.37706   0.38346   0.38393   0.39069   0.39806
 Alpha virt. eigenvalues --    0.39984   0.40268   0.40482   0.40852   0.41333
 Alpha virt. eigenvalues --    0.41768   0.42684   0.43306   0.43462   0.43737
 Alpha virt. eigenvalues --    0.43778   0.44230   0.44451   0.44611   0.45165
 Alpha virt. eigenvalues --    0.45636   0.46028   0.46645   0.47138   0.47168
 Alpha virt. eigenvalues --    0.47793   0.48093   0.48437   0.49552   0.50478
 Alpha virt. eigenvalues --    0.51083   0.51886   0.51938   0.52161   0.53450
 Alpha virt. eigenvalues --    0.53963   0.54447   0.55236   0.56187   0.57390
 Alpha virt. eigenvalues --    0.58464   0.59717   0.59847   0.60064   0.60202
 Alpha virt. eigenvalues --    0.60816   0.60942   0.62112   0.62276   0.62807
 Alpha virt. eigenvalues --    0.63067   0.65006   0.65091   0.65269   0.66021
 Alpha virt. eigenvalues --    0.66945   0.68776   0.69996   0.70275   0.70548
 Alpha virt. eigenvalues --    0.72316   0.72520   0.72761   0.73554   0.74149
 Alpha virt. eigenvalues --    0.74152   0.75611   0.76958   0.77261   0.77891
 Alpha virt. eigenvalues --    0.79151   0.80351   0.81105   0.82376   0.83222
 Alpha virt. eigenvalues --    0.83525   0.83877   0.85736   0.86272   0.86568
 Alpha virt. eigenvalues --    0.87725   0.89480   0.90029   0.90636   0.92499
 Alpha virt. eigenvalues --    0.93510   0.94385   0.94711   0.95041   0.96348
 Alpha virt. eigenvalues --    0.97398   0.99639   0.99800   1.01106   1.01834
 Alpha virt. eigenvalues --    1.01897   1.02227   1.03307   1.03475   1.04945
 Alpha virt. eigenvalues --    1.05600   1.05781   1.06133   1.07201   1.08489
 Alpha virt. eigenvalues --    1.08688   1.09580   1.09772   1.10068   1.10445
 Alpha virt. eigenvalues --    1.12416   1.13237   1.13428   1.14177   1.15432
 Alpha virt. eigenvalues --    1.15505   1.16033   1.17680   1.18324   1.21057
 Alpha virt. eigenvalues --    1.21597   1.26217   1.27861   1.28754   1.29796
 Alpha virt. eigenvalues --    1.31187   1.34316   1.35476   1.36326   1.39703
 Alpha virt. eigenvalues --    1.40693   1.41475   1.41594   1.42900   1.43405
 Alpha virt. eigenvalues --    1.43408   1.46540   1.47055   1.47259   1.47720
 Alpha virt. eigenvalues --    1.47729   1.49317   1.49550   1.51135   1.51439
 Alpha virt. eigenvalues --    1.51990   1.53692   1.54121   1.55690   1.56248
 Alpha virt. eigenvalues --    1.57168   1.57367   1.57585   1.58672   1.58972
 Alpha virt. eigenvalues --    1.59601   1.60650   1.62658   1.62858   1.64350
 Alpha virt. eigenvalues --    1.65176   1.67917   1.69835   1.71115   1.71299
 Alpha virt. eigenvalues --    1.72388   1.72514   1.73595   1.74678   1.75122
 Alpha virt. eigenvalues --    1.75201   1.76615   1.78166   1.78901   1.79628
 Alpha virt. eigenvalues --    1.79843   1.81178   1.81329   1.82882   1.83282
 Alpha virt. eigenvalues --    1.83693   1.84585   1.84948   1.85364   1.85851
 Alpha virt. eigenvalues --    1.87348   1.87701   1.88761   1.89063   1.89101
 Alpha virt. eigenvalues --    1.90098   1.90578   1.91726   1.92652   1.93975
 Alpha virt. eigenvalues --    1.94434   1.95259   1.96167   1.97437   1.97611
 Alpha virt. eigenvalues --    2.00431   2.01790   2.02534   2.02921   2.03499
 Alpha virt. eigenvalues --    2.05245   2.05418   2.07443   2.09825   2.11326
 Alpha virt. eigenvalues --    2.11338   2.11503   2.14502   2.16055   2.16063
 Alpha virt. eigenvalues --    2.17593   2.19078   2.19344   2.22332   2.23622
 Alpha virt. eigenvalues --    2.25296   2.25917   2.30605   2.30630   2.31815
 Alpha virt. eigenvalues --    2.33116   2.34330   2.34555   2.36714   2.38389
 Alpha virt. eigenvalues --    2.40083   2.40722   2.41122   2.42794   2.45646
 Alpha virt. eigenvalues --    2.47614   2.47757   2.51395   2.53272   2.54128
 Alpha virt. eigenvalues --    2.55151   2.55762   2.57398   2.57769   2.58710
 Alpha virt. eigenvalues --    2.59572   2.60457   2.61043   2.61398   2.61420
 Alpha virt. eigenvalues --    2.62170   2.62732   2.63280   2.63994   2.66099
 Alpha virt. eigenvalues --    2.66924   2.66974   2.67571   2.68127   2.68919
 Alpha virt. eigenvalues --    2.69155   2.69690   2.70208   2.72646   2.73743
 Alpha virt. eigenvalues --    2.74141   2.76365   2.76485   2.77733   2.79644
 Alpha virt. eigenvalues --    2.79837   2.79938   2.80814   2.82734   2.83968
 Alpha virt. eigenvalues --    2.84666   2.85951   2.86521   2.89528   2.89932
 Alpha virt. eigenvalues --    2.92206   2.92912   2.94880   2.95408   2.97325
 Alpha virt. eigenvalues --    3.00097   3.01399   3.02891   3.07123   3.09386
 Alpha virt. eigenvalues --    3.11093   3.12088   3.16729   3.17533   3.19194
 Alpha virt. eigenvalues --    3.20190   3.21736   3.25935   3.26899   3.30587
 Alpha virt. eigenvalues --    3.31710   3.32546   3.35613   3.36782   3.37210
 Alpha virt. eigenvalues --    3.37529   3.38578   3.40396   3.43573   3.44718
 Alpha virt. eigenvalues --    3.45828   3.46720   3.47574   3.48281   3.51434
 Alpha virt. eigenvalues --    3.56000   3.58095   3.60720   3.62282   3.65722
 Alpha virt. eigenvalues --    3.71754   3.76024   3.77405   3.83224   3.99824
 Alpha virt. eigenvalues --    4.00995   4.02218   4.03761   4.05418   4.06329
 Alpha virt. eigenvalues --    4.10295   4.19234   4.20487   4.26329   4.34083
 Alpha virt. eigenvalues --    4.59154   4.72315   4.75015   4.79083   4.80690
 Alpha virt. eigenvalues --    4.83518   4.87294  23.29092  23.52180  23.69113
 Alpha virt. eigenvalues --   23.73198  23.76101  23.82062  23.86449  23.87360
 Alpha virt. eigenvalues --   23.89916  23.91631  23.94757  23.95726  24.02583
 Alpha virt. eigenvalues --   24.04456  24.06600  24.08190  24.09508  24.11328
 Alpha virt. eigenvalues --   24.13379  24.15599  24.16617  24.17123  24.20022
  Beta  occ. eigenvalues --  -10.19633 -10.19461 -10.19331 -10.19298 -10.19211
  Beta  occ. eigenvalues --  -10.19149 -10.19010 -10.18894 -10.18832 -10.18810
  Beta  occ. eigenvalues --  -10.18631 -10.18618 -10.18568 -10.18516 -10.18515
  Beta  occ. eigenvalues --  -10.18499 -10.18421 -10.18402 -10.18311 -10.18264
  Beta  occ. eigenvalues --  -10.17160 -10.16859 -10.16645  -0.91451  -0.88570
  Beta  occ. eigenvalues --   -0.85265  -0.83320  -0.82579  -0.78909  -0.78401
  Beta  occ. eigenvalues --   -0.75248  -0.74505  -0.72171  -0.71401  -0.68314
  Beta  occ. eigenvalues --   -0.64502  -0.63780  -0.62801  -0.59829  -0.59413
  Beta  occ. eigenvalues --   -0.57184  -0.55761  -0.52224  -0.52038  -0.51428
  Beta  occ. eigenvalues --   -0.50717  -0.47599  -0.46851  -0.45923  -0.45665
  Beta  occ. eigenvalues --   -0.44029  -0.43322  -0.42819  -0.42700  -0.41573
  Beta  occ. eigenvalues --   -0.41467  -0.40323  -0.39961  -0.39815  -0.38866
  Beta  occ. eigenvalues --   -0.37303  -0.36216  -0.35995  -0.34249  -0.33878
  Beta  occ. eigenvalues --   -0.33567  -0.33078  -0.32864  -0.29173  -0.28625
  Beta  occ. eigenvalues --   -0.25534  -0.24798  -0.22549  -0.21166
  Beta virt. eigenvalues --   -0.12077  -0.10946  -0.05907  -0.04841  -0.02009
  Beta virt. eigenvalues --    0.00680   0.01982   0.04778   0.04820   0.05094
  Beta virt. eigenvalues --    0.05801   0.06294   0.06426   0.07637   0.08435
  Beta virt. eigenvalues --    0.08630   0.08866   0.10556   0.11046   0.13026
  Beta virt. eigenvalues --    0.14048   0.15390   0.16365   0.19072   0.19917
  Beta virt. eigenvalues --    0.20584   0.21382   0.22473   0.22884   0.23892
  Beta virt. eigenvalues --    0.24379   0.25581   0.26193   0.26728   0.26924
  Beta virt. eigenvalues --    0.27681   0.28856   0.29359   0.29949   0.31069
  Beta virt. eigenvalues --    0.32921   0.33740   0.34501   0.35096   0.36558
  Beta virt. eigenvalues --    0.37348   0.37723   0.37857   0.38856   0.39163
  Beta virt. eigenvalues --    0.39407   0.40148   0.40382   0.40518   0.40664
  Beta virt. eigenvalues --    0.40963   0.41583   0.42025   0.42901   0.43734
  Beta virt. eigenvalues --    0.43758   0.44032   0.44089   0.44533   0.44622
  Beta virt. eigenvalues --    0.45268   0.45357   0.46039   0.46278   0.46885
  Beta virt. eigenvalues --    0.47253   0.47356   0.48114   0.48500   0.49146
  Beta virt. eigenvalues --    0.49712   0.50779   0.51477   0.52082   0.52242
  Beta virt. eigenvalues --    0.52368   0.53606   0.54299   0.54727   0.55397
  Beta virt. eigenvalues --    0.56212   0.58259   0.59135   0.59913   0.60155
  Beta virt. eigenvalues --    0.60314   0.60446   0.61061   0.61264   0.62204
  Beta virt. eigenvalues --    0.62788   0.63090   0.63278   0.65385   0.65473
  Beta virt. eigenvalues --    0.65854   0.66070   0.67049   0.69510   0.70380
  Beta virt. eigenvalues --    0.70786   0.70874   0.72622   0.72762   0.72977
  Beta virt. eigenvalues --    0.73811   0.74252   0.74661   0.75967   0.77407
  Beta virt. eigenvalues --    0.77818   0.78189   0.79495   0.80668   0.81417
  Beta virt. eigenvalues --    0.82828   0.83380   0.83725   0.84194   0.86189
  Beta virt. eigenvalues --    0.86525   0.86818   0.87983   0.89619   0.90268
  Beta virt. eigenvalues --    0.91118   0.93081   0.93788   0.94612   0.94994
  Beta virt. eigenvalues --    0.95324   0.96684   0.97744   0.99902   1.00020
  Beta virt. eigenvalues --    1.01293   1.02018   1.02246   1.02501   1.03625
  Beta virt. eigenvalues --    1.04149   1.05391   1.05899   1.06119   1.06370
  Beta virt. eigenvalues --    1.07442   1.08566   1.09320   1.09843   1.10200
  Beta virt. eigenvalues --    1.10201   1.11096   1.12543   1.13607   1.13639
  Beta virt. eigenvalues --    1.14599   1.15752   1.16333   1.16673   1.17909
  Beta virt. eigenvalues --    1.19771   1.21172   1.21892   1.26494   1.28171
  Beta virt. eigenvalues --    1.29328   1.29977   1.31400   1.34624   1.35664
  Beta virt. eigenvalues --    1.36680   1.40051   1.40955   1.41725   1.42564
  Beta virt. eigenvalues --    1.43099   1.43706   1.43773   1.47042   1.47364
  Beta virt. eigenvalues --    1.47578   1.47796   1.47909   1.49495   1.49902
  Beta virt. eigenvalues --    1.51214   1.51842   1.52253   1.53871   1.54557
  Beta virt. eigenvalues --    1.55801   1.56629   1.57576   1.57997   1.58540
  Beta virt. eigenvalues --    1.58852   1.59441   1.59842   1.60998   1.62922
  Beta virt. eigenvalues --    1.63092   1.64572   1.65579   1.68359   1.70444
  Beta virt. eigenvalues --    1.71676   1.71802   1.72634   1.72969   1.73686
  Beta virt. eigenvalues --    1.75119   1.75236   1.75336   1.77366   1.78546
  Beta virt. eigenvalues --    1.79820   1.80003   1.80843   1.81392   1.81576
  Beta virt. eigenvalues --    1.83098   1.83618   1.83965   1.84929   1.85372
  Beta virt. eigenvalues --    1.85658   1.86203   1.87670   1.88238   1.88955
  Beta virt. eigenvalues --    1.89378   1.89551   1.90324   1.90781   1.91926
  Beta virt. eigenvalues --    1.93037   1.94341   1.94634   1.95675   1.96389
  Beta virt. eigenvalues --    1.97779   1.98088   2.00589   2.02190   2.02920
  Beta virt. eigenvalues --    2.03404   2.04029   2.05796   2.06241   2.07612
  Beta virt. eigenvalues --    2.10053   2.11481   2.11548   2.11871   2.14885
  Beta virt. eigenvalues --    2.16323   2.16393   2.17825   2.19539   2.19640
  Beta virt. eigenvalues --    2.22566   2.24224   2.25705   2.26439   2.30723
  Beta virt. eigenvalues --    2.31388   2.32082   2.33425   2.34520   2.34881
  Beta virt. eigenvalues --    2.36982   2.38943   2.40332   2.41370   2.41944
  Beta virt. eigenvalues --    2.43196   2.46200   2.48108   2.48294   2.51921
  Beta virt. eigenvalues --    2.53465   2.54252   2.55369   2.55894   2.57814
  Beta virt. eigenvalues --    2.57897   2.58983   2.60067   2.60558   2.61152
  Beta virt. eigenvalues --    2.61491   2.62179   2.62336   2.62817   2.63375
  Beta virt. eigenvalues --    2.64135   2.66193   2.67030   2.67074   2.67651
  Beta virt. eigenvalues --    2.68673   2.69139   2.69599   2.69988   2.70358
  Beta virt. eigenvalues --    2.73485   2.73887   2.74489   2.76811   2.76854
  Beta virt. eigenvalues --    2.78055   2.79825   2.80190   2.80671   2.80939
  Beta virt. eigenvalues --    2.82976   2.84233   2.84885   2.86156   2.86631
  Beta virt. eigenvalues --    2.89867   2.90537   2.92789   2.93409   2.95380
  Beta virt. eigenvalues --    2.97099   2.97501   3.00139   3.01639   3.03113
  Beta virt. eigenvalues --    3.07386   3.09666   3.11457   3.12715   3.16856
  Beta virt. eigenvalues --    3.17640   3.19373   3.20332   3.22039   3.26226
  Beta virt. eigenvalues --    3.27413   3.30737   3.31904   3.32703   3.35747
  Beta virt. eigenvalues --    3.36935   3.37368   3.37651   3.38872   3.40767
  Beta virt. eigenvalues --    3.43817   3.44908   3.46097   3.46830   3.48288
  Beta virt. eigenvalues --    3.48458   3.51727   3.56132   3.58428   3.61054
  Beta virt. eigenvalues --    3.62671   3.65960   3.72229   3.76432   3.78322
  Beta virt. eigenvalues --    3.83630   4.00146   4.01214   4.02592   4.03807
  Beta virt. eigenvalues --    4.05544   4.06687   4.10535   4.20155   4.20749
  Beta virt. eigenvalues --    4.26491   4.34385   4.59598   4.72929   4.75304
  Beta virt. eigenvalues --    4.79280   4.80869   4.83705   4.87505  23.29363
  Beta virt. eigenvalues --   23.52414  23.69291  23.73794  23.76479  23.82413
  Beta virt. eigenvalues --   23.86685  23.87507  23.89991  23.92029  23.94752
  Beta virt. eigenvalues --   23.96033  24.02731  24.04551  24.06686  24.08334
  Beta virt. eigenvalues --   24.09728  24.11408  24.13405  24.15715  24.16803
  Beta virt. eigenvalues --   24.17127  24.20134
          Condensed to atoms (all electrons):
               1          2          3          4          5          6
     1  C    5.016075   0.458286  -0.054649  -0.053422   0.427059  -0.021805
     2  C    0.458286   5.117277   0.394719  -0.088719  -0.049054  -0.072002
     3  C   -0.054649   0.394719   5.209437   0.498300  -0.059923  -0.021374
     4  C   -0.053422  -0.088719   0.498300   4.941313  -0.047829   0.406159
     5  C    0.427059  -0.049054  -0.059923  -0.047829   4.883217   0.565741
     6  C   -0.021805  -0.072002  -0.021374   0.406159   0.565741   4.930061
     7  C    0.027663  -0.036399   0.392921  -0.094366  -0.001670   0.019785
     8  C   -0.002318   0.027027  -0.036173  -0.060128   0.000236  -0.001776
     9  C    0.000380   0.002886  -0.061477  -0.053163  -0.000180   0.005711
    10  C   -0.001928   0.018615  -0.024931   0.459072   0.005201  -0.075913
    11  C   -0.000042  -0.003244   0.028722   0.000639   0.000004   0.000002
    12  C    0.000000  -0.000003  -0.000922   0.000101   0.000000   0.000001
    13  C    0.000000   0.000006   0.000059  -0.000281   0.000000   0.000000
    14  C    0.000002  -0.000043  -0.001343   0.007776   0.000002  -0.000127
    15  C    0.000017   0.000214   0.002201  -0.000237   0.000001  -0.000003
    16  C    0.000000   0.000012  -0.000134   0.000002   0.000000   0.000000
    17  C    0.000000   0.000000   0.000004   0.000000   0.000000   0.000000
    18  C    0.000000   0.000000  -0.000013   0.000000   0.000000   0.000000
    19  C    0.444746  -0.038652   0.019754   0.000132  -0.065590   0.004497
    20  C   -0.062496  -0.045604   0.001894  -0.000018   0.004777  -0.000081
    21  C   -0.050748  -0.054833   0.025236  -0.000306  -0.001485   0.000144
    22  C   -0.096580   0.485041  -0.073868   0.017243   0.010334  -0.002910
    23  C    0.020100  -0.091889  -0.094244   0.010420  -0.000417  -0.000163
    24  H    0.000414   0.009039  -0.000950  -0.000002   0.000051   0.000001
    25  H    0.009284  -0.000620  -0.000086   0.000003  -0.000225   0.000004
    26  H   -0.038327   0.009737  -0.000706   0.000033  -0.004268  -0.000163
    27  H   -0.044560   0.010923  -0.000467   0.008959   0.409631  -0.041368
    28  H    0.007482   0.001029   0.008625  -0.040791  -0.037597   0.404791
    29  H    0.000099  -0.000720   0.008899  -0.034448  -0.000296  -0.003477
    30  H    0.000000  -0.000003   0.000070   0.000032   0.000000  -0.000005
    31  H    0.000000   0.000000   0.000007   0.000005   0.000000   0.000000
    32  H    0.000000   0.000000   0.000000   0.000000   0.000000   0.000000
    33  H    0.000099   0.001974   0.011957  -0.000261  -0.000002   0.000014
    34  H    0.000000  -0.000002   0.000001   0.000000   0.000000   0.000000
    35  H    0.000000   0.000000   0.000000   0.000000   0.000000   0.000000
               7          8          9         10         11         12
     1  C    0.027663  -0.002318   0.000380  -0.001928  -0.000042   0.000000
     2  C   -0.036399   0.027027   0.002886   0.018615  -0.003244  -0.000003
     3  C    0.392921  -0.036173  -0.061477  -0.024931   0.028722  -0.000922
     4  C   -0.094366  -0.060128  -0.053163   0.459072   0.000639   0.000101
     5  C   -0.001670   0.000236  -0.000180   0.005201   0.000004   0.000000
     6  C    0.019785  -0.001776   0.005711  -0.075913   0.000002   0.000001
     7  C    5.291505   0.340306  -0.058026  -0.084640  -0.013450   0.023810
     8  C    0.340306   5.201780   0.471749  -0.012663   0.392583  -0.031924
     9  C   -0.058026   0.471749   4.993243   0.482867  -0.103964  -0.048221
    10  C   -0.084640  -0.012663   0.482867   4.969988   0.011125  -0.001072
    11  C   -0.013450   0.392583  -0.103964   0.011125   5.023132   0.462143
    12  C    0.023810  -0.031924  -0.048221  -0.001072   0.462143   4.993347
    13  C   -0.000032  -0.046733  -0.057604   0.005617  -0.065093   0.441325
    14  C    0.018314  -0.021866   0.426001  -0.077354  -0.055919  -0.028986
    15  C   -0.026822  -0.070734   0.010565   0.000058   0.497658  -0.076014
    16  C   -0.000461   0.016388  -0.000113  -0.000005  -0.030800  -0.049746
    17  C    0.000037   0.001019  -0.000119  -0.000001  -0.039204  -0.057736
    18  C   -0.000718   0.014272   0.000796   0.000010  -0.039841   0.475778
    19  C   -0.000942  -0.000012   0.000001  -0.000004   0.000001   0.000000
    20  C   -0.000872  -0.000001   0.000001   0.000000  -0.000001   0.000000
    21  C    0.002984  -0.000412  -0.000005  -0.000012   0.000085   0.000000
    22  C   -0.094150   0.022597  -0.001607   0.000084   0.000734   0.000005
    23  C    0.465596  -0.116587   0.009291  -0.001865  -0.012043   0.001030
    24  H    0.000153   0.000016  -0.000001   0.000000   0.000003   0.000000
    25  H    0.000032   0.000000   0.000000   0.000000   0.000000   0.000000
    26  H    0.000031   0.000000   0.000000  -0.000001   0.000000   0.000000
    27  H   -0.000011   0.000006   0.000005  -0.000216   0.000000   0.000000
    28  H   -0.000707   0.000096  -0.000291  -0.003666  -0.000002   0.000000
    29  H    0.001331   0.009220  -0.036335   0.393320  -0.000430   0.000063
    30  H   -0.000754   0.008899  -0.043370  -0.005871   0.000850   0.008136
    31  H   -0.000027  -0.000949   0.009553  -0.000295   0.011008  -0.047178
    32  H    0.000025  -0.000538   0.000006  -0.000001   0.009745  -0.040326
    33  H   -0.021035  -0.058210  -0.001681  -0.000007  -0.008436   0.006926
    34  H    0.000133  -0.000682   0.000004   0.000000   0.006798   0.000634
    35  H   -0.000002  -0.000031   0.000003   0.000000  -0.000822   0.009473
              13         14         15         16         17         18
     1  C    0.000000   0.000002   0.000017   0.000000   0.000000   0.000000
     2  C    0.000006  -0.000043   0.000214   0.000012   0.000000   0.000000
     3  C    0.000059  -0.001343   0.002201  -0.000134   0.000004  -0.000013
     4  C   -0.000281   0.007776  -0.000237   0.000002   0.000000   0.000000
     5  C    0.000000   0.000002   0.000001   0.000000   0.000000   0.000000
     6  C    0.000000  -0.000127  -0.000003   0.000000   0.000000   0.000000
     7  C   -0.000032   0.018314  -0.026822  -0.000461   0.000037  -0.000718
     8  C   -0.046733  -0.021866  -0.070734   0.016388   0.001019   0.014272
     9  C   -0.057604   0.426001   0.010565  -0.000113  -0.000119   0.000796
    10  C    0.005617  -0.077354   0.000058  -0.000005  -0.000001   0.000010
    11  C   -0.065093  -0.055919   0.497658  -0.030800  -0.039204  -0.039841
    12  C    0.441325  -0.028986  -0.076014  -0.049746  -0.057736   0.475778
    13  C    4.858548   0.575183   0.007537  -0.000928   0.005676  -0.066577
    14  C    0.575183   4.891047  -0.001477   0.000080  -0.000169   0.005047
    15  C    0.007537  -0.001477   5.150525   0.524741  -0.070599  -0.042641
    16  C   -0.000928   0.000080   0.524741   4.869325   0.480251  -0.040473
    17  C    0.005676  -0.000169  -0.070599   0.480251   4.867227   0.546250
    18  C   -0.066577   0.005047  -0.042641  -0.040473   0.546250   4.862816
    19  C    0.000000   0.000000  -0.000001   0.000000   0.000000   0.000000
    20  C    0.000000   0.000000   0.000002   0.000000   0.000000   0.000000
    21  C    0.000000   0.000000  -0.000172  -0.000002   0.000000   0.000000
    22  C   -0.000001   0.000002   0.002446  -0.000081  -0.000001   0.000000
    23  C    0.000006   0.000011  -0.152444   0.000200  -0.000067  -0.000122
    24  H    0.000000   0.000000  -0.000113   0.000000   0.000000   0.000000
    25  H    0.000000   0.000000   0.000000   0.000000   0.000000   0.000000
    26  H    0.000000   0.000000   0.000000   0.000000   0.000000   0.000000
    27  H    0.000000   0.000000   0.000000   0.000000   0.000000   0.000000
    28  H    0.000000  -0.000006   0.000000   0.000000   0.000000   0.000000
    29  H   -0.000084  -0.006970   0.000007   0.000000   0.000000  -0.000001
    30  H   -0.038124   0.407721   0.000049   0.000000   0.000010  -0.000337
    31  H    0.412320  -0.041263  -0.000335   0.000029  -0.000104  -0.007543
    32  H   -0.006882   0.000024  -0.000249   0.007306  -0.040935   0.409645
    33  H   -0.000113   0.000029   0.250709  -0.027470   0.004169  -0.001001
    34  H    0.000052   0.000000  -0.036881   0.412044  -0.042036   0.006186
    35  H   -0.000265   0.000004   0.009696  -0.046289   0.413667  -0.042700
              19         20         21         22         23         24
     1  C    0.444746  -0.062496  -0.050748  -0.096580   0.020100   0.000414
     2  C   -0.038652  -0.045604  -0.054833   0.485041  -0.091889   0.009039
     3  C    0.019754   0.001894   0.025236  -0.073868  -0.094244  -0.000950
     4  C    0.000132  -0.000018  -0.000306   0.017243   0.010420  -0.000002
     5  C   -0.065590   0.004777  -0.001485   0.010334  -0.000417   0.000051
     6  C    0.004497  -0.000081   0.000144  -0.002910  -0.000163   0.000001
     7  C   -0.000942  -0.000872   0.002984  -0.094150   0.465596   0.000153
     8  C   -0.000012  -0.000001  -0.000412   0.022597  -0.116587   0.000016
     9  C    0.000001   0.000001  -0.000005  -0.001607   0.009291  -0.000001
    10  C   -0.000004   0.000000  -0.000012   0.000084  -0.001865   0.000000
    11  C    0.000001  -0.000001   0.000085   0.000734  -0.012043   0.000003
    12  C    0.000000   0.000000   0.000000   0.000005   0.001030   0.000000
    13  C    0.000000   0.000000   0.000000  -0.000001   0.000006   0.000000
    14  C    0.000000   0.000000   0.000000   0.000002   0.000011   0.000000
    15  C   -0.000001   0.000002  -0.000172   0.002446  -0.152444  -0.000113
    16  C    0.000000   0.000000  -0.000002  -0.000081   0.000200   0.000000
    17  C    0.000000   0.000000   0.000000  -0.000001  -0.000067   0.000000
    18  C    0.000000   0.000000   0.000000   0.000000  -0.000122   0.000000
    19  C    4.893073   0.539948  -0.030659  -0.041882  -0.001622   0.006216
    20  C    0.539948   4.882161   0.473244  -0.058979   0.007803  -0.043517
    21  C   -0.030659   0.473244   4.930044   0.498538  -0.069440   0.413014
    22  C   -0.041882  -0.058979   0.498538   5.066449   0.346861  -0.036999
    23  C   -0.001622   0.007803  -0.069440   0.346861   5.441784  -0.004036
    24  H    0.006216  -0.043517   0.413014  -0.036999  -0.004036   0.573302
    25  H   -0.041776   0.412836  -0.043252   0.008162  -0.000296  -0.007539
    26  H    0.406487  -0.039505   0.006538   0.000289   0.000045  -0.000273
    27  H   -0.005110  -0.000268   0.000054  -0.000346   0.000015  -0.000002
    28  H   -0.000254   0.000010  -0.000001   0.000059   0.000016   0.000000
    29  H    0.000000   0.000000   0.000000   0.000022   0.000037   0.000000
    30  H    0.000000   0.000000   0.000000   0.000000   0.000006   0.000000
    31  H    0.000000   0.000000   0.000000   0.000000  -0.000003   0.000000
    32  H    0.000000   0.000000   0.000000   0.000000  -0.000003   0.000000
    33  H   -0.000003   0.000012  -0.000517  -0.020137   0.165976   0.000192
    34  H    0.000000   0.000000   0.000001   0.000011   0.000498   0.000002
    35  H    0.000000   0.000000   0.000000   0.000000   0.000018   0.000000
              25         26         27         28         29         30
     1  C    0.009284  -0.038327  -0.044560   0.007482   0.000099   0.000000
     2  C   -0.000620   0.009737   0.010923   0.001029  -0.000720  -0.000003
     3  C   -0.000086  -0.000706  -0.000467   0.008625   0.008899   0.000070
     4  C    0.000003   0.000033   0.008959  -0.040791  -0.034448   0.000032
     5  C   -0.000225  -0.004268   0.409631  -0.037597  -0.000296   0.000000
     6  C    0.000004  -0.000163  -0.041368   0.404791  -0.003477  -0.000005
     7  C    0.000032   0.000031  -0.000011  -0.000707   0.001331  -0.000754
     8  C    0.000000   0.000000   0.000006   0.000096   0.009220   0.008899
     9  C    0.000000   0.000000   0.000005  -0.000291  -0.036335  -0.043370
    10  C    0.000000  -0.000001  -0.000216  -0.003666   0.393320  -0.005871
    11  C    0.000000   0.000000   0.000000  -0.000002  -0.000430   0.000850
    12  C    0.000000   0.000000   0.000000   0.000000   0.000063   0.008136
    13  C    0.000000   0.000000   0.000000   0.000000  -0.000084  -0.038124
    14  C    0.000000   0.000000   0.000000  -0.000006  -0.006970   0.407721
    15  C    0.000000   0.000000   0.000000   0.000000   0.000007   0.000049
    16  C    0.000000   0.000000   0.000000   0.000000   0.000000   0.000000
    17  C    0.000000   0.000000   0.000000   0.000000   0.000000   0.000010
    18  C    0.000000   0.000000   0.000000   0.000000  -0.000001  -0.000337
    19  C   -0.041776   0.406487  -0.005110  -0.000254   0.000000   0.000000
    20  C    0.412836  -0.039505  -0.000268   0.000010   0.000000   0.000000
    21  C   -0.043252   0.006538   0.000054  -0.000001   0.000000   0.000000
    22  C    0.008162   0.000289  -0.000346   0.000059   0.000022   0.000000
    23  C   -0.000296   0.000045   0.000015   0.000016   0.000037   0.000006
    24  H   -0.007539  -0.000273  -0.000002   0.000000   0.000000   0.000000
    25  H    0.576918  -0.008639  -0.000004   0.000000   0.000000   0.000000
    26  H   -0.008639   0.577787   0.003771  -0.000013   0.000000   0.000000
    27  H   -0.000004   0.003771   0.583124  -0.010180  -0.000016   0.000000
    28  H    0.000000  -0.000013  -0.010180   0.580822   0.003740   0.000003
    29  H    0.000000   0.000000  -0.000016   0.003740   0.581391   0.004416
    30  H    0.000000   0.000000   0.000000   0.000003   0.004416   0.585390
    31  H    0.000000   0.000000   0.000000   0.000000  -0.000024  -0.010277
    32  H    0.000000   0.000000   0.000000   0.000000   0.000000  -0.000017
    33  H   -0.000002   0.000000   0.000000  -0.000001  -0.000001  -0.000002
    34  H    0.000000   0.000000   0.000000   0.000000   0.000000   0.000000
    35  H    0.000000   0.000000   0.000000   0.000000   0.000000  -0.000001
              31         32         33         34         35
     1  C    0.000000   0.000000   0.000099   0.000000   0.000000
     2  C    0.000000   0.000000   0.001974  -0.000002   0.000000
[...]
 .00000027,0.00571161,0.00000024,0.00000027,0.00294547,-0.00000081,0.00
 000465,-0.03187510,0.00000009,0.00000006,0.00019627,-0.00000002,-0.000
 00002,-0.00008190,0.00000001,-0.00000002,-0.00009981,0.00000014,-0.000
 00016,-0.00357863,-0.00000007,-0.00000004,0.00014249,0.,0.,-0.00002461
 ,0.,0.,-0.00000882,0.,0.,0.00003669,0.,0.,0.00006198,0.,0.,-0.00004206
 ,0.,0.,-0.00010467,0.,0.00000003,0.00016047,0.,-0.00000010,-0.00064168
 ,0.,0.,0.00002765,0.,0.,-0.00000414,0.,0.,0.00000624,0.,0.,0.00019507,
 -0.00000002,-0.00000002,0.00022576,0.00000063,-0.00000482,0.02137725,-
 0.00001056,0.00000741,0.,-0.00003168,-0.00008903,0.,0.00023085,0.00008
 290,0.,-0.00003141,-0.00035367,0.,-0.00000514,0.00003983,0.,0.00002516
 ,0.00002112,0.,0.00049815,0.00149985,-0.00000003,-0.00539986,0.0012959
 6,-0.00000028,0.00184314,0.02795348,-0.00000044,0.00185182,0.00115770,
 0.00000007,-0.00056644,-0.00023713,0.,-0.00436440,-0.00190939,-0.00000
 075,0.00514100,-0.02799262,0.00000038,-0.05983657,0.02350169,-0.000001
 34,0.00009033,0.00015501,0.00000003,-0.00012879,-0.00000088,-0.0000000
 2,-0.00026370,-0.00026242,0.00000003,0.00078763,-0.00090046,0.00000007
 ,-0.00000819,0.00001834,0.,-0.00003444,0.00000264,0.,-0.00000654,-0.00
 003855,0.,-0.00006462,0.00022752,0.00000002,-0.00047796,-0.00007032,0.
 00000002,0.00000098,0.00000148,0.,-0.00000461,-0.00000169,0.,-0.000003
 79,0.00000238,0.,-0.00000002,-0.00000415,0.,-0.00001930,-0.00000748,0.
 ,-0.00029299,-0.00084716,0.,0.06008503,0.00002824,0.00005119,0.,0.0000
 4163,0.00009651,0.,-0.00006609,0.00020772,0.,0.00042739,0.00005606,0.0
 0000001,0.00005945,-0.00007331,0.,-0.00011011,-0.00007887,0.,-0.000566
 80,-0.00055402,0.00000003,0.00271912,0.00073763,0.00000004,-0.00115927
 ,-0.00984675,0.00000017,-0.00143577,0.00064614,-0.00000004,-0.00000059
 ,0.00044281,-0.00000001,-0.00299580,0.00092627,-0.00000012,0.00348486,
 -0.01420518,0.00000041,0.02184257,-0.33027975,0.00000407,0.00000457,0.
 00001463,0.,-0.00003023,0.00004044,0.,-0.00033090,-0.00011629,-0.00000
 003,0.00053243,-0.00065264,0.00000006,0.00000944,-0.00002703,0.,0.0000
 2462,-0.00000684,0.,0.00001919,0.00003160,0.,-0.00004003,-0.00010950,0
 .,0.00023937,-0.00007905,-0.00000001,-0.00000361,-0.00000689,0.,0.0000
 1046,-0.00000520,0.,0.00001156,0.00000010,0.,0.00001638,-0.00000029,0.
 ,0.00001631,0.00002549,0.,0.00079732,0.00039889,0.,-0.02325000,0.35148
 867,0.,0.,-0.00002586,0.,0.,0.00007135,0.00000003,0.,-0.00015508,-0.00
 000001,0.,-0.00010750,0.,0.,0.00001880,0.,0.,0.00003880,0.,0.00000008,
 0.00043236,-0.00000018,0.00000031,0.00375970,0.00000004,0.00000116,0.0
 0264962,0.00000017,0.00000001,-0.00185504,-0.00000009,-0.00000009,-0.0
 0052970,-0.00000086,0.00000009,0.00952090,-0.00000006,-0.00000140,0.00
 392859,-0.00000135,0.00000444,-0.03591301,0.00000009,0.00000005,-0.000
 85344,-0.00000009,-0.00000001,0.00021216,0.00000008,-0.00000010,-0.000
 77852,0.00000007,0.00000003,0.00025521,0.,0.,0.00000700,0.,0.,-0.00000
 628,0.,0.,0.00000322,0.,0.00000002,-0.00004688,-0.00000004,0.,-0.00001
 889,0.,0.,0.00000344,0.,0.,0.00000136,0.,0.,0.00000088,0.,0.,-0.000005
 74,0.,0.,0.00000966,-0.00000003,-0.00000003,0.00025615,0.00000191,-0.0
 0000449,0.02462248,-0.00003749,-0.00001721,0.,0.00002534,-0.00004713,0
 .,-0.00004316,-0.00006033,-0.00000001,-0.00032503,-0.00029163,0.000000
 05,-0.00006417,-0.00002011,0.,-0.00000509,0.00013989,0.,0.00006578,0.0
 0011323,0.00000003,0.00028362,-0.00042995,0.00000004,-0.00155388,-0.00
 420411,-0.00000061,-0.00059001,0.00104387,-0.00000004,0.00139871,-0.00
 024872,-0.00000012,0.00110301,-0.00093443,-0.00000006,-0.27508967,0.11
 032767,-0.00001474,-0.02032934,0.01376808,-0.00000144,-0.00018074,-0.0
 0026680,0.,0.00024552,-0.00001957,0.00000003,0.00001259,0.00036755,0.,
 0.00081495,-0.00091373,0.00000017,0.00000158,-0.00002408,0.,0.00001854
 ,0.00001858,0.,-0.00003015,-0.00000180,0.,0.00004218,0.00002657,0.,-0.
 00003045,-0.00003297,0.00000002,0.00000085,0.00000737,0.,-0.00000826,0
 .00000695,0.,-0.00000872,-0.00000215,0.,-0.00002095,0.00000835,0.,-0.0
 0000517,-0.00001822,0.,-0.00000607,-0.00005632,-0.00000002,0.00091887,
 -0.00026166,0.00000038,0.29303053,0.00000478,-0.00005190,0.,0.00013699
 ,-0.00001555,0.,-0.00004174,-0.00007884,0.,-0.00031882,-0.00005092,0.,
 -0.00004288,0.00005158,0.,0.00004115,0.00008375,0.,0.00035938,0.000054
 18,-0.00000004,-0.00084734,-0.00043721,-0.00000003,-0.00309415,-0.0018
 8209,-0.00000004,-0.00024857,0.00073744,0.,-0.00096613,-0.00554555,0.0
 0000014,0.02842668,-0.01039358,0.00000168,0.11194246,-0.11397959,0.000
 00691,-0.01768608,0.01095043,-0.00000105,0.00100513,-0.00007686,0.0000
 0010,-0.00007723,0.00012660,0.,-0.00036061,-0.00005881,-0.00000003,0.0
 0143085,0.00168624,0.00000004,-0.00000381,0.00005592,0.,-0.00003662,-0
 .00001951,0.,0.00002005,0.00000146,0.,-0.00007368,0.00024021,-0.000000
 01,-0.00034909,-0.00031638,0.00000014,-0.00000390,-0.00000175,0.,0.000
 00519,-0.00000073,0.,0.00000227,0.00000127,0.,-0.00000752,0.00001173,0
 .,0.00000343,-0.00000088,0.,0.00000947,-0.00002497,0.,0.00014468,0.000
 96829,-0.00000006,-0.11866440,0.11839828,0.,0.,0.00002059,-0.00000002,
 -0.00000001,-0.00006023,0.00000010,0.00000004,0.00030915,0.,-0.0000000
 5,-0.00083592,0.,-0.00000001,0.00003027,-0.00000001,0.00000001,-0.0001
 0743,-0.00000006,-0.00000019,-0.00053900,-0.00000003,-0.00000013,-0.00
 061742,-0.00000070,-0.00000040,0.00922562,0.00000005,0.00000020,0.0004
 4882,0.00000025,0.00000022,0.00348548,-0.00000064,0.00000079,0.0026507
 2,-0.00001490,0.00000630,-0.03445362,-0.00000086,0.00000089,0.00367234
 ,-0.00000006,-0.00000009,0.00011850,0.00000014,0.,-0.00002456,-0.00000
 003,0.00000013,-0.00035443,0.00000011,-0.00000024,-0.00193439,0.,-0.00
 000003,-0.00000309,0.00000004,0.00000005,0.00000080,-0.00000008,0.0000
 0004,0.00002326,0.00000014,-0.00000003,-0.00006033,-0.00000014,0.00000
 018,-0.00004234,0.,0.,0.00000027,0.,0.,0.00000041,0.,0.,0.00000172,0.,
 0.,0.00002626,0.,0.,-0.00000774,0.,0.,0.00024650,0.00000034,-0.0000000
 8,-0.00576657,0.00001635,-0.00000760,0.02390012,-0.00001164,0.00002474
 ,0.,-0.00010132,-0.00005217,0.,-0.00006870,0.00012888,0.,0.00002061,-0
 .00003162,0.,-0.00001123,-0.00001661,0.,0.00000017,0.00001531,0.,-0.00
 031789,-0.00028133,0.,-0.00065638,0.00124063,-0.00000006,0.00015398,0.
 00005362,0.,0.00001754,-0.00006627,0.,-0.00216595,-0.00406520,-0.00000
 042,-0.01912988,0.01275292,-0.00000196,0.00105502,0.00177622,0.0000002
 6,0.00000760,-0.00041236,0.00000003,0.00046794,-0.00094409,0.00000011,
 0.00200123,0.00016949,-0.00000036,0.00044591,-0.00105369,-0.00000017,-
 0.28813129,0.10148569,-0.00002093,-0.00000776,-0.00002097,0.,0.0000100
 6,0.00000810,0.,-0.00001446,-0.00001098,0.,0.00002739,-0.00003862,0.,0
 .00010513,-0.00000655,-0.00000002,0.00000194,0.00000626,0.,-0.00000801
 ,0.00000489,0.,-0.00000840,-0.00000035,0.,-0.00000734,-0.00000346,0.,-
 0.00000603,-0.00001098,0.,-0.00002078,-0.00002573,0.,-0.00003961,-0.00
 004335,-0.00000002,0.00026552,-0.00106531,0.00000003,0.30555310,0.0000
 0192,0.,0.,-0.00000340,-0.00002876,0.,-0.00007880,0.00006359,0.,-0.000
 03612,0.00005463,0.,-0.00000600,0.00001090,0.,0.00001795,-0.00000825,0
 .,-0.00003253,-0.00021930,0.00000002,-0.00087272,0.00058336,-0.0000000
 2,-0.00018103,0.00018988,-0.00000001,0.00013763,-0.00002812,0.,-0.0031
 6479,-0.00160272,-0.00000006,-0.01654476,0.01075482,-0.00000142,-0.000
 77231,0.00130448,-0.00000015,0.00042391,0.00005585,0.00000002,-0.00103
 394,-0.00096543,-0.00000007,-0.00033172,-0.00516028,0.00000031,0.02996
 254,-0.00816370,0.00000251,0.10068678,-0.10306805,0.00000879,-0.000003
 75,0.00000380,0.,-0.00000153,-0.00000041,0.,-0.00000281,0.00000552,0.,
 -0.00000077,0.00005703,0.00000001,-0.00016899,-0.00015560,0.00000002,-
 0.00000388,-0.00000133,0.,0.00000370,-0.00000234,0.,0.00000268,0.00000
 219,0.,0.00000406,0.00000181,0.,-0.00000003,0.00000322,0.,-0.00001063,
 -0.00000411,0.,0.00002211,0.00001194,0.,0.00058322,-0.00022223,0.00000
 001,-0.10975076,0.10617770,0.,0.,0.00002610,0.00000004,-0.00000001,-0.
 00004093,-0.00000002,0.00000005,-0.00000694,0.,-0.00000001,0.00001039,
 0.,0.,0.00000773,0.,0.,-0.00001624,0.00000006,-0.00000007,0.00007774,-
 0.00000008,0.00000009,0.00021602,0.00000007,0.00000007,-0.00010400,-0.
 00000004,-0.00000002,0.00005027,-0.00000070,0.00000024,0.00530394,-0.0
 0000070,0.00000087,0.00283367,0.00000027,0.00000013,-0.00307106,-0.000
 00002,-0.00000005,-0.00013813,0.00000001,-0.00000038,-0.00056696,-0.00
 000035,0.00000038,0.00710206,-0.00000113,0.00000045,0.00339062,-0.0000
 2087,0.00000850,-0.03503102,0.,0.00000001,0.00000448,0.,-0.00000001,-0
 .00000834,0.,0.,-0.00001901,-0.00000003,0.00000012,0.00002486,-0.00000
 016,-0.00000023,-0.00019839,0.,0.,0.00001120,0.,0.,0.00000161,0.,0.,0.
 00000173,0.,0.,-0.00000834,0.,0.,0.00000066,0.,0.,0.00000661,-0.000000
 02,0.,0.00021049,0.,-0.00000007,0.00028071,0.00002310,-0.00000991,0.02
 436884,0.00135667,-0.00086064,0.00000080,0.00020983,-0.00037350,0.0000
 0150,0.00055794,-0.00584769,0.00000228,-0.00308264,0.00185387,0.000000
 13,-0.00042802,0.00037490,-0.00000009,0.00046363,-0.00085951,-0.000000
 14,-0.02572599,-0.00647817,0.00000476,0.00162006,-0.00033282,-0.000000
 94,0.00011433,-0.00000407,-0.00000008,0.00078850,-0.00056730,0.0000000
 5,-0.02075850,0.00377309,-0.00000147,0.00561777,0.00210570,-0.00000096
 ,-0.00128642,-0.00016508,-0.00000002,-0.00037598,0.00026062,0.00000003
 ,0.10158070,-0.02538028,0.00001676,-0.01293470,0.00513982,-0.00000132,
 0.00178737,-0.00360347,-0.00000098,-0.00037753,-0.00024338,0.00000012,
 -0.00040272,0.00041754,0.00000001,-0.00024372,-0.00018987,0.00000009,0
 .00034323,0.00088399,-0.00000042,0.00711417,-0.00285552,-0.00000331,0.
 08321840,0.01848207,-0.00002743,-0.00020323,0.00006872,0.00000002,-0.0
 0003250,0.00001342,-0.00000001,-0.00006503,0.00002938,0.00000001,-0.00
 000955,-0.00008223,-0.00000013,-0.00021663,-0.00009503,-0.00000006,0.0
 0008137,-0.00007272,0.00000001,0.00009357,0.00000238,-0.00000001,0.000
 07605,0.00045733,0.,-0.00014496,0.00017854,0.00000020,-0.13950246,-0.0
 0005296,0.00007844,0.00000019,0.00155041,-0.00053927,0.00000027,-0.000
 33613,-0.00374140,-0.00000037,-0.00115519,0.00036400,-0.00000028,-0.00
 003171,0.00007360,-0.00000003,0.00012491,-0.00026850,0.00000003,-0.018
 59424,-0.01181443,0.00000515,0.00038011,-0.00040887,0.00000002,0.00012
 096,0.00028064,-0.00000006,0.00008378,-0.00005381,0.00000002,0.0126358
 6,-0.00303664,0.00000169,-0.00008514,-0.00227841,-0.00000007,0.0005947
 5,-0.00002324,0.00000005,0.00000463,0.00002999,0.00000003,0.00777326,-
 0.03428780,0.00000162,-0.00645903,0.00426138,-0.00000082,-0.00116571,-
 0.00062490,0.00000013,-0.00036559,-0.00034598,0.00000001,-0.00000059,0
 .00014499,-0.00000004,-0.00013868,-0.00028847,0.00000016,0.00034482,0.
 00034494,0.00000005,0.00163290,0.00319797,-0.00000205,-0.00830420,-0.0
 4150537,0.00000581,0.00000681,-0.00015582,-0.00000006,0.00005119,0.000
 00093,-0.00000001,0.00000503,0.00000487,0.,0.00000973,0.00003364,0.,-0
 .00008351,-0.00003011,0.00000002,0.00003087,-0.00000207,0.,-0.00002860
 ,0.00000748,0.,0.00002043,-0.00018496,0.,0.00001699,0.00002533,0.,0.01
 170727,0.09023883,-0.00000047,-0.00000044,0.00039092,-0.00000071,0.000
 00139,0.00121741,0.00000096,0.00000067,0.00038848,0.00000007,-0.000000
 35,-0.00008573,-0.00000011,0.00000015,-0.00009596,0.00000012,0.0000000
 2,0.00002879,0.00000383,-0.00000216,0.00580644,-0.00000003,0.00000095,
 -0.00033457,-0.00000055,-0.00000080,-0.00027937,0.00000050,0.00000035,
 0.00008018,-0.00000005,-0.00000057,0.00158592,-0.00000033,-0.00000008,
 0.00061508,0.00000006,-0.00000017,0.00019418,0.00000020,-0.00000009,-0
 .00008989,-0.00001576,0.00000428,-0.02407212,0.00000242,-0.00000040,0.
 00215695,-0.00000084,0.00000147,0.00301144,-0.00000007,-0.00000075,-0.
 00012438,0.00000032,0.00000019,-0.00008022,-0.00000043,-0.00000027,0.0
 0021914,0.00000096,-0.00000066,-0.00031921,-0.00000473,-0.00000245,-0.
 00281858,0.00000436,0.00001135,-0.01749172,0.00000009,0.00000002,-0.00
 008581,-0.00000003,-0.00000001,-0.00001084,0.,0.,-0.00000323,0.,-0.000
 00003,0.00002052,0.00000002,0.00000001,-0.00002116,-0.00000001,0.,0.00
 001555,0.,0.,0.00001503,-0.00000001,-0.00000006,0.00012952,0.00000003,
 -0.00000004,-0.00025580,0.00001001,-0.00001123,0.03223912,0.00001896,0
 .00001968,0.,0.00002768,-0.00001913,0.,-0.00001238,0.00014707,0.,0.000
 03266,-0.00002744,0.,-0.00000783,-0.00000449,0.,0.00000832,0.00001535,
 0.,0.00014324,0.00020978,-0.00000006,0.00099363,-0.00100255,0.00000002
 ,-0.00018167,-0.00011732,0.00000006,-0.00001171,-0.00013406,0.,-0.0040
 6673,-0.00316806,-0.00000081,-0.00116408,-0.00031165,-0.00000003,0.000
 19528,0.00024651,0.00000010,-0.00020461,-0.00001155,0.,0.00519920,-0.0
 2556908,0.00000190,-0.05698617,0.01957109,-0.00000343,0.00176073,0.029
 11479,-0.00000168,-0.00453830,0.00155558,-0.00000088,-0.00000567,0.000
 02158,0.,-0.00002813,0.00000703,0.,0.00000019,-0.00003851,0.,-0.000068
 43,0.00013015,-0.00000005,-0.00062444,-0.00037548,0.00000024,-0.000021
 55,0.00001606,0.,0.00000076,-0.00000127,0.,0.00000205,0.00000386,0.,0.
 00000130,0.00000416,0.,0.00000194,0.00000218,0.,-0.00003782,-0.0000222
 8,0.,0.00001058,-0.00000159,0.,0.00002060,-0.00007406,-0.00000001,-0.0
 0010415,0.00133815,-0.00000002,0.00115522,0.00007165,0.00000001,0.0574
 5611,-0.00000622,-0.00000527,0.,-0.00008856,-0.00001386,0.,0.00001498,
 0.00005417,0.,0.00000975,-0.00003840,0.,-0.00002000,-0.00001301,0.,0.0
 0000465,0.00002573,0.,0.00005287,-0.00010543,0.,0.00043039,-0.00055920
 ,0.00000005,-0.00029709,-0.00004738,-0.00000001,0.00004658,-0.00005432
 ,0.,-0.00246692,0.00022788,0.00000011,-0.00021663,0.00047871,-0.000000
 06,0.00003498,0.00001992,-0.00000005,-0.00003800,0.00003085,0.,-0.0001
 3436,-0.01432302,0.00000081,0.02239725,-0.33226718,0.00001699,-0.00174
 368,-0.00935725,0.00000063,0.00249533,0.00125377,0.00000049,0.00000204
 ,-0.00001103,0.,-0.00000005,0.00002279,0.,-0.00001916,-0.00003180,0.,-
 0.00002028,-0.00014057,0.00000004,-0.00091980,-0.00011930,0.00000018,-
 0.00001017,0.00001938,0.,-0.00001004,0.00000410,0.,-0.00000631,0.00000
 009,0.,-0.00000665,-0.00000273,0.,-0.00000270,-0.00000724,0.,-0.000024
 10,-0.00002093,0.,-0.00000036,-0.00002147,0.,0.00002543,-0.00000270,0.
 00000001,-0.00010278,-0.00055770,-0.00000002,0.00141423,0.00035104,-0.
 00000019,-0.02095156,0.35440574,-0.00000003,0.00000003,-0.00002250,0.0
 0000013,-0.00000003,0.00004245,-0.00000016,0.00000003,-0.00006116,0.,0
 .,0.00004220,0.,0.,0.00001573,0.00000001,0.,-0.00003036,0.00000037,0.0
 0000020,0.00016944,0.00000005,-0.00000013,0.00049273,0.00000016,0.0000
 0007,-0.00055552,-0.00000009,-0.00000008,0.00003899,-0.00000120,0.0000
 0026,0.00740989,-0.00000005,-0.00000036,-0.00079212,0.00000017,0.00000
 028,-0.00092497,-0.00000024,-0.00000002,0.00007850,0.00000089,-0.00000
 135,0.00075076,-0.00000456,0.00001738,-0.03499897,0.00000030,0.0000024
 7,0.00415416,-0.00000075,0.00000056,0.00568083,0.,0.,-0.00001246,-0.00
 000001,-0.00000003,-0.00001729,0.00000003,-0.00000001,-0.00004979,-0.0
 0000006,0.00000026,0.00021631,-0.00000026,-0.00000064,-0.00025562,0.,0
 .,0.00003718,0.,0.,0.00000434,0.,0.,0.00000529,0.,0.,-0.00000396,0.,0.
 ,0.00000563,0.,0.,-0.00003719,0.,0.,0.00007791,0.,0.,0.00018717,0.,0.0
 0000016,0.00000641,0.00000074,-0.00000009,-0.00171824,0.00000425,-0.00
 001874,0.02326310,-0.00001366,-0.00002566,0.,-0.00020580,0.00002639,0.
 ,0.00008951,-0.00013165,0.00000006,-0.00001139,-0.00000852,0.,-0.00000
 291,-0.00001569,0.,-0.00001679,-0.00000306,0.,-0.00031798,-0.00024139,
 0.,-0.00019619,-0.00004479,0.,-0.00016351,-0.00001870,-0.00000003,0.00
 005687,0.00001745,0.,0.00037216,0.00096546,0.00000005,0.00135412,0.001
 41768,-0.00000045,0.00013695,0.00005692,-0.00000003,0.00015736,0.00003
 868,0.00000004,-0.00365980,0.00273653,-0.00000103,-0.01879129,-0.01731
 414,-0.00000104,-0.24064705,-0.13111906,-0.00001146,0.00580520,0.00401
 958,0.00000009,0.00000941,-0.00002896,0.,0.00001648,0.00002095,0.,0.00
 000471,-0.00003123,0.,0.00002465,-0.00043429,0.,0.00027961,0.00084784,
 -0.00000015,0.00000589,0.00001601,0.,-0.00001716,0.00000547,0.,-0.0000
 1078,-0.00000296,0.,-0.00000991,-0.00001146,0.,-0.00000722,-0.00001154
 ,0.,0.00000003,-0.00001083,0.,0.00001353,0.00000849,0.,0.00000414,-0.0
 0002791,0.,0.00082263,-0.00036193,0.00000039,-0.00038822,-0.00036510,0
 .00000017,0.00103523,0.00015693,0.00000035,0.25427117,0.00000236,0.000
 01364,0.,0.00007278,-0.00002363,0.,-0.00006023,0.00011925,-0.00000003,
 0.00001843,-0.00001475,0.,-0.00000803,0.00001489,0.,0.00002144,0.00002
 843,0.,0.00014365,0.00017996,-0.00000001,0.00021173,0.00011969,0.,0.00
 023337,-0.00004253,0.00000002,-0.00005369,0.00001790,0.,0.00047989,-0.
 00063438,0.00000004,0.00211072,-0.00515543,0.00000046,-0.00151248,0.00
 018053,-0.00000006,0.00004337,-0.00058624,0.,0.00226728,0.00036655,0.0
 0000040,0.01323896,0.00977392,0.00000079,-0.12988681,-0.15038806,-0.00
 000606,-0.02711701,-0.01345285,-0.00000147,-0.00000727,0.00002895,0.,-
 0.00002806,-0.00001712,0.,0.00001196,-0.00000809,0.,-0.00005294,0.0002
 4254,0.,-0.00044568,-0.00054706,0.00000018,-0.00000145,-0.00000159,0.,
 0.00000173,0.00000175,0.,-0.00000155,0.00000046,0.,-0.00000322,0.00000
 459,0.,0.00000288,-0.00000179,0.,0.00000217,-0.00000014,0.,-0.00014016
 ,-0.00008877,-0.00000001,0.00005813,-0.00002236,0.,0.00031941,0.000882
 29,-0.00000013,0.00084841,0.00015198,-0.00000011,-0.00064461,0.0008056
 4,-0.00000022,0.13987450,0.15805185,-0.00000006,0.00000001,-0.00010344
 ,0.00000003,0.,0.00005068,-0.00000001,0.00000002,-0.00023971,0.0000000
 3,-0.00000004,-0.00004547,0.00000002,0.00000003,-0.00001269,0.00000002
 ,-0.00000001,0.00003471,-0.00000002,-0.00000008,0.00029881,0.,0.000000
 01,-0.00032337,-0.00000005,-0.00000007,0.00014497,0.00000003,0.,-0.000
 01055,0.00000022,0.00000011,-0.00076604,-0.00000028,0.00000023,0.00755
 902,0.00000008,0.00000002,0.00045456,0.00000002,0.00000002,-0.00046468
 ,-0.00000088,0.00000069,0.00534189,-0.00000247,-0.00000142,0.00336430,
 -0.00001134,-0.00000597,-0.03510592,0.00000092,0.00000050,0.00317313,0
 .,-0.00000005,0.00001030,0.00000004,0.00000003,-0.00003477,-0.00000004
 ,0.,-0.00001010,0.00000007,-0.00000009,0.00042315,0.00000004,0.0000003
 2,-0.00033175,0.,0.,0.00002912,0.,0.,0.00000252,0.,0.,0.00000458,0.,0.
 ,0.00001383,0.,0.,0.00000596,0.,0.,0.00000198,0.,0.,-0.00003259,0.,-0.
 00000001,0.00004884,0.00000037,-0.00000018,-0.00447093,-0.00000016,-0.
 00000010,-0.00022787,0.00000041,-0.00000021,-0.00319884,0.00001303,0.0
 0000624,0.02441640\\0.00000543,0.00000216,-0.00000035,-0.00000048,-0.0
 0001531,-0.00000101,0.00000138,0.00002229,-0.00000088,-0.00000578,0.00
 000836,-0.00000018,-0.00000748,-0.00000232,0.00000028,0.00000177,-0.00
 000065,0.,0.00007934,0.00000384,-0.00000277,-0.00000090,-0.00001743,-0
 .00000015,0.00000061,0.00001676,0.00000030,0.00000123,-0.00001348,-0.0
 0000049,0.00003483,-0.00004694,0.00000175,-0.00001591,0.00000132,0.000
 00078,0.00001246,-0.00000349,0.00000009,0.00000080,-0.00000015,-0.0000
 0062,-0.00003126,0.00003932,0.00000258,0.00003475,-0.00003362,0.000000
 31,-0.00000055,0.00001350,0.00000068,-0.00000130,-0.00000075,0.0000000
 9,0.00000068,-0.00000354,0.00000025,0.00000163,0.00000358,0.00000003,-
 0.00000830,0.00000601,0.00000027,0.00002791,-0.00000993,0.00000077,-0.
 00017384,-0.00002668,0.00001210,0.00000063,-0.00000106,0.,-0.00000094,
 -0.00000161,0.,0.00000034,-0.00000261,-0.00000006,0.00000032,-0.000000
 05,-0.00000006,0.00000484,-0.00000117,0.00000003,0.00000142,0.00000002
 ,0.00000003,-0.00000427,0.00000004,0.00000011,0.00000015,0.00000038,-0
 .00000006,0.00000009,-0.00000033,-0.00000009,0.00004141,0.00006409,-0.
 00001354,-0.00000360,0.00000176,-0.00000014,0.00000261,-0.00000232,-0.
 00000004\\\@


 Any fool can criticize, condemn, and complain -- and most do.
 -- Dale Carnegie
 Job cpu time:       0 days  5 hours  1 minutes 11.1 seconds.
 File lengths (MBytes):  RWF=   1619 Int=      0 D2E=      0 Chk=     26 Scr=      1
 Normal termination of Gaussian 09 at Fri Jan 17 20:36:48 2020.
