 Entering Gaussian System, Link 0=/share/apps/gaussian16/g16/g16
 Initial command:
 /share/apps/gaussian16/g16/l1.exe "/home/amen01//scratch/611/Gau-18281.inp" -scrdir="/home/amen01//scratch/611/"
 Entering Link 1 = /share/apps/gaussian16/g16/l1.exe PID=     18282.
  
 Copyright (c) 1988-2017, Gaussian, Inc.  All Rights Reserved.
  
 This is part of the Gaussian(R) 16 program.  It is based on
 the Gaussian(R) 09 system (copyright 2009, Gaussian, Inc.),
 the Gaussian(R) 03 system (copyright 2003, Gaussian, Inc.),
 the Gaussian(R) 98 system (copyright 1998, Gaussian, Inc.),
 the Gaussian(R) 94 system (copyright 1995, Gaussian, Inc.),
 the Gaussian 92(TM) system (copyright 1992, Gaussian, Inc.),
 the Gaussian 90(TM) system (copyright 1990, Gaussian, Inc.),
 the Gaussian 88(TM) system (copyright 1988, Gaussian, Inc.),
 the Gaussian 86(TM) system (copyright 1986, Carnegie Mellon
 University), and the Gaussian 82(TM) system (copyright 1983,
 Carnegie Mellon University). Gaussian is a federally registered
 trademark of Gaussian, Inc.
  
 This software contains proprietary and confidential information,
 including trade secrets, belonging to Gaussian, Inc.
  
 This software is provided under written license and may be
 used, copied, transmitted, or stored only in accord with that
 written license.
  
 The following legend is applicable only to US Government
 contracts under FAR:
  
                    RESTRICTED RIGHTS LEGEND
  
 Use, reproduction and disclosure by the US Government is
 subject to restrictions as set forth in subparagraphs (a)
 and (c) of the Commercial Computer Software - Restricted
 Rights clause in FAR 52.227-19.
  
 Gaussian, Inc.
 340 Quinnipiac St., Bldg. 40, Wallingford CT 06492
  
  
 ---------------------------------------------------------------
 Warning -- This program may not be used in any manner that
 competes with the business of Gaussian, Inc. or will provide
 assistance to any competitor of Gaussian, Inc.  The licensee
 of this program is prohibited from giving any competitor of
 Gaussian, Inc. access to this program.  By using this program,
 the user acknowledges that Gaussian, Inc. is engaged in the
 business of creating and licensing software in the field of
 computational chemistry and represents and warrants to the
 licensee that it is not a competitor of Gaussian, Inc. and that
 it will not use this program in any manner prohibited above.
 ---------------------------------------------------------------
  

 Cite this work as:
 Gaussian 16, Revision B.01,
 M. J. Frisch, G. W. Trucks, H. B. Schlegel, G. E. Scuseria, 
 M. A. Robb, J. R. Cheeseman, G. Scalmani, V. Barone, 
 G. A. Petersson, H. Nakatsuji, X. Li, M. Caricato, A. V. Marenich, 
 J. Bloino, B. G. Janesko, R. Gomperts, B. Mennucci, H. P. Hratchian, 
 J. V. Ortiz, A. F. Izmaylov, J. L. Sonnenberg, D. Williams-Young, 
 F. Ding, F. Lipparini, F. Egidi, J. Goings, B. Peng, A. Petrone, 
 T. Henderson, D. Ranasinghe, V. G. Zakrzewski, J. Gao, N. Rega, 
 G. Zheng, W. Liang, M. Hada, M. Ehara, K. Toyota, R. Fukuda, 
 J. Hasegawa, M. Ishida, T. Nakajima, Y. Honda, O. Kitao, H. Nakai, 
 T. Vreven, K. Throssell, J. A. Montgomery, Jr., J. E. Peralta, 
 F. Ogliaro, M. J. Bearpark, J. J. Heyd, E. N. Brothers, K. N. Kudin, 
 V. N. Staroverov, T. A. Keith, R. Kobayashi, J. Normand, 
 K. Raghavachari, A. P. Rendell, J. C. Burant, S. S. Iyengar, 
 J. Tomasi, M. Cossi, J. M. Millam, M. Klene, C. Adamo, R. Cammi, 
 J. W. Ochterski, R. L. Martin, K. Morokuma, O. Farkas, 
 J. B. Foresman, and D. J. Fox, Gaussian, Inc., Wallingford CT, 2016.
 
 ******************************************
 Gaussian 16:  ES64L-G16RevB.01 20-Dec-2017
                24-Jun-2019 
 ******************************************
 %nprocshared=20
 Will use up to   20 processors via shared memory.
 %mem=100GB
 %chk=7-HACAsite2TSguess-1a.chk
 ---------------------------------------------------------------
 # opt=(ts,calcfc,noeigen) freq b3lyp/6-311+g(d,p) int=grid=fine
 ---------------------------------------------------------------
 1/5=1,10=4,11=1,18=20,26=3,38=1/1,3;
 2/9=110,12=2,17=6,18=5,40=1/2;
 3/5=4,6=6,7=111,11=2,25=1,30=1,71=2,74=-5,75=-4,140=1/1,2,3;
 4//1;
 5/5=2,38=5/2;
 8/6=4,10=90,11=11/1;
 11/6=1,8=1,9=11,15=111,16=1/1,2,10;
 10/6=1,13=1/2;
 6/7=2,8=2,9=2,10=2,28=1/1;
 7/10=1,18=20,25=1/1,2,3,16;
 1/5=1,10=4,11=1,18=20,26=3/3(2);
 2/9=110/2;
 99//99;
 2/9=110/2;
 3/5=4,6=6,7=111,11=2,25=1,30=1,71=1,74=-5,75=-4/1,2,3;
 4/5=5,16=3,69=1/1;
 5/5=2,38=5/2;
 7//1,2,3,16;
 1/5=1,11=1,18=20,26=3/3(-5);
 2/9=110/2;
 6/7=2,8=2,9=2,10=2,19=2,28=1/1;
 99/9=1/99;
 ---------------------
 7-HACAsite2TSguess-1a
 ---------------------
 Symbolic Z-matrix:
 Charge =  0 Multiplicity = 3
 C                    -8.9378   -0.4149    0. 
 C                    -7.688     0.3241    0. 
 C                    -6.3921   -0.2924    0. 
 C                    -6.2261   -1.7269    0. 
 C                    -8.8022   -1.8809    0. 
 C                    -7.4675   -2.5253    0. 
 C                    -5.3416    0.7399    0. 
 C                    -3.9245    0.296     0. 
 C                    -3.7043   -1.2369    0. 
 C                    -4.8489   -2.1824    0. 
 C                    -2.7076    1.1869    0. 
 C                    -1.3241    0.557     0. 
 C                    -1.1938   -0.8919    0. 
 C                    -2.341    -1.7566    0. 
 C                    -2.7442    2.6617    0. 
 C                    -1.5448    3.4792    0. 
 C                    -0.2418    2.8614    0. 
 C                    -0.1349    1.4201    0. 
 C                    -10.1472   0.4123    0. 
 C                    -10.0447   1.8833    0. 
 C                    -8.7422    2.5693    0. 
 C                    -7.5348    1.7716    0. 
 C                    -6.083     2.0351    0. 
 H                    -8.6943    3.6497    0. 
 H                    -10.9528   2.4747    0. 
 H                    -11.1237  -0.055     0. 
 H                    -9.689    -2.5022    0. 
 H                    -7.4074   -3.6068    0. 
 H                    -4.6519   -3.2478    0. 
 H                    -2.1792   -2.8283    0. 
 H                    -0.2065   -1.3387    0. 
 H                     0.851     0.9707    0. 
 H                    -3.677     3.1952    0. 
 H                    -1.6305    4.5589    0. 
 H                     0.6516    3.4728    0. 
 H                    -5.66359   3.43361   0. 
 H                    -5.48552   4.27337  -0.00041 
 
 Add virtual bond connecting atoms H36        and C23        Dist= 2.76D+00.

 GradGradGradGradGradGradGradGradGradGradGradGradGradGradGradGradGradGrad
 Berny optimization.
 Initialization pass.
                           ----------------------------
                           !    Initial Parameters    !
                           ! (Angstroms and Degrees)  !
 --------------------------                            --------------------------
 ! Name  Definition              Value          Derivative Info.                !
 --------------------------------------------------------------------------------
 ! R1    R(1,2)                  1.4519         calculate D2E/DX2 analytically  !
 ! R2    R(1,5)                  1.4723         calculate D2E/DX2 analytically  !
 ! R3    R(1,19)                 1.4652         calculate D2E/DX2 analytically  !
 ! R4    R(2,3)                  1.4351         calculate D2E/DX2 analytically  !
 ! R5    R(2,22)                 1.4556         calculate D2E/DX2 analytically  !
 ! R6    R(3,4)                  1.4441         calculate D2E/DX2 analytically  !
 ! R7    R(3,7)                  1.4728         calculate D2E/DX2 analytically  !
 ! R8    R(4,6)                  1.476          calculate D2E/DX2 analytically  !
 ! R9    R(4,10)                 1.4506         calculate D2E/DX2 analytically  !
 ! R10   R(5,6)                  1.4821         calculate D2E/DX2 analytically  !
 ! R11   R(5,27)                 1.0828         calculate D2E/DX2 analytically  !
 ! R12   R(6,28)                 1.0832         calculate D2E/DX2 analytically  !
 ! R13   R(7,8)                  1.485          calculate D2E/DX2 analytically  !
 ! R14   R(7,23)                 1.4924         calculate D2E/DX2 analytically  !
 ! R15   R(8,9)                  1.5486         calculate D2E/DX2 analytically  !
 ! R16   R(8,11)                 1.5082         calculate D2E/DX2 analytically  !
 ! R17   R(9,10)                 1.4846         calculate D2E/DX2 analytically  !
 ! R18   R(9,14)                 1.459          calculate D2E/DX2 analytically  !
 ! R19   R(10,29)                1.0835         calculate D2E/DX2 analytically  !
 ! R20   R(11,12)                1.5201         calculate D2E/DX2 analytically  !
 ! R21   R(11,15)                1.4753         calculate D2E/DX2 analytically  !
 ! R22   R(12,13)                1.4547         calculate D2E/DX2 analytically  !
 ! R23   R(12,18)                1.4694         calculate D2E/DX2 analytically  !
 ! R24   R(13,14)                1.4366         calculate D2E/DX2 analytically  !
 ! R25   R(13,31)                1.0837         calculate D2E/DX2 analytically  !
 ! R26   R(14,30)                1.0838         calculate D2E/DX2 analytically  !
 ! R27   R(15,16)                1.4515         calculate D2E/DX2 analytically  !
 ! R28   R(15,33)                1.0746         calculate D2E/DX2 analytically  !
 ! R29   R(16,17)                1.442          calculate D2E/DX2 analytically  !
 ! R30   R(16,34)                1.0831         calculate D2E/DX2 analytically  !
 ! R31   R(17,18)                1.4453         calculate D2E/DX2 analytically  !
 ! R32   R(17,35)                1.0826         calculate D2E/DX2 analytically  !
 ! R33   R(18,32)                1.0835         calculate D2E/DX2 analytically  !
 ! R34   R(19,20)                1.4746         calculate D2E/DX2 analytically  !
 ! R35   R(19,26)                1.0826         calculate D2E/DX2 analytically  !
 ! R36   R(20,21)                1.4721         calculate D2E/DX2 analytically  !
 ! R37   R(20,25)                1.0837         calculate D2E/DX2 analytically  !
 ! R38   R(21,22)                1.4471         calculate D2E/DX2 analytically  !
 ! R39   R(21,24)                1.0815         calculate D2E/DX2 analytically  !
 ! R40   R(22,23)                1.4755         calculate D2E/DX2 analytically  !
 ! R41   R(23,36)                1.46           calculate D2E/DX2 analytically  !
 ! R42   R(36,37)                0.8584         calculate D2E/DX2 analytically  !
 ! A1    A(2,1,5)              115.311          calculate D2E/DX2 analytically  !
 ! A2    A(2,1,19)             115.0332         calculate D2E/DX2 analytically  !
 ! A3    A(5,1,19)             129.6558         calculate D2E/DX2 analytically  !
 ! A4    A(1,2,3)              123.9625         calculate D2E/DX2 analytically  !
 ! A5    A(1,2,22)             126.6372         calculate D2E/DX2 analytically  !
 ! A6    A(3,2,22)             109.4003         calculate D2E/DX2 analytically  !
 ! A7    A(2,3,4)              122.0428         calculate D2E/DX2 analytically  !
 ! A8    A(2,3,7)              110.0588         calculate D2E/DX2 analytically  !
 ! A9    A(4,3,7)              127.8985         calculate D2E/DX2 analytically  !
 ! A10   A(3,4,6)              116.146          calculate D2E/DX2 analytically  !
 ! A11   A(3,4,10)             114.9022         calculate D2E/DX2 analytically  !
 ! A12   A(6,4,10)             128.9518         calculate D2E/DX2 analytically  !
 ! A13   A(1,5,6)              121.0561         calculate D2E/DX2 analytically  !
 ! A14   A(1,5,27)             119.7308         calculate D2E/DX2 analytically  !
 ! A15   A(6,5,27)             119.2131         calculate D2E/DX2 analytically  !
 ! A16   A(4,6,5)              121.4816         calculate D2E/DX2 analytically  !
 ! A17   A(4,6,28)             119.5662         calculate D2E/DX2 analytically  !
 ! A18   A(5,6,28)             118.9522         calculate D2E/DX2 analytically  !
 ! A19   A(3,7,8)              118.1077         calculate D2E/DX2 analytically  !
 ! A20   A(3,7,23)             104.7116         calculate D2E/DX2 analytically  !
 ! A21   A(8,7,23)             137.1807         calculate D2E/DX2 analytically  !
 ! A22   A(7,8,9)              115.5675         calculate D2E/DX2 analytically  !
 ! A23   A(7,8,11)             126.399          calculate D2E/DX2 analytically  !
 ! A24   A(9,8,11)             118.0335         calculate D2E/DX2 analytically  !
 ! A25   A(8,9,10)             121.3839         calculate D2E/DX2 analytically  !
 ! A26   A(8,9,14)             119.0418         calculate D2E/DX2 analytically  !
 ! A27   A(10,9,14)            119.5743         calculate D2E/DX2 analytically  !
 ! A28   A(4,10,9)             122.1402         calculate D2E/DX2 analytically  !
 ! A29   A(4,10,29)            118.7774         calculate D2E/DX2 analytically  !
 ! A30   A(9,10,29)            119.0824         calculate D2E/DX2 analytically  !
 ! A31   A(8,11,12)            119.3124         calculate D2E/DX2 analytically  !
 ! A32   A(8,11,15)            124.7865         calculate D2E/DX2 analytically  !
 ! A33   A(12,11,15)           115.9011         calculate D2E/DX2 analytically  !
 ! A34   A(11,12,13)           119.6183         calculate D2E/DX2 analytically  !
 ! A35   A(11,12,18)           119.549          calculate D2E/DX2 analytically  !
 ! A36   A(13,12,18)           120.8327         calculate D2E/DX2 analytically  !
 ! A37   A(12,13,14)           121.8683         calculate D2E/DX2 analytically  !
 ! A38   A(12,13,31)           119.4878         calculate D2E/DX2 analytically  !
 ! A39   A(14,13,31)           118.6439         calculate D2E/DX2 analytically  !
 ! A40   A(9,14,13)            122.1257         calculate D2E/DX2 analytically  !
 ! A41   A(9,14,30)            119.4526         calculate D2E/DX2 analytically  !
 ! A42   A(13,14,30)           118.4217         calculate D2E/DX2 analytically  !
 ! A43   A(11,15,16)           122.8564         calculate D2E/DX2 analytically  !
 ! A44   A(11,15,33)           121.1883         calculate D2E/DX2 analytically  !
 ! A45   A(16,15,33)           115.9553         calculate D2E/DX2 analytically  !
 ! A46   A(15,16,17)           120.3547         calculate D2E/DX2 analytically  !
 ! A47   A(15,16,34)           119.7397         calculate D2E/DX2 analytically  !
 ! A48   A(17,16,34)           119.9056         calculate D2E/DX2 analytically  !
 ! A49   A(16,17,18)           119.6092         calculate D2E/DX2 analytically  !
 ! A50   A(16,17,35)           120.2468         calculate D2E/DX2 analytically  !
 ! A51   A(18,17,35)           120.144          calculate D2E/DX2 analytically  !
 ! A52   A(12,18,17)           121.7297         calculate D2E/DX2 analytically  !
 ! A53   A(12,18,32)           119.5237         calculate D2E/DX2 analytically  !
 ! A54   A(17,18,32)           118.7466         calculate D2E/DX2 analytically  !
 ! A55   A(1,19,20)            120.3852         calculate D2E/DX2 analytically  !
 ! A56   A(1,19,26)            120.0556         calculate D2E/DX2 analytically  !
 ! A57   A(20,19,26)           119.5592         calculate D2E/DX2 analytically  !
 ! A58   A(19,20,21)           121.7608         calculate D2E/DX2 analytically  !
 ! A59   A(19,20,25)           119.0882         calculate D2E/DX2 analytically  !
 ! A60   A(21,20,25)           119.151          calculate D2E/DX2 analytically  !
 ! A61   A(20,21,22)           118.7734         calculate D2E/DX2 analytically  !
 ! A62   A(20,21,24)           120.3134         calculate D2E/DX2 analytically  !
 ! A63   A(22,21,24)           120.9132         calculate D2E/DX2 analytically  !
 ! A64   A(2,22,21)            117.4102         calculate D2E/DX2 analytically  !
 ! A65   A(2,22,23)            106.3287         calculate D2E/DX2 analytically  !
 ! A66   A(21,22,23)           136.2611         calculate D2E/DX2 analytically  !
 ! A67   A(7,23,22)            109.5006         calculate D2E/DX2 analytically  !
 ! A68   A(7,23,36)            133.5184         calculate D2E/DX2 analytically  !
 ! A69   A(22,23,36)           116.981          calculate D2E/DX2 analytically  !
 ! A70   L(23,36,37,12,-1)     184.7217         calculate D2E/DX2 analytically  !
 ! A71   L(23,36,37,12,-2)     179.9706         calculate D2E/DX2 analytically  !
 ! D1    D(5,1,2,3)              0.0            calculate D2E/DX2 analytically  !
 ! D2    D(5,1,2,22)           180.0            calculate D2E/DX2 analytically  !
 ! D3    D(19,1,2,3)           180.0            calculate D2E/DX2 analytically  !
 ! D4    D(19,1,2,22)            0.0            calculate D2E/DX2 analytically  !
 ! D5    D(2,1,5,6)              0.0            calculate D2E/DX2 analytically  !
 ! D6    D(2,1,5,27)           180.0            calculate D2E/DX2 analytically  !
 ! D7    D(19,1,5,6)           180.0            calculate D2E/DX2 analytically  !
 ! D8    D(19,1,5,27)            0.0            calculate D2E/DX2 analytically  !
 ! D9    D(2,1,19,20)            0.0            calculate D2E/DX2 analytically  !
 ! D10   D(2,1,19,26)          180.0            calculate D2E/DX2 analytically  !
 ! D11   D(5,1,19,20)          180.0            calculate D2E/DX2 analytically  !
 ! D12   D(5,1,19,26)            0.0            calculate D2E/DX2 analytically  !
 ! D13   D(1,2,3,4)              0.0            calculate D2E/DX2 analytically  !
 ! D14   D(1,2,3,7)            180.0            calculate D2E/DX2 analytically  !
 ! D15   D(22,2,3,4)           180.0            calculate D2E/DX2 analytically  !
 ! D16   D(22,2,3,7)             0.0            calculate D2E/DX2 analytically  !
 ! D17   D(1,2,22,21)            0.0            calculate D2E/DX2 analytically  !
 ! D18   D(1,2,22,23)          180.0            calculate D2E/DX2 analytically  !
 ! D19   D(3,2,22,21)          180.0            calculate D2E/DX2 analytically  !
 ! D20   D(3,2,22,23)            0.0            calculate D2E/DX2 analytically  !
 ! D21   D(2,3,4,6)              0.0            calculate D2E/DX2 analytically  !
 ! D22   D(2,3,4,10)           180.0            calculate D2E/DX2 analytically  !
 ! D23   D(7,3,4,6)            180.0            calculate D2E/DX2 analytically  !
 ! D24   D(7,3,4,10)             0.0            calculate D2E/DX2 analytically  !
 ! D25   D(2,3,7,8)            180.0            calculate D2E/DX2 analytically  !
 ! D26   D(2,3,7,23)             0.0            calculate D2E/DX2 analytically  !
 ! D27   D(4,3,7,8)              0.0            calculate D2E/DX2 analytically  !
 ! D28   D(4,3,7,23)           180.0            calculate D2E/DX2 analytically  !
 ! D29   D(3,4,6,5)              0.0            calculate D2E/DX2 analytically  !
 ! D30   D(3,4,6,28)           180.0            calculate D2E/DX2 analytically  !
 ! D31   D(10,4,6,5)           180.0            calculate D2E/DX2 analytically  !
 ! D32   D(10,4,6,28)            0.0            calculate D2E/DX2 analytically  !
 ! D33   D(3,4,10,9)             0.0            calculate D2E/DX2 analytically  !
 ! D34   D(3,4,10,29)          180.0            calculate D2E/DX2 analytically  !
 ! D35   D(6,4,10,9)           180.0            calculate D2E/DX2 analytically  !
 ! D36   D(6,4,10,29)            0.0            calculate D2E/DX2 analytically  !
 ! D37   D(1,5,6,4)              0.0            calculate D2E/DX2 analytically  !
 ! D38   D(1,5,6,28)           180.0            calculate D2E/DX2 analytically  !
 ! D39   D(27,5,6,4)           180.0            calculate D2E/DX2 analytically  !
 ! D40   D(27,5,6,28)            0.0            calculate D2E/DX2 analytically  !
 ! D41   D(3,7,8,9)              0.0            calculate D2E/DX2 analytically  !
 ! D42   D(3,7,8,11)           180.0            calculate D2E/DX2 analytically  !
 ! D43   D(23,7,8,9)           180.0            calculate D2E/DX2 analytically  !
 ! D44   D(23,7,8,11)            0.0            calculate D2E/DX2 analytically  !
 ! D45   D(3,7,23,22)            0.0            calculate D2E/DX2 analytically  !
 ! D46   D(3,7,23,36)          180.0            calculate D2E/DX2 analytically  !
 ! D47   D(8,7,23,22)          180.0            calculate D2E/DX2 analytically  !
 ! D48   D(8,7,23,36)            0.0            calculate D2E/DX2 analytically  !
 ! D49   D(7,8,9,10)             0.0            calculate D2E/DX2 analytically  !
 ! D50   D(7,8,9,14)           180.0            calculate D2E/DX2 analytically  !
 ! D51   D(11,8,9,10)          180.0            calculate D2E/DX2 analytically  !
 ! D52   D(11,8,9,14)            0.0            calculate D2E/DX2 analytically  !
 ! D53   D(7,8,11,12)          180.0            calculate D2E/DX2 analytically  !
 ! D54   D(7,8,11,15)            0.0            calculate D2E/DX2 analytically  !
 ! D55   D(9,8,11,12)            0.0            calculate D2E/DX2 analytically  !
 ! D56   D(9,8,11,15)          180.0            calculate D2E/DX2 analytically  !
 ! D57   D(8,9,10,4)             0.0            calculate D2E/DX2 analytically  !
 ! D58   D(8,9,10,29)          180.0            calculate D2E/DX2 analytically  !
 ! D59   D(14,9,10,4)          180.0            calculate D2E/DX2 analytically  !
 ! D60   D(14,9,10,29)           0.0            calculate D2E/DX2 analytically  !
 ! D61   D(8,9,14,13)            0.0            calculate D2E/DX2 analytically  !
 ! D62   D(8,9,14,30)          180.0            calculate D2E/DX2 analytically  !
 ! D63   D(10,9,14,13)         180.0            calculate D2E/DX2 analytically  !
 ! D64   D(10,9,14,30)           0.0            calculate D2E/DX2 analytically  !
 ! D65   D(8,11,12,13)           0.0            calculate D2E/DX2 analytically  !
 ! D66   D(8,11,12,18)         180.0            calculate D2E/DX2 analytically  !
 ! D67   D(15,11,12,13)        180.0            calculate D2E/DX2 analytically  !
 ! D68   D(15,11,12,18)          0.0            calculate D2E/DX2 analytically  !
 ! D69   D(8,11,15,16)         180.0            calculate D2E/DX2 analytically  !
 ! D70   D(8,11,15,33)           0.0            calculate D2E/DX2 analytically  !
 ! D71   D(12,11,15,16)          0.0            calculate D2E/DX2 analytically  !
 ! D72   D(12,11,15,33)        180.0            calculate D2E/DX2 analytically  !
 ! D73   D(11,12,13,14)          0.0            calculate D2E/DX2 analytically  !
 ! D74   D(11,12,13,31)        180.0            calculate D2E/DX2 analytically  !
 ! D75   D(18,12,13,14)        180.0            calculate D2E/DX2 analytically  !
 ! D76   D(18,12,13,31)          0.0            calculate D2E/DX2 analytically  !
 ! D77   D(11,12,18,17)          0.0            calculate D2E/DX2 analytically  !
 ! D78   D(11,12,18,32)        180.0            calculate D2E/DX2 analytically  !
 ! D79   D(13,12,18,17)        180.0            calculate D2E/DX2 analytically  !
 ! D80   D(13,12,18,32)          0.0            calculate D2E/DX2 analytically  !
 ! D81   D(12,13,14,9)           0.0            calculate D2E/DX2 analytically  !
 ! D82   D(12,13,14,30)        180.0            calculate D2E/DX2 analytically  !
 ! D83   D(31,13,14,9)         180.0            calculate D2E/DX2 analytically  !
 ! D84   D(31,13,14,30)          0.0            calculate D2E/DX2 analytically  !
 ! D85   D(11,15,16,17)          0.0            calculate D2E/DX2 analytically  !
 ! D86   D(11,15,16,34)        180.0            calculate D2E/DX2 analytically  !
 ! D87   D(33,15,16,17)        180.0            calculate D2E/DX2 analytically  !
 ! D88   D(33,15,16,34)          0.0            calculate D2E/DX2 analytically  !
 ! D89   D(15,16,17,18)          0.0            calculate D2E/DX2 analytically  !
 ! D90   D(15,16,17,35)        180.0            calculate D2E/DX2 analytically  !
 ! D91   D(34,16,17,18)        180.0            calculate D2E/DX2 analytically  !
 ! D92   D(34,16,17,35)          0.0            calculate D2E/DX2 analytically  !
 ! D93   D(16,17,18,12)          0.0            calculate D2E/DX2 analytically  !
 ! D94   D(16,17,18,32)        180.0            calculate D2E/DX2 analytically  !
 ! D95   D(35,17,18,12)        180.0            calculate D2E/DX2 analytically  !
 ! D96   D(35,17,18,32)          0.0            calculate D2E/DX2 analytically  !
 ! D97   D(1,19,20,21)           0.0            calculate D2E/DX2 analytically  !
 ! D98   D(1,19,20,25)         180.0            calculate D2E/DX2 analytically  !
 ! D99   D(26,19,20,21)        180.0            calculate D2E/DX2 analytically  !
 ! D100  D(26,19,20,25)          0.0            calculate D2E/DX2 analytically  !
 ! D101  D(19,20,21,22)          0.0            calculate D2E/DX2 analytically  !
 ! D102  D(19,20,21,24)        180.0            calculate D2E/DX2 analytically  !
 ! D103  D(25,20,21,22)        180.0            calculate D2E/DX2 analytically  !
 ! D104  D(25,20,21,24)          0.0            calculate D2E/DX2 analytically  !
 ! D105  D(20,21,22,2)           0.0            calculate D2E/DX2 analytically  !
 ! D106  D(20,21,22,23)        180.0            calculate D2E/DX2 analytically  !
 ! D107  D(24,21,22,2)         180.0            calculate D2E/DX2 analytically  !
 ! D108  D(24,21,22,23)          0.0            calculate D2E/DX2 analytically  !
 ! D109  D(2,22,23,7)            0.0            calculate D2E/DX2 analytically  !
 ! D110  D(2,22,23,36)         180.0            calculate D2E/DX2 analytically  !
 ! D111  D(21,22,23,7)         180.0            calculate D2E/DX2 analytically  !
 ! D112  D(21,22,23,36)          0.0            calculate D2E/DX2 analytically  !
 --------------------------------------------------------------------------------
 Trust Radius=3.00D-01 FncErr=1.00D-07 GrdErr=1.00D-06 EigMax=2.50D+02 EigMin=1.00D-04
 Number of steps in this run=    222 maximum allowed number of steps=    222.
 Search for a saddle point of order  1.
 GradGradGradGradGradGradGradGradGradGradGradGradGradGradGradGradGradGrad

                          Input orientation:                          
 ---------------------------------------------------------------------
 Center     Atomic      Atomic             Coordinates (Angstroms)
 Number     Number       Type             X           Y           Z
 ---------------------------------------------------------------------
      1          6           0       -8.937800   -0.414900    0.000000
      2          6           0       -7.688000    0.324100    0.000000
      3          6           0       -6.392100   -0.292400    0.000000
      4          6           0       -6.226100   -1.726900    0.000000
      5          6           0       -8.802200   -1.880900    0.000000
      6          6           0       -7.467500   -2.525300    0.000000
      7          6           0       -5.341600    0.739900    0.000000
      8          6           0       -3.924500    0.296000    0.000000
      9          6           0       -3.704300   -1.236900    0.000000
     10          6           0       -4.848900   -2.182400    0.000000
     11          6           0       -2.707600    1.186900    0.000000
     12          6           0       -1.324100    0.557000    0.000000
     13          6           0       -1.193800   -0.891900    0.000000
     14          6           0       -2.341000   -1.756600    0.000000
     15          6           0       -2.744200    2.661700    0.000000
     16          6           0       -1.544800    3.479200    0.000000
     17          6           0       -0.241800    2.861400    0.000000
     18          6           0       -0.134900    1.420100    0.000000
     19          6           0      -10.147200    0.412300    0.000000
     20          6           0      -10.044700    1.883300    0.000000
     21          6           0       -8.742200    2.569300    0.000000
     22          6           0       -7.534800    1.771600    0.000000
     23          6           0       -6.083000    2.035100    0.000000
     24          1           0       -8.694300    3.649700    0.000000
     25          1           0      -10.952800    2.474700    0.000000
     26          1           0      -11.123700   -0.055000    0.000000
     27          1           0       -9.689000   -2.502200    0.000000
     28          1           0       -7.407400   -3.606800    0.000000
     29          1           0       -4.651900   -3.247800    0.000000
     30          1           0       -2.179200   -2.828300    0.000000
     31          1           0       -0.206500   -1.338700    0.000000
     32          1           0        0.851000    0.970700    0.000000
     33          1           0       -3.677000    3.195200    0.000000
     34          1           0       -1.630500    4.558900    0.000000
     35          1           0        0.651600    3.472800    0.000000
     36          1           0       -5.663590    3.433610    0.000000
     37          1           0       -5.485520    4.273370   -0.000410
 ---------------------------------------------------------------------
                    Distance matrix (angstroms):
                    1          2          3          4          5
     1  C    0.000000
     2  C    1.451937   0.000000
     3  C    2.548646   1.435071   0.000000
     4  C    3.012418   2.518681   1.444073   0.000000
     5  C    1.472258   2.470520   2.886506   2.580699   0.000000
     6  C    2.572075   2.857919   2.478372   1.475980   1.482119
     7  C    3.777065   2.382957   1.472818   2.620581   4.341007
     8  C    5.063453   3.763605   2.536782   3.064227   5.341428
     9  C    5.297660   4.278620   2.848921   2.568964   5.138416
    10  C    4.454566   3.787219   2.439993   1.450572   3.964780
    11  C    6.432819   5.054583   3.970374   4.568377   6.823162
    12  C    7.675482   6.368160   5.138687   5.407939   7.865452
    13  C    7.758677   6.607064   5.232755   5.101105   7.672410
    14  C    6.731859   5.737571   4.307586   3.885214   6.462396
    15  C    6.915645   5.468595   4.694026   5.602092   7.571960
    16  C    8.355864   6.906053   6.141766   7.001289   9.022224
    17  C    9.292715   7.866625   6.911776   7.540845   9.786208
    18  C    8.992123   7.632204   6.487311   6.856116   9.274626
    19  C    1.465233   2.460781   3.820652   4.466677   2.658532
    20  C    2.550873   2.825799   4.251489   5.255021   3.963964
    21  C    2.990603   2.480375   3.703012   4.978764   4.450604
    22  C    2.597921   1.455585   2.359207   3.735264   3.866143
    23  C    3.761965   2.345964   2.347935   3.764721   4.767505
    24  H    4.071887   3.474515   4.565115   5.916066   5.531652
    25  H    3.522785   3.909476   5.334494   6.324171   4.857606
    26  H    2.215330   3.456552   4.737552   5.175107   2.953519
    27  H    2.218360   3.462943   3.968975   3.548629   1.082787
    28  H    3.539823   3.940902   3.466422   2.220246   2.219053
    29  H    5.137535   4.687896   3.429677   2.188891   4.369600
    30  H    7.176571   6.347007   4.917247   4.194101   6.690418
    31  H    8.780035   7.664055   6.273467   6.032104   8.612783
    32  H    9.886379   8.563446   7.352409   7.573796  10.065580
    33  H    6.380348   4.932680   4.419855   5.543012   7.213492
    34  H    8.839419   7.390997   6.797643   7.786580   9.638688
    35  H   10.347502   8.914216   7.986892   8.622044  10.864458
    36  H    5.052869   3.710430   3.796561   5.191077   6.172106
    37  H    5.822209   4.521908   4.654905   6.045800   6.991095
                    6          7          8          9         10
     6  C    0.000000
     7  C    3.896278   0.000000
     8  C    4.529082   1.484998   0.000000
     9  C    3.977644   2.566805   1.548635   0.000000
    10  C    2.640956   2.963544   2.645181   1.484614   0.000000
    11  C    6.036313   2.671660   1.508161   2.620728   3.992161
    12  C    6.873277   4.021661   2.613465   2.980508   4.464138
    13  C    6.482847   4.457243   2.977890   2.534095   3.876228
    14  C    5.183812   3.903346   2.592420   1.458998   2.543790
    15  C    7.015307   3.231068   2.643794   4.015081   5.281578
    16  C    8.434002   4.681822   3.974385   5.187007   6.555211
    17  C    9.012618   5.523470   4.488157   5.365163   6.831200
    18  C    8.326656   5.250942   3.952805   4.449749   5.932942
    19  C    3.976215   4.816753   6.223787   6.650626   5.899530
    20  C    5.106634   4.840094   6.322687   7.066564   6.597443
    21  C    5.251648   3.861449   5.327112   6.314079   6.142999
    22  C    4.297427   2.423743   3.900213   4.870709   4.779976
    23  C    4.765930   1.492386   2.771929   4.045269   4.394350
    24  H    6.295686   4.439317   5.830806   6.984194   6.985735
    25  H    6.094860   5.873253   7.358243   8.143508   7.677641
    26  H    4.412503   5.836484   7.207751   7.512948   6.625628
    27  H    2.221620   5.423200   6.407760   6.116994   4.850654
    28  H    1.083169   4.812622   5.230912   4.396519   2.928282
    29  H    2.906821   4.046905   3.617683   2.222986   1.083460
    30  H    5.296973   4.767895   3.578732   2.204197   2.746723
    31  H    7.357319   5.539840   4.061498   3.499281   4.718443
    32  H    9.023273   6.196899   4.822927   5.062041   6.513900
    33  H    6.862362   2.966377   2.909745   4.432184   5.503811
    34  H    9.179132   5.325131   4.840945   6.155643   7.470156
    35  H   10.094404   6.586895   5.570705   6.415227   7.889030
    36  H    6.225970   2.712886   3.587343   5.064828   5.674794
    37  H    7.081678   3.536400   4.272734   5.791012   6.487083
                   11         12         13         14         15
    11  C    0.000000
    12  C    1.520147   0.000000
    13  C    2.571575   1.454747   0.000000
    14  C    2.966241   2.527218   1.436584   0.000000
    15  C    1.475254   2.538985   3.877088   4.436659   0.000000
    16  C    2.570359   2.930522   4.385170   5.295992   1.451505
    17  C    2.980624   2.545905   3.872152   5.072728   2.510356
    18  C    2.583247   1.469401   2.542954   3.867596   2.889640
    19  C    7.479816   8.824286   9.047890   8.101906   7.737196
    20  C    7.370075   8.820881   9.275784   8.520321   7.341880
    21  C    6.190915   7.686193   8.304110   7.725851   5.998712
    22  C    4.862482   6.328353   6.877682   6.278834   4.872589
    23  C    3.480340   4.983163   5.698386   5.327246   3.397089
    24  H    6.473481   7.992787   8.768331   8.342212   6.031570
    25  H    8.345163   9.817812  10.323375   9.595155   8.210730
    26  H    8.507235   9.818692   9.965105   8.946019   8.808886
    27  H    7.896164   8.906753   8.646473   7.385731   8.654254
    28  H    6.713247   7.371823   6.780819   5.393667   7.812780
    29  H    4.842196   5.054776   4.184342   2.750261   6.209791
    30  H    4.049819   3.491626   2.172708   1.083845   5.518997
    31  H    3.554456   2.200615   1.083693   2.175024   4.737417
    32  H    3.565161   2.214093   2.765951   4.198456   3.973027
    33  H    2.230024   3.535002   4.782329   5.128861   1.074587
    34  H    3.539849   4.013612   5.468265   6.355340   2.199931
    35  H    4.063196   3.522113   4.738788   6.025137   3.491324
    36  H    3.712894   5.206348   6.220053   6.162620   3.019716
    37  H    4.152486   5.579321   6.715570   6.800628   3.179987
                   16         17         18         19         20
    16  C    0.000000
    17  C    1.442042   0.000000
    18  C    2.495538   1.445259   0.000000
    19  C    9.132752  10.203678  10.062893   0.000000
    20  C    8.648422   9.851575   9.920619   1.474567   0.000000
    21  C    7.254687   8.505417   8.683679   2.574233   1.472108
    22  C    6.228643   7.373975   7.408244   2.944882   2.512384
    23  C    4.762424   5.899355   5.979809   4.376209   3.964607
    24  H    7.151533   8.489180   8.845024   3.548475   2.223454
    25  H    9.461474  10.717978  10.869183   2.214156   1.083697
    26  H   10.210088  11.265928  11.087364   1.082553   2.218389
    27  H   10.104709  10.863599  10.327888   2.950298   4.399901
    28  H    9.196819   9.653157   8.840757   4.864121   6.090694
    29  H    7.409899   7.534674   6.495582   6.602625   7.443822
    30  H    6.339323   6.010508   4.714665   8.601774   9.168711
    31  H    5.000321   4.200248   2.759729  10.093737  10.352365
    32  H    3.468779   2.183794   1.083494  11.012366  10.933852
    33  H    2.151031   3.451380   3.962001   7.043296   6.501437
    34  H    1.083096   2.193170   3.476907   9.472511   8.829360
    35  H    2.196409   1.082577   2.198217  11.224114  10.813757
    36  H    4.119042   5.451902   5.883930   5.406577   4.647320
    37  H    4.019948   5.430493   6.063851   6.053026   5.147675
                   21         22         23         24         25
    21  C    0.000000
    22  C    1.447114   0.000000
    23  C    2.712326   1.475519   0.000000
    24  H    1.081461   2.207193   3.070150   0.000000
    25  H    2.212623   3.489566   4.889601   2.545869   0.000000
    26  H    3.543796   4.026993   5.456847   4.430213   2.535466
    27  H    5.159122   4.786015   5.795716   6.231798   5.134854
    28  H    6.318695   5.379909   5.795263   7.369729   7.039496
    29  H    7.111203   5.788393   5.473306   7.994780   8.511659
    30  H    8.497473   7.059853   6.236370   9.187547  10.251725
    31  H    9.387792   7.961027   6.776118   9.845145  11.402850
    32  H    9.725482   8.423959   7.015219   9.914121  11.899232
    33  H    5.103724   4.112087   2.671080   5.037844   7.311387
    34  H    7.384767   6.529150   5.118039   7.122072   9.552443
    35  H    9.437150   8.361293   6.886350   9.347574  11.647244
    36  H    3.197635   2.502739   1.460046   3.038404   5.375430
    37  H    3.675571   3.233945   2.316643   3.268828   5.755551
                   26         27         28         29         30
    26  H    0.000000
    27  H    2.836750   0.000000
    28  H    5.140639   2.534924   0.000000
    29  H    7.216520   5.091983   2.778788   0.000000
    30  H    9.364575   7.516877   5.285843   2.508032   0.000000
    31  H   10.992413   9.553614   7.549652   4.838000   2.471933
    32  H   12.018548  11.097416   9.442175   6.933805   4.859477
    33  H    8.125093   8.282784   7.757776   6.516339   6.206928
    34  H   10.555042  10.714409  10.002561   8.370987   7.407550
    35  H   12.292399  11.942723  10.726985   8.561167   6.907770
    36  H    6.479444   7.172013   7.253154   6.757570   7.166065
    37  H    7.108014   7.973556   8.111147   7.567227   7.833611
                   31         32         33         34         35
    31  H    0.000000
    32  H    2.540007   0.000000
    33  H    5.709695   5.044917   0.000000
    34  H    6.067080   4.362685   2.459236   0.000000
    35  H    4.887419   2.510033   4.337492   2.527369   0.000000
    36  H    7.249467   6.964611   2.000845   4.187134   6.315312
    37  H    7.704764   7.145566   2.105515   3.865580   6.189116
                   36         37
    36  H    0.000000
    37  H    0.858432   0.000000
 Stoichiometry    C23H14(3)
 Framework group  C1[X(C23H14)]
 Deg. of freedom   105
 Full point group                 C1      NOp   1
 Largest Abelian subgroup         C1      NOp   1
 Largest concise Abelian subgroup C1      NOp   1
                         Standard orientation:                         
 ---------------------------------------------------------------------
 Center     Atomic      Atomic             Coordinates (Angstroms)
 Number     Number       Type             X           Y           Z
 ---------------------------------------------------------------------
      1          6           0       -3.901108    0.294036   -0.000003
      2          6           0       -2.556367   -0.253496   -0.000003
      3          6           0       -1.365003    0.546555   -0.000003
      4          6           0       -1.411376    1.989883   -0.000003
      5          6           0       -3.982176    1.764061   -0.000003
      6          6           0       -2.756528    2.597405   -0.000003
      7          6           0       -0.174348   -0.320356   -0.000003
      8          6           0        1.162239    0.326756   -0.000003
      9          6           0        1.155034    1.875375   -0.000003
     10          6           0       -0.115959    2.642613   -0.000003
     11          6           0        2.496735   -0.375860   -0.000003
     12          6           0        3.772783    0.450305   -0.000003
     13          6           0        3.688982    1.902637   -0.000003
     14          6           0        2.427278    2.589568   -0.000003
     15          6           0        2.677022   -1.840056   -0.000003
     16          6           0        3.983433   -2.472637   -0.000003
     17          6           0        5.181629   -1.670257   -0.000003
     18          6           0        5.075798   -0.228879   -0.000003
     19          6           0       -4.975979   -0.701734   -0.000003
     20          6           0       -4.658657   -2.141753   -0.000003
     21          6           0       -3.269566   -2.629123   -0.000003
     22          6           0       -2.192343   -1.662827   -0.000003
     23          6           0       -0.717590   -1.710358   -0.000003
     24          1           0       -3.063590   -3.690788   -0.000003
     25          1           0       -5.470106   -2.860050   -0.000003
     26          1           0       -6.010498   -0.382840   -0.000003
     27          1           0       -4.950572    2.248454   -0.000003
     28          1           0       -2.855836    3.676012   -0.000003
     29          1           0       -0.077487    3.725390   -0.000003
     30          1           0        2.430006    3.673410   -0.000003
     31          1           0        4.600000    2.489525   -0.000003
     32          1           0        5.985049    0.360377   -0.000003
     33          1           0        1.832641   -2.504706   -0.000003
     34          1           0        4.057154   -3.553221   -0.000003
     35          1           0        6.155100   -2.143889   -0.000003
     36          1           0       -0.097431   -3.032151   -0.000003
     37          1           0        0.201981   -3.836675    0.000407
 ---------------------------------------------------------------------
 Rotational constants (GHZ):           0.5550479           0.1690731           0.1295966
 Standard basis: 6-311+G(d,p) (5D, 7F)
 There are   613 symmetry adapted cartesian basis functions of A   symmetry.
 There are   590 symmetry adapted basis functions of A   symmetry.
   590 basis functions,   940 primitive gaussians,   613 cartesian basis functions
    77 alpha electrons       75 beta electrons
       nuclear repulsion energy      1619.1310275007 Hartrees.
 NAtoms=   37 NActive=   37 NUniq=   37 SFac= 1.00D+00 NAtFMM=   60 NAOKFM=F Big=F
 Integral buffers will be    131072 words long.
 Raffenetti 2 integral format.
 Two-electron integral symmetry is turned on.
 One-electron integrals computed using PRISM.
 NBasis=   590 RedAO= T EigKep=  1.15D-06  NBF=   590
 NBsUse=   577 1.00D-06 EigRej=  7.58D-07 NBFU=   577
 ExpMin= 4.38D-02 ExpMax= 4.56D+03 ExpMxC= 6.82D+02 IAcc=2 IRadAn=         4 AccDes= 0.00D+00
 Harris functional with IExCor=  402 and IRadAn=       4 diagonalized for initial guess.
 HarFok:  IExCor=  402 AccDes= 0.00D+00 IRadAn=         4 IDoV= 1 UseB2=F ITyADJ=14
 ICtDFT=  3500011 ScaDFX=  1.000000  1.000000  1.000000  1.000000
 FoFCou: FMM=F IPFlag=           0 FMFlag=      100000 FMFlg1=           0
         NFxFlg=           0 DoJE=T BraDBF=F KetDBF=T FulRan=T
         wScrn=  0.000000 ICntrl=       500 IOpCl=  0 I1Cent=   200000004 NGrid=           0
         NMat0=    1 NMatS0=      1 NMatT0=    0 NMatD0=    1 NMtDS0=    0 NMtDT0=    0
 Petite list used in FoFCou.
 Initial guess <Sx>= 0.0000 <Sy>= 0.0000 <Sz>= 1.0000 <S**2>= 2.0000 S= 1.0000
 Requested convergence on RMS density matrix=1.00D-08 within 128 cycles.
 Requested convergence on MAX density matrix=1.00D-06.
 Requested convergence on             energy=1.00D-06.
 No special actions if energy rises.
 Restarting incremental Fock formation.
 SCF Done:  E(UB3LYP) =  -884.894257275     A.U. after   25 cycles
            NFock= 25  Conv=0.89D-08     -V/T= 2.0082
 <Sx>= 0.0000 <Sy>= 0.0000 <Sz>= 1.0000 <S**2>= 2.0628 S= 1.0208
 <L.S>=  0.00000000000    
 Annihilation of the first spin contaminant:
 S**2 before annihilation     2.0628,   after     2.0023
 DoSCS=F DFT=T ScalE2(SS,OS)=  1.000000  1.000000
 Range of M.O.s used for correlation:     1   577
 NBasis=   590 NAE=    77 NBE=    75 NFC=     0 NFV=     0
 NROrb=    577 NOA=    77 NOB=    75 NVA=   500 NVB=   502

 **** Warning!!: The largest alpha MO coefficient is  0.15297162D+03


 **** Warning!!: The largest beta MO coefficient is  0.14953952D+03


 **** Warning!!: The smallest beta delta epsilon is  0.80035015D-01

 Symmetrizing basis deriv contribution to polar:
 IMax=3 JMax=2 DiffMx= 0.00D+00
 G2DrvN: will do    38 centers at a time, making    1 passes.
 Calling FoFCou, ICntrl=  3107 FMM=F I1Cent=   0 AccDes= 0.00D+00.
 End of G2Drv F.D. properties file   721 does not exist.
 End of G2Drv F.D. properties file   722 does not exist.
 End of G2Drv F.D. properties file   788 does not exist.
          IDoAtm=1111111111111111111111111111111111111
          Differentiating once with respect to nuclear coordinates.
 CalDSu exits because no D1Ps are significant.
          There are   114 degrees of freedom in the 1st order CPHF.  IDoFFX=6 NUNeed=     0.
    109 vectors produced by pass  0 Test12= 7.62D-14 1.00D-09 XBig12= 5.54D-01 2.30D-01.
 AX will form   109 AO Fock derivatives at one time.
    108 vectors produced by pass  1 Test12= 7.62D-14 1.00D-09 XBig12= 2.14D-01 8.03D-02.
    108 vectors produced by pass  2 Test12= 7.62D-14 1.00D-09 XBig12= 3.57D-03 1.28D-02.
    108 vectors produced by pass  3 Test12= 7.62D-14 1.00D-09 XBig12= 7.10D-05 1.10D-03.
    108 vectors produced by pass  4 Test12= 7.62D-14 1.00D-09 XBig12= 6.82D-07 7.86D-05.
    108 vectors produced by pass  5 Test12= 7.62D-14 1.00D-09 XBig12= 4.01D-09 6.29D-06.
    108 vectors produced by pass  6 Test12= 7.62D-14 1.00D-09 XBig12= 8.78D-11 8.84D-07.
     99 vectors produced by pass  7 Test12= 7.62D-14 1.00D-09 XBig12= 2.01D-11 3.36D-07.
     73 vectors produced by pass  8 Test12= 7.62D-14 1.00D-09 XBig12= 2.10D-12 9.90D-08.
     32 vectors produced by pass  9 Test12= 7.62D-14 1.00D-09 XBig12= 3.72D-14 1.53D-08.
      5 vectors produced by pass 10 Test12= 7.62D-14 1.00D-09 XBig12= 3.01D-16 1.60D-09.
      5 vectors produced by pass 11 Test12= 7.62D-14 1.00D-09 XBig12= 3.67D-16 1.48D-09.
      3 vectors produced by pass 12 Test12= 7.62D-14 1.00D-09 XBig12= 4.62D-16 1.53D-09.
      3 vectors produced by pass 13 Test12= 7.62D-14 1.00D-09 XBig12= 5.86D-16 1.63D-09.
      3 vectors produced by pass 14 Test12= 7.62D-14 1.00D-09 XBig12= 5.45D-16 2.35D-09.
      3 vectors produced by pass 15 Test12= 7.62D-14 1.00D-09 XBig12= 4.84D-16 1.94D-09.
      2 vectors produced by pass 16 Test12= 7.62D-14 1.00D-09 XBig12= 4.63D-16 1.28D-09.
      2 vectors produced by pass 17 Test12= 7.62D-14 1.00D-09 XBig12= 4.54D-16 1.46D-09.
      1 vectors produced by pass 18 Test12= 7.62D-14 1.00D-09 XBig12= 3.14D-16 1.35D-09.
 InvSVY:  IOpt=1 It=  1 EMax= 7.77D-16
 Solved reduced A of dimension   988 with   114 vectors.
 End of Minotr F.D. properties file   721 does not exist.
 End of Minotr F.D. properties file   722 does not exist.
 End of Minotr F.D. properties file   788 does not exist.

 **********************************************************************

            Population analysis using the SCF Density.

 **********************************************************************

 Orbital symmetries:
 Alpha Orbitals:
       Occupied  (A) (A) (A) (A) (A) (A) (A) (A) (A) (A) (A) (A)
                 (A) (A) (A) (A) (A) (A) (A) (A) (A) (A) (A) (A)
                 (A) (A) (A) (A) (A) (A) (A) (A) (A) (A) (A) (A)
                 (A) (A) (A) (A) (A) (A) (A) (A) (A) (A) (A) (A)
                 (A) (A) (A) (A) (A) (A) (A) (A) (A) (A) (A) (A)
                 (A) (A) (A) (A) (A) (A) (A) (A) (A) (A) (A) (A)
                 (A) (A) (A) (A) (A)
       Virtual   (A) (A) (A) (A) (A) (A) (A) (A) (A) (A) (A) (A)
                 (A) (A) (A) (A) (A) (A) (A) (A) (A) (A) (A) (A)
                 (A) (A) (A) (A) (A) (A) (A) (A) (A) (A) (A) (A)
                 (A) (A) (A) (A) (A) (A) (A) (A) (A) (A) (A) (A)
                 (A) (A) (A) (A) (A) (A) (A) (A) (A) (A) (A) (A)
                 (A) (A) (A) (A) (A) (A) (A) (A) (A) (A) (A) (A)
                 (A) (A) (A) (A) (A) (A) (A) (A) (A) (A) (A) (A)
                 (A) (A) (A) (A) (A) (A) (A) (A) (A) (A) (A) (A)
                 (A) (A) (A) (A) (A) (A) (A) (A) (A) (A) (A) (A)
                 (A) (A) (A) (A) (A) (A) (A) (A) (A) (A) (A) (A)
                 (A) (A) (A) (A) (A) (A) (A) (A) (A) (A) (A) (A)
                 (A) (A) (A) (A) (A) (A) (A) (A) (A) (A) (A) (A)
                 (A) (A) (A) (A) (A) (A) (A) (A) (A) (A) (A) (A)
                 (A) (A) (A) (A) (A) (A) (A) (A) (A) (A) (A) (A)
                 (A) (A) (A) (A) (A) (A) (A) (A) (A) (A) (A) (A)
                 (A) (A) (A) (A) (A) (A) (A) (A) (A) (A) (A) (A)
                 (A) (A) (A) (A) (A) (A) (A) (A) (A) (A) (A) (A)
                 (A) (A) (A) (A) (A) (A) (A) (A) (A) (A) (A) (A)
                 (A) (A) (A) (A) (A) (A) (A) (A) (A) (A) (A) (A)
                 (A) (A) (A) (A) (A) (A) (A) (A) (A) (A) (A) (A)
                 (A) (A) (A) (A) (A) (A) (A) (A) (A) (A) (A) (A)
                 (A) (A) (A) (A) (A) (A) (A) (A) (A) (A) (A) (A)
                 (A) (A) (A) (A) (A) (A) (A) (A) (A) (A) (A) (A)
                 (A) (A) (A) (A) (A) (A) (A) (A) (A) (A) (A) (A)
                 (A) (A) (A) (A) (A) (A) (A) (A) (A) (A) (A) (A)
                 (A) (A) (A) (A) (A) (A) (A) (A) (A) (A) (A) (A)
                 (A) (A) (A) (A) (A) (A) (A) (A) (A) (A) (A) (A)
                 (A) (A) (A) (A) (A) (A) (A) (A) (A) (A) (A) (A)
                 (A) (A) (A) (A) (A) (A) (A) (A) (A) (A) (A) (A)
                 (A) (A) (A) (A) (A) (A) (A) (A) (A) (A) (A) (A)
                 (A) (A) (A) (A) (A) (A) (A) (A) (A) (A) (A) (A)
                 (A) (A) (A) (A) (A) (A) (A) (A) (A) (A) (A) (A)
                 (A) (A) (A) (A) (A) (A) (A) (A) (A) (A) (A) (A)
                 (A) (A) (A) (A) (A) (A) (A) (A) (A) (A) (A) (A)
                 (A) (A) (A) (A) (A) (A) (A) (A) (A) (A) (A) (A)
                 (A) (A) (A) (A) (A) (A) (A) (A) (A) (A) (A) (A)
                 (A) (A) (A) (A) (A) (A) (A) (A) (A) (A) (A) (A)
                 (A) (A) (A) (A) (A) (A) (A) (A) (A) (A) (A) (A)
                 (A) (A) (A) (A) (A) (A) (A) (A) (A) (A) (A) (A)
                 (A) (A) (A) (A) (A) (A) (A) (A) (A) (A) (A) (A)
                 (A) (A) (A) (A) (A) (A) (A) (A) (A) (A) (A) (A)
                 (A) (A) (A) (A) (A) (A) (A) (A)
 Beta  Orbitals:
       Occupied  (A) (A) (A) (A) (A) (A) (A) (A) (A) (A) (A) (A)
                 (A) (A) (A) (A) (A) (A) (A) (A) (A) (A) (A) (A)
                 (A) (A) (A) (A) (A) (A) (A) (A) (A) (A) (A) (A)
                 (A) (A) (A) (A) (A) (A) (A) (A) (A) (A) (A) (A)
                 (A) (A) (A) (A) (A) (A) (A) (A) (A) (A) (A) (A)
                 (A) (A) (A) (A) (A) (A) (A) (A) (A) (A) (A) (A)
                 (A) (A) (A)
       Virtual   (A) (A) (A) (A) (A) (A) (A) (A) (A) (A) (A) (A)
                 (A) (A) (A) (A) (A) (A) (A) (A) (A) (A) (A) (A)
                 (A) (A) (A) (A) (A) (A) (A) (A) (A) (A) (A) (A)
                 (A) (A) (A) (A) (A) (A) (A) (A) (A) (A) (A) (A)
                 (A) (A) (A) (A) (A) (A) (A) (A) (A) (A) (A) (A)
                 (A) (A) (A) (A) (A) (A) (A) (A) (A) (A) (A) (A)
                 (A) (A) (A) (A) (A) (A) (A) (A) (A) (A) (A) (A)
                 (A) (A) (A) (A) (A) (A) (A) (A) (A) (A) (A) (A)
                 (A) (A) (A) (A) (A) (A) (A) (A) (A) (A) (A) (A)
                 (A) (A) (A) (A) (A) (A) (A) (A) (A) (A) (A) (A)
                 (A) (A) (A) (A) (A) (A) (A) (A) (A) (A) (A) (A)
                 (A) (A) (A) (A) (A) (A) (A) (A) (A) (A) (A) (A)
                 (A) (A) (A) (A) (A) (A) (A) (A) (A) (A) (A) (A)
                 (A) (A) (A) (A) (A) (A) (A) (A) (A) (A) (A) (A)
                 (A) (A) (A) (A) (A) (A) (A) (A) (A) (A) (A) (A)
                 (A) (A) (A) (A) (A) (A) (A) (A) (A) (A) (A) (A)
                 (A) (A) (A) (A) (A) (A) (A) (A) (A) (A) (A) (A)
                 (A) (A) (A) (A) (A) (A) (A) (A) (A) (A) (A) (A)
                 (A) (A) (A) (A) (A) (A) (A) (A) (A) (A) (A) (A)
                 (A) (A) (A) (A) (A) (A) (A) (A) (A) (A) (A) (A)
                 (A) (A) (A) (A) (A) (A) (A) (A) (A) (A) (A) (A)
                 (A) (A) (A) (A) (A) (A) (A) (A) (A) (A) (A) (A)
                 (A) (A) (A) (A) (A) (A) (A) (A) (A) (A) (A) (A)
                 (A) (A) (A) (A) (A) (A) (A) (A) (A) (A) (A) (A)
                 (A) (A) (A) (A) (A) (A) (A) (A) (A) (A) (A) (A)
                 (A) (A) (A) (A) (A) (A) (A) (A) (A) (A) (A) (A)
                 (A) (A) (A) (A) (A) (A) (A) (A) (A) (A) (A) (A)
                 (A) (A) (A) (A) (A) (A) (A) (A) (A) (A) (A) (A)
                 (A) (A) (A) (A) (A) (A) (A) (A) (A) (A) (A) (A)
                 (A) (A) (A) (A) (A) (A) (A) (A) (A) (A) (A) (A)
                 (A) (A) (A) (A) (A) (A) (A) (A) (A) (A) (A) (A)
                 (A) (A) (A) (A) (A) (A) (A) (A) (A) (A) (A) (A)
                 (A) (A) (A) (A) (A) (A) (A) (A) (A) (A) (A) (A)
                 (A) (A) (A) (A) (A) (A) (A) (A) (A) (A) (A) (A)
                 (A) (A) (A) (A) (A) (A) (A) (A) (A) (A) (A) (A)
                 (A) (A) (A) (A) (A) (A) (A) (A) (A) (A) (A) (A)
                 (A) (A) (A) (A) (A) (A) (A) (A) (A) (A) (A) (A)
                 (A) (A) (A) (A) (A) (A) (A) (A) (A) (A) (A) (A)
                 (A) (A) (A) (A) (A) (A) (A) (A) (A) (A) (A) (A)
                 (A) (A) (A) (A) (A) (A) (A) (A) (A) (A) (A) (A)
                 (A) (A) (A) (A) (A) (A) (A) (A) (A) (A) (A) (A)
                 (A) (A) (A) (A) (A) (A) (A) (A) (A) (A)
 The electronic state is 3-A.
 Alpha  occ. eigenvalues --  -10.23559 -10.23422 -10.22266 -10.22105 -10.21619
 Alpha  occ. eigenvalues --  -10.21584 -10.21497 -10.21438 -10.21182 -10.21144
 Alpha  occ. eigenvalues --  -10.21141 -10.21111 -10.21006 -10.20765 -10.20623
 Alpha  occ. eigenvalues --  -10.20113 -10.19887 -10.19882 -10.19846 -10.19770
 Alpha  occ. eigenvalues --  -10.19764 -10.19601 -10.19371  -0.89566  -0.85804
 Alpha  occ. eigenvalues --   -0.83422  -0.82364  -0.80859  -0.77783  -0.77096
 Alpha  occ. eigenvalues --   -0.74488  -0.73750  -0.72055  -0.70540  -0.69294
 Alpha  occ. eigenvalues --   -0.64498  -0.63766  -0.61411  -0.60335  -0.59339
 Alpha  occ. eigenvalues --   -0.58136  -0.56649  -0.52981  -0.52207  -0.50988
 Alpha  occ. eigenvalues --   -0.50348  -0.48994  -0.47886  -0.46788  -0.46196
 Alpha  occ. eigenvalues --   -0.44931  -0.43820  -0.43525  -0.42431  -0.41872
 Alpha  occ. eigenvalues --   -0.41725  -0.41577  -0.40843  -0.40462  -0.39269
 Alpha  occ. eigenvalues --   -0.38429  -0.37990  -0.36214  -0.35605  -0.35220
 Alpha  occ. eigenvalues --   -0.34284  -0.34163  -0.33928  -0.32464  -0.29306
 Alpha  occ. eigenvalues --   -0.29048  -0.25685  -0.25674  -0.24962  -0.24109
 Alpha  occ. eigenvalues --   -0.21163  -0.19899
 Alpha virt. eigenvalues --   -0.08733  -0.07145  -0.03753  -0.02416  -0.00991
 Alpha virt. eigenvalues --    0.00190   0.00536   0.00671   0.00968   0.01578
 Alpha virt. eigenvalues --    0.02045   0.02052   0.03019   0.03169   0.03812
 Alpha virt. eigenvalues --    0.04335   0.04493   0.04887   0.05198   0.05624
 Alpha virt. eigenvalues --    0.05938   0.06699   0.06964   0.07328   0.07539
 Alpha virt. eigenvalues --    0.08019   0.08123   0.09018   0.09043   0.09149
 Alpha virt. eigenvalues --    0.09993   0.10152   0.10177   0.10334   0.11576
 Alpha virt. eigenvalues --    0.12341   0.12571   0.12625   0.13133   0.13162
 Alpha virt. eigenvalues --    0.13458   0.13476   0.13776   0.13949   0.14476
 Alpha virt. eigenvalues --    0.15115   0.15644   0.15688   0.15817   0.16137
 Alpha virt. eigenvalues --    0.16328   0.16336   0.16584   0.17026   0.17267
 Alpha virt. eigenvalues --    0.17322   0.17605   0.17851   0.18188   0.18317
 Alpha virt. eigenvalues --    0.18504   0.18841   0.19050   0.19344   0.19369
 Alpha virt. eigenvalues --    0.20027   0.20299   0.20347   0.20622   0.20935
 Alpha virt. eigenvalues --    0.21215   0.21326   0.21713   0.21890   0.22283
 Alpha virt. eigenvalues --    0.22500   0.22929   0.22959   0.23139   0.23399
 Alpha virt. eigenvalues --    0.23670   0.24194   0.24365   0.24621   0.24916
 Alpha virt. eigenvalues --    0.25427   0.25513   0.25965   0.26342   0.26872
 Alpha virt. eigenvalues --    0.27436   0.27447   0.27920   0.28226   0.28289
 Alpha virt. eigenvalues --    0.28308   0.28598   0.29132   0.29684   0.29948
 Alpha virt. eigenvalues --    0.30016   0.30328   0.31316   0.31750   0.32162
 Alpha virt. eigenvalues --    0.32558   0.34003   0.34713   0.35063   0.35705
 Alpha virt. eigenvalues --    0.35949   0.36535   0.37188   0.37617   0.38950
 Alpha virt. eigenvalues --    0.39719   0.40334   0.41011   0.41977   0.42565
 Alpha virt. eigenvalues --    0.42749   0.43236   0.44019   0.44570   0.45717
 Alpha virt. eigenvalues --    0.46518   0.47919   0.48704   0.49347   0.49450
 Alpha virt. eigenvalues --    0.50805   0.50944   0.51615   0.52026   0.52064
 Alpha virt. eigenvalues --    0.53509   0.53644   0.54019   0.54096   0.54844
 Alpha virt. eigenvalues --    0.55029   0.55263   0.55482   0.56070   0.56178
 Alpha virt. eigenvalues --    0.56783   0.57294   0.57510   0.57760   0.58490
 Alpha virt. eigenvalues --    0.58538   0.59380   0.60635   0.60927   0.60941
 Alpha virt. eigenvalues --    0.61656   0.62409   0.62770   0.62999   0.63666
 Alpha virt. eigenvalues --    0.63969   0.64204   0.64698   0.65355   0.65635
 Alpha virt. eigenvalues --    0.66622   0.66649   0.66967   0.67407   0.68330
 Alpha virt. eigenvalues --    0.68494   0.68837   0.68949   0.69074   0.69298
 Alpha virt. eigenvalues --    0.69726   0.70527   0.71707   0.72298   0.72390
 Alpha virt. eigenvalues --    0.72757   0.73333   0.74293   0.75990   0.76941
 Alpha virt. eigenvalues --    0.77353   0.79557   0.79703   0.81278   0.81778
 Alpha virt. eigenvalues --    0.82163   0.82506   0.83207   0.84276   0.85434
 Alpha virt. eigenvalues --    0.86004   0.87723   0.87843   0.88568   0.89600
 Alpha virt. eigenvalues --    0.89767   0.90570   0.91534   0.91587   0.91756
 Alpha virt. eigenvalues --    0.92284   0.92541   0.93595   0.93942   0.94648
 Alpha virt. eigenvalues --    0.94830   0.95031   0.96263   0.96879   0.97193
 Alpha virt. eigenvalues --    0.97386   0.97844   0.98844   1.00003   1.00178
 Alpha virt. eigenvalues --    1.00330   1.01103   1.01863   1.02784   1.02987
 Alpha virt. eigenvalues --    1.03062   1.03930   1.04325   1.05373   1.06132
 Alpha virt. eigenvalues --    1.06146   1.07321   1.07458   1.08177   1.08358
 Alpha virt. eigenvalues --    1.09238   1.10593   1.10887   1.12077   1.12363
 Alpha virt. eigenvalues --    1.12578   1.13133   1.13607   1.13918   1.15488
 Alpha virt. eigenvalues --    1.18864   1.20408   1.22688   1.24125   1.25850
 Alpha virt. eigenvalues --    1.28132   1.31570   1.32781   1.33509   1.37443
 Alpha virt. eigenvalues --    1.37942   1.38237   1.40420   1.41906   1.42239
 Alpha virt. eigenvalues --    1.44222   1.44711   1.45333   1.45804   1.45852
 Alpha virt. eigenvalues --    1.46388   1.46808   1.46832   1.48129   1.48389
 Alpha virt. eigenvalues --    1.49159   1.49949   1.50107   1.50543   1.51250
 Alpha virt. eigenvalues --    1.52704   1.52999   1.53628   1.54219   1.55164
 Alpha virt. eigenvalues --    1.56175   1.57012   1.58091   1.59154   1.60114
 Alpha virt. eigenvalues --    1.61253   1.62110   1.63243   1.65103   1.65146
 Alpha virt. eigenvalues --    1.65880   1.66953   1.67745   1.70798   1.71380
 Alpha virt. eigenvalues --    1.72690   1.72999   1.73234   1.74003   1.74531
 Alpha virt. eigenvalues --    1.75665   1.76693   1.78308   1.78460   1.78901
 Alpha virt. eigenvalues --    1.79241   1.81338   1.81491   1.82029   1.82666
 Alpha virt. eigenvalues --    1.83580   1.83656   1.84257   1.85773   1.86065
 Alpha virt. eigenvalues --    1.86892   1.87762   1.87887   1.88118   1.88963
 Alpha virt. eigenvalues --    1.90690   1.90708   1.91322   1.92771   1.93501
 Alpha virt. eigenvalues --    1.94171   1.95392   1.96638   1.97372   1.98647
 Alpha virt. eigenvalues --    1.99510   1.99755   2.00834   2.00846   2.01319
 Alpha virt. eigenvalues --    2.02398   2.03077   2.03332   2.06346   2.07027
 Alpha virt. eigenvalues --    2.07514   2.08368   2.09853   2.11309   2.12683
 Alpha virt. eigenvalues --    2.13569   2.13980   2.16473   2.17310   2.17408
 Alpha virt. eigenvalues --    2.19130   2.20026   2.20944   2.21396   2.26516
 Alpha virt. eigenvalues --    2.27270   2.28582   2.29965   2.30973   2.31749
 Alpha virt. eigenvalues --    2.33178   2.33689   2.36253   2.36830   2.37419
 Alpha virt. eigenvalues --    2.39205   2.39876   2.40444   2.45053   2.47015
 Alpha virt. eigenvalues --    2.48422   2.50183   2.50566   2.54091   2.55735
 Alpha virt. eigenvalues --    2.58241   2.58920   2.61218   2.61381   2.61522
 Alpha virt. eigenvalues --    2.62996   2.64340   2.65654   2.66595   2.66666
 Alpha virt. eigenvalues --    2.67456   2.68066   2.69117   2.69471   2.70261
 Alpha virt. eigenvalues --    2.70852   2.71505   2.72428   2.72898   2.73228
 Alpha virt. eigenvalues --    2.73515   2.73739   2.75530   2.75912   2.76291
 Alpha virt. eigenvalues --    2.76319   2.76772   2.77222   2.78071   2.78477
 Alpha virt. eigenvalues --    2.79570   2.79792   2.80650   2.81212   2.82670
 Alpha virt. eigenvalues --    2.83463   2.83501   2.84485   2.84944   2.87041
 Alpha virt. eigenvalues --    2.87696   2.88884   2.92335   2.94513   2.96012
 Alpha virt. eigenvalues --    2.97700   2.98458   3.00817   3.01455   3.03407
 Alpha virt. eigenvalues --    3.05128   3.05454   3.07562   3.08819   3.09633
 Alpha virt. eigenvalues --    3.10815   3.11541   3.13729   3.18094   3.21378
 Alpha virt. eigenvalues --    3.22798   3.24758   3.26435   3.28498   3.29223
 Alpha virt. eigenvalues --    3.30456   3.32867   3.34334   3.35969   3.37527
 Alpha virt. eigenvalues --    3.39257   3.39994   3.42475   3.46076   3.46897
 Alpha virt. eigenvalues --    3.50708   3.53055   3.56735   3.60463   3.63744
 Alpha virt. eigenvalues --    3.66557   3.72064   3.76445   3.88676   3.99837
 Alpha virt. eigenvalues --    4.01493   4.03473   4.04268   4.06816   4.07821
 Alpha virt. eigenvalues --    4.13174   4.18343   4.18678   4.25764   4.32733
 Alpha virt. eigenvalues --    4.55000   4.62700   4.64513   4.66501   4.68462
 Alpha virt. eigenvalues --    4.70385   4.74342  23.39297  23.59154  23.69009
 Alpha virt. eigenvalues --   23.70871  23.72382  23.76695  23.77602  23.81693
 Alpha virt. eigenvalues --   23.83641  23.84586  23.85112  23.86238  23.87595
 Alpha virt. eigenvalues --   23.89158  23.89868  23.90151  23.91179  23.92256
 Alpha virt. eigenvalues --   23.93495  23.95845  23.97974  23.99771  24.01308
  Beta  occ. eigenvalues --  -10.23165 -10.22394 -10.22189 -10.21776 -10.21558
  Beta  occ. eigenvalues --  -10.21513 -10.21512 -10.21502 -10.21191 -10.21144
  Beta  occ. eigenvalues --  -10.20889 -10.20846 -10.20774 -10.20767 -10.20713
  Beta  occ. eigenvalues --  -10.20026 -10.19946 -10.19861 -10.19768 -10.19697
  Beta  occ. eigenvalues --  -10.19648 -10.19645 -10.19229  -0.88959  -0.85689
  Beta  occ. eigenvalues --   -0.83189  -0.81716  -0.80727  -0.77547  -0.76877
  Beta  occ. eigenvalues --   -0.74385  -0.73562  -0.71542  -0.70377  -0.67593
  Beta  occ. eigenvalues --   -0.64312  -0.63653  -0.61243  -0.60095  -0.59016
  Beta  occ. eigenvalues --   -0.56728  -0.56212  -0.52808  -0.51925  -0.50669
  Beta  occ. eigenvalues --   -0.49943  -0.47831  -0.47255  -0.46561  -0.45974
  Beta  occ. eigenvalues --   -0.44336  -0.43679  -0.42779  -0.42129  -0.41735
  Beta  occ. eigenvalues --   -0.41402  -0.40879  -0.40725  -0.40058  -0.38874
  Beta  occ. eigenvalues --   -0.38151  -0.37809  -0.35949  -0.35065  -0.35025
  Beta  occ. eigenvalues --   -0.33941  -0.33732  -0.33156  -0.32122  -0.28750
  Beta  occ. eigenvalues --   -0.28263  -0.25392  -0.24482  -0.22609  -0.20881
  Beta virt. eigenvalues --   -0.12878  -0.11737  -0.07777  -0.06731  -0.03551
  Beta virt. eigenvalues --   -0.01788  -0.00344   0.00210   0.00540   0.00997
  Beta virt. eigenvalues --    0.01582   0.01704   0.02131   0.02414   0.03025
  Beta virt. eigenvalues --    0.03237   0.03910   0.04372   0.04518   0.04999
  Beta virt. eigenvalues --    0.05355   0.05633   0.06036   0.06763   0.07404
  Beta virt. eigenvalues --    0.07576   0.07617   0.08137   0.08249   0.09149
  Beta virt. eigenvalues --    0.09217   0.09429   0.10055   0.10354   0.10519
  Beta virt. eigenvalues --    0.10539   0.11623   0.12470   0.12635   0.12784
  Beta virt. eigenvalues --    0.13257   0.13420   0.13579   0.13719   0.14035
  Beta virt. eigenvalues --    0.14359   0.14655   0.15157   0.15729   0.15888
  Beta virt. eigenvalues --    0.15923   0.16244   0.16409   0.16427   0.17039
  Beta virt. eigenvalues --    0.17207   0.17281   0.17559   0.17792   0.18026
  Beta virt. eigenvalues --    0.18336   0.18397   0.18648   0.19092   0.19250
  Beta virt. eigenvalues --    0.19406   0.19684   0.20211   0.20331   0.20391
  Beta virt. eigenvalues --    0.20685   0.21299   0.21322   0.21573   0.21724
  Beta virt. eigenvalues --    0.22067   0.22422   0.22726   0.22935   0.23013
  Beta virt. eigenvalues --    0.23244   0.23546   0.23713   0.24440   0.24440
  Beta virt. eigenvalues --    0.24739   0.24981   0.25541   0.25635   0.26062
  Beta virt. eigenvalues --    0.26433   0.27114   0.27558   0.27622   0.28027
  Beta virt. eigenvalues --    0.28316   0.28402   0.28481   0.28876   0.29294
  Beta virt. eigenvalues --    0.29869   0.30012   0.30176   0.30468   0.31447
  Beta virt. eigenvalues --    0.31892   0.32302   0.32712   0.34315   0.34856
  Beta virt. eigenvalues --    0.35140   0.35892   0.36322   0.36822   0.37424
  Beta virt. eigenvalues --    0.37998   0.39123   0.39808   0.40660   0.41104
  Beta virt. eigenvalues --    0.42122   0.42698   0.43050   0.43323   0.44177
  Beta virt. eigenvalues --    0.44734   0.45901   0.46601   0.48137   0.49014
  Beta virt. eigenvalues --    0.49810   0.50105   0.50906   0.51161   0.51721
  Beta virt. eigenvalues --    0.52126   0.52572   0.53647   0.54087   0.54233
  Beta virt. eigenvalues --    0.54739   0.55100   0.55298   0.55821   0.56078
  Beta virt. eigenvalues --    0.56501   0.56503   0.56966   0.57529   0.57604
  Beta virt. eigenvalues --    0.58351   0.59036   0.59180   0.59392   0.60744
  Beta virt. eigenvalues --    0.61223   0.61248   0.61887   0.62529   0.63097
  Beta virt. eigenvalues --    0.63125   0.63711   0.64231   0.64628   0.64860
  Beta virt. eigenvalues --    0.65510   0.65649   0.66976   0.67191   0.67260
  Beta virt. eigenvalues --    0.67678   0.68565   0.68724   0.68945   0.69112
  Beta virt. eigenvalues --    0.69278   0.69672   0.69898   0.70604   0.72021
  Beta virt. eigenvalues --    0.72243   0.72502   0.72933   0.73479   0.74371
  Beta virt. eigenvalues --    0.76349   0.77096   0.77748   0.79758   0.79991
  Beta virt. eigenvalues --    0.81307   0.81888   0.82309   0.82715   0.83265
  Beta virt. eigenvalues --    0.84364   0.85671   0.86211   0.88022   0.88386
  Beta virt. eigenvalues --    0.88674   0.89693   0.90381   0.90665   0.91821
  Beta virt. eigenvalues --    0.91969   0.92225   0.92497   0.92647   0.93791
  Beta virt. eigenvalues --    0.94237   0.94912   0.94998   0.95250   0.96429
  Beta virt. eigenvalues --    0.97068   0.97435   0.97588   0.97986   0.99045
  Beta virt. eigenvalues --    1.00266   1.00327   1.00654   1.01420   1.02354
  Beta virt. eigenvalues --    1.03041   1.03401   1.03635   1.04581   1.04694
  Beta virt. eigenvalues --    1.05780   1.06481   1.06662   1.07504   1.07720
  Beta virt. eigenvalues --    1.08334   1.08881   1.09405   1.10818   1.11324
  Beta virt. eigenvalues --    1.12269   1.12611   1.12989   1.13451   1.13782
  Beta virt. eigenvalues --    1.14450   1.16099   1.19119   1.23283   1.23796
  Beta virt. eigenvalues --    1.24385   1.26447   1.28384   1.31948   1.33212
  Beta virt. eigenvalues --    1.33670   1.37778   1.38141   1.38996   1.40554
  Beta virt. eigenvalues --    1.41993   1.42387   1.44548   1.44843   1.45600
  Beta virt. eigenvalues --    1.45959   1.46345   1.46571   1.46895   1.47199
  Beta virt. eigenvalues --    1.48334   1.49537   1.49555   1.50239   1.50355
  Beta virt. eigenvalues --    1.50848   1.51923   1.53247   1.53484   1.54080
  Beta virt. eigenvalues --    1.54368   1.56017   1.56464   1.57854   1.58344
  Beta virt. eigenvalues --    1.59424   1.60526   1.62143   1.62702   1.63543
  Beta virt. eigenvalues --    1.65350   1.65590   1.66432   1.67379   1.67943
  Beta virt. eigenvalues --    1.71099   1.71499   1.72795   1.73335   1.73491
  Beta virt. eigenvalues --    1.74524   1.74975   1.75869   1.77148   1.78670
  Beta virt. eigenvalues --    1.79021   1.79100   1.79562   1.81665   1.81780
  Beta virt. eigenvalues --    1.82535   1.83098   1.84139   1.84386   1.84470
  Beta virt. eigenvalues --    1.85881   1.86238   1.87277   1.88048   1.88144
  Beta virt. eigenvalues --    1.88486   1.89205   1.91011   1.91160   1.91603
  Beta virt. eigenvalues --    1.92929   1.93793   1.94548   1.95531   1.96753
  Beta virt. eigenvalues --    1.97474   1.99156   2.00231   2.00357   2.00906
  Beta virt. eigenvalues --    2.01410   2.01497   2.03004   2.03797   2.04455
  Beta virt. eigenvalues --    2.06483   2.07261   2.07586   2.08804   2.10564
  Beta virt. eigenvalues --    2.11478   2.13511   2.13879   2.14459   2.16706
  Beta virt. eigenvalues --    2.17643   2.17717   2.19514   2.20256   2.21232
  Beta virt. eigenvalues --    2.22035   2.26881   2.27443   2.28819   2.30519
  Beta virt. eigenvalues --    2.31275   2.32193   2.33513   2.34028   2.36635
  Beta virt. eigenvalues --    2.37195   2.37572   2.39491   2.40171   2.40493
  Beta virt. eigenvalues --    2.45599   2.47557   2.48587   2.50531   2.50872
  Beta virt. eigenvalues --    2.55318   2.55999   2.59267   2.59460   2.61562
  Beta virt. eigenvalues --    2.61587   2.63054   2.63306   2.64806   2.65853
  Beta virt. eigenvalues --    2.67350   2.67445   2.67787   2.68625   2.69208
  Beta virt. eigenvalues --    2.69624   2.70363   2.70980   2.71575   2.72519
  Beta virt. eigenvalues --    2.73052   2.73249   2.73894   2.74032   2.75680
  Beta virt. eigenvalues --    2.75974   2.76382   2.76608   2.76844   2.77518
  Beta virt. eigenvalues --    2.78599   2.78906   2.79581   2.79971   2.80806
  Beta virt. eigenvalues --    2.81740   2.82768   2.83664   2.83788   2.85108
  Beta virt. eigenvalues --    2.85386   2.87225   2.87855   2.88894   2.92661
  Beta virt. eigenvalues --    2.95617   2.97251   2.98520   3.00202   3.00922
  Beta virt. eigenvalues --    3.01627   3.03627   3.05199   3.05690   3.07914
  Beta virt. eigenvalues --    3.08944   3.09687   3.10945   3.11755   3.13894
  Beta virt. eigenvalues --    3.18266   3.21788   3.23075   3.24892   3.26482
  Beta virt. eigenvalues --    3.28614   3.29325   3.30583   3.33026   3.34491
  Beta virt. eigenvalues --    3.36060   3.37623   3.39328   3.40047   3.42647
  Beta virt. eigenvalues --    3.46172   3.47142   3.50821   3.53198   3.57042
  Beta virt. eigenvalues --    3.60598   3.64143   3.67004   3.72389   3.76562
  Beta virt. eigenvalues --    3.90258   4.00062   4.01514   4.03502   4.04296
  Beta virt. eigenvalues --    4.06852   4.08247   4.13929   4.18780   4.19476
  Beta virt. eigenvalues --    4.25887   4.32972   4.55398   4.63245   4.64643
  Beta virt. eigenvalues --    4.66741   4.68593   4.70449   4.74481  23.39619
  Beta virt. eigenvalues --   23.59286  23.69569  23.71390  23.72786  23.76697
  Beta virt. eigenvalues --   23.77675  23.81818  23.83653  23.84779  23.85185
  Beta virt. eigenvalues --   23.86317  23.87634  23.89359  23.89928  23.90234
  Beta virt. eigenvalues --   23.91195  23.92264  23.93711  23.95998  23.98127
  Beta virt. eigenvalues --   23.99779  24.01319
          Condensed to atoms (all electrons):
               1          2          3          4          5          6
     1  C   10.321585   1.237901  -1.404001   0.723972  -2.338375   0.088536
     2  C    1.237901   8.325172   1.404971  -1.883125  -1.900946   1.684560
     3  C   -1.404001   1.404971   8.570361  -0.289552   1.238952  -0.175721
     4  C    0.723972  -1.883125  -0.289552  11.076227   1.178505  -2.696714
     5  C   -2.338375  -1.900946   1.238952   1.178505  11.897694  -1.232059
     6  C    0.088536   1.684560  -0.175721  -2.696714  -1.232059  10.789853
     7  C   -0.291977  -0.859289   0.838074   0.695643   0.050495  -0.973486
     8  C   -0.255366  -0.541091  -0.524745  -0.012092   0.320871  -1.098168
     9  C   -0.557740   0.132890   0.412762  -1.390538  -0.353381   0.205532
    10  C   -0.115997  -0.659425  -0.199742   2.114256   0.267556  -1.418655
    11  C   -0.145544  -0.360529  -0.045218  -0.723001  -0.023147  -0.081240
    12  C   -0.016173   0.054794  -0.035170  -0.074697  -0.027280   0.106181
    13  C   -0.018855  -0.070286  -0.240699  -0.093061   0.016905  -0.243930
    14  C   -0.132107  -0.004515  -0.564193  -1.134571  -0.118609  -0.036136
    15  C    0.072241  -0.172774  -0.423122  -0.118995   0.065501  -0.188421
    16  C    0.031459   0.000571   0.134798  -0.012151  -0.000144  -0.009486
    17  C    0.000157   0.004467  -0.053935  -0.015172   0.000803  -0.006074
    18  C   -0.010776  -0.010597   0.004844  -0.042254  -0.004995   0.024804
    19  C   -0.998217  -2.068599  -1.434461   0.228072  -0.719868   0.437936
    20  C   -0.120670   0.536872   0.067416  -0.263215  -0.353770   0.015475
    21  C    1.482044  -1.311406  -1.522406   0.815415   0.604769   0.074241
    22  C   -0.363337   2.160477  -0.656501  -1.187389  -2.308268   0.894187
    23  C   -1.256739   0.389112   1.039287  -1.338930  -0.132164  -0.115687
    24  H   -0.021924   0.034246   0.010690  -0.000149  -0.004937  -0.001528
    25  H    0.007113   0.005636   0.005671   0.002252   0.011908  -0.001174
    26  H   -0.060787   0.037985   0.004323   0.002367   0.047742   0.001863
    27  H   -0.013023   0.026424  -0.022429   0.020045   0.259167   0.000577
    28  H   -0.026957  -0.029174  -0.007687   0.000948  -0.001527   0.271230
    29  H    0.004866   0.007478   0.012002  -0.064098  -0.002794   0.060700
    30  H    0.000706   0.000836   0.009384   0.052050   0.000719   0.007913
    31  H    0.000026   0.000138   0.001106   0.002912  -0.000008   0.000355
    32  H    0.000000   0.000015  -0.000206   0.000209   0.000001   0.000010
    33  H    0.000320   0.003168  -0.012190  -0.001654  -0.000175   0.000153
    34  H    0.000010   0.000239  -0.000823  -0.000011   0.000004  -0.000008
    35  H    0.000001   0.000015   0.000077   0.000044  -0.000000   0.000002
    36  H    0.006660   0.000521   0.009011   0.007198  -0.001447  -0.001418
    37  H   -0.002468  -0.018582  -0.004115   0.002571  -0.001674   0.000526
               7          8          9         10         11         12
     1  C   -0.291977  -0.255366  -0.557740  -0.115997  -0.145544  -0.016173
     2  C   -0.859289  -0.541091   0.132890  -0.659425  -0.360529   0.054794
     3  C    0.838074  -0.524745   0.412762  -0.199742  -0.045218  -0.035170
     4  C    0.695643  -0.012092  -1.390538   2.114256  -0.723001  -0.074697
     5  C    0.050495   0.320871  -0.353381   0.267556  -0.023147  -0.027280
     6  C   -0.973486  -1.098168   0.205532  -1.418655  -0.081240   0.106181
     7  C    8.429431   1.147504   0.099904   0.305561   0.469675  -0.034082
     8  C    1.147504   7.794615   0.395112   0.629739   1.939217  -0.664770
     9  C    0.099904   0.395112  11.879145   0.354733   0.451273   0.834975
    10  C    0.305561   0.629739   0.354733   8.639587  -0.806147  -0.752805
    11  C    0.469675   1.939217   0.451273  -0.806147  12.793792  -0.591924
    12  C   -0.034082  -0.664770   0.834975  -0.752805  -0.591924  11.348840
    13  C   -0.462968   0.397894  -2.076016  -0.154342  -2.476047  -1.461501
    14  C   -0.669933  -0.660222  -0.305770  -2.031676   0.123816  -0.937664
    15  C    0.012549  -0.792691  -2.360151   0.171234  -2.304254  -0.519649
    16  C   -0.502659  -0.664274  -0.129029   0.072049  -3.272671   1.639197
    17  C    0.045162   0.152029  -0.178388  -0.058156   1.030319  -0.254767
    18  C   -0.084697  -1.001790  -0.771594  -0.221843  -0.382957  -2.199077
    19  C   -0.086416  -0.044828  -0.038673   0.075600  -0.026722  -0.000450
    20  C   -0.195334  -0.051906  -0.029964  -0.060382   0.013321  -0.003053
    21  C   -1.097790   0.168650  -0.039433   0.056094  -0.069664  -0.011847
    22  C   -1.690200  -0.642000  -0.215433  -0.364840  -0.316574  -0.019205
    23  C    0.331298  -0.155270  -0.870408  -0.318698   0.369867  -0.535590
    24  H    0.014284   0.000274  -0.000211  -0.000065   0.000457   0.000092
    25  H    0.005904   0.000028   0.000118   0.000225   0.000011  -0.000001
    26  H    0.003954  -0.000235  -0.000197  -0.000247   0.000005  -0.000004
    27  H    0.001704   0.000128   0.003509   0.006155   0.000110   0.000017
    28  H   -0.002715   0.010925   0.028301   0.080476   0.000548   0.000062
    29  H   -0.023124  -0.039748  -0.051878   0.326391  -0.008250   0.013738
    30  H   -0.008566  -0.016057  -0.042396   0.144643  -0.040622  -0.032323
    31  H    0.001757  -0.020321   0.042339   0.009445  -0.015436  -0.079323
    32  H    0.002302  -0.005841   0.011616   0.001155  -0.008486  -0.081213
    33  H   -0.038889   0.067728   0.001205  -0.001247   0.162145  -0.087640
    34  H   -0.000320   0.008033   0.000753   0.000200   0.056131  -0.010864
    35  H    0.000109   0.001711   0.002771   0.000255  -0.010168   0.039404
    36  H    0.093394   0.027440   0.011381   0.003578  -0.008738   0.008856
    37  H    0.072982   0.043555   0.011635  -0.000005   0.054420  -0.009227
              13         14         15         16         17         18
     1  C   -0.018855  -0.132107   0.072241   0.031459   0.000157  -0.010776
     2  C   -0.070286  -0.004515  -0.172774   0.000571   0.004467  -0.010597
     3  C   -0.240699  -0.564193  -0.423122   0.134798  -0.053935   0.004844
     4  C   -0.093061  -1.134571  -0.118995  -0.012151  -0.015172  -0.042254
     5  C    0.016905  -0.118609   0.065501  -0.000144   0.000803  -0.004995
     6  C   -0.243930  -0.036136  -0.188421  -0.009486  -0.006074   0.024804
     7  C   -0.462968  -0.669933   0.012549  -0.502659   0.045162  -0.084697
     8  C    0.397894  -0.660222  -0.792691  -0.664274   0.152029  -1.001790
     9  C   -2.076016  -0.305770  -2.360151  -0.129029  -0.178388  -0.771594
    10  C   -0.154342  -2.031676   0.171234   0.072049  -0.058156  -0.221843
    11  C   -2.476047   0.123816  -2.304254  -3.272671   1.030319  -0.382957
    12  C   -1.461501  -0.937664  -0.519649   1.639197  -0.254767  -2.199077
    13  C   11.733499   1.071227   0.880526   0.830573  -0.778280  -0.670841
    14  C    1.071227  10.450190   0.206444   0.139660  -0.361718   0.882470
    15  C    0.880526   0.206444  11.435787  -0.728467   0.045944   0.874941
    16  C    0.830573   0.139660  -0.728467   9.884985  -0.078605  -0.623762
    17  C   -0.778280  -0.361718   0.045944  -0.078605   6.507132  -0.120593
    18  C   -0.670841   0.882470   0.874941  -0.623762  -0.120593  10.112952
    19  C   -0.000661   0.005598  -0.024226  -0.000727  -0.000062   0.000422
    20  C   -0.001130  -0.006796  -0.018667  -0.003194  -0.000194   0.000444
    21  C   -0.019148   0.028272  -0.045890  -0.019691   0.007611  -0.002589
    22  C   -0.175268  -0.023241  -0.297873   0.042062   0.018502  -0.027320
[...]
 -0.00025115,0.00002268,0.00018474,-0.00000306,0.00000285,-0.28790255,0
 .11208371,-0.03639222,-0.01889729,0.01263077,-0.00318803,-0.00219363,-
 0.00390912,-0.00018092,0.00039372,-0.00072082,0.00020112,-0.00002221,0
 .00008482,-0.00000939,-0.00005513,-0.00005994,0.00002244,0.00007630,-0
 .00003812,-0.00002152,-0.00061409,0.00027896,-0.00008780,-0.00244853,-
 0.00205757,0.00027775,0.00000992,-0.00000048,-0.00001001,0.00000988,-0
 .00000300,-0.00000090,0.00000639,0.00000407,-0.00000319,0.00000452,0.0
 0001057,0.00000398,0.00000208,0.00000794,0.00000038,0.00000471,0.00001
 087,-0.00000431,0.00000005,0.00001082,-0.00000122,0.00002339,-0.000028
 56,0.00002993,-0.00004394,0.00006713,0.00004873,0.31195728,0.00004207,
 -0.00012810,0.00001847,0.00017796,0.00003956,0.00000520,-0.00045694,-0
 .00024636,-0.00020514,-0.00019985,0.00016314,-0.00001834,-0.00007797,0
 .00009123,-0.00000423,0.00009263,0.00002326,0.00001686,-0.00119576,-0.
 00038786,0.00028509,0.00109468,0.00085479,-0.00045414,0.00006975,0.000
 02631,-0.00005235,0.00015967,0.00008955,0.00001464,0.02851800,-0.00844
 595,0.00354677,-0.00124134,-0.00538842,0.00134980,0.00162325,-0.000022
 73,0.00008775,0.00012423,0.00001737,-0.00000847,0.11217387,-0.11287439
 ,0.02001195,-0.01874033,0.01164257,-0.00221191,-0.00334681,-0.00155502
 ,0.00104541,-0.00059236,-0.00076683,-0.00007515,-0.00002807,0.00007638
 ,-0.00000598,-0.00004552,-0.00008540,0.00000978,0.00009969,0.00007089,
 -0.00000009,0.00000782,-0.00016886,-0.00005565,-0.00002271,0.00026048,
 0.00011273,0.00000223,-0.00001028,-0.00001433,0.00001098,-0.00000033,0
 .00000158,0.00000463,0.00000239,-0.00000174,0.00000442,0.00000332,0.00
 000074,0.00000804,0.00000717,0.00000940,0.00000873,0.00001423,0.000004
 94,-0.00005158,-0.00001393,0.00000356,0.00005856,-0.00049920,0.0000190
 4,0.00009952,0.00007642,-0.00013992,-0.11931357,0.11579219,-0.00011667
 ,-0.00005056,0.00003125,-0.00004533,-0.00000646,0.00000372,0.00003899,
 -0.00017707,-0.00017722,-0.00001938,-0.00000793,-0.00004452,0.00001185
 ,0.00003784,0.00000418,0.00002126,-0.00004524,0.00002269,-0.00009547,0
 .00017960,0.00010986,0.00037132,-0.00012897,-0.00257447,-0.00005243,-0
 .00038085,-0.00010629,0.00010681,0.00000007,0.00010664,-0.00439387,0.0
 0032536,0.00271189,0.00014170,0.00133956,0.00575973,-0.00031786,-0.000
 01936,0.00017043,-0.00005851,0.00004038,-0.00011211,-0.03551901,0.0201
 4749,-0.04244067,0.00083777,0.00013660,0.00466990,-0.00016421,0.000905
 19,0.00789991,0.00020865,0.00000661,-0.00096899,0.00003502,-0.00010169
 ,-0.00000813,0.00006346,0.00007255,-0.00000986,-0.00006308,0.00001853,
 -0.00002981,0.00019439,-0.00042622,-0.00007180,0.00077770,0.00159934,0
 .00043018,0.00001517,-0.00000021,0.00002430,-0.00000980,0.00000026,0.0
 0000963,-0.00000316,-0.00000573,0.00000013,-0.00000305,-0.00001081,-0.
 00000497,-0.00000443,-0.00000653,0.00000497,0.00000216,-0.00000062,0.0
 0001156,0.00000986,0.00000626,0.00002179,-0.00000474,0.00010049,0.0000
 2206,0.00002357,-0.00009212,-0.00098408,0.03635520,-0.02197535,0.03020
 482,0.00001359,0.00002563,-0.00000341,0.00000135,-0.00000674,-0.000001
 65,-0.00001490,0.00011106,0.00000574,0.00004292,-0.00002777,-0.0000016
 0,-0.00000014,-0.00001132,0.00000145,-0.00000582,0.00000686,-0.0000000
 1,0.00000293,0.00010896,-0.00002730,0.00087423,-0.00097002,0.00013483,
 -0.00020347,-0.00016187,0.00004355,0.00000043,-0.00015156,-0.00000660,
 -0.00410264,-0.00254314,-0.00036312,-0.00109725,-0.00042805,-0.0000154
 4,0.00023435,0.00025612,0.00005722,-0.00022064,-0.00000045,-0.00001448
 ,0.00578788,-0.02707421,0.00369456,-0.06097823,0.02481213,-0.00507159,
 0.00219068,0.02918108,-0.00381446,-0.00503462,0.00170338,-0.00087825,-
 0.00000842,0.00000954,0.00000161,-0.00001646,-0.00000184,-0.00000218,0
 .00000065,-0.00001921,-0.00000151,-0.00006346,0.00008355,0.00002056,-0
 .00004319,-0.00022485,-0.00002541,-0.00000843,0.00000446,0.00000287,0.
 00000025,-0.00000074,0.00000010,0.00000030,0.00000207,0.00000039,0.000
 00009,0.00000233,0.,0.00000093,0.00000127,0.00000020,-0.00003175,-0.00
 003063,0.00000041,0.00001418,-0.00000082,-0.00000610,0.00002420,-0.000
 08826,0.00000621,-0.00008695,0.00144828,-0.00009688,0.00100994,0.00037
 570,0.00033724,0.06075323,-0.00001046,-0.00000543,-0.00000298,0.000020
 98,-0.00004485,0.00000446,-0.00006313,0.00005279,-0.00001106,-0.000024
 73,-0.00001038,0.00000409,-0.00003075,0.00000416,0.00000071,0.00002691
 ,0.00003426,-0.00000080,0.00003803,0.00005426,0.00001080,0.00066097,-0
 .00053614,0.00011990,-0.00032066,-0.00014950,-0.00004015,0.00008787,-0
 .00005531,-0.00000473,-0.00323991,0.00057013,0.00077969,-0.00020389,0.
 00055182,-0.00016680,0.00004095,0.00003845,-0.00013199,-0.00007184,0.0
 0002060,0.00002388,0.00378312,-0.01384993,0.00249813,0.02420266,-0.327
 76824,0.03900705,-0.00167133,-0.00847043,0.00136410,0.00260809,0.00118
 936,0.00083113,-0.00000881,-0.00000584,-0.00000160,-0.00000662,0.00001
 164,0.00000047,-0.00001826,-0.00001661,-0.00000477,-0.00000783,0.00008
 418,0.00000845,-0.00001002,-0.00015301,0.00000201,-0.00000465,0.000007
 67,0.00000272,-0.00000670,0.00000242,0.00000133,-0.00000473,-0.0000011
 7,0.00000037,-0.00000609,0.00000006,0.00000032,0.00000078,-0.00000632,
 0.00000062,-0.00002110,-0.00002702,-0.00000790,-0.00000290,-0.00002358
 ,0.00000969,0.00001327,0.00000282,0.00000461,-0.00013869,-0.00052825,0
 .00005707,-0.00006832,0.00077502,-0.00074677,-0.02582191,0.34762789,-0
 .00000389,0.00001340,0.00000496,-0.00001775,0.00001284,0.00001134,-0.0
 0000592,-0.00001414,-0.00003893,0.00002140,-0.00001832,0.00001036,0.00
 000812,-0.00001230,-0.00000304,-0.00001402,-0.00001063,-0.00000379,-0.
 00010331,0.00008948,0.00011890,0.00022508,0.00012385,0.00027388,0.0001
 7232,-0.00000398,-0.00044378,-0.00007681,-0.00006262,-0.00000776,-0.00
 052716,0.00023722,0.00804281,-0.00021316,-0.00041570,-0.00079769,0.000
 13368,0.00013545,-0.00094514,-0.00021779,-0.00000564,0.00014591,0.0002
 6785,0.00121041,0.00341703,-0.00586769,0.03908385,-0.04163003,0.000696
 52,0.00294071,0.00258353,-0.00098296,0.00091074,0.00583241,0.00000020,
 -0.00000551,-0.00000543,-0.00000041,-0.00001216,-0.00000216,0.00002188
 ,-0.00000304,-0.00001303,-0.00001933,-0.00004357,-0.00003616,0.0001635
 3,0.00001449,0.00005876,0.00000096,-0.00000103,0.00000586,-0.00000056,
 -0.00000028,0.00000596,-0.00000022,-0.00000032,0.00000081,0.00000038,-
 0.00000159,0.00000297,-0.00000093,-0.00000076,0.00000205,-0.00000164,-
 0.00000328,-0.00003079,-0.00000312,0.00000226,0.00007454,-0.00000410,-
 0.00000461,0.00004064,0.00000450,0.00023341,0.00019116,0.00035880,-0.0
 0075162,-0.00471640,0.00570438,-0.04313752,0.03098927,-0.00000916,-0.0
 0000850,-0.00000155,-0.00002705,-0.00002310,-0.00000252,0.00001182,-0.
 00001327,0.00000974,-0.00002583,0.00001190,0.00000434,-0.00001173,0.00
 000786,-0.00000060,0.00001411,0.00001504,0.00000014,0.00005214,-0.0000
 1582,-0.00000342,-0.00006511,-0.00012059,0.00006865,-0.00015939,-0.000
 01711,-0.00001419,0.00007326,0.00003048,-0.00000682,0.00019753,0.00092
 529,-0.00006227,0.00151437,0.00145425,-0.00049479,0.00001695,-0.000004
 26,-0.00002467,0.00018243,-0.00000330,0.00004169,-0.00362974,0.0037156
 1,-0.00116856,-0.01752083,-0.01874975,0.00097065,-0.24414450,-0.130291
 62,0.00197583,0.00576930,0.00352918,-0.00025909,-0.00000128,-0.0000001
 5,0.00000082,-0.00000570,0.00000181,0.00000018,0.00000665,-0.00001073,
 -0.00000070,-0.00000370,0.00000276,-0.00000176,-0.00001035,0.00004532,
 0.00002190,0.00000356,0.00000290,0.00000045,-0.00000640,0.00000183,-0.
 00000015,-0.00000471,-0.00000222,-0.00000008,-0.00000539,-0.00000244,0
 .00000004,-0.00000020,-0.00000575,-0.00000067,-0.00000107,-0.00000803,
 -0.00000054,0.00000483,0.00000951,0.00000399,0.00000415,-0.00001006,-0
 .00000453,0.00075200,-0.00036754,0.00032229,-0.00088044,-0.00094290,0.
 00005251,0.00094978,0.00033915,0.00024267,0.25699438,0.00000419,0.0000
 1401,-0.00000078,-0.00001744,-0.00000297,0.00000189,-0.00001856,0.0000
 5948,-0.00000966,0.00004182,-0.00002709,-0.00000101,0.00000006,-0.0000
 0520,-0.00000061,-0.00000646,0.00001169,0.00000289,-0.00011859,0.00005
 366,0.00000590,0.00016413,0.00017867,-0.00011390,0.00025743,-0.0000178
 5,0.00004204,-0.00009082,-0.00001011,-0.00000158,0.00054421,-0.0007036
 8,0.00002820,0.00219464,-0.00496176,0.00140951,-0.00144796,0.00004420,
 -0.00001675,0.00001355,-0.00058710,-0.00003197,0.00293827,-0.00014478,
 0.00095411,0.01201251,0.01124548,-0.00025249,-0.12979746,-0.15028472,0
 .00480684,-0.02753661,-0.01294793,0.00027082,-0.00000695,0.00000986,0.
 00000084,-0.00001569,-0.00001004,-0.00000235,0.00001742,-0.00001027,0.
 00000005,-0.00003815,0.00001809,0.00000835,0.00003274,-0.00006810,-0.0
 0001448,-0.00000030,0.00000282,0.00000062,-0.00000304,0.00000152,0.000
 00017,-0.00000324,-0.00000100,0.00000004,-0.00000407,-0.00000123,-0.00
 000024,0.00000127,-0.00000333,0.00000050,0.00000547,0.00000202,-0.0000
 0050,-0.00013147,-0.00010068,-0.00001698,0.00004743,-0.00002739,0.0000
 1893,0.00038710,0.00094761,-0.00053489,0.00059878,0.00036566,0.0000108
 7,-0.00055619,0.00064304,-0.00050169,0.14052141,0.15632172,-0.00002686
 ,-0.00000229,-0.00000392,0.00002762,-0.00000182,0.00000606,-0.00001339
 ,-0.00000882,-0.00001096,0.00000112,-0.00000393,-0.00001586,0.00000244
 ,0.00001601,-0.00000182,0.00001098,-0.00000459,0.00001419,0.00002337,0
 .00004461,0.00006502,0.00008581,-0.00008430,-0.00090274,-0.00003485,-0
 .00005111,0.00013129,0.00003046,0.00000348,0.00003628,-0.00013475,0.00
 011123,-0.00085247,-0.00037236,0.00133969,0.00811945,0.00019250,0.0000
 8071,0.00016678,0.00000418,0.00002388,-0.00046019,-0.00092994,0.000998
 70,0.00590878,-0.00270043,-0.00196237,0.00319954,0.00204846,0.00491383
 ,-0.03731587,0.00305687,0.00172950,0.00365550,0.00000291,-0.00002182,0
 .00000037,0.00001668,0.00001550,-0.00000524,-0.00002374,0.00000116,-0.
 00000389,0.00004151,-0.00000636,0.00000498,-0.00001739,0.00006899,-0.0
 0000852,0.00000024,-0.00000063,0.00000622,-0.00000056,0.00000018,0.000
 00184,0.00000024,-0.00000067,0.00000167,-0.00000032,-0.00000056,-0.000
 00250,0.00000053,-0.00000005,0.00000131,0.00000098,-0.00000107,-0.0000
 0217,0.00001264,0.00000863,-0.00000424,-0.00001443,0.00000340,0.000084
 23,0.00020725,-0.00056225,-0.00446031,-0.00015819,-0.00008325,0.000041
 20,0.00033614,-0.00049354,-0.00314042,-0.00167389,-0.00605587,0.025734
 45,0.00059066,-0.00061030,0.00001327,-0.00220021,-0.00066027,-0.000231
 28,-0.00059992,0.00117468,-0.00034699,0.00003074,0.00009882,-0.0001791
 2,-0.00023752,0.00004306,0.00002913,0.00008829,0.00000475,0.00002305,0
 .00246068,0.00278323,0.00145528,-0.00006542,0.00014580,0.00015130,-0.0
 0002777,-0.00006699,-0.00009698,0.00009827,0.00005051,0.00002441,-0.00
 006922,0.00023352,0.00003292,-0.00005879,-0.00001056,-0.00005323,-0.00
 000600,-0.00000602,-0.00000348,0.00002127,-0.00001330,0.00001895,-0.00
 053009,0.00021714,0.00061908,-0.00004049,-0.00001662,-0.00001739,0.000
 01084,-0.00007318,-0.00002305,0.00004445,0.00001907,-0.00000581,-0.000
 09134,0.00012586,-0.00002039,-0.00006751,-0.00000737,0.00003966,0.0005
 7204,-0.00001643,0.00018010,-0.00115904,-0.01133756,-0.00266874,-0.018
 45280,0.01529486,0.00354445,-0.00007455,0.00036484,0.00002009,0.000009
 80,0.00000938,-0.00001267,-0.00001527,0.00002260,0.00000238,0.00001183
 ,-0.00006585,0.00000660,0.00002076,0.00001777,0.00001745,0.00000322,0.
 00000189,0.00000199,-0.00000419,0.00000567,-0.00000179,-0.00000540,-0.
 00000129,-0.00000188,-0.00000410,0.00000060,0.00001085,-0.00349443,0.0
 0083702,0.00128408,0.00000522,-0.00002710,0.00000154,0.00000035,-0.000
 00418,0.00000593,0.03641202,0.00169184,-0.00126902,-0.00028026,-0.0028
 5226,0.00027839,-0.00118796,0.00002287,-0.00051315,-0.00138010,-0.0015
 5173,0.00087068,-0.00046765,-0.00068995,0.00038630,0.00008044,0.000585
 25,-0.00026417,0.00009621,-0.00470462,-0.00032642,0.00010186,0.0010211
 8,0.00069914,0.00055271,0.00015304,-0.00002048,0.00008925,0.00066574,-
 0.00004699,0.00001404,-0.00028285,-0.00086991,0.00006055,0.00021222,-0
 .00012618,-0.00004894,0.00008535,0.00009460,0.00001397,-0.00010278,-0.
 00005710,-0.00002480,-0.00004442,0.00110007,-0.00034305,0.00013837,-0.
 00012366,0.00003327,-0.00004133,0.00005388,0.00003947,0.00003221,-0.00
 010091,0.00002888,-0.00044437,0.00062076,-0.00002643,-0.00042961,-0.00
 041410,0.00013254,0.00130435,0.00045289,0.00061864,0.00185802,-0.01377
 937,-0.00252141,0.01314911,0.07767073,0.02868340,-0.00009874,0.0003297
 1,-0.00009523,-0.00002523,-0.00001136,-0.00001342,-0.00004448,0.000031
 88,-0.00001982,0.00003174,-0.00011847,0.00005553,-0.00003079,-0.000008
 07,0.00006441,0.00003871,-0.00002186,-0.00001480,0.00000231,0.00000447
 ,-0.00000102,-0.00001067,0.00000562,0.00001111,-0.00000469,-0.00000057
 ,-0.00001680,0.00203698,0.00006512,-0.00057331,-0.00005445,-0.00004329
 ,0.00000896,0.00000768,-0.00001918,-0.00001252,-0.00349868,0.00620512,
 0.00071082,-0.00038588,0.00008246,-0.00064445,-0.00056637,0.00015938,-
 0.00095937,-0.00015186,-0.00008690,-0.00051163,0.00058681,0.00026597,-
 0.00025079,0.00014909,0.00001434,0.00020294,-0.00002544,-0.00002860,-0
 .00075182,0.00290300,-0.00036306,0.00087292,-0.00009217,-0.00011341,0.
 00017134,0.00031955,0.00013880,0.00020409,-0.00027087,-0.00003009,-0.0
 0013298,-0.00044820,-0.00010077,-0.00001480,-0.00014332,0.00005162,0.0
 0009527,0.00012754,-0.00002201,-0.00013155,0.00000202,-0.00001663,-0.0
 0002491,0.00029820,-0.00014602,-0.00011116,-0.00005563,-0.00001865,0.0
 0011003,-0.00007476,0.00002945,0.00006016,0.00009307,0.00002528,-0.000
 23826,0.00014046,-0.00001180,-0.00006077,0.00004620,0.00005580,0.00004
 625,0.00022546,-0.00019191,0.00203613,-0.00380984,0.00070807,0.0016191
 6,0.02452299,-0.00212141,-0.00005288,0.00013493,-0.00010192,-0.0000022
 8,0.,0.00001198,-0.00001501,0.00001550,-0.00001499,0.00000561,-0.00003
 313,0.00001100,0.00000263,0.00000037,0.00002193,0.00001051,-0.00000710
 ,-0.00002541,0.00000053,-0.00000143,0.00000747,0.00000042,0.00000055,-
 0.00000294,0.00000204,0.00000207,-0.00000757,0.00237965,-0.00042454,-0
 .00002195,-0.00001547,0.00000803,-0.00000097,0.00000211,-0.00000600,-0
 .00000033,-0.00215494,-0.00665427,0.01882705,0.00000518,0.00002861,-0.
 00001360,-0.00007735,0.00035187,-0.00008584,0.00015686,-0.00030685,0.0
 0020934,0.00003965,-0.00007864,0.00001130,0.00002530,-0.00004132,-0.00
 000886,-0.00006272,-0.00002779,-0.00000769,-0.00028152,-0.00133745,-0.
 00027045,-0.00027730,-0.00003704,-0.00001316,0.00003423,0.00001418,0.0
 0002405,-0.00006118,-0.00000575,-0.00001064,-0.00031113,0.00008526,-0.
 00001295,0.00004224,0.00007371,-0.00005274,-0.00001010,-0.00001834,0.0
 0000270,-0.00002147,0.00002879,-0.00001259,0.00047314,-0.00009594,0.00
 074044,-0.00011091,0.00028724,0.00000241,-0.00000702,-0.00006469,-0.00
 006493,-0.00005215,0.00004602,-0.00000586,0.00003586,-0.00000514,-0.00
 000400,-0.00001503,-0.00003835,0.00001873,0.00008485,0.00012568,0.0000
 5232,0.00052755,0.00048106,0.00031687,0.00247924,-0.01182964,-0.003783
 06,-0.00004888,-0.00010079,-0.00002875,-0.00001011,-0.00000204,0.00000
 295,-0.00000581,-0.00000416,-0.00000717,0.00000134,-0.00000727,0.00000
 664,-0.00000522,-0.00001008,-0.00000348,0.00000363,-0.00000139,0.00000
 455,0.00000550,0.00000007,-0.00000049,-0.00000107,0.00001531,-0.000004
 91,-0.00000479,0.00000529,0.00001303,-0.00139887,0.00066227,-0.0000177
 2,0.00000923,-0.00003234,0.00003697,-0.00003504,0.00001476,-0.00000783
 ,-0.01317636,-0.00812530,-0.00245953,0.01205021,-0.00045208,0.00033088
 ,0.00010613,0.00033103,-0.00006100,0.00036142,0.00093840,-0.00079022,0
 .00045182,0.00029074,-0.00052803,0.00028725,0.00022218,-0.00026020,-0.
 00001260,-0.00024920,-0.00004997,-0.00003122,-0.00156601,-0.00280027,-
 0.00077441,-0.00084955,-0.00012002,-0.00008935,-0.00006172,-0.00006505
 ,0.00001911,-0.00034256,0.00006284,-0.00003255,0.00015954,0.00026075,-
 0.00013423,-0.00011870,0.00018416,-0.00006607,-0.00001761,-0.00009255,
 -0.00000363,0.00001001,0.00006512,-0.00000251,0.00010158,-0.00051198,0
 .00038638,-0.00010147,0.00018757,-0.00001624,0.00003452,-0.00002097,-0
 .00002170,-0.00004496,0.00010220,-0.00000653,0.00022304,-0.00016857,-0
 .00001781,0.00002076,0.00015901,0.00007158,-0.00042230,0.00011609,-0.0
 0015747,-0.00011165,0.00308861,0.00077888,-0.01217238,-0.06986996,-0.0
 2324266,-0.00030386,-0.00003256,-0.00011676,-0.00001863,0.00000384,0.0
 0000313,-0.00000424,-0.00000131,-0.00001413,-0.00001657,0.00000266,-0.
 00000395,-0.00003996,-0.00003839,-0.00001240,0.00000178,-0.00000802,-0
 .00000700,0.00001094,-0.00000962,0.00000370,0.00001057,0.00001063,0.00
 000060,0.00000776,0.00000893,0.00001042,-0.00040102,0.00013661,-0.0001
 7119,0.00004161,0.00002474,-0.00000676,-0.00002484,0.00001487,-0.00000
 166,-0.00503537,-0.07073508,-0.01642504,0.01995021,0.14140423,-0.00002
 688,-0.00001666,0.00001569,-0.00004306,0.00012203,0.00029240,0.0005123
 7,-0.00024088,0.00046107,-0.00007913,-0.00019454,-0.00009402,0.0000012
 4,-0.00001774,-0.00005003,0.00000927,-0.00003061,-0.00000006,-0.000640
 56,-0.00156798,0.00019520,-0.00028890,0.00011485,-0.00019959,-0.000040
 58,-0.00011949,-0.00010532,-0.00000214,0.00010546,0.00003886,0.0002184
 7,0.00006164,0.00016874,-0.00004692,0.00004704,-0.00000061,-0.00001037
 ,-0.00004341,0.00001889,0.00003688,-0.00001458,0.00000890,-0.00034089,
 -0.00016027,0.00004947,0.00006872,-0.00002096,-0.00000229,-0.00001787,
 0.00004293,-0.00003268,-0.00000914,-0.00003027,-0.00002199,0.00002173,
 0.00005517,0.00004439,-0.00006112,-0.00003099,-0.00011144,-0.00007057,
 0.00005151,-0.00011129,-0.00021202,0.00074655,0.00023287,-0.00290794,-
 0.02061730,-0.00301268,-0.00007926,-0.00004229,0.00012389,-0.00000498,
 -0.00000297,-0.00000332,-0.00000260,-0.00000131,0.00002093,-0.00000122
 ,-0.00000220,-0.00003285,-0.00001727,-0.00001239,-0.00003838,0.0000008
 2,-0.00000570,0.00002263,0.00000361,-0.00000352,-0.00000450,0.00000237
 ,-0.00000506,-0.00000290,0.00000381,0.00000131,0.00000467,0.00025420,-
 0.00006149,0.00001045,-0.00000204,0.00001097,0.00000238,0.00000277,-0.
 00000080,0.00001230,-0.00166477,-0.01700346,-0.01698327,0.00543398,0.0
 3888742,0.01908348\\0.00000059,0.00000130,-0.00000196,-0.00000056,0.00
 000002,-0.00000048,-0.00000020,-0.00000007,-0.00000161,-0.00000108,0.0
 0000134,-0.00000223,-0.00000079,0.00000105,-0.00000308,-0.00000068,0.0
 0000063,-0.00000351,0.00000155,-0.00000035,0.00000061,-0.00000073,-0.0
 0000211,0.00000032,-0.00000186,0.00000092,-0.00000162,0.00000069,0.000
 00059,-0.00000267,-0.00000239,-0.00000102,0.00000056,0.00000271,-0.000
 00214,0.00000174,0.00000001,-0.00000102,-0.00000081,-0.00000090,-0.000
 00128,-0.00000133,0.00000117,0.00000163,0.00000210,-0.00000048,-0.0000
 0128,0.00000362,0.00000093,-0.00000177,0.00000317,0.00000010,-0.000001
 42,0.00000192,-0.00000051,0.00000099,-0.00000142,0.00000022,0.00000213
 ,0.,0.00000051,0.00000136,0.00000064,0.00000068,0.00000041,0.00000142,
 -0.00000039,0.00000158,0.00000029,0.00000086,0.00000093,0.00000202,0.0
 0000055,0.00000173,0.00000031,-0.00000019,0.00000167,-0.00000206,-0.00
 000093,0.00000144,-0.00000397,-0.00000114,0.00000077,-0.00000453,-0.00
 000105,-0.00000010,-0.00000334,-0.00000092,-0.00000094,-0.00000255,-0.
 00000066,-0.00000167,-0.00000060,0.00000006,-0.00000175,0.00000178,0.0
 0000136,-0.00000037,0.00000263,0.00000122,-0.00000058,0.00000442,0.000
 00086,-0.00000151,0.00000418,0.00000079,-0.00000065,0.00000266,0.00000
 057,-0.00000043,0.00000336\\\@


 THE UNDERLYING PHYSICAL LAWS NECESSARY FOR THE 
 MATHEMATICAL THEORY OF A LARGE PART OF PHYSICS AND THE
 WHOLE OF CHEMISTRY ARE THUS COMPLETELY KNOWN, AND THE
 DIFFICULTY IS ONLY THAT THE EXACT APPLICATION OF THESE
 LAWS LEADS TO EQUATIONS MUCH TOO COMPLICATED 
 TO BE SOLUBLE.

                                        -- P. A. M. DIRAC, 1929
 Job cpu time:       0 days 17 hours 16 minutes  8.1 seconds.
 Elapsed time:       0 days  0 hours 51 minutes 57.7 seconds.
 File lengths (MBytes):  RWF=   2274 Int=      0 D2E=      0 Chk=     40 Scr=      1
 Normal termination of Gaussian 16 at Tue Jun 25 00:31:09 2019.
