 Entering Gaussian System, Link 0=/share/apps/gaussian16/g16/g16
 Initial command:
 /share/apps/gaussian16/g16/l1.exe "/home/amen01//scratch/632/Gau-5049.inp" -scrdir="/home/amen01//scratch/632/"
 Entering Link 1 = /share/apps/gaussian16/g16/l1.exe PID=      5050.
  
 Copyright (c) 1988-2017, Gaussian, Inc.  All Rights Reserved.
  
 This is part of the Gaussian(R) 16 program.  It is based on
 the Gaussian(R) 09 system (copyright 2009, Gaussian, Inc.),
 the Gaussian(R) 03 system (copyright 2003, Gaussian, Inc.),
 the Gaussian(R) 98 system (copyright 1998, Gaussian, Inc.),
 the Gaussian(R) 94 system (copyright 1995, Gaussian, Inc.),
 the Gaussian 92(TM) system (copyright 1992, Gaussian, Inc.),
 the Gaussian 90(TM) system (copyright 1990, Gaussian, Inc.),
 the Gaussian 88(TM) system (copyright 1988, Gaussian, Inc.),
 the Gaussian 86(TM) system (copyright 1986, Carnegie Mellon
 University), and the Gaussian 82(TM) system (copyright 1983,
 Carnegie Mellon University). Gaussian is a federally registered
 trademark of Gaussian, Inc.
  
 This software contains proprietary and confidential information,
 including trade secrets, belonging to Gaussian, Inc.
  
 This software is provided under written license and may be
 used, copied, transmitted, or stored only in accord with that
 written license.
  
 The following legend is applicable only to US Government
 contracts under FAR:
  
                    RESTRICTED RIGHTS LEGEND
  
 Use, reproduction and disclosure by the US Government is
 subject to restrictions as set forth in subparagraphs (a)
 and (c) of the Commercial Computer Software - Restricted
 Rights clause in FAR 52.227-19.
  
 Gaussian, Inc.
 340 Quinnipiac St., Bldg. 40, Wallingford CT 06492
  
  
 ---------------------------------------------------------------
 Warning -- This program may not be used in any manner that
 competes with the business of Gaussian, Inc. or will provide
 assistance to any competitor of Gaussian, Inc.  The licensee
 of this program is prohibited from giving any competitor of
 Gaussian, Inc. access to this program.  By using this program,
 the user acknowledges that Gaussian, Inc. is engaged in the
 business of creating and licensing software in the field of
 computational chemistry and represents and warrants to the
 licensee that it is not a competitor of Gaussian, Inc. and that
 it will not use this program in any manner prohibited above.
 ---------------------------------------------------------------
  

 Cite this work as:
 Gaussian 16, Revision B.01,
 M. J. Frisch, G. W. Trucks, H. B. Schlegel, G. E. Scuseria, 
 M. A. Robb, J. R. Cheeseman, G. Scalmani, V. Barone, 
 G. A. Petersson, H. Nakatsuji, X. Li, M. Caricato, A. V. Marenich, 
 J. Bloino, B. G. Janesko, R. Gomperts, B. Mennucci, H. P. Hratchian, 
 J. V. Ortiz, A. F. Izmaylov, J. L. Sonnenberg, D. Williams-Young, 
 F. Ding, F. Lipparini, F. Egidi, J. Goings, B. Peng, A. Petrone, 
 T. Henderson, D. Ranasinghe, V. G. Zakrzewski, J. Gao, N. Rega, 
 G. Zheng, W. Liang, M. Hada, M. Ehara, K. Toyota, R. Fukuda, 
 J. Hasegawa, M. Ishida, T. Nakajima, Y. Honda, O. Kitao, H. Nakai, 
 T. Vreven, K. Throssell, J. A. Montgomery, Jr., J. E. Peralta, 
 F. Ogliaro, M. J. Bearpark, J. J. Heyd, E. N. Brothers, K. N. Kudin, 
 V. N. Staroverov, T. A. Keith, R. Kobayashi, J. Normand, 
 K. Raghavachari, A. P. Rendell, J. C. Burant, S. S. Iyengar, 
 J. Tomasi, M. Cossi, J. M. Millam, M. Klene, C. Adamo, R. Cammi, 
 J. W. Ochterski, R. L. Martin, K. Morokuma, O. Farkas, 
 J. B. Foresman, and D. J. Fox, Gaussian, Inc., Wallingford CT, 2016.
 
 ******************************************
 Gaussian 16:  ES64L-G16RevB.01 20-Dec-2017
                27-Jun-2019 
 ******************************************
 %nprocshared=20
 Will use up to   20 processors via shared memory.
 %mem=100GB
 %chk=7-HACAsite2TSguess-2b.chk
 ---------------------------------------------------------------
 # opt=(ts,calcfc,noeigen) freq b3lyp/6-311+g(d,p) int=grid=fine
 ---------------------------------------------------------------
 1/5=1,10=4,11=1,18=20,26=3,38=1/1,3;
 2/9=110,12=2,17=6,18=5,40=1/2;
 3/5=4,6=6,7=111,11=2,25=1,30=1,71=2,74=-5,75=-4,140=1/1,2,3;
 4//1;
 5/5=2,38=5/2;
 8/6=4,10=90,11=11/1;
 11/6=1,8=1,9=11,15=111,16=1/1,2,10;
 10/6=1,13=1/2;
 6/7=2,8=2,9=2,10=2,28=1/1;
 7/10=1,18=20,25=1/1,2,3,16;
 1/5=1,10=4,11=1,18=20,26=3/3(2);
 2/9=110/2;
 99//99;
 2/9=110/2;
 3/5=4,6=6,7=111,11=2,25=1,30=1,71=1,74=-5,75=-4/1,2,3;
 4/5=5,16=3,69=1/1;
 5/5=2,38=5/2;
 7//1,2,3,16;
 1/5=1,11=1,18=20,26=3/3(-5);
 2/9=110/2;
 6/7=2,8=2,9=2,10=2,19=2,28=1/1;
 99/9=1/99;
 ---------------------
 7-HACAsite2TSguess-2b
 ---------------------
 Symbolic Z-matrix:
 Charge =  0 Multiplicity = 3
 C                     3.87128   0.25398   0.00441 
 C                     2.55666  -0.17892  -0.08837 
 C                     1.45447   0.66304   0.09034 
 C                     1.59444   2.02441   0.33514 
 C                     4.03556   1.65804   0.30938 
 C                     2.95611   2.49806   0.46024 
 C                     0.25175  -0.07056  -0.11282 
 C                    -0.96741   0.65721  -0.00965 
 C                    -0.85259   2.09267   0.15662 
 C                     0.38416   2.74616   0.35181 
 C                    -2.28925   0.07297  -0.11086 
 C                    -3.42496   0.9294   -0.3085 
 C                    -3.25354   2.35035  -0.21735 
 C                    -2.04214   2.89455   0.05619 
 C                    -2.57531  -1.29907  -0.01633 
 C                    -3.80852  -1.85411  -0.232 
 C                    -4.88418  -1.00244  -0.55081 
 C                    -4.69448   0.36618  -0.55211 
 C                     4.84973  -0.74716  -0.2462 
 C                     4.44538  -2.03907  -0.57749 
 C                     3.08651  -2.42809  -0.68894 
 C                     2.10137  -1.47516  -0.43854 
 C                     0.64996  -1.40519  -0.46497 
 H                     2.84459  -3.44761  -0.96886 
 H                     5.20827  -2.78582  -0.76884 
 H                     5.90764  -0.51329  -0.19113 
 H                     5.0375    2.06404   0.40501 
 H                     3.12918   3.54935   0.6664 
 H                     0.38237   3.8242    0.47813 
 H                    -1.93992   3.96916   0.16448 
 H                    -4.12592   2.98305  -0.34296 
 H                    -5.53301   1.03238  -0.72451 
 H                    -3.96879  -2.91966  -0.11422 
 H                    -5.86687  -1.42097  -0.7403 
 H                    -0.01091  -2.2119   -0.7384 
 C                    -1.47379  -2.55668   1.45796 
 C                    -1.65139  -3.76269   1.36437 
 H                    -1.91265  -4.76477   1.11949 
 H                    -1.07029  -1.68549   1.92654 
 
 Add virtual bond connecting atoms C36        and C15        Dist= 4.21D+00.

 GradGradGradGradGradGradGradGradGradGradGradGradGradGradGradGradGradGrad
 Berny optimization.
 Initialization pass.
                           ----------------------------
                           !    Initial Parameters    !
                           ! (Angstroms and Degrees)  !
 --------------------------                            --------------------------
 ! Name  Definition              Value          Derivative Info.                !
 --------------------------------------------------------------------------------
 ! R1    R(1,2)                  1.3872         calculate D2E/DX2 analytically  !
 ! R2    R(1,5)                  1.4462         calculate D2E/DX2 analytically  !
 ! R3    R(1,19)                 1.4221         calculate D2E/DX2 analytically  !
 ! R4    R(2,3)                  1.3984         calculate D2E/DX2 analytically  !
 ! R5    R(2,22)                 1.4178         calculate D2E/DX2 analytically  !
 ! R6    R(3,4)                  1.3903         calculate D2E/DX2 analytically  !
 ! R7    R(3,7)                  1.4234         calculate D2E/DX2 analytically  !
 ! R8    R(4,6)                  1.4471         calculate D2E/DX2 analytically  !
 ! R9    R(4,10)                 1.4093         calculate D2E/DX2 analytically  !
 ! R10   R(5,6)                  1.3761         calculate D2E/DX2 analytically  !
 ! R11   R(5,27)                 1.0853         calculate D2E/DX2 analytically  !
 ! R12   R(6,28)                 1.0852         calculate D2E/DX2 analytically  !
 ! R13   R(7,8)                  1.4236         calculate D2E/DX2 analytically  !
 ! R14   R(7,23)                 1.4366         calculate D2E/DX2 analytically  !
 ! R15   R(8,9)                  1.4496         calculate D2E/DX2 analytically  !
 ! R16   R(8,11)                 1.4487         calculate D2E/DX2 analytically  !
 ! R17   R(9,10)                 1.4123         calculate D2E/DX2 analytically  !
 ! R18   R(9,14)                 1.4381         calculate D2E/DX2 analytically  !
 ! R19   R(10,29)                1.0854         calculate D2E/DX2 analytically  !
 ! R20   R(11,12)                1.4361         calculate D2E/DX2 analytically  !
 ! R21   R(11,15)                1.4047         calculate D2E/DX2 analytically  !
 ! R22   R(12,13)                1.4342         calculate D2E/DX2 analytically  !
 ! R23   R(12,18)                1.4101         calculate D2E/DX2 analytically  !
 ! R24   R(13,14)                1.3559         calculate D2E/DX2 analytically  !
 ! R25   R(13,31)                1.085          calculate D2E/DX2 analytically  !
 ! R26   R(14,30)                1.0849         calculate D2E/DX2 analytically  !
 ! R27   R(15,16)                1.3695         calculate D2E/DX2 analytically  !
 ! R28   R(15,36)                2.229          calculate D2E/DX2 analytically  !
 ! R29   R(16,17)                1.4085         calculate D2E/DX2 analytically  !
 ! R30   R(16,33)                1.084          calculate D2E/DX2 analytically  !
 ! R31   R(17,18)                1.3817         calculate D2E/DX2 analytically  !
 ! R32   R(17,34)                1.0848         calculate D2E/DX2 analytically  !
 ! R33   R(18,32)                1.0847         calculate D2E/DX2 analytically  !
 ! R34   R(19,20)                1.3937         calculate D2E/DX2 analytically  !
 ! R35   R(19,26)                1.0849         calculate D2E/DX2 analytically  !
 ! R36   R(20,21)                1.4178         calculate D2E/DX2 analytically  !
 ! R37   R(20,25)                1.0845         calculate D2E/DX2 analytically  !
 ! R38   R(21,22)                1.3933         calculate D2E/DX2 analytically  !
 ! R39   R(21,24)                1.0846         calculate D2E/DX2 analytically  !
 ! R40   R(22,23)                1.4533         calculate D2E/DX2 analytically  !
 ! R41   R(23,35)                1.0781         calculate D2E/DX2 analytically  !
 ! R42   R(36,37)                1.2226         calculate D2E/DX2 analytically  !
 ! R43   R(36,39)                1.0683         calculate D2E/DX2 analytically  !
 ! R44   R(37,38)                1.0641         calculate D2E/DX2 analytically  !
 ! A1    A(2,1,5)              115.1351         calculate D2E/DX2 analytically  !
 ! A2    A(2,1,19)             114.8696         calculate D2E/DX2 analytically  !
 ! A3    A(5,1,19)             129.9773         calculate D2E/DX2 analytically  !
 ! A4    A(1,2,3)              123.401          calculate D2E/DX2 analytically  !
 ! A5    A(1,2,22)             127.3126         calculate D2E/DX2 analytically  !
 ! A6    A(3,2,22)             109.2032         calculate D2E/DX2 analytically  !
 ! A7    A(2,3,4)              122.1881         calculate D2E/DX2 analytically  !
 ! A8    A(2,3,7)              109.7204         calculate D2E/DX2 analytically  !
 ! A9    A(4,3,7)              127.944          calculate D2E/DX2 analytically  !
 ! A10   A(3,4,6)              115.4971         calculate D2E/DX2 analytically  !
 ! A11   A(3,4,10)             114.6531         calculate D2E/DX2 analytically  !
 ! A12   A(6,4,10)             129.7507         calculate D2E/DX2 analytically  !
 ! A13   A(1,5,6)              121.7813         calculate D2E/DX2 analytically  !
 ! A14   A(1,5,27)             119.1213         calculate D2E/DX2 analytically  !
 ! A15   A(6,5,27)             119.0889         calculate D2E/DX2 analytically  !
 ! A16   A(4,6,5)              121.927          calculate D2E/DX2 analytically  !
 ! A17   A(4,6,28)             118.9187         calculate D2E/DX2 analytically  !
 ! A18   A(5,6,28)             119.1494         calculate D2E/DX2 analytically  !
 ! A19   A(3,7,8)              116.7316         calculate D2E/DX2 analytically  !
 ! A20   A(3,7,23)             106.2357         calculate D2E/DX2 analytically  !
 ! A21   A(8,7,23)             136.8925         calculate D2E/DX2 analytically  !
 ! A22   A(7,8,9)              116.5326         calculate D2E/DX2 analytically  !
 ! A23   A(7,8,11)             124.7608         calculate D2E/DX2 analytically  !
 ! A24   A(9,8,11)             118.6608         calculate D2E/DX2 analytically  !
 ! A25   A(8,9,10)             122.9151         calculate D2E/DX2 analytically  !
 ! A26   A(8,9,14)             118.596          calculate D2E/DX2 analytically  !
 ! A27   A(10,9,14)            118.423          calculate D2E/DX2 analytically  !
 ! A28   A(4,10,9)             120.8926         calculate D2E/DX2 analytically  !
 ! A29   A(4,10,29)            120.7614         calculate D2E/DX2 analytically  !
 ! A30   A(9,10,29)            118.3072         calculate D2E/DX2 analytically  !
 ! A31   A(8,11,12)            119.3848         calculate D2E/DX2 analytically  !
 ! A32   A(8,11,15)            125.0997         calculate D2E/DX2 analytically  !
 ! A33   A(12,11,15)           115.5117         calculate D2E/DX2 analytically  !
 ! A34   A(11,12,13)           119.1826         calculate D2E/DX2 analytically  !
 ! A35   A(11,12,18)           119.8402         calculate D2E/DX2 analytically  !
 ! A36   A(13,12,18)           120.9544         calculate D2E/DX2 analytically  !
 ! A37   A(12,13,14)           121.1498         calculate D2E/DX2 analytically  !
 ! A38   A(12,13,31)           118.3148         calculate D2E/DX2 analytically  !
 ! A39   A(14,13,31)           120.5095         calculate D2E/DX2 analytically  !
 ! A40   A(9,14,13)            121.9586         calculate D2E/DX2 analytically  !
 ! A41   A(9,14,30)            117.8664         calculate D2E/DX2 analytically  !
 ! A42   A(13,14,30)           120.1243         calculate D2E/DX2 analytically  !
 ! A43   A(11,15,16)           124.6566         calculate D2E/DX2 analytically  !
 ! A44   A(11,15,36)           119.6663         calculate D2E/DX2 analytically  !
 ! A45   A(16,15,36)           108.6932         calculate D2E/DX2 analytically  !
 ! A46   A(15,16,17)           118.5724         calculate D2E/DX2 analytically  !
 ! A47   A(15,16,33)           120.961          calculate D2E/DX2 analytically  !
 ! A48   A(17,16,33)           120.4018         calculate D2E/DX2 analytically  !
 ! A49   A(16,17,18)           119.6229         calculate D2E/DX2 analytically  !
 ! A50   A(16,17,34)           119.8706         calculate D2E/DX2 analytically  !
 ! A51   A(18,17,34)           120.4223         calculate D2E/DX2 analytically  !
 ! A52   A(12,18,17)           121.2716         calculate D2E/DX2 analytically  !
 ! A53   A(12,18,32)           118.5624         calculate D2E/DX2 analytically  !
 ! A54   A(17,18,32)           120.1565         calculate D2E/DX2 analytically  !
 ! A55   A(1,19,20)            119.6602         calculate D2E/DX2 analytically  !
 ! A56   A(1,19,26)            120.6788         calculate D2E/DX2 analytically  !
 ! A57   A(20,19,26)           119.6585         calculate D2E/DX2 analytically  !
 ! A58   A(19,20,21)           123.4417         calculate D2E/DX2 analytically  !
 ! A59   A(19,20,25)           118.4326         calculate D2E/DX2 analytically  !
 ! A60   A(21,20,25)           118.1236         calculate D2E/DX2 analytically  !
 ! A61   A(20,21,22)           118.4158         calculate D2E/DX2 analytically  !
 ! A62   A(20,21,24)           119.4709         calculate D2E/DX2 analytically  !
 ! A63   A(22,21,24)           122.1126         calculate D2E/DX2 analytically  !
 ! A64   A(2,22,21)            116.2725         calculate D2E/DX2 analytically  !
 ! A65   A(2,22,23)            106.3302         calculate D2E/DX2 analytically  !
 ! A66   A(21,22,23)           137.3728         calculate D2E/DX2 analytically  !
 ! A67   A(7,23,22)            108.4865         calculate D2E/DX2 analytically  !
 ! A68   A(7,23,35)            125.9741         calculate D2E/DX2 analytically  !
 ! A69   A(22,23,35)           125.505          calculate D2E/DX2 analytically  !
 ! A70   A(15,36,37)           115.7299         calculate D2E/DX2 analytically  !
 ! A71   A(15,36,39)            90.9542         calculate D2E/DX2 analytically  !
 ! A72   A(37,36,39)           153.2316         calculate D2E/DX2 analytically  !
 ! A73   L(36,37,38,21,-1)     181.149          calculate D2E/DX2 analytically  !
 ! A74   L(36,37,38,21,-2)     191.5277         calculate D2E/DX2 analytically  !
 ! D1    D(5,1,2,3)              0.2572         calculate D2E/DX2 analytically  !
 ! D2    D(5,1,2,22)           176.5755         calculate D2E/DX2 analytically  !
 ! D3    D(19,1,2,3)          -178.3513         calculate D2E/DX2 analytically  !
 ! D4    D(19,1,2,22)           -2.0331         calculate D2E/DX2 analytically  !
 ! D5    D(2,1,5,6)             -1.5683         calculate D2E/DX2 analytically  !
 ! D6    D(2,1,5,27)           179.5042         calculate D2E/DX2 analytically  !
 ! D7    D(19,1,5,6)           176.7841         calculate D2E/DX2 analytically  !
 ! D8    D(19,1,5,27)           -2.1434         calculate D2E/DX2 analytically  !
 ! D9    D(2,1,19,20)            1.0515         calculate D2E/DX2 analytically  !
 ! D10   D(2,1,19,26)         -179.5188         calculate D2E/DX2 analytically  !
 ! D11   D(5,1,19,20)         -177.3045         calculate D2E/DX2 analytically  !
 ! D12   D(5,1,19,26)            2.1252         calculate D2E/DX2 analytically  !
 ! D13   D(1,2,3,4)              2.1466         calculate D2E/DX2 analytically  !
 ! D14   D(1,2,3,7)            178.0576         calculate D2E/DX2 analytically  !
 ! D15   D(22,2,3,4)          -174.7533         calculate D2E/DX2 analytically  !
 ! D16   D(22,2,3,7)             1.1578         calculate D2E/DX2 analytically  !
 ! D17   D(1,2,22,21)            1.5237         calculate D2E/DX2 analytically  !
 ! D18   D(1,2,22,23)         -176.9899         calculate D2E/DX2 analytically  !
 ! D19   D(3,2,22,21)          178.2694         calculate D2E/DX2 analytically  !
 ! D20   D(3,2,22,23)           -0.2442         calculate D2E/DX2 analytically  !
 ! D21   D(2,3,4,6)             -3.0249         calculate D2E/DX2 analytically  !
 ! D22   D(2,3,4,10)           173.7123         calculate D2E/DX2 analytically  !
 ! D23   D(7,3,4,6)           -178.1423         calculate D2E/DX2 analytically  !
 ! D24   D(7,3,4,10)            -1.4051         calculate D2E/DX2 analytically  !
 ! D25   D(2,3,7,8)           -178.0086         calculate D2E/DX2 analytically  !
 ! D26   D(2,3,7,23)            -1.5861         calculate D2E/DX2 analytically  !
 ! D27   D(4,3,7,8)             -2.3972         calculate D2E/DX2 analytically  !
 ! D28   D(4,3,7,23)           174.0253         calculate D2E/DX2 analytically  !
 ! D29   D(3,4,6,5)              1.7028         calculate D2E/DX2 analytically  !
 ! D30   D(3,4,6,28)          -179.1012         calculate D2E/DX2 analytically  !
 ! D31   D(10,4,6,5)          -174.4394         calculate D2E/DX2 analytically  !
 ! D32   D(10,4,6,28)            4.7566         calculate D2E/DX2 analytically  !
 ! D33   D(3,4,10,9)             1.1753         calculate D2E/DX2 analytically  !
 ! D34   D(3,4,10,29)         -176.5222         calculate D2E/DX2 analytically  !
 ! D35   D(6,4,10,9)           177.344          calculate D2E/DX2 analytically  !
 ! D36   D(6,4,10,29)           -0.3535         calculate D2E/DX2 analytically  !
 ! D37   D(1,5,6,4)              0.5849         calculate D2E/DX2 analytically  !
 ! D38   D(1,5,6,28)          -178.6093         calculate D2E/DX2 analytically  !
 ! D39   D(27,5,6,4)           179.5127         calculate D2E/DX2 analytically  !
 ! D40   D(27,5,6,28)            0.3185         calculate D2E/DX2 analytically  !
 ! D41   D(3,7,8,9)              6.0577         calculate D2E/DX2 analytically  !
 ! D42   D(3,7,8,11)          -176.4463         calculate D2E/DX2 analytically  !
 ! D43   D(23,7,8,9)          -168.9129         calculate D2E/DX2 analytically  !
 ! D44   D(23,7,8,11)            8.5831         calculate D2E/DX2 analytically  !
 ! D45   D(3,7,23,22)            1.4154         calculate D2E/DX2 analytically  !
 ! D46   D(3,7,23,35)         -176.5396         calculate D2E/DX2 analytically  !
 ! D47   D(8,7,23,22)          176.7377         calculate D2E/DX2 analytically  !
 ! D48   D(8,7,23,35)           -1.2173         calculate D2E/DX2 analytically  !
 ! D49   D(7,8,9,10)            -6.5892         calculate D2E/DX2 analytically  !
 ! D50   D(7,8,9,14)           170.4094         calculate D2E/DX2 analytically  !
 ! D51   D(11,8,9,10)          175.7551         calculate D2E/DX2 analytically  !
 ! D52   D(11,8,9,14)           -7.2463         calculate D2E/DX2 analytically  !
 ! D53   D(7,8,11,12)         -165.2956         calculate D2E/DX2 analytically  !
 ! D54   D(7,8,11,15)           15.4415         calculate D2E/DX2 analytically  !
 ! D55   D(9,8,11,12)           12.1512         calculate D2E/DX2 analytically  !
 ! D56   D(9,8,11,15)         -167.1117         calculate D2E/DX2 analytically  !
 ! D57   D(8,9,10,4)             2.8599         calculate D2E/DX2 analytically  !
 ! D58   D(8,9,10,29)         -179.3874         calculate D2E/DX2 analytically  !
 ! D59   D(14,9,10,4)         -174.1436         calculate D2E/DX2 analytically  !
 ! D60   D(14,9,10,29)           3.6091         calculate D2E/DX2 analytically  !
 ! D61   D(8,9,14,13)           -1.49           calculate D2E/DX2 analytically  !
 ! D62   D(8,9,14,30)         -178.9019         calculate D2E/DX2 analytically  !
 ! D63   D(10,9,14,13)         175.6452         calculate D2E/DX2 analytically  !
 ! D64   D(10,9,14,30)          -1.7667         calculate D2E/DX2 analytically  !
 ! D65   D(8,11,12,13)          -8.5363         calculate D2E/DX2 analytically  !
 ! D66   D(8,11,12,18)         173.1823         calculate D2E/DX2 analytically  !
 ! D67   D(15,11,12,13)        170.7955         calculate D2E/DX2 analytically  !
 ! D68   D(15,11,12,18)         -7.4859         calculate D2E/DX2 analytically  !
 ! D69   D(8,11,15,16)        -173.8427         calculate D2E/DX2 analytically  !
 ! D70   D(8,11,15,36)          38.7856         calculate D2E/DX2 analytically  !
 ! D71   D(12,11,15,16)          6.869          calculate D2E/DX2 analytically  !
 ! D72   D(12,11,15,36)       -140.5028         calculate D2E/DX2 analytically  !
 ! D73   D(11,12,13,14)         -0.2447         calculate D2E/DX2 analytically  !
 ! D74   D(11,12,13,31)       -178.402          calculate D2E/DX2 analytically  !
 ! D75   D(18,12,13,14)        178.017          calculate D2E/DX2 analytically  !
 ! D76   D(18,12,13,31)         -0.1403         calculate D2E/DX2 analytically  !
 ! D77   D(11,12,18,17)          2.7134         calculate D2E/DX2 analytically  !
 ! D78   D(11,12,18,32)       -178.4049         calculate D2E/DX2 analytically  !
 ! D79   D(13,12,18,17)       -175.5369         calculate D2E/DX2 analytically  !
 ! D80   D(13,12,18,32)          3.3448         calculate D2E/DX2 analytically  !
 ! D81   D(12,13,14,9)           5.3381         calculate D2E/DX2 analytically  !
 ! D82   D(12,13,14,30)       -177.3072         calculate D2E/DX2 analytically  !
 ! D83   D(31,13,14,9)        -176.5448         calculate D2E/DX2 analytically  !
 ! D84   D(31,13,14,30)          0.8099         calculate D2E/DX2 analytically  !
 ! D85   D(11,15,16,17)         -1.1046         calculate D2E/DX2 analytically  !
 ! D86   D(11,15,16,33)       -178.1899         calculate D2E/DX2 analytically  !
 ! D87   D(36,15,16,17)        149.252          calculate D2E/DX2 analytically  !
 ! D88   D(36,15,16,33)        -27.8333         calculate D2E/DX2 analytically  !
 ! D89   D(11,15,36,37)       -170.953          calculate D2E/DX2 analytically  !
 ! D90   D(11,15,36,39)         11.2431         calculate D2E/DX2 analytically  !
 ! D91   D(16,15,36,37)         36.9658         calculate D2E/DX2 analytically  !
 ! D92   D(16,15,36,39)       -140.8381         calculate D2E/DX2 analytically  !
 ! D93   D(15,16,17,18)         -4.2289         calculate D2E/DX2 analytically  !
 ! D94   D(15,16,17,34)        179.0936         calculate D2E/DX2 analytically  !
 ! D95   D(33,16,17,18)        172.8733         calculate D2E/DX2 analytically  !
 ! D96   D(33,16,17,34)         -3.8042         calculate D2E/DX2 analytically  !
 ! D97   D(16,17,18,12)          3.365          calculate D2E/DX2 analytically  !
 ! D98   D(16,17,18,32)       -175.4991         calculate D2E/DX2 analytically  !
 ! D99   D(34,17,18,12)       -179.9762         calculate D2E/DX2 analytically  !
 ! D100  D(34,17,18,32)          1.1597         calculate D2E/DX2 analytically  !
 ! D101  D(1,19,20,21)           0.2729         calculate D2E/DX2 analytically  !
 ! D102  D(1,19,20,25)         179.7333         calculate D2E/DX2 analytically  !
 ! D103  D(26,19,20,21)       -179.1627         calculate D2E/DX2 analytically  !
 ! D104  D(26,19,20,25)          0.2977         calculate D2E/DX2 analytically  !
 ! D105  D(19,20,21,22)         -0.8226         calculate D2E/DX2 analytically  !
 ! D106  D(19,20,21,24)        178.8706         calculate D2E/DX2 analytically  !
 ! D107  D(25,20,21,22)        179.7155         calculate D2E/DX2 analytically  !
 ! D108  D(25,20,21,24)         -0.5913         calculate D2E/DX2 analytically  !
 ! D109  D(20,21,22,2)          -0.0073         calculate D2E/DX2 analytically  !
 ! D110  D(20,21,22,23)        177.8862         calculate D2E/DX2 analytically  !
 ! D111  D(24,21,22,2)        -179.6919         calculate D2E/DX2 analytically  !
 ! D112  D(24,21,22,23)         -1.7984         calculate D2E/DX2 analytically  !
 ! D113  D(2,22,23,7)           -0.7415         calculate D2E/DX2 analytically  !
 ! D114  D(2,22,23,35)         177.2255         calculate D2E/DX2 analytically  !
 ! D115  D(21,22,23,7)        -178.7733         calculate D2E/DX2 analytically  !
 ! D116  D(21,22,23,35)         -0.8062         calculate D2E/DX2 analytically  !
 --------------------------------------------------------------------------------
 Trust Radius=3.00D-01 FncErr=1.00D-07 GrdErr=1.00D-06 EigMax=2.50D+02 EigMin=1.00D-04
 Number of steps in this run=    234 maximum allowed number of steps=    234.
 Search for a saddle point of order  1.
 GradGradGradGradGradGradGradGradGradGradGradGradGradGradGradGradGradGrad

                          Input orientation:                          
 ---------------------------------------------------------------------
 Center     Atomic      Atomic             Coordinates (Angstroms)
 Number     Number       Type             X           Y           Z
 ---------------------------------------------------------------------
      1          6           0        3.871277    0.253982    0.004408
      2          6           0        2.556655   -0.178920   -0.088366
      3          6           0        1.454467    0.663039    0.090340
      4          6           0        1.594443    2.024407    0.335143
      5          6           0        4.035561    1.658035    0.309375
      6          6           0        2.956105    2.498059    0.460238
      7          6           0        0.251754   -0.070556   -0.112821
      8          6           0       -0.967408    0.657214   -0.009654
      9          6           0       -0.852592    2.092669    0.156619
     10          6           0        0.384157    2.746162    0.351813
     11          6           0       -2.289247    0.072966   -0.110855
     12          6           0       -3.424964    0.929402   -0.308500
     13          6           0       -3.253539    2.350350   -0.217346
     14          6           0       -2.042139    2.894551    0.056193
     15          6           0       -2.575310   -1.299066   -0.016329
     16          6           0       -3.808524   -1.854107   -0.231998
     17          6           0       -4.884175   -1.002436   -0.550812
     18          6           0       -4.694483    0.366178   -0.552114
     19          6           0        4.849725   -0.747163   -0.246196
     20          6           0        4.445383   -2.039071   -0.577493
     21          6           0        3.086511   -2.428087   -0.688939
     22          6           0        2.101374   -1.475155   -0.438543
     23          6           0        0.649955   -1.405191   -0.464971
     24          1           0        2.844586   -3.447610   -0.968858
     25          1           0        5.208266   -2.785816   -0.768841
     26          1           0        5.907642   -0.513293   -0.191133
     27          1           0        5.037504    2.064038    0.405010
     28          1           0        3.129175    3.549347    0.666395
     29          1           0        0.382368    3.824198    0.478134
     30          1           0       -1.939917    3.969164    0.164483
     31          1           0       -4.125923    2.983048   -0.342955
     32          1           0       -5.533010    1.032382   -0.724510
     33          1           0       -3.968793   -2.919662   -0.114221
     34          1           0       -5.866873   -1.420968   -0.740296
     35          1           0       -0.010909   -2.211895   -0.738403
     36          6           0       -1.473793   -2.556684    1.457964
     37          6           0       -1.651389   -3.762691    1.364369
     38          1           0       -1.912648   -4.764768    1.119492
     39          1           0       -1.070288   -1.685488    1.926541
 ---------------------------------------------------------------------
                    Distance matrix (angstroms):
                    1          2          3          4          5
     1  C    0.000000
     2  C    1.387171   0.000000
     3  C    2.452689   1.398445   0.000000
     4  C    2.903061   2.441283   1.390268   0.000000
     5  C    1.446153   2.391603   2.774895   2.468593   0.000000
     6  C    2.466009   2.761656   2.399800   1.447107   1.376091
     7  C    3.635934   2.307577   1.423360   2.528311   4.181324
     8  C    4.855478   3.622752   2.423945   2.924240   5.112056
     9  C    5.071378   4.104035   2.714914   2.454488   4.909815
    10  C    4.300193   3.670097   2.356551   1.409255   3.810324
    11  C    6.164261   4.852496   3.795268   4.369220   6.533929
    12  C    7.334115   6.087413   4.902945   5.177621   7.521443
    13  C    7.430137   6.338154   5.010690   4.890236   7.340825
    14  C    6.476401   5.533175   4.148140   3.749626   6.207375
    15  C    6.631054   5.253283   4.483340   5.343767   7.249424
    16  C    7.967388   6.583493   5.842859   6.675071   8.611498
    17  C    8.862550   7.500532   6.585079   7.205497   9.347712
    18  C    8.584553   7.286371   6.189544   6.564110   8.867058
    19  C    1.422130   2.367695   3.691843   4.314675   2.599327
    20  C    2.434399   2.695682   4.085704   5.047040   3.824014
    21  C    2.879250   2.387507   3.581327   4.806216   4.312044
    22  C    2.513698   1.417790   2.295665   3.619738   3.757305
    23  C    3.653777   2.298059   2.287616   3.646146   4.630906
    24  H    3.962717   3.397426   4.466740   5.762486   5.396287
    25  H    3.409666   3.780211   5.169507   6.116923   4.720762
    26  H    2.184887   3.369196   4.614515   5.031955   2.910303
    27  H    2.190176   3.380664   3.860048   3.443998   1.085299
    28  H    3.442147   3.846741   3.386334   2.188738   2.127454
    29  H    5.014314   4.590577   3.360462   2.174585   4.250478
    30  H    6.899143   6.122883   4.738966   4.037686   6.408483
    31  H    8.457167   7.397277   6.058955   5.839640   8.294035
    32  H    9.464557   8.204548   7.044518   7.273759   9.644579
    33  H    8.458888   7.077698   6.503026   7.456228   9.230624
    34  H    9.909168   8.539527   7.657353   8.288451  10.423064
    35  H    4.658721   3.338850   3.331574   4.655740   5.696325
    36  C    6.211477   4.928429   4.561986   5.626828   7.031081
    37  C    6.962973   5.715023   5.554870   6.714554   7.927085
    38  H    7.738543   6.516409   6.469753   7.681653   8.791466
    39  H    5.645813   4.414104   3.906610   4.837009   6.313800
                    6          7          8          9         10
     6  C    0.000000
     7  C    3.773552   0.000000
     8  C    4.359296   1.423604   0.000000
     9  C    3.842226   2.443710   1.449607   0.000000
    10  C    2.586161   2.857852   2.514178   1.412339   0.000000
    11  C    5.806973   2.545052   1.448739   2.492934   3.808822
    12  C    6.615866   3.815293   2.490578   2.861228   4.271538
    13  C    6.248249   4.261313   2.852410   2.443521   3.703166
    14  C    5.030199   3.752648   2.482954   1.438097   2.448739
    15  C    6.726204   3.083965   2.532277   3.808088   5.025718
    16  C    8.073459   4.436340   3.798435   4.946271   6.251551
    17  C    8.645558   5.238130   4.288164   5.131646   6.528556
    18  C    8.006327   4.984875   3.777572   4.271206   5.681020
    19  C    3.823129   4.649400   5.988928   6.383050   5.701073
    20  C    4.886756   4.655910   6.073772   6.758605   6.344732
    21  C    5.060092   3.731717   5.139530   6.055472   5.929480
    22  C    4.162307   2.345226   3.761431   4.670064   4.625258
    23  C    4.627062   1.436602   2.660205   3.857337   4.239283
    24  H    6.116023   4.342818   5.683393   6.755036   6.794166
    25  H    5.873857   5.689465   7.111242   7.835183   7.425003
    26  H    4.266626   5.673731   6.976341   7.253464   6.436437
    27  H    2.126886   5.265742   6.181429   5.895401   4.703378
    28  H    1.085201   4.689395   5.059987   4.270392   2.877358
    29  H    2.895356   3.941497   3.477013   2.150974   1.085413
    30  H    5.120806   4.604309   3.456170   2.168772   2.632897
    31  H    7.143910   5.342426   3.936599   3.428855   4.569424
    32  H    8.695798   5.920653   4.636431   4.879232   6.253669
    33  H    8.811125   5.092192   4.670470   5.908259   7.160092
    34  H    9.728566   6.297216   5.371912   6.188143   7.591643
    35  H    5.694171   2.246259   3.110909   4.476468   5.091854
    36  C    6.794842   3.409650   3.569239   4.867841   5.726755
    37  C    7.825819   4.408617   4.678817   6.031747   6.894482
    38  H    8.768582   5.314025   5.618393   7.005375   7.891686
    39  H    5.988652   2.918013   3.041001   4.177857   4.922875
                   11         12         13         14         15
    11  C    0.000000
    12  C    1.436106   0.000000
    13  C    2.475415   1.434151   0.000000
    14  C    2.837307   2.430435   1.355901   0.000000
    15  C    1.404720   2.402779   3.717343   4.227996   0.000000
    16  C    2.456927   2.810853   4.240953   5.074734   1.369453
    17  C    2.843185   2.433107   3.743173   4.861289   2.388413
    18  C    2.462893   1.410052   2.474940   3.714517   2.747908
    19  C    7.187200   8.443058   8.675155   7.800725   7.449066
    20  C    7.073450   8.415851   8.869618   8.174969   7.081853
    21  C    5.957199   7.335992   7.953119   7.428913   5.812341
    22  C    4.667077   6.028202   6.584718   6.042168   4.699005
    23  C    3.308966   4.698912   5.422423   5.099683   3.258048
    24  H    6.283858   7.674735   8.447972   8.071791   5.907523
    25  H    8.050980   9.409964   9.913954   9.247466   7.959947
    26  H    8.218220   9.444188   9.598353   8.652953   8.521060
    27  H    7.609978   8.567955   8.319297   7.136720   8.333243
    28  H    6.484492   7.125396   6.554207   5.248199   7.517604
    29  H    4.642863   4.847104   3.984437   2.630687   5.936345
    30  H    3.921505   3.416026   2.119423   1.084882   5.309488
    31  H    3.449033   2.170252   1.084960   2.123513   4.565916
    32  H    3.437885   2.151169   2.681463   4.032785   3.832122
    33  H    3.431721   3.892144   5.319328   6.127488   2.139558
    34  H    3.927778   3.416666   4.617990   5.821227   3.372444
    35  H    3.287131   4.659220   5.621408   5.552753   2.816168
    36  C    3.168788   4.368096   5.482075   5.657203   2.229009
    37  C    4.158775   5.287702   6.514444   6.795799   2.971431
    38  H    5.005922   6.062164   7.362746   7.733857   3.706791
    39  H    2.954489   4.168640   5.064664   5.041771   2.487802
                   16         17         18         19         20
    16  C    0.000000
    17  C    1.408549   0.000000
    18  C    2.411859   1.381698   0.000000
    19  C    8.728734   9.742010   9.613793   0.000000
    20  C    8.263205   9.387011   9.451086   1.393656   0.000000
    21  C    6.933957   8.098358   8.268646   2.475975   1.417846
    22  C    5.925636   7.002425   7.041809   2.849632   2.414889
    23  C    4.487074   5.549430   5.631018   4.256634   3.849641
    24  H    6.880849   8.117104   8.459091   3.440238   2.167879
    25  H    9.080682  10.251114  10.394541   2.134904   1.084543
    26  H    9.808330  10.808883  10.644662   1.084857   2.148365
    27  H    9.695868  10.428642   9.925240   2.891744   4.260449
    28  H    8.839462   9.295918   8.533871   4.717321   5.874528
    29  H    7.093026   7.217451   6.228461   6.432672   7.211128
    30  H    6.128570   5.822122   4.591585   8.277176   8.798947
    31  H    4.848827   4.062294   2.686078   9.720396   9.937000
    32  H    3.398270   2.142812   1.084747  10.544987  10.441445
    33  H    1.083958   2.168938   3.393394   9.083140   8.472805
    34  H    2.163972   1.084790   2.145647  10.749122  10.332046
    35  H    3.847900   5.024610   5.349489   5.100340   4.462544
    36  C    2.966573   4.252243   4.791282   6.794513   6.280737
    37  C    3.293070   4.662385   5.475481   7.345190   6.626637
    38  H    3.727307   5.076911   6.071201   7.983479   7.122762
    39  H    3.490796   4.598866   4.846427   6.375562   6.067770
                   21         22         23         24         25
    21  C    0.000000
    22  C    1.393296   0.000000
    23  C    2.652034   1.453345   0.000000
    24  H    1.084578   2.173517   3.040030   0.000000
    25  H    2.153183   3.388172   4.772490   2.462714   0.000000
    26  H    3.445726   3.933709   5.339826   4.312468   2.446883
    27  H    5.018195   4.675289   5.660654   6.088897   4.992812
    28  H    6.129312   5.246226   5.654553   7.191137   6.820323
    29  H    6.911260   5.646098   5.320485   7.812522   8.278679
    30  H    8.180350   6.807076   5.998945   8.898565   9.879138
    31  H    9.023264   7.659239   6.486952   9.504373  10.981268
    32  H    9.288286   8.040730   6.651179   9.503376  11.399808
    33  H    7.095721   6.248097   4.873344   6.887036   9.201351
    34  H    9.009995   7.974143   6.522660   8.947013  11.158957
    35  H    3.105350   2.257087   1.078090   3.119928   5.250724
    36  C    5.042034   4.189065   3.087705   5.033052   7.047061
    37  C    5.333380   4.750426   3.768352   5.075137   7.249809
    38  H    5.807073   5.418616   4.512673   5.359793   7.628202
    39  H    4.967008   3.961982   2.959245   5.178286   6.920697
                   26         27         28         29         30
    26  H    0.000000
    27  H    2.784809   0.000000
    28  H    4.996026   2.432321   0.000000
    29  H    7.056231   4.977329   2.766936   0.000000
    30  H    9.044505   7.236834   5.111150   2.347850   0.000000
    31  H   10.626376   9.239720   7.346831   4.659014   2.451232
    32  H   11.556908  10.680632   9.127057   6.650736   4.724967
    33  H   10.165653  10.306321   9.635278   8.047555   7.186789
    34  H   11.822210  11.504887  10.373605   8.249203   6.730017
    35  H    6.181747   6.713976   6.710104   6.170012   6.537719
    36  C    7.834574   8.053370   7.687491   6.717221   6.669112
    37  C    8.373597   8.922580   8.763952   7.904585   7.829723
    38  H    8.997206   9.769733   9.733950   8.913404   8.786032
    39  H    7.385803   7.326604   6.828393   5.879178   5.986334
                   31         32         33         34         35
    31  H    0.000000
    32  H    2.435277   0.000000
    33  H    5.909230   4.293935   0.000000
    34  H    4.752278   2.476013   2.498152   0.000000
    35  H    6.639063   6.404618   4.068831   5.909136   0.000000
    36  C    6.400448   5.841389   2.971287   5.041959   2.661379
    37  C    7.385341   6.513303   2.875289   5.261519   3.085092
    38  H    8.189383   7.079146   3.025590   5.502336   3.685858
    39  H    6.023516   5.859247   3.753562   5.494472   2.915701
                   36         37         38         39
    36  C    0.000000
    37  C    1.222601   0.000000
    38  H    2.276575   1.064133   0.000000
    39  H    1.068346   2.229011   3.292850   0.000000
 Stoichiometry    C25H14(3)
 Framework group  C1[X(C25H14)]
 Deg. of freedom   111
 Full point group                 C1      NOp   1
 Largest Abelian subgroup         C1      NOp   1
 Largest concise Abelian subgroup C1      NOp   1
                         Standard orientation:                         
 ---------------------------------------------------------------------
 Center     Atomic      Atomic             Coordinates (Angstroms)
 Number     Number       Type             X           Y           Z
 ---------------------------------------------------------------------
      1          6           0       -3.871277   -0.253982    0.004408
      2          6           0       -2.556655    0.178920   -0.088366
      3          6           0       -1.454467   -0.663039    0.090340
      4          6           0       -1.594443   -2.024407    0.335143
      5          6           0       -4.035561   -1.658035    0.309375
      6          6           0       -2.956105   -2.498059    0.460238
      7          6           0       -0.251754    0.070556   -0.112821
      8          6           0        0.967408   -0.657214   -0.009654
      9          6           0        0.852592   -2.092669    0.156619
     10          6           0       -0.384157   -2.746162    0.351813
     11          6           0        2.289247   -0.072966   -0.110855
     12          6           0        3.424964   -0.929402   -0.308500
     13          6           0        3.253539   -2.350350   -0.217346
     14          6           0        2.042139   -2.894551    0.056193
     15          6           0        2.575310    1.299066   -0.016329
     16          6           0        3.808524    1.854107   -0.231998
     17          6           0        4.884175    1.002436   -0.550812
     18          6           0        4.694483   -0.366178   -0.552114
     19          6           0       -4.849725    0.747163   -0.246196
     20          6           0       -4.445383    2.039071   -0.577493
     21          6           0       -3.086511    2.428087   -0.688939
     22          6           0       -2.101374    1.475155   -0.438543
     23          6           0       -0.649955    1.405191   -0.464971
     24          1           0       -2.844586    3.447610   -0.968858
     25          1           0       -5.208266    2.785816   -0.768841
     26          1           0       -5.907642    0.513293   -0.191133
     27          1           0       -5.037504   -2.064038    0.405010
     28          1           0       -3.129175   -3.549347    0.666395
     29          1           0       -0.382368   -3.824198    0.478134
     30          1           0        1.939917   -3.969164    0.164483
     31          1           0        4.125923   -2.983048   -0.342955
     32          1           0        5.533010   -1.032382   -0.724510
     33          1           0        3.968793    2.919662   -0.114221
     34          1           0        5.866873    1.420968   -0.740296
     35          1           0        0.010909    2.211895   -0.738403
     36          6           0        1.473793    2.556684    1.457964
     37          6           0        1.651389    3.762691    1.364369
     38          1           0        1.912648    4.764768    1.119492
     39          1           0        1.070288    1.685488    1.926541
 ---------------------------------------------------------------------
 Rotational constants (GHZ):           0.4218244           0.1757588           0.1297595
 Standard basis: 6-311+G(d,p) (5D, 7F)
 There are   659 symmetry adapted cartesian basis functions of A   symmetry.
 There are   634 symmetry adapted basis functions of A   symmetry.
   634 basis functions,  1012 primitive gaussians,   659 cartesian basis functions
    83 alpha electrons       81 beta electrons
       nuclear repulsion energy      1896.2671860491 Hartrees.
 NAtoms=   39 NActive=   39 NUniq=   39 SFac= 1.00D+00 NAtFMM=   60 NAOKFM=F Big=F
 Integral buffers will be    131072 words long.
 Raffenetti 2 integral format.
 Two-electron integral symmetry is turned on.
 One-electron integrals computed using PRISM.
 NBasis=   634 RedAO= T EigKep=  1.12D-06  NBF=   634
 NBsUse=   619 1.00D-06 EigRej=  9.73D-07 NBFU=   619
 ExpMin= 4.38D-02 ExpMax= 4.56D+03 ExpMxC= 6.82D+02 IAcc=2 IRadAn=         4 AccDes= 0.00D+00
 Harris functional with IExCor=  402 and IRadAn=       4 diagonalized for initial guess.
 HarFok:  IExCor=  402 AccDes= 0.00D+00 IRadAn=         4 IDoV= 1 UseB2=F ITyADJ=14
 ICtDFT=  3500011 ScaDFX=  1.000000  1.000000  1.000000  1.000000
 FoFCou: FMM=F IPFlag=           0 FMFlag=      100000 FMFlg1=           0
         NFxFlg=           0 DoJE=T BraDBF=F KetDBF=T FulRan=T
         wScrn=  0.000000 ICntrl=       500 IOpCl=  0 I1Cent=   200000004 NGrid=           0
         NMat0=    1 NMatS0=      1 NMatT0=    0 NMatD0=    1 NMtDS0=    0 NMtDT0=    0
 Petite list used in FoFCou.
 Initial guess <Sx>= 0.0000 <Sy>= 0.0000 <Sz>= 1.0000 <S**2>= 2.0000 S= 1.0000
 Requested convergence on RMS density matrix=1.00D-08 within 128 cycles.
 Requested convergence on MAX density matrix=1.00D-06.
 Requested convergence on             energy=1.00D-06.
 No special actions if energy rises.
 Restarting incremental Fock formation.
 SCF Done:  E(UB3LYP) =  -961.147978512     A.U. after   24 cycles
            NFock= 24  Conv=0.53D-08     -V/T= 2.0045
 <Sx>= 0.0000 <Sy>= 0.0000 <Sz>= 1.0000 <S**2>= 2.0662 S= 1.0219
 <L.S>=  0.00000000000    
 Annihilation of the first spin contaminant:
 S**2 before annihilation     2.0662,   after     2.0027
 DoSCS=F DFT=T ScalE2(SS,OS)=  1.000000  1.000000
 Range of M.O.s used for correlation:     1   619
 NBasis=   634 NAE=    83 NBE=    81 NFC=     0 NFV=     0
 NROrb=    619 NOA=    83 NOB=    81 NVA=   536 NVB=   538

 **** Warning!!: The largest alpha MO coefficient is  0.11916684D+03


 **** Warning!!: The largest beta MO coefficient is  0.12005274D+03


 **** Warning!!: The smallest beta delta epsilon is  0.87362884D-01

 Symmetrizing basis deriv contribution to polar:
 IMax=3 JMax=2 DiffMx= 0.00D+00
 G2DrvN: will do    40 centers at a time, making    1 passes.
 Calling FoFCou, ICntrl=  3107 FMM=F I1Cent=   0 AccDes= 0.00D+00.
 End of G2Drv F.D. properties file   721 does not exist.
 End of G2Drv F.D. properties file   722 does not exist.
 End of G2Drv F.D. properties file   788 does not exist.
          IDoAtm=111111111111111111111111111111111111111
          Differentiating once with respect to nuclear coordinates.
 CalDSu exits because no D1Ps are significant.
          There are   120 degrees of freedom in the 1st order CPHF.  IDoFFX=6 NUNeed=     0.
    114 vectors produced by pass  0 Test12= 8.81D-14 1.00D-09 XBig12= 5.94D-01 2.43D-01.
 AX will form   114 AO Fock derivatives at one time.
    114 vectors produced by pass  1 Test12= 8.81D-14 1.00D-09 XBig12= 1.85D-01 6.38D-02.
    114 vectors produced by pass  2 Test12= 8.81D-14 1.00D-09 XBig12= 2.86D-03 9.99D-03.
    114 vectors produced by pass  3 Test12= 8.81D-14 1.00D-09 XBig12= 4.76D-05 1.06D-03.
    114 vectors produced by pass  4 Test12= 8.81D-14 1.00D-09 XBig12= 4.68D-07 8.25D-05.
    114 vectors produced by pass  5 Test12= 8.81D-14 1.00D-09 XBig12= 3.15D-09 4.11D-06.
    114 vectors produced by pass  6 Test12= 8.81D-14 1.00D-09 XBig12= 6.45D-11 4.29D-07.
    105 vectors produced by pass  7 Test12= 8.81D-14 1.00D-09 XBig12= 2.05D-11 2.61D-07.
     66 vectors produced by pass  8 Test12= 8.81D-14 1.00D-09 XBig12= 2.11D-12 7.64D-08.
     30 vectors produced by pass  9 Test12= 8.81D-14 1.00D-09 XBig12= 4.41D-14 1.32D-08.
      4 vectors produced by pass 10 Test12= 8.81D-14 1.00D-09 XBig12= 4.40D-16 1.61D-09.
      2 vectors produced by pass 11 Test12= 8.81D-14 1.00D-09 XBig12= 9.57D-16 1.71D-09.
      2 vectors produced by pass 12 Test12= 8.81D-14 1.00D-09 XBig12= 7.78D-16 1.66D-09.
      1 vectors produced by pass 13 Test12= 8.81D-14 1.00D-09 XBig12= 4.29D-16 1.23D-09.
 InvSVY:  IOpt=1 It=  1 EMax= 1.22D-15
 Solved reduced A of dimension  1008 with   120 vectors.
 End of Minotr F.D. properties file   721 does not exist.
 End of Minotr F.D. properties file   722 does not exist.
 End of Minotr F.D. properties file   788 does not exist.

 **********************************************************************

            Population analysis using the SCF Density.

 **********************************************************************

 Orbital symmetries:
 Alpha Orbitals:
       Occupied  (A) (A) (A) (A) (A) (A) (A) (A) (A) (A) (A) (A)
                 (A) (A) (A) (A) (A) (A) (A) (A) (A) (A) (A) (A)
                 (A) (A) (A) (A) (A) (A) (A) (A) (A) (A) (A) (A)
                 (A) (A) (A) (A) (A) (A) (A) (A) (A) (A) (A) (A)
                 (A) (A) (A) (A) (A) (A) (A) (A) (A) (A) (A) (A)
                 (A) (A) (A) (A) (A) (A) (A) (A) (A) (A) (A) (A)
                 (A) (A) (A) (A) (A) (A) (A) (A) (A) (A) (A)
       Virtual   (A) (A) (A) (A) (A) (A) (A) (A) (A) (A) (A) (A)
                 (A) (A) (A) (A) (A) (A) (A) (A) (A) (A) (A) (A)
                 (A) (A) (A) (A) (A) (A) (A) (A) (A) (A) (A) (A)
                 (A) (A) (A) (A) (A) (A) (A) (A) (A) (A) (A) (A)
                 (A) (A) (A) (A) (A) (A) (A) (A) (A) (A) (A) (A)
                 (A) (A) (A) (A) (A) (A) (A) (A) (A) (A) (A) (A)
                 (A) (A) (A) (A) (A) (A) (A) (A) (A) (A) (A) (A)
                 (A) (A) (A) (A) (A) (A) (A) (A) (A) (A) (A) (A)
                 (A) (A) (A) (A) (A) (A) (A) (A) (A) (A) (A) (A)
                 (A) (A) (A) (A) (A) (A) (A) (A) (A) (A) (A) (A)
                 (A) (A) (A) (A) (A) (A) (A) (A) (A) (A) (A) (A)
                 (A) (A) (A) (A) (A) (A) (A) (A) (A) (A) (A) (A)
                 (A) (A) (A) (A) (A) (A) (A) (A) (A) (A) (A) (A)
                 (A) (A) (A) (A) (A) (A) (A) (A) (A) (A) (A) (A)
                 (A) (A) (A) (A) (A) (A) (A) (A) (A) (A) (A) (A)
                 (A) (A) (A) (A) (A) (A) (A) (A) (A) (A) (A) (A)
                 (A) (A) (A) (A) (A) (A) (A) (A) (A) (A) (A) (A)
                 (A) (A) (A) (A) (A) (A) (A) (A) (A) (A) (A) (A)
                 (A) (A) (A) (A) (A) (A) (A) (A) (A) (A) (A) (A)
                 (A) (A) (A) (A) (A) (A) (A) (A) (A) (A) (A) (A)
                 (A) (A) (A) (A) (A) (A) (A) (A) (A) (A) (A) (A)
                 (A) (A) (A) (A) (A) (A) (A) (A) (A) (A) (A) (A)
                 (A) (A) (A) (A) (A) (A) (A) (A) (A) (A) (A) (A)
                 (A) (A) (A) (A) (A) (A) (A) (A) (A) (A) (A) (A)
                 (A) (A) (A) (A) (A) (A) (A) (A) (A) (A) (A) (A)
                 (A) (A) (A) (A) (A) (A) (A) (A) (A) (A) (A) (A)
                 (A) (A) (A) (A) (A) (A) (A) (A) (A) (A) (A) (A)
                 (A) (A) (A) (A) (A) (A) (A) (A) (A) (A) (A) (A)
                 (A) (A) (A) (A) (A) (A) (A) (A) (A) (A) (A) (A)
                 (A) (A) (A) (A) (A) (A) (A) (A) (A) (A) (A) (A)
                 (A) (A) (A) (A) (A) (A) (A) (A) (A) (A) (A) (A)
                 (A) (A) (A) (A) (A) (A) (A) (A) (A) (A) (A) (A)
                 (A) (A) (A) (A) (A) (A) (A) (A) (A) (A) (A) (A)
                 (A) (A) (A) (A) (A) (A) (A) (A) (A) (A) (A) (A)
                 (A) (A) (A) (A) (A) (A) (A) (A) (A) (A) (A) (A)
                 (A) (A) (A) (A) (A) (A) (A) (A) (A) (A) (A) (A)
                 (A) (A) (A) (A) (A) (A) (A) (A) (A) (A) (A) (A)
                 (A) (A) (A) (A) (A) (A) (A) (A) (A) (A) (A) (A)
                 (A) (A) (A) (A) (A) (A) (A) (A) (A) (A) (A) (A)
                 (A) (A) (A) (A) (A) (A) (A) (A) (A) (A) (A) (A)
                 (A) (A) (A) (A) (A) (A) (A) (A) (A) (A) (A) (A)
                 (A) (A) (A) (A) (A) (A) (A) (A) (A) (A) (A) (A)
                 (A) (A) (A) (A) (A) (A) (A) (A) (A) (A) (A) (A)
                 (A) (A) (A) (A) (A) (A) (A) (A) (A) (A) (A) (A)
                 (A) (A) (A) (A) (A) (A) (A) (A)
 Beta  Orbitals:
       Occupied  (A) (A) (A) (A) (A) (A) (A) (A) (A) (A) (A) (A)
                 (A) (A) (A) (A) (A) (A) (A) (A) (A) (A) (A) (A)
                 (A) (A) (A) (A) (A) (A) (A) (A) (A) (A) (A) (A)
                 (A) (A) (A) (A) (A) (A) (A) (A) (A) (A) (A) (A)
                 (A) (A) (A) (A) (A) (A) (A) (A) (A) (A) (A) (A)
                 (A) (A) (A) (A) (A) (A) (A) (A) (A) (A) (A) (A)
                 (A) (A) (A) (A) (A) (A) (A) (A) (A)
       Virtual   (A) (A) (A) (A) (A) (A) (A) (A) (A) (A) (A) (A)
                 (A) (A) (A) (A) (A) (A) (A) (A) (A) (A) (A) (A)
                 (A) (A) (A) (A) (A) (A) (A) (A) (A) (A) (A) (A)
                 (A) (A) (A) (A) (A) (A) (A) (A) (A) (A) (A) (A)
                 (A) (A) (A) (A) (A) (A) (A) (A) (A) (A) (A) (A)
                 (A) (A) (A) (A) (A) (A) (A) (A) (A) (A) (A) (A)
                 (A) (A) (A) (A) (A) (A) (A) (A) (A) (A) (A) (A)
                 (A) (A) (A) (A) (A) (A) (A) (A) (A) (A) (A) (A)
                 (A) (A) (A) (A) (A) (A) (A) (A) (A) (A) (A) (A)
                 (A) (A) (A) (A) (A) (A) (A) (A) (A) (A) (A) (A)
                 (A) (A) (A) (A) (A) (A) (A) (A) (A) (A) (A) (A)
                 (A) (A) (A) (A) (A) (A) (A) (A) (A) (A) (A) (A)
                 (A) (A) (A) (A) (A) (A) (A) (A) (A) (A) (A) (A)
                 (A) (A) (A) (A) (A) (A) (A) (A) (A) (A) (A) (A)
                 (A) (A) (A) (A) (A) (A) (A) (A) (A) (A) (A) (A)
                 (A) (A) (A) (A) (A) (A) (A) (A) (A) (A) (A) (A)
                 (A) (A) (A) (A) (A) (A) (A) (A) (A) (A) (A) (A)
                 (A) (A) (A) (A) (A) (A) (A) (A) (A) (A) (A) (A)
                 (A) (A) (A) (A) (A) (A) (A) (A) (A) (A) (A) (A)
                 (A) (A) (A) (A) (A) (A) (A) (A) (A) (A) (A) (A)
                 (A) (A) (A) (A) (A) (A) (A) (A) (A) (A) (A) (A)
                 (A) (A) (A) (A) (A) (A) (A) (A) (A) (A) (A) (A)
                 (A) (A) (A) (A) (A) (A) (A) (A) (A) (A) (A) (A)
                 (A) (A) (A) (A) (A) (A) (A) (A) (A) (A) (A) (A)
                 (A) (A) (A) (A) (A) (A) (A) (A) (A) (A) (A) (A)
                 (A) (A) (A) (A) (A) (A) (A) (A) (A) (A) (A) (A)
                 (A) (A) (A) (A) (A) (A) (A) (A) (A) (A) (A) (A)
                 (A) (A) (A) (A) (A) (A) (A) (A) (A) (A) (A) (A)
                 (A) (A) (A) (A) (A) (A) (A) (A) (A) (A) (A) (A)
                 (A) (A) (A) (A) (A) (A) (A) (A) (A) (A) (A) (A)
                 (A) (A) (A) (A) (A) (A) (A) (A) (A) (A) (A) (A)
                 (A) (A) (A) (A) (A) (A) (A) (A) (A) (A) (A) (A)
                 (A) (A) (A) (A) (A) (A) (A) (A) (A) (A) (A) (A)
                 (A) (A) (A) (A) (A) (A) (A) (A) (A) (A) (A) (A)
                 (A) (A) (A) (A) (A) (A) (A) (A) (A) (A) (A) (A)
                 (A) (A) (A) (A) (A) (A) (A) (A) (A) (A) (A) (A)
                 (A) (A) (A) (A) (A) (A) (A) (A) (A) (A) (A) (A)
                 (A) (A) (A) (A) (A) (A) (A) (A) (A) (A) (A) (A)
                 (A) (A) (A) (A) (A) (A) (A) (A) (A) (A) (A) (A)
                 (A) (A) (A) (A) (A) (A) (A) (A) (A) (A) (A) (A)
                 (A) (A) (A) (A) (A) (A) (A) (A) (A) (A) (A) (A)
                 (A) (A) (A) (A) (A) (A) (A) (A) (A) (A) (A) (A)
                 (A) (A) (A) (A) (A) (A) (A) (A) (A) (A) (A) (A)
                 (A) (A) (A) (A) (A) (A) (A) (A) (A) (A) (A) (A)
                 (A) (A) (A) (A) (A) (A) (A) (A) (A) (A)
 The electronic state is 3-A.
 Alpha  occ. eigenvalues --  -10.20600 -10.20304 -10.19870 -10.19668 -10.19641
 Alpha  occ. eigenvalues --  -10.19501 -10.19252 -10.19241 -10.19184 -10.19026
 Alpha  occ. eigenvalues --  -10.18988 -10.18907 -10.18845 -10.18732 -10.18680
 Alpha  occ. eigenvalues --  -10.18608 -10.18601 -10.18402 -10.18242 -10.18230
 Alpha  occ. eigenvalues --  -10.18131 -10.18126 -10.18040 -10.17166 -10.16608
 Alpha  occ. eigenvalues --   -0.91417  -0.88762  -0.85675  -0.83691  -0.82855
 Alpha  occ. eigenvalues --   -0.79389  -0.78477  -0.76945  -0.75409  -0.74590
 Alpha  occ. eigenvalues --   -0.73054  -0.71397  -0.69780  -0.64729  -0.64211
 Alpha  occ. eigenvalues --   -0.62177  -0.60497  -0.59365  -0.58800  -0.57775
 Alpha  occ. eigenvalues --   -0.56012  -0.52979  -0.52042  -0.51714  -0.50598
 Alpha  occ. eigenvalues --   -0.49765  -0.48066  -0.47847  -0.46719  -0.45575
 Alpha  occ. eigenvalues --   -0.44143  -0.43857  -0.43275  -0.43026  -0.42045
 Alpha  occ. eigenvalues --   -0.41657  -0.40713  -0.40489  -0.39935  -0.39724
 Alpha  occ. eigenvalues --   -0.37664  -0.37027  -0.36635  -0.35323  -0.34854
 Alpha  occ. eigenvalues --   -0.34134  -0.33683  -0.33562  -0.32275  -0.30667
 Alpha  occ. eigenvalues --   -0.29443  -0.29227  -0.25842  -0.25130  -0.24200
 Alpha  occ. eigenvalues --   -0.21872  -0.21184  -0.19017
 Alpha virt. eigenvalues --   -0.06947  -0.05641  -0.02388  -0.01444   0.00015
 Alpha virt. eigenvalues --    0.00442   0.00587   0.00738   0.00802   0.01722
 Alpha virt. eigenvalues --    0.01992   0.02078   0.02593   0.02939   0.03235
 Alpha virt. eigenvalues --    0.03487   0.03933   0.04026   0.04856   0.04958
 Alpha virt. eigenvalues --    0.05568   0.05807   0.06194   0.06421   0.07008
 Alpha virt. eigenvalues --    0.07447   0.07542   0.07878   0.08060   0.08497
 Alpha virt. eigenvalues --    0.09268   0.09401   0.09685   0.10380   0.10451
 Alpha virt. eigenvalues --    0.10929   0.11272   0.11626   0.11892   0.12358
 Alpha virt. eigenvalues --    0.12790   0.13047   0.13344   0.13896   0.14063
 Alpha virt. eigenvalues --    0.14715   0.14844   0.15017   0.15433   0.15454
 Alpha virt. eigenvalues --    0.16061   0.16152   0.16304   0.16556   0.16849
 Alpha virt. eigenvalues --    0.17264   0.17526   0.17595   0.17816   0.17876
 Alpha virt. eigenvalues --    0.18386   0.18772   0.18995   0.19374   0.19406
 Alpha virt. eigenvalues --    0.19800   0.19995   0.20099   0.20313   0.20554
 Alpha virt. eigenvalues --    0.20648   0.20827   0.21254   0.21334   0.21661
 Alpha virt. eigenvalues --    0.21982   0.22381   0.22602   0.22837   0.23124
 Alpha virt. eigenvalues --    0.23343   0.23421   0.23730   0.24160   0.24447
 Alpha virt. eigenvalues --    0.24652   0.24788   0.25412   0.25614   0.25698
 Alpha virt. eigenvalues --    0.26065   0.26265   0.26683   0.27136   0.27275
 Alpha virt. eigenvalues --    0.27795   0.28011   0.28338   0.28497   0.28711
 Alpha virt. eigenvalues --    0.29456   0.29824   0.30192   0.30408   0.30564
 Alpha virt. eigenvalues --    0.31079   0.31239   0.31529   0.31638   0.32036
 Alpha virt. eigenvalues --    0.32633   0.33202   0.33429   0.33614   0.34571
 Alpha virt. eigenvalues --    0.34783   0.34939   0.35802   0.36295   0.36663
 Alpha virt. eigenvalues --    0.37923   0.38734   0.39206   0.39735   0.40231
 Alpha virt. eigenvalues --    0.42125   0.42662   0.42797   0.43528   0.43682
 Alpha virt. eigenvalues --    0.44520   0.45489   0.46047   0.47657   0.48405
 Alpha virt. eigenvalues --    0.48841   0.49344   0.50790   0.52042   0.52459
 Alpha virt. eigenvalues --    0.52720   0.53239   0.53460   0.54058   0.54234
 Alpha virt. eigenvalues --    0.54683   0.54817   0.55208   0.55545   0.55976
 Alpha virt. eigenvalues --    0.56751   0.57311   0.57459   0.57858   0.58347
 Alpha virt. eigenvalues --    0.58371   0.58957   0.59533   0.59892   0.60351
 Alpha virt. eigenvalues --    0.60550   0.61113   0.61601   0.61945   0.62259
 Alpha virt. eigenvalues --    0.62608   0.63084   0.64461   0.64689   0.64914
 Alpha virt. eigenvalues --    0.65019   0.65684   0.66243   0.66780   0.67111
 Alpha virt. eigenvalues --    0.67517   0.67840   0.68712   0.69058   0.69561
 Alpha virt. eigenvalues --    0.69787   0.70446   0.70800   0.70966   0.71573
 Alpha virt. eigenvalues --    0.72223   0.72693   0.73043   0.73234   0.73500
 Alpha virt. eigenvalues --    0.73992   0.74487   0.74865   0.75625   0.75921
 Alpha virt. eigenvalues --    0.76178   0.76840   0.77166   0.77554   0.78874
 Alpha virt. eigenvalues --    0.79787   0.80660   0.81151   0.82327   0.82819
 Alpha virt. eigenvalues --    0.83059   0.83745   0.84560   0.85196   0.85936
 Alpha virt. eigenvalues --    0.86562   0.87618   0.88101   0.88618   0.89486
 Alpha virt. eigenvalues --    0.90053   0.90465   0.90877   0.92068   0.92650
 Alpha virt. eigenvalues --    0.92805   0.93125   0.94033   0.94135   0.94597
 Alpha virt. eigenvalues --    0.95177   0.95988   0.96328   0.96390   0.97029
 Alpha virt. eigenvalues --    0.97384   0.97838   0.98387   0.99761   1.00018
 Alpha virt. eigenvalues --    1.00314   1.00661   1.01342   1.01812   1.02537
 Alpha virt. eigenvalues --    1.03634   1.03953   1.04979   1.05950   1.06172
 Alpha virt. eigenvalues --    1.06837   1.07815   1.08435   1.09170   1.09481
 Alpha virt. eigenvalues --    1.10348   1.10732   1.11328   1.12144   1.12905
 Alpha virt. eigenvalues --    1.13092   1.14833   1.14997   1.15772   1.16410
 Alpha virt. eigenvalues --    1.17489   1.18271   1.20435   1.21264   1.22532
 Alpha virt. eigenvalues --    1.24836   1.27350   1.28217   1.30540   1.32114
 Alpha virt. eigenvalues --    1.32483   1.33460   1.35394   1.35830   1.36839
 Alpha virt. eigenvalues --    1.39454   1.40335   1.43626   1.43808   1.45481
 Alpha virt. eigenvalues --    1.45859   1.46935   1.47375   1.48215   1.48757
 Alpha virt. eigenvalues --    1.49522   1.49791   1.50350   1.51116   1.51557
 Alpha virt. eigenvalues --    1.52889   1.53439   1.54691   1.54936   1.55709
 Alpha virt. eigenvalues --    1.56006   1.56092   1.56282   1.57461   1.58698
 Alpha virt. eigenvalues --    1.59388   1.60015   1.61063   1.62086   1.62486
 Alpha virt. eigenvalues --    1.62900   1.65015   1.66255   1.67316   1.68107
 Alpha virt. eigenvalues --    1.68627   1.69829   1.71024   1.71885   1.72997
 Alpha virt. eigenvalues --    1.73718   1.74039   1.74408   1.75232   1.76050
 Alpha virt. eigenvalues --    1.76194   1.77125   1.78445   1.78952   1.80097
 Alpha virt. eigenvalues --    1.81688   1.81814   1.82577   1.83936   1.84408
 Alpha virt. eigenvalues --    1.85043   1.85521   1.86318   1.87442   1.88440
 Alpha virt. eigenvalues --    1.88545   1.89045   1.89882   1.90268   1.91215
 Alpha virt. eigenvalues --    1.91342   1.91746   1.91989   1.92909   1.93427
 Alpha virt. eigenvalues --    1.93848   1.94480   1.95783   1.96350   1.97099
 Alpha virt. eigenvalues --    1.99414   1.99661   2.00588   2.01698   2.02438
 Alpha virt. eigenvalues --    2.03165   2.03815   2.04400   2.05483   2.06003
 Alpha virt. eigenvalues --    2.07371   2.08396   2.10250   2.11906   2.12345
 Alpha virt. eigenvalues --    2.12740   2.14415   2.15419   2.17747   2.17786
 Alpha virt. eigenvalues --    2.19974   2.21048   2.22245   2.22342   2.23356
 Alpha virt. eigenvalues --    2.25271   2.26031   2.28345   2.29421   2.32554
 Alpha virt. eigenvalues --    2.33354   2.34630   2.35789   2.37510   2.38104
 Alpha virt. eigenvalues --    2.38612   2.40748   2.41760   2.43145   2.43699
 Alpha virt. eigenvalues --    2.44005   2.44209   2.45484   2.47171   2.49654
 Alpha virt. eigenvalues --    2.49814   2.53968   2.56290   2.56797   2.59405
 Alpha virt. eigenvalues --    2.59985   2.61621   2.63698   2.63781   2.65152
 Alpha virt. eigenvalues --    2.65940   2.67758   2.68625   2.69475   2.70813
 Alpha virt. eigenvalues --    2.70905   2.71433   2.72054   2.72267   2.72914
 Alpha virt. eigenvalues --    2.73138   2.74269   2.75227   2.75437   2.75729
 Alpha virt. eigenvalues --    2.76427   2.76600   2.76998   2.77665   2.78337
 Alpha virt. eigenvalues --    2.78997   2.79245   2.80224   2.80793   2.81869
 Alpha virt. eigenvalues --    2.83078   2.83660   2.83968   2.84803   2.85355
 Alpha virt. eigenvalues --    2.86210   2.87471   2.87666   2.89090   2.90087
 Alpha virt. eigenvalues --    2.90901   2.92292   2.93063   2.93350   2.94912
 Alpha virt. eigenvalues --    2.99017   3.00095   3.01049   3.04551   3.04928
 Alpha virt. eigenvalues --    3.05145   3.07813   3.08970   3.10669   3.12610
 Alpha virt. eigenvalues --    3.13463   3.15243   3.16916   3.17144   3.19259
 Alpha virt. eigenvalues --    3.20786   3.21954   3.22886   3.23216   3.24485
 Alpha virt. eigenvalues --    3.27870   3.32586   3.34419   3.34944   3.36700
 Alpha virt. eigenvalues --    3.37843   3.39328   3.40137   3.41783   3.43701
 Alpha virt. eigenvalues --    3.45147   3.46719   3.47862   3.48613   3.51430
 Alpha virt. eigenvalues --    3.53167   3.55685   3.57562   3.58063   3.62461
 Alpha virt. eigenvalues --    3.63718   3.68234   3.68938   3.72213   3.74760
 Alpha virt. eigenvalues --    3.81685   3.83625   3.90480   3.96874   4.03001
 Alpha virt. eigenvalues --    4.04848   4.06952   4.09080   4.11255   4.12616
 Alpha virt. eigenvalues --    4.23018   4.25633   4.29974   4.36911   4.60961
 Alpha virt. eigenvalues --    4.72842   4.77322   4.79477   4.80474   4.81923
 Alpha virt. eigenvalues --    4.87333  23.43067  23.59842  23.60925  23.76096
 Alpha virt. eigenvalues --   23.81499  23.85028  23.90013  23.91370  23.92833
 Alpha virt. eigenvalues --   23.94716  23.96533  23.97641  23.99509  24.00832
 Alpha virt. eigenvalues --   24.04534  24.05734  24.09045  24.10270  24.11190
 Alpha virt. eigenvalues --   24.13938  24.15335  24.17559  24.18147  24.21517
 Alpha virt. eigenvalues --   24.94107
  Beta  occ. eigenvalues --  -10.20329 -10.19926 -10.19756 -10.19515 -10.19500
  Beta  occ. eigenvalues --  -10.19284 -10.19041 -10.18925 -10.18900 -10.18872
  Beta  occ. eigenvalues --  -10.18843 -10.18800 -10.18761 -10.18729 -10.18531
  Beta  occ. eigenvalues --  -10.18451 -10.18370 -10.18334 -10.18296 -10.18215
  Beta  occ. eigenvalues --  -10.18185 -10.18132 -10.18055 -10.16988 -10.16534
  Beta  occ. eigenvalues --   -0.91108  -0.88363  -0.85322  -0.83404  -0.82559
  Beta  occ. eigenvalues --   -0.78976  -0.78077  -0.76245  -0.75222  -0.74145
  Beta  occ. eigenvalues --   -0.72512  -0.71272  -0.68672  -0.64578  -0.63927
  Beta  occ. eigenvalues --   -0.61848  -0.59936  -0.59015  -0.58336  -0.57210
  Beta  occ. eigenvalues --   -0.55631  -0.52669  -0.51798  -0.51463  -0.50252
  Beta  occ. eigenvalues --   -0.49440  -0.47886  -0.47571  -0.46529  -0.45341
  Beta  occ. eigenvalues --   -0.43890  -0.43539  -0.43060  -0.42342  -0.41871
  Beta  occ. eigenvalues --   -0.41462  -0.40541  -0.40007  -0.39627  -0.39182
  Beta  occ. eigenvalues --   -0.37452  -0.36519  -0.36174  -0.34969  -0.34020
  Beta  occ. eigenvalues --   -0.33800  -0.33474  -0.33077  -0.30828  -0.30054
  Beta  occ. eigenvalues --   -0.28683  -0.28500  -0.25457  -0.24470  -0.22830
  Beta  occ. eigenvalues --   -0.21027
  Beta virt. eigenvalues --   -0.12291  -0.09694  -0.06090  -0.04952  -0.02175
  Beta virt. eigenvalues --   -0.00597   0.00092   0.00561   0.00737   0.00927
  Beta virt. eigenvalues --    0.01307   0.01754   0.02091   0.02335   0.03133
  Beta virt. eigenvalues --    0.03265   0.03481   0.03610   0.04098   0.04519
  Beta virt. eigenvalues --    0.04914   0.05087   0.05617   0.05939   0.06407
  Beta virt. eigenvalues --    0.06697   0.07159   0.07543   0.07655   0.08039
  Beta virt. eigenvalues --    0.08292   0.08660   0.09361   0.09668   0.09828
  Beta virt. eigenvalues --    0.10511   0.10708   0.11042   0.11461   0.11895
  Beta virt. eigenvalues --    0.11952   0.12460   0.12886   0.13281   0.13419
  Beta virt. eigenvalues --    0.14024   0.14177   0.14833   0.14894   0.15232
  Beta virt. eigenvalues --    0.15489   0.15610   0.16119   0.16249   0.16428
  Beta virt. eigenvalues --    0.16738   0.17002   0.17418   0.17621   0.17692
  Beta virt. eigenvalues --    0.17937   0.18081   0.18506   0.18847   0.19147
  Beta virt. eigenvalues --    0.19504   0.19577   0.19859   0.20139   0.20213
  Beta virt. eigenvalues --    0.20459   0.20644   0.20825   0.20933   0.21434
  Beta virt. eigenvalues --    0.21560   0.21724   0.22098   0.22526   0.22739
  Beta virt. eigenvalues --    0.23082   0.23185   0.23522   0.23680   0.23813
  Beta virt. eigenvalues --    0.24242   0.24562   0.24766   0.24868   0.25540
  Beta virt. eigenvalues --    0.25730   0.25770   0.26145   0.26372   0.26821
  Beta virt. eigenvalues --    0.27227   0.27487   0.27950   0.28108   0.28442
  Beta virt. eigenvalues --    0.28698   0.28842   0.29603   0.30030   0.30301
  Beta virt. eigenvalues --    0.30490   0.30716   0.31139   0.31348   0.31648
  Beta virt. eigenvalues --    0.31767   0.32252   0.32765   0.33402   0.33544
  Beta virt. eigenvalues --    0.33769   0.34794   0.35028   0.35097   0.35967
  Beta virt. eigenvalues --    0.36695   0.36889   0.38083   0.38840   0.39327
  Beta virt. eigenvalues --    0.39879   0.40409   0.42319   0.42813   0.43090
  Beta virt. eigenvalues --    0.43762   0.43866   0.44693   0.45673   0.46167
  Beta virt. eigenvalues --    0.47817   0.48606   0.49213   0.49661   0.51019
  Beta virt. eigenvalues --    0.52224   0.52619   0.53029   0.53501   0.53767
  Beta virt. eigenvalues --    0.54197   0.54565   0.54873   0.55141   0.55443
  Beta virt. eigenvalues --    0.55722   0.56367   0.56846   0.57527   0.57805
  Beta virt. eigenvalues --    0.58303   0.58631   0.58677   0.59261   0.59732
  Beta virt. eigenvalues --    0.60135   0.60763   0.60885   0.61377   0.61939
  Beta virt. eigenvalues --    0.62304   0.62722   0.62972   0.63280   0.64667
  Beta virt. eigenvalues --    0.64871   0.65183   0.65376   0.65894   0.66433
  Beta virt. eigenvalues --    0.67064   0.67553   0.67842   0.68214   0.68950
  Beta virt. eigenvalues --    0.69359   0.69859   0.70012   0.70648   0.71156
  Beta virt. eigenvalues --    0.71256   0.71698   0.72344   0.72789   0.73156
  Beta virt. eigenvalues --    0.73508   0.73693   0.74151   0.74673   0.75173
  Beta virt. eigenvalues --    0.75920   0.76268   0.76453   0.77004   0.77456
  Beta virt. eigenvalues --    0.77747   0.79209   0.79933   0.80867   0.81403
  Beta virt. eigenvalues --    0.82578   0.83201   0.83337   0.84123   0.84713
  Beta virt. eigenvalues --    0.85327   0.86174   0.86821   0.87906   0.88371
  Beta virt. eigenvalues --    0.88838   0.89690   0.90192   0.90641   0.91107
  Beta virt. eigenvalues --    0.92276   0.92790   0.93081   0.93335   0.94181
  Beta virt. eigenvalues --    0.94449   0.94732   0.95437   0.96145   0.96565
  Beta virt. eigenvalues --    0.96661   0.97284   0.97818   0.98147   0.98939
  Beta virt. eigenvalues --    0.99956   1.00211   1.00536   1.00997   1.01733
  Beta virt. eigenvalues --    1.02273   1.02779   1.03884   1.04316   1.05286
  Beta virt. eigenvalues --    1.06134   1.06318   1.07192   1.08225   1.08734
  Beta virt. eigenvalues --    1.09532   1.09693   1.10693   1.10966   1.11582
  Beta virt. eigenvalues --    1.12313   1.13277   1.13411   1.15134   1.15435
  Beta virt. eigenvalues --    1.16088   1.16740   1.17766   1.18494   1.20715
  Beta virt. eigenvalues --    1.21615   1.23049   1.25508   1.27803   1.28778
  Beta virt. eigenvalues --    1.31108   1.32462   1.33118   1.34259   1.35590
  Beta virt. eigenvalues --    1.36207   1.37827   1.40035   1.41356   1.43905
  Beta virt. eigenvalues --    1.44358   1.45631   1.46450   1.47155   1.47697
  Beta virt. eigenvalues --    1.48466   1.49183   1.49906   1.50009   1.50585
  Beta virt. eigenvalues --    1.51557   1.51830   1.53043   1.53774   1.55007
  Beta virt. eigenvalues --    1.55232   1.56075   1.56224   1.56461   1.56730
  Beta virt. eigenvalues --    1.57748   1.58955   1.59609   1.60297   1.61354
  Beta virt. eigenvalues --    1.62359   1.62601   1.63182   1.65138   1.66430
  Beta virt. eigenvalues --    1.67497   1.68346   1.68846   1.70131   1.71148
  Beta virt. eigenvalues --    1.72366   1.73211   1.73912   1.74245   1.74527
  Beta virt. eigenvalues --    1.75600   1.76314   1.76453   1.77419   1.79035
  Beta virt. eigenvalues --    1.79597   1.80553   1.82010   1.82259   1.82900
  Beta virt. eigenvalues --    1.84308   1.84693   1.85453   1.86152   1.86721
  Beta virt. eigenvalues --    1.87529   1.88725   1.88803   1.89313   1.90073
  Beta virt. eigenvalues --    1.90621   1.91474   1.91582   1.92060   1.92247
  Beta virt. eigenvalues --    1.93273   1.93689   1.94233   1.94807   1.96098
  Beta virt. eigenvalues --    1.96569   1.97837   1.99762   2.00074   2.00788
  Beta virt. eigenvalues --    2.02085   2.02820   2.03502   2.04161   2.04885
  Beta virt. eigenvalues --    2.05610   2.06345   2.07556   2.08890   2.10704
  Beta virt. eigenvalues --    2.12156   2.12684   2.12976   2.14797   2.15593
  Beta virt. eigenvalues --    2.17873   2.18062   2.20350   2.21241   2.22562
  Beta virt. eigenvalues --    2.22624   2.23736   2.25441   2.26692   2.28591
  Beta virt. eigenvalues --    2.29755   2.32888   2.33618   2.34849   2.36050
  Beta virt. eigenvalues --    2.37677   2.38467   2.38894   2.41143   2.42241
  Beta virt. eigenvalues --    2.43308   2.43858   2.44444   2.44491   2.45855
  Beta virt. eigenvalues --    2.47577   2.49998   2.50371   2.54151   2.56398
  Beta virt. eigenvalues --    2.56910   2.59624   2.60301   2.62124   2.64085
  Beta virt. eigenvalues --    2.64209   2.65354   2.66118   2.68146   2.69186
  Beta virt. eigenvalues --    2.69844   2.70978   2.71082   2.71483   2.72173
  Beta virt. eigenvalues --    2.72630   2.72969   2.73333   2.74395   2.75563
  Beta virt. eigenvalues --    2.75758   2.75944   2.76559   2.76813   2.77359
  Beta virt. eigenvalues --    2.77956   2.78535   2.79238   2.79479   2.80635
  Beta virt. eigenvalues --    2.81441   2.82495   2.83361   2.83933   2.84481
  Beta virt. eigenvalues --    2.85209   2.85684   2.86494   2.87752   2.88054
  Beta virt. eigenvalues --    2.89618   2.90293   2.91114   2.92402   2.93350
  Beta virt. eigenvalues --    2.93693   2.95291   2.99325   3.00236   3.01677
  Beta virt. eigenvalues --    3.04848   3.05080   3.06186   3.08157   3.09168
  Beta virt. eigenvalues --    3.10993   3.13245   3.13847   3.16429   3.17296
  Beta virt. eigenvalues --    3.17643   3.19578   3.21671   3.22271   3.23040
  Beta virt. eigenvalues --    3.23464   3.24673   3.28025   3.32690   3.34584
  Beta virt. eigenvalues --    3.35109   3.36837   3.38036   3.39498   3.40362
  Beta virt. eigenvalues --    3.42242   3.43786   3.45494   3.46888   3.48076
  Beta virt. eigenvalues --    3.48731   3.51518   3.53244   3.55865   3.57753
  Beta virt. eigenvalues --    3.58326   3.62862   3.63857   3.68416   3.69490
  Beta virt. eigenvalues --    3.72467   3.74967   3.81970   3.83951   3.90773
  Beta virt. eigenvalues --    3.97225   4.03143   4.05007   4.06989   4.09133
  Beta virt. eigenvalues --    4.11498   4.12738   4.23232   4.26031   4.30211
  Beta virt. eigenvalues --    4.37173   4.61271   4.73290   4.77468   4.79637
  Beta virt. eigenvalues --    4.80696   4.82239   4.87460  23.43184  23.60098
  Beta virt. eigenvalues --   23.61095  23.76251  23.81551  23.85163  23.90206
  Beta virt. eigenvalues --   23.91649  23.93153  23.94775  23.96870  23.97723
  Beta virt. eigenvalues --   23.99486  24.00997  24.04678  24.05901  24.09171
  Beta virt. eigenvalues --   24.10354  24.11514  24.13993  24.15386  24.17869
  Beta virt. eigenvalues --   24.18224  24.21527  24.94360
          Condensed to atoms (all electrons):
               1          2          3          4          5          6
     1  C   10.135159   1.719281  -0.432567   1.050300  -1.705236  -0.296113
     2  C    1.719281   8.017553   0.838687   0.636779  -0.088417   0.203812
     3  C   -0.432567   0.838687   7.814068   1.046169   1.069508  -0.324316
     4  C    1.050300   0.636779   1.046169  10.055960  -1.922163   0.606973
     5  C   -1.705236  -0.088417   1.069508  -1.922163   9.103450   0.870740
     6  C   -0.296113   0.203812  -0.324316   0.606973   0.870740   8.228540
     7  C   -0.359985  -1.791116   0.782753   0.060137  -0.142050  -0.648994
     8  C   -1.218440  -0.671439  -0.047040  -1.661735   0.394790  -0.758322
     9  C   -0.079082   0.264564  -0.211869   0.083547  -0.288097   0.042280
    10  C   -0.662531  -0.328601   0.249295   0.861030  -0.162713  -0.756957
    11  C   -0.097749  -0.254871   0.095321  -0.804306   0.044581  -0.204501
    12  C   -0.156286  -0.137301  -0.659913  -0.338178   0.046769  -0.004659
    13  C    0.014512  -0.004949  -0.135979   0.093876  -0.038475  -0.052602
    14  C   -0.061919   0.043690  -1.426195  -1.219087  -0.200630  -0.138371
    15  C   -0.223195  -0.536925  -0.696498  -0.663928   0.058688  -0.131777
    16  C   -0.028754  -0.129332  -0.118052  -0.110120   0.008625  -0.019394
    17  C    0.002998   0.021139   0.017753   0.001225  -0.001789   0.000241
    18  C   -0.025008  -0.051356  -0.363424  -0.110513   0.007865   0.000029
    19  C   -1.083727  -1.617358  -0.907138   0.190175  -0.734822   0.443321
    20  C    0.178665   0.842138  -0.121323  -0.215373  -0.370993  -0.095454
    21  C   -0.055592  -0.204892  -0.023649   0.041616  -0.031388  -0.102982
    22  C    0.337547   1.313265  -0.238767  -0.452921  -0.298441  -0.463109
    23  C   -0.976249  -1.988657  -0.139993  -1.420873   0.441922  -0.479679
    24  H   -0.012219   0.023088  -0.004075   0.001303  -0.003704  -0.001751
    25  H    0.016816  -0.011817   0.001422   0.001766   0.010824   0.000327
    26  H   -0.096991   0.023914  -0.012386   0.001003   0.035594   0.021043
    27  H   -0.085996   0.006675  -0.006056   0.027049   0.382039  -0.050988
    28  H   -0.046923   0.001157   0.027047  -0.106326  -0.005569   0.368191
    29  H    0.010406  -0.001476   0.000544  -0.035379   0.004672   0.041043
    30  H    0.000494   0.001490   0.013690   0.059263   0.000804   0.008306
    31  H   -0.000008  -0.000011  -0.000295   0.001538   0.000020   0.000191
    32  H   -0.000008   0.000003  -0.000356   0.000309   0.000002   0.000019
    33  H   -0.000004  -0.000018  -0.000455  -0.000334  -0.000004  -0.000020
    34  H   -0.000001  -0.000023  -0.000126   0.000008   0.000000   0.000000
    35  H   -0.001641   0.019796   0.026721   0.007049  -0.002608  -0.000389
    36  C   -0.011416   0.026377   0.047940   0.045413  -0.000009   0.009373
    37  C    0.002729   0.012926  -0.015123   0.001109   0.000981  -0.000541
    38  H    0.000024   0.000313  -0.000034  -0.000030  -0.000001  -0.000003
    39  H    0.004001   0.002631   0.001530  -0.004740  -0.000781  -0.000915
               7          8          9         10         11         12
     1  C   -0.359985  -1.218440  -0.079082  -0.662531  -0.097749  -0.156286
     2  C   -1.791116  -0.671439   0.264564  -0.328601  -0.254871  -0.137301
     3  C    0.782753  -0.047040  -0.211869   0.249295   0.095321  -0.659913
     4  C    0.060137  -1.661735   0.083547   0.861030  -0.804306  -0.338178
     5  C   -0.142050   0.394790  -0.288097  -0.162713   0.044581   0.046769
     6  C   -0.648994  -0.758322   0.042280  -0.756957  -0.204501  -0.004659
     7  C   10.465721   0.850719   0.579207   0.125461   0.539861   0.096694
     8  C    0.850719   8.799567  -0.177064   0.488557   2.181984  -0.339494
     9  C    0.579207  -0.177064  13.796922   1.224057   0.193865  -0.062306
    10  C    0.125461   0.488557   1.224057   8.371027  -0.648765  -0.765606
[...]
 95042,-0.00131532,0.00029053,-0.00017040,0.00009950,0.00000418,0.00003
 375,0.00012541,-0.00038778,0.00000819,-0.01731732,-0.00904249,-0.00425
 771,-0.00051235,0.00059982,0.00063771,0.00005471,-0.00021692,0.0000676
 4,0.00014224,0.00005677,-0.00001066,0.00026315,-0.00023984,-0.00022158
 ,0.00025197,-0.00005202,0.00005427,0.00002498,-0.00002707,0.00000987,-
 0.00008683,0.00001966,-0.00000536,-0.00042237,0.00039198,0.00018742,0.
 00025147,0.00010331,-0.00002048,-0.00000857,0.00011289,-0.00000602,-0.
 00012824,-0.00001597,-0.00003635,-0.00001521,0.00022592,0.00002983,-0.
 00030454,-0.00023920,0.00000150,-0.00033700,0.00020434,0.00043119,0.00
 383718,0.00765194,0.00194466,-0.13465057,-0.22293413,-0.06612087,-0.00
 023458,-0.00020175,-0.00016684,-0.00000161,-0.00000414,-0.00000752,-0.
 00001064,0.00000144,-0.00000973,-0.00000185,0.00004840,0.00005430,-0.0
 0013249,-0.00005397,0.00002978,0.00003270,-0.00003332,-0.00001563,0.00
 002010,-0.00001779,-0.00000031,0.00000990,0.00001431,0.00000317,0.0000
 0507,0.00000241,-0.00000457,-0.00001370,-0.00003357,0.00002661,-0.0000
 2159,0.00001127,0.00000558,0.14795425,0.22836456,0.00040705,-0.0004577
 0,0.00061430,0.00004376,-0.00111146,0.00261258,-0.00002878,-0.00244274
 ,0.00331842,-0.00090395,0.00039011,0.00061801,-0.00013141,0.00022724,-
 0.00012973,0.00026700,-0.00017732,-0.00025281,-0.00541522,-0.00090944,
 0.00179406,0.00062602,0.00000552,-0.00171189,0.00034602,0.00028893,-0.
 00007604,0.00011691,-0.00018868,0.00006291,-0.00016218,-0.00026386,-0.
 00003990,-0.00003383,0.00010341,-0.00003874,0.00002374,0.00004074,0.00
 006798,-0.00010523,-0.00000920,-0.00001715,0.00090004,-0.00066033,0.00
 017589,-0.00045785,0.00026172,-0.00006542,0.00008185,-0.00028051,0.000
 04808,0.00012609,0.00018275,0.00001155,-0.00015256,0.00030729,0.000191
 92,-0.00024924,-0.00005133,-0.00029903,-0.00004937,0.00052632,-0.00123
 695,0.00176858,0.00031921,0.00228761,-0.04753496,-0.06534505,-0.046647
 48,-0.00009687,-0.00012911,0.00032986,-0.00001085,-0.00001252,0.000020
 05,-0.00001194,-0.00000219,0.00004503,-0.00000491,0.00002659,-0.000154
 65,-0.00005448,0.00000166,-0.00013603,0.00000960,-0.00002818,0.0000317
 9,0.00001607,-0.00001061,-0.00000284,-0.00000020,0.00002063,0.00001632
 ,0.00000285,0.00001645,0.00000299,0.00002851,-0.00000823,0.00003336,-0
 .00002982,0.00002041,-0.00004563,0.04964823,0.06894459,0.03989553,-0.0
 0004910,0.00005933,0.00005158,-0.00009710,0.00024198,-0.00012233,0.000
 44429,0.00013129,0.00016417,0.00016145,-0.00022078,-0.00006973,0.00001
 683,-0.00009324,-0.00002816,-0.00009660,0.00004145,0.00000458,0.000107
 09,-0.00146491,0.00079223,-0.00182199,-0.00083703,0.00101474,-0.000082
 50,0.00053571,0.00003235,-0.00024175,0.00002704,-0.00004326,0.00126416
 ,0.00293943,0.00063005,0.00132925,-0.00067413,-0.00135891,0.00005196,-
 0.00018240,-0.00030712,0.00018166,-0.00007992,0.00005706,0.00102483,-0
 .02124448,0.01865653,-0.00791973,0.00533989,-0.00582353,0.00021136,-0.
 00144389,-0.00264185,-0.00046685,-0.00016572,0.00037241,0.00005829,-0.
 00002428,0.00000039,0.00000848,-0.00002008,0.00000513,0.00010345,-0.00
 004578,0.00004347,-0.00054569,0.00003598,-0.00019512,-0.00019871,0.000
 16220,0.00116130,0.00001618,-0.00001117,-0.00004201,-0.00000410,0.0000
 0457,0.00000062,-0.00000658,-0.00000287,-0.00000607,-0.00000624,-0.000
 00194,0.00000480,-0.00000496,-0.00000883,0.00000204,-0.00000933,-0.000
 01536,0.00000356,-0.00000228,-0.00001418,0.00001525,0.00001138,-0.0000
 5360,-0.00004407,-0.00006142,0.00006103,0.00039518,-0.00007727,0.00117
 382,0.00111351,-0.00018917,0.00024249,0.00004581,-0.00108213,-0.001004
 47,0.00128781,0.12832001,-0.00009795,0.00007609,0.00005254,-0.00021473
 ,0.00027713,-0.00001531,0.00040483,0.00004327,0.00011006,0.00017525,-0
 .00015532,-0.00007812,0.00002342,-0.00012223,-0.00000767,-0.00010037,0
 .00002824,0.00000114,0.00012863,-0.00063415,0.00027308,0.00147130,0.00
 070825,-0.00151872,0.00028021,-0.00004611,0.00007423,-0.00018670,-0.00
 008550,0.00007454,0.00406435,-0.00748576,0.00223439,-0.00354120,-0.000
 13912,0.00386176,0.00051964,0.00016098,0.00033611,-0.00025307,0.000059
 07,-0.00014319,-0.04212855,0.04647572,-0.06889197,0.00740869,-0.006899
 70,0.00487233,-0.00112057,0.00341383,0.00638637,0.00051737,0.00027305,
 -0.00075375,0.00011041,-0.00005909,-0.00001722,-0.00002542,0.00000715,
 0.00002279,0.00016006,-0.00015376,-0.00002112,-0.00066017,-0.00024521,
 -0.00039346,0.00021114,0.00156467,0.00078013,0.00000775,0.00000599,-0.
 00001787,-0.00001384,0.00000152,0.00000095,-0.00000644,-0.00000087,-0.
 00000854,-0.00000401,-0.00000608,-0.00000518,-0.00000154,-0.00000241,-
 0.00000070,-0.00000455,-0.00000018,-0.00000685,-0.00000137,-0.00000791
 ,-0.00000724,-0.00001624,-0.00007833,0.00005108,0.00022948,-0.00005454
 ,-0.00091871,-0.00004943,-0.00070065,-0.00408773,0.00021582,-0.0004708
 2,0.00004609,-0.00095345,-0.00134341,0.00068350,0.30398600,1.09437136,
 0.00000318,-0.00013186,-0.00004984,0.00025064,-0.00021058,0.00011320,-
 0.00064206,-0.00012959,-0.00021572,-0.00032351,0.00026610,0.00005171,-
 0.00010922,0.00014077,0.00001758,0.00015748,-0.00001015,0.00000624,-0.
 00010181,0.00116978,-0.00010222,0.00001146,-0.00117705,0.00092752,-0.0
 0013157,0.00027775,0.00010425,0.00017103,-0.00006633,-0.00005434,0.000
 25004,0.00233221,0.00061354,0.00162775,-0.00088186,-0.00143692,-0.0000
 3715,-0.00020265,-0.00032549,0.00023231,-0.00012173,0.00010683,0.01960
 970,-0.03459008,0.02811031,-0.00540961,0.00438584,-0.00318716,0.000214
 25,-0.00072666,-0.00216698,-0.00062492,-0.00059367,0.00030634,-0.00003
 680,0.00007523,0.00000740,-0.00007533,-0.00004218,-0.00000862,0.000044
 22,-0.00002097,-0.00003204,0.00004662,0.00008253,0.00019561,0.00138738
 ,-0.00055673,-0.00207782,-0.00001479,0.00000700,0.00002567,0.00000557,
 -0.00000272,-0.00000094,0.00000286,0.00000426,0.00000681,0.00000261,0.
 00000535,-0.00000011,0.00000065,-0.00000025,0.00000548,-0.00000588,-0.
 00000673,-0.00000787,-0.00000705,-0.00000376,0.00000572,0.00002091,-0.
 00006176,-0.00007942,-0.00006024,0.00005569,0.00031752,0.00037639,0.00
 079538,0.00098776,-0.00009079,0.00024540,0.00003279,0.00169832,0.00115
 316,-0.00118841,0.05143132,0.32361398,0.09498991,-0.00003395,0.0001627
 7,-0.00000816,-0.00013791,0.00007153,0.00002277,0.00020787,-0.00001601
 ,-0.00012431,0.00025791,-0.00011079,0.00001108,0.00011494,-0.00014194,
 -0.00001232,-0.00018652,-0.00001640,-0.00000535,-0.00008017,-0.0001550
 9,0.00011169,-0.00028095,0.00011972,0.00001522,0.00014569,-0.00002197,
 -0.00003517,-0.00019660,-0.00002672,-0.00003202,-0.00122298,-0.0002614
 4,-0.00030476,-0.00031468,0.00031426,-0.00025835,0.00001916,-0.0000172
 6,0.00004326,-0.00017711,0.00019929,0.00000565,0.00255308,0.00192320,0
 .00033775,-0.00179204,0.00247686,-0.00156197,0.00117106,-0.00091373,-0
 .00083810,0.00006102,0.00080618,0.00003947,0.00004568,-0.00011390,-0.0
 0002853,0.00011513,0.00001254,0.00002584,-0.00002260,0.00002770,0.0000
 3912,0.00017898,-0.00011765,0.00009398,-0.00025498,-0.00012029,0.00105
 717,0.00001610,-0.00003799,-0.00004996,0.00000236,0.00000529,-0.000009
 38,-0.00000244,-0.00000730,-0.00000463,-0.00000090,-0.00000691,-0.0000
 0140,0.00000125,0.00000013,-0.00000321,0.00000518,0.00000322,0.0000106
 5,0.00001987,0.00000696,-0.00000181,0.00000439,0.00005823,-0.00000035,
 -0.00003896,0.00007223,0.00021836,0.00010449,0.00046461,0.00085755,-0.
 00008789,0.00005205,-0.00004606,-0.00057605,-0.00041072,-0.00026817,-0
 .05673586,-0.15119983,-0.02028781,0.09660434,0.00010354,-0.00002641,-0
 .00004520,-0.00003321,-0.00032504,-0.00009645,-0.00018927,0.00012053,0
 .00003107,-0.00010731,0.00009944,0.00003451,-0.00008483,0.00004190,-0.
 00000369,0.00009923,0.00008450,0.00001922,0.00007855,0.00009536,0.0002
 7054,-0.00034528,0.00007483,0.00101170,-0.00036967,0.00009263,-0.00001
 505,0.00022167,0.00005770,-0.00003454,0.00187890,0.00210836,0.00077083
 ,0.00092555,-0.00069823,-0.00198959,0.00016181,-0.00017736,-0.00021281
 ,0.00023127,-0.00010690,0.00010262,0.02118654,-0.03747657,0.04037323,-
 0.00343920,0.00122476,-0.00222149,0.00014059,-0.00033596,-0.00289170,-
 0.00027479,-0.00065336,0.00043451,-0.00009998,0.00004668,0.00001547,-0
 .00004512,0.00007767,-0.00001793,-0.00014943,-0.00003923,-0.00006656,0
 .00050798,0.00028303,0.00036746,-0.00061077,-0.00136732,-0.00010476,-0
 .00004268,0.00006489,0.00009346,-0.00002748,0.00000985,0.00001370,-0.0
 0001503,0.00000436,0.00001132,-0.00001873,0.00000358,0.00000608,-0.000
 00678,-0.00001976,-0.00000302,-0.00001427,-0.00002893,-0.00001153,-0.0
 0002196,-0.00003669,0.00000540,0.00002357,-0.00014615,-0.00005962,-0.0
 0003823,0.00003223,0.00036625,0.00021286,0.00111191,0.00138003,0.00006
 813,0.00011038,0.00014753,0.00019784,0.00027844,-0.00012141,-0.1769173
 3,-0.86239613,-0.16053207,0.23682987,1.28104098,0.00006234,-0.00000532
 ,0.00002223,0.00011953,0.00010074,-0.00002793,0.00014598,0.00001801,0.
 00024242,0.00002047,0.00002978,-0.00004262,0.00004116,0.00001993,0.000
 00828,-0.00000245,-0.00004092,0.00000371,0.00017775,-0.00004745,-0.000
 08412,-0.00032142,0.00006944,-0.00004979,0.00009379,0.00000757,-0.0000
 2727,0.00000541,0.00001219,0.00003585,-0.00254743,0.00073272,-0.000998
 57,0.00052865,0.00074777,0.00012787,-0.00031571,0.00001789,0.00004746,
 -0.00004069,0.00009531,-0.00000777,-0.00069511,0.00748564,-0.00205014,
 -0.00108372,0.00227418,-0.00039884,0.00024449,-0.00075856,-0.00011807,
 -0.00009353,0.00029168,-0.00007881,0.00001197,0.00004483,0.00003045,-0
 .00000966,-0.00002695,-0.00000661,0.00003037,-0.00001723,0.00002861,-0
 .00004673,0.00016777,0.00002913,-0.00008678,-0.00020277,-0.00063556,-0
 .00001375,0.00000127,-0.00003004,0.00001833,-0.00000747,-0.00001339,0.
 00001392,0.00000648,-0.00000797,0.00001492,0.00000707,-0.00000810,0.00
 000524,0.00001824,-0.00000735,0.00000963,0.00002150,-0.00000218,0.0000
 2430,0.00002733,-0.00001227,-0.00001376,0.00013790,0.00003273,-0.00003
 814,0.00005864,0.00003963,0.00025461,-0.00027340,0.00018975,-0.0002002
 2,0.00012900,-0.00010629,0.00045942,0.00062980,-0.00000421,-0.01660186
 ,-0.11976902,-0.03929637,0.03692257,0.19510678,0.07927908,0.00001322,-
 0.00002694,0.00000067,0.00002446,-0.00004918,-0.00001729,-0.00006119,0
 .00003902,0.00000477,-0.00005447,0.00003224,0.00001017,-0.00003533,0.0
 0002282,0.00000239,0.00004512,0.00001859,0.00000521,0.00001141,0.00010
 499,-0.00005297,0.00024270,0.00002618,-0.00000534,-0.00003775,-0.00003
 776,0.00002166,0.00006048,0.00001578,0.00000226,0.00012065,-0.00006908
 ,-0.00001308,-0.00002123,-0.00001997,0.00003351,-0.00003629,0.00002500
 ,-0.00000379,0.00003797,-0.00006374,-0.00000176,0.00003657,-0.00034002
 ,0.00056785,0.00024061,0.00012282,0.00014072,-0.00017742,-0.00006170,0
 .00009361,0.00004303,-0.00009689,-0.00000715,-0.00001189,0.00002021,0.
 00000459,-0.00003696,0.00003617,-0.00000431,-0.00001497,-0.00006310,-0
 .00004958,0.00001219,0.00004147,0.00001891,-0.00001009,-0.00006216,-0.
 00019205,-0.00002942,0.00002863,0.00005221,-0.00000849,-0.00000303,0.0
 0000648,0.00000169,0.00000526,0.00000404,0.00000075,0.00000289,0.00000
 091,-0.00000040,0.00000119,0.00000099,-0.00000196,0.00000113,-0.000004
 23,-0.00000631,-0.00000081,-0.00000149,-0.00000062,-0.00001105,-0.0000
 0266,0.00000696,-0.00002478,-0.00003414,-0.00020681,0.00006238,-0.0002
 9276,-0.00000905,0.00001089,0.00000042,0.00011625,-0.00001903,0.000078
 25,0.00376798,0.00982131,-0.00072840,-0.04338636,-0.09537774,-0.017039
 81,0.03493913,0.00002580,-0.00001602,-0.00000160,0.00005139,0.00003415
 ,0.00001223,-0.00000346,-0.00000429,0.00000970,-0.00001269,0.00002026,
 -0.00000294,0.00001306,0.00001094,0.00000116,-0.00000427,-0.00003105,-
 0.00000393,0.00002989,0.00001385,0.00000531,-0.00006722,-0.00005977,-0
 .00000235,0.00007855,0.00002761,-0.00000928,-0.00001905,-0.00002182,0.
 00000009,-0.00044007,-0.00003009,-0.00004731,0.00004776,0.00006710,0.0
 0000826,-0.00001089,-0.00000603,-0.00000121,-0.00004242,0.00004541,0.0
 0000050,0.00005032,0.00024318,-0.00061933,-0.00030806,0.00024518,-0.00
 013778,0.00017312,-0.00008971,0.00002343,-0.00005049,0.00016051,-0.000
 01971,0.00000656,0.00002718,0.00000862,-0.00001354,-0.00002509,-0.0000
 0350,0.00002170,0.00003678,0.00001683,-0.00004987,-0.00000259,0.000001
 60,-0.00003056,-0.00004714,-0.00008595,-0.00000689,-0.00000714,-0.0000
 0894,0.00001757,-0.00000609,-0.00000465,0.00000957,0.00000292,-0.00000
 092,0.00001026,0.00000253,0.00000002,0.00000263,0.00001012,0.00000152,
 0.00000304,0.00001040,0.00000275,0.00000961,0.00001301,0.00000033,-0.0
 0000980,0.00003231,0.00000349,-0.00001187,0.00003681,0.00001206,0.0002
 6979,-0.00000779,0.00015465,-0.00006027,0.00002317,-0.00002242,-0.0000
 4558,0.00001110,0.00006608,-0.00184848,0.00296226,-0.00272213,-0.08476
 783,-0.37156166,-0.08151846,0.08741932,0.36751069,-0.00001729,0.000007
 38,0.00000453,-0.00004250,-0.00002623,0.00000646,0.00002202,-0.0000048
 5,-0.00001810,0.00001494,-0.00002673,0.00000444,-0.00000199,-0.0000030
 6,-0.00000650,0.00000029,0.00001032,-0.00000189,-0.00005771,-0.0000624
 7,0.00001604,0.00001614,0.00006905,-0.00000525,-0.00004806,-0.00003514
 ,-0.00001249,0.00001089,0.00001172,-0.00000382,0.00024626,0.00002936,0
 .00004109,-0.00003493,-0.00005620,-0.00001505,0.00001115,-0.00000121,0
 .00000040,0.00002062,-0.00002365,-0.00000383,0.00034076,-0.00062733,0.
 00051254,0.00005512,-0.00023090,-0.00005659,-0.00011474,0.00007253,-0.
 00007163,0.00002397,-0.00009236,0.00001487,-0.00001120,-0.00001603,-0.
 00001260,0.00001242,0.00000314,-0.00000791,-0.00001911,0.00003576,-0.0
 0000427,0.00004616,-0.00001932,-0.00002125,0.00003756,0.00007390,0.000
 07734,0.00001897,-0.00000843,0.00001591,-0.00000654,0.00000374,0.00000
 824,-0.00000668,-0.00000474,0.00000366,-0.00000680,-0.00000304,0.00000
 232,-0.00000195,-0.00000735,0.00000131,-0.00000149,-0.00000719,0.00000
 184,-0.00000606,-0.00000856,0.00000361,0.00000450,-0.00001967,0.000002
 87,0.00000491,-0.00002042,0.00000415,-0.00028924,0.00026108,-0.0000007
 9,0.00003195,-0.00000597,0.00002242,-0.00000678,0.00002658,0.00001778,
 0.00086789,0.01475368,0.00301990,-0.01841257,-0.09740658,-0.03890880,0
 .01853592,0.08490388,0.03163453,-0.00001765,-0.00007890,-0.00000910,0.
 00002061,-0.00013549,-0.00002467,-0.00027486,-0.00004857,-0.00008345,-
 0.00010809,0.00002019,-0.00000025,-0.00004730,0.00004800,0.00000209,0.
 00006332,0.00000136,0.00000521,-0.00009960,-0.00006659,-0.00006171,0.0
 0090563,0.00024528,-0.00019800,-0.00009777,-0.00015483,0.00001324,0.00
 017369,0.00006546,0.00005094,-0.00015788,-0.00041804,-0.00016277,-0.00
 028979,0.00018974,0.00044473,-0.00012029,0.00002693,0.00002249,0.00010
 264,-0.00007650,-0.00001018,-0.00389837,0.00431766,-0.01071886,0.00046
 753,-0.00067552,0.00051861,-0.00043758,0.00057987,0.00080652,-0.000010
 21,-0.00017737,-0.00010299,-0.00003062,-0.00001241,-0.00001809,0.00003
 899,0.00005230,0.00001953,-0.00016967,0.00013829,-0.00002621,0.0002982
 9,-0.00007935,0.00009465,-0.00072582,-0.00007424,0.00078826,-0.0000027
 6,-0.00000104,0.00001998,0.00000726,-0.00000314,0.00000508,0.00000582,
 -0.00000020,0.00000453,0.00000447,0.00000285,0.00000554,0.00000356,0.0
 0000587,0.00000319,-0.00000251,0.00000766,-0.00001148,-0.00000617,0.00
 000706,-0.00000554,-0.00001013,-0.00000405,0.00001069,0.00002194,-0.00
 000083,-0.00011762,0.00002407,0.00000113,-0.00064413,0.00001019,-0.000
 03261,-0.00003290,0.00013580,0.00011572,-0.00007655,-0.06737929,-0.129
 15622,-0.04885776,0.00390046,0.01536122,-0.00005408,0.00442585,-0.0004
 3661,-0.00123681,0.06327625,-0.00007730,0.00001956,0.00000199,0.000043
 59,0.00002848,0.00002727,-0.00015632,-0.00008571,-0.00018632,0.0000257
 9,-0.00002260,0.00001543,0.00006331,-0.00001753,-0.00000231,-0.0000713
 4,-0.00003379,-0.00000855,-0.00041698,-0.00032560,0.00006854,0.0002359
 5,0.00037914,-0.00010451,-0.00015040,-0.00068017,-0.00027654,0.0001103
 6,0.00009249,0.00006274,0.00046491,0.00042130,0.00050179,0.00030761,-0
 .00012014,-0.00037867,0.00003021,0.00014256,0.00008158,-0.00007679,-0.
 00003115,-0.00001448,0.00477434,-0.00134839,0.00832745,-0.00005086,0.0
 0011415,-0.00009427,0.00003582,-0.00023166,-0.00058999,0.00008289,-0.0
 0018788,0.00006187,0.00002974,-0.00009073,-0.00002012,0.00014295,0.000
 03846,0.00002424,-0.00010567,0.00011576,0.00003515,0.00034369,-0.00011
 831,0.00000308,-0.00068340,0.00050199,0.00087960,0.00001282,-0.0000337
 7,-0.00003821,0.00001651,-0.00000444,-0.00000646,0.00001110,-0.0000048
 4,-0.00000259,0.00001074,-0.00000082,0.00000229,0.00000645,0.00001012,
 0.00000339,0.00001003,0.00001276,0.00001790,-0.00002032,0.00001519,0.0
 0000671,-0.00001389,-0.00000378,0.00001774,-0.00002991,-0.00001679,0.0
 0004964,-0.00014590,-0.00008688,0.00035074,0.00001693,0.00000294,0.000
 00676,0.00005895,0.00005652,-0.00022329,-0.10860735,-0.26934129,-0.131
 81895,-0.00514285,-0.01166829,-0.00559189,-0.00153132,0.00036881,-0.00
 154470,0.11044592,0.28213432,-0.00001333,0.00014688,0.00000652,-0.0003
 0258,0.00009495,-0.00005996,0.00051949,0.00008449,0.00022692,0.0002150
 5,-0.00021590,-0.00002373,0.00003137,-0.00012499,-0.00001665,-0.000119
 68,0.00003915,-0.00002834,0.00040653,-0.00010881,-0.00001883,-0.000153
 78,0.00070820,-0.00031331,-0.00000619,0.00008081,0.00006044,-0.0001570
 1,-0.00005019,-0.00003794,-0.00028335,-0.00047456,-0.00010142,-0.00061
 670,0.00026349,0.00051159,0.00003711,-0.00006278,-0.00000532,0.0000042
 0,0.00000389,-0.00002372,-0.00975779,0.00537593,-0.01283480,-0.0002245
 8,0.00027193,-0.00008978,-0.00008244,0.00002015,0.00078513,0.00017160,
 0.00021740,-0.00011916,0.00001338,-0.00005704,-0.00001107,-0.00000030,
 0.00004302,-0.00000117,0.00000863,-0.00008870,-0.00001516,-0.00010599,
 0.00004632,0.00000614,0.00060350,0.00026797,-0.00027541,0.00000910,0.0
 0001332,0.00000708,-0.00002128,0.00000903,0.00000490,-0.00001701,-0.00
 000465,0.00000410,-0.00001723,-0.00000842,0.00000470,-0.00001098,-0.00
 002021,0.00000116,-0.00000874,-0.00002359,0.00000962,0.00000794,-0.000
 02656,0.00000964,0.00001176,-0.00001262,0.00001378,0.00004749,0.000007
 69,-0.00008331,0.00001953,-0.00005051,-0.00044723,-0.00003489,-0.00000
 279,0.00001028,-0.00028848,-0.00040399,-0.00014911,-0.05086977,-0.1615
 6640,-0.07972185,0.00248228,0.02527227,0.00280586,-0.00113473,-0.00002
 009,0.00373452,0.05963787,0.13035592,0.08617489\\0.00000018,-0.0000020
 7,-0.00000054,-0.00000005,-0.00000148,0.00000008,0.00000035,-0.0000006
 6,-0.00000102,0.00000103,-0.00000042,-0.00000282,0.00000091,-0.0000017
 3,-0.00000239,0.00000136,-0.00000095,-0.00000348,-0.00000010,-0.000000
 20,0.00000009,0.00000039,0.00000047,-0.00000095,0.00000120,0.00000064,
 -0.00000282,0.00000145,0.00000022,-0.00000375,-0.00000002,0.00000104,-
 0.00000008,0.00000039,0.00000133,-0.00000117,0.00000126,0.00000141,-0.
 00000311,0.00000154,0.00000113,-0.00000385,-0.00000095,0.00000165,0.00
 000102,-0.00000105,0.00000170,0.00000256,-0.00000049,0.00000185,0.0000
 0141,0.00000025,0.00000166,-0.00000038,-0.00000038,-0.00000289,0.00000
 078,-0.00000108,-0.00000314,0.00000250,-0.00000122,-0.00000257,0.00000
 306,-0.00000073,-0.00000174,0.00000183,-0.00000072,-0.00000109,0.00000
 183,-0.00000181,-0.00000280,0.00000443,-0.00000147,-0.00000377,0.00000
 348,-0.00000026,-0.00000338,0.00000042,0.00000112,-0.00000213,-0.00000
 298,0.00000191,-0.00000078,-0.00000490,0.00000204,0.00000041,-0.000005
 18,0.00000211,0.00000122,-0.00000529,0.00000157,0.00000170,-0.00000390
 ,0.00000054,0.00000192,-0.00000125,-0.00000151,0.00000191,0.00000394,-
 0.00000073,0.00000207,0.00000202,-0.00000116,-0.00000100,0.00000289,-0
 .00000058,0.00000174,0.00000422,-0.00000201,0.00000314,0.00000503,-0.0
 0000244,0.00000239,0.00000624,-0.00000084,0.00000317,0.00000203\\\@


 WHEN ALL ELSE FAILS, LOOK AT THE SCHRODINGER EQUATION.
     -- RUSSELL T. PACK, APRIL 1978
 Job cpu time:       0 days 23 hours 51 minutes 46.1 seconds.
 Elapsed time:       0 days  1 hours 11 minutes 48.2 seconds.
 File lengths (MBytes):  RWF=   2736 Int=      0 D2E=      0 Chk=     45 Scr=      1
 Normal termination of Gaussian 16 at Thu Jun 27 21:44:25 2019.
