 Entering Gaussian System, Link 0=g09
 Initial command:
 /usr/local/Cluster-Apps/gaussian/g09/l1.exe "/rds/user/am2145/hpc-work/scratch/19190162/Gau-134364.inp" -scrdir="/rds/user/am2145/hpc-work/scratch/19190162/"
 Entering Link 1 = /usr/local/Cluster-Apps/gaussian/g09/l1.exe PID=    134365.
  
 Copyright (c) 1988,1990,1992,1993,1995,1998,2003,2009,2013,
            Gaussian, Inc.  All Rights Reserved.
  
 This is part of the Gaussian(R) 09 program.  It is based on
 the Gaussian(R) 03 system (copyright 2003, Gaussian, Inc.),
 the Gaussian(R) 98 system (copyright 1998, Gaussian, Inc.),
 the Gaussian(R) 94 system (copyright 1995, Gaussian, Inc.),
 the Gaussian 92(TM) system (copyright 1992, Gaussian, Inc.),
 the Gaussian 90(TM) system (copyright 1990, Gaussian, Inc.),
 the Gaussian 88(TM) system (copyright 1988, Gaussian, Inc.),
 the Gaussian 86(TM) system (copyright 1986, Carnegie Mellon
 University), and the Gaussian 82(TM) system (copyright 1983,
 Carnegie Mellon University). Gaussian is a federally registered
 trademark of Gaussian, Inc.
  
 This software contains proprietary and confidential information,
 including trade secrets, belonging to Gaussian, Inc.
  
 This software is provided under written license and may be
 used, copied, transmitted, or stored only in accord with that
 written license.
  
 The following legend is applicable only to US Government
 contracts under FAR:
  
                    RESTRICTED RIGHTS LEGEND
  
 Use, reproduction and disclosure by the US Government is
 subject to restrictions as set forth in subparagraphs (a)
 and (c) of the Commercial Computer Software - Restricted
 Rights clause in FAR 52.227-19.
  
 Gaussian, Inc.
 340 Quinnipiac St., Bldg. 40, Wallingford CT 06492
  
  
 ---------------------------------------------------------------
 Warning -- This program may not be used in any manner that
 competes with the business of Gaussian, Inc. or will provide
 assistance to any competitor of Gaussian, Inc.  The licensee
 of this program is prohibited from giving any competitor of
 Gaussian, Inc. access to this program.  By using this program,
 the user acknowledges that Gaussian, Inc. is engaged in the
 business of creating and licensing software in the field of
 computational chemistry and represents and warrants to the
 licensee that it is not a competitor of Gaussian, Inc. and that
 it will not use this program in any manner prohibited above.
 ---------------------------------------------------------------
  

 Cite this work as:
 Gaussian 09, Revision D.01,
 M. J. Frisch, G. W. Trucks, H. B. Schlegel, G. E. Scuseria, 
 M. A. Robb, J. R. Cheeseman, G. Scalmani, V. Barone, B. Mennucci, 
 G. A. Petersson, H. Nakatsuji, M. Caricato, X. Li, H. P. Hratchian, 
 A. F. Izmaylov, J. Bloino, G. Zheng, J. L. Sonnenberg, M. Hada, 
 M. Ehara, K. Toyota, R. Fukuda, J. Hasegawa, M. Ishida, T. Nakajima, 
 Y. Honda, O. Kitao, H. Nakai, T. Vreven, J. A. Montgomery, Jr., 
 J. E. Peralta, F. Ogliaro, M. Bearpark, J. J. Heyd, E. Brothers, 
 K. N. Kudin, V. N. Staroverov, T. Keith, R. Kobayashi, J. Normand, 
 K. Raghavachari, A. Rendell, J. C. Burant, S. S. Iyengar, J. Tomasi, 
 M. Cossi, N. Rega, J. M. Millam, M. Klene, J. E. Knox, J. B. Cross, 
 V. Bakken, C. Adamo, J. Jaramillo, R. Gomperts, R. E. Stratmann, 
 O. Yazyev, A. J. Austin, R. Cammi, C. Pomelli, J. W. Ochterski, 
 R. L. Martin, K. Morokuma, V. G. Zakrzewski, G. A. Voth, 
 P. Salvador, J. J. Dannenberg, S. Dapprich, A. D. Daniels, 
 O. Farkas, J. B. Foresman, J. V. Ortiz, J. Cioslowski, 
 and D. J. Fox, Gaussian, Inc., Wallingford CT, 2013.
 
 ******************************************
 Gaussian 09:  ES64L-G09RevD.01 24-Apr-2013
                 2-Feb-2020 
 ******************************************
 %NProcShared=20
 Will use up to   20 processors via shared memory.
 %mem=64GB
 %Chk=BS2b_Hloss_guess.chk
 --------------------------------------------------
 #n opt=(ts,calcfc,noeigen) freq b3lyp/6-311+g(d,p)
 --------------------------------------------------
 1/5=1,10=4,11=1,14=-1,18=20,26=3,38=1/1,3;
 2/9=110,12=2,17=6,18=5,40=1/2;
 3/5=4,6=6,7=111,11=2,16=1,25=1,30=1,71=2,74=-5,140=1/1,2,3;
 4//1;
 5/5=2,38=5/2;
 8/6=4,10=90,11=11/1;
 11/6=1,8=1,9=11,15=111,16=1/1,2,10;
 10/6=1,13=1/2;
 6/7=2,8=2,9=2,10=2,28=1/1;
 7/10=1,18=20,25=1/1,2,3,16;
 1/5=1,10=4,11=1,14=-1,18=20,26=3/3(2);
 2/9=110/2;
 99//99;
 2/9=110/2;
 3/5=4,6=6,7=111,11=2,16=1,25=1,30=1,71=1,74=-5/1,2,3;
 4/5=5,16=3,69=1/1;
 5/5=2,38=5/2;
 7//1,2,3,16;
 1/5=1,11=1,14=-1,18=20,26=3/3(-5);
 2/9=110/2;
 6/7=2,8=2,9=2,10=2,19=2,28=1/1;
 99/9=1/99;
 ----------------
 BS2b_Hloss_guess
 ----------------
 Symbolic Z-matrix:
 Charge =  0 Multiplicity = 3
 C                     3.86218   0.28128   0.02305 
 C                     2.55783  -0.18096  -0.06983 
 C                     1.43499   0.63045   0.12615 
 C                     1.54869   1.99423   0.37125 
 C                     3.99586   1.68373   0.34847 
 C                     2.89879   2.49674   0.50499 
 C                     0.24807  -0.12584  -0.08763 
 C                    -0.98827   0.57335   0.01951 
 C                    -0.89062   2.01758   0.13076 
 C                     0.32844   2.69438   0.34601 
 C                    -2.31203  -0.02423  -0.04065 
 C                    -3.41827   0.81308  -0.38713 
 C                    -3.25409   2.23807  -0.40824 
 C                    -2.07235   2.80745  -0.07702 
 C                    -2.61181  -1.38931   0.27575 
 C                    -3.88666  -1.90217   0.01985 
 C                    -4.9108   -1.09625  -0.47974 
 C                    -4.68697   0.25572  -0.63637 
 C                     4.8623   -0.68841  -0.25985 
 C                     4.48854  -1.97889  -0.62767 
 C                     3.13988  -2.39549  -0.7473 
 C                     2.13413  -1.47549  -0.45991 
 C                     0.68388  -1.43755  -0.48813 
 H                     2.92005  -3.40954  -1.06317 
 H                     5.26839  -2.70042  -0.84541 
 H                     5.91426  -0.42933  -0.20405 
 H                     4.98879   2.11026   0.44807 
 H                     3.0464    3.55037   0.71847 
 H                     0.30652   3.77561   0.43674 
 H                    -1.9792    3.88669  -0.02171 
 H                    -4.11932   2.84978  -0.63889 
 H                    -5.49453   0.91633  -0.93296 
 H                    -4.08107  -2.9384    0.26559 
 H                    -5.88677  -1.52296  -0.6791 
 H                     0.05221  -2.24898  -0.80808 
 C                    -1.7419   -2.27658   1.0056 
 C                    -1.23167  -3.29913   1.42713 
 H                    -0.70265  -4.07088   1.93207 
 H                    -1.30192  -1.0631    2.41831 
 
 Add virtual bond connecting atoms H39        and C36        Dist= 3.62D+00.

 GradGradGradGradGradGradGradGradGradGradGradGradGradGradGradGradGradGrad
 Berny optimization.
 Initialization pass.
                           ----------------------------
                           !    Initial Parameters    !
                           ! (Angstroms and Degrees)  !
 --------------------------                            --------------------------
 ! Name  Definition              Value          Derivative Info.                !
 --------------------------------------------------------------------------------
 ! R1    R(1,2)                  1.3869         calculate D2E/DX2 analytically  !
 ! R2    R(1,5)                  1.4459         calculate D2E/DX2 analytically  !
 ! R3    R(1,19)                 1.4215         calculate D2E/DX2 analytically  !
 ! R4    R(2,3)                  1.3991         calculate D2E/DX2 analytically  !
 ! R5    R(2,22)                 1.4169         calculate D2E/DX2 analytically  !
 ! R6    R(3,4)                  1.3903         calculate D2E/DX2 analytically  !
 ! R7    R(3,7)                  1.4235         calculate D2E/DX2 analytically  !
 ! R8    R(4,6)                  1.4468         calculate D2E/DX2 analytically  !
 ! R9    R(4,10)                 1.4071         calculate D2E/DX2 analytically  !
 ! R10   R(5,6)                  1.3744         calculate D2E/DX2 analytically  !
 ! R11   R(5,27)                 1.0852         calculate D2E/DX2 analytically  !
 ! R12   R(6,28)                 1.0851         calculate D2E/DX2 analytically  !
 ! R13   R(7,8)                  1.4244         calculate D2E/DX2 analytically  !
 ! R14   R(7,23)                 1.4391         calculate D2E/DX2 analytically  !
 ! R15   R(8,9)                  1.4518         calculate D2E/DX2 analytically  !
 ! R16   R(8,11)                 1.4536         calculate D2E/DX2 analytically  !
 ! R17   R(9,10)                 1.4109         calculate D2E/DX2 analytically  !
 ! R18   R(9,14)                 1.4365         calculate D2E/DX2 analytically  !
 ! R19   R(10,29)                1.0853         calculate D2E/DX2 analytically  !
 ! R20   R(11,12)                1.43           calculate D2E/DX2 analytically  !
 ! R21   R(11,15)                1.433          calculate D2E/DX2 analytically  !
 ! R22   R(12,13)                1.4346         calculate D2E/DX2 analytically  !
 ! R23   R(12,18)                1.408          calculate D2E/DX2 analytically  !
 ! R24   R(13,14)                1.3529         calculate D2E/DX2 analytically  !
 ! R25   R(13,31)                1.0844         calculate D2E/DX2 analytically  !
 ! R26   R(14,30)                1.0847         calculate D2E/DX2 analytically  !
 ! R27   R(15,16)                1.3978         calculate D2E/DX2 analytically  !
 ! R28   R(15,36)                1.4411         calculate D2E/DX2 analytically  !
 ! R29   R(16,17)                1.3957         calculate D2E/DX2 analytically  !
 ! R30   R(16,33)                1.0826         calculate D2E/DX2 analytically  !
 ! R31   R(17,18)                1.3793         calculate D2E/DX2 analytically  !
 ! R32   R(17,34)                1.0837         calculate D2E/DX2 analytically  !
 ! R33   R(18,32)                1.0847         calculate D2E/DX2 analytically  !
 ! R34   R(19,20)                1.393          calculate D2E/DX2 analytically  !
 ! R35   R(19,26)                1.0848         calculate D2E/DX2 analytically  !
 ! R36   R(20,21)                1.4166         calculate D2E/DX2 analytically  !
 ! R37   R(20,25)                1.0845         calculate D2E/DX2 analytically  !
 ! R38   R(21,22)                1.393          calculate D2E/DX2 analytically  !
 ! R39   R(21,24)                1.0846         calculate D2E/DX2 analytically  !
 ! R40   R(22,23)                1.451          calculate D2E/DX2 analytically  !
 ! R41   R(23,35)                1.0769         calculate D2E/DX2 analytically  !
 ! R42   R(36,37)                1.218          calculate D2E/DX2 analytically  !
 ! R43   R(36,39)                1.9136         calculate D2E/DX2 analytically  !
 ! R44   R(37,38)                1.0632         calculate D2E/DX2 analytically  !
 ! A1    A(2,1,5)              115.1686         calculate D2E/DX2 analytically  !
 ! A2    A(2,1,19)             114.8977         calculate D2E/DX2 analytically  !
 ! A3    A(5,1,19)             129.8976         calculate D2E/DX2 analytically  !
 ! A4    A(1,2,3)              123.5093         calculate D2E/DX2 analytically  !
 ! A5    A(1,2,22)             127.1694         calculate D2E/DX2 analytically  !
 ! A6    A(3,2,22)             109.1743         calculate D2E/DX2 analytically  !
 ! A7    A(2,3,4)              121.8667         calculate D2E/DX2 analytically  !
 ! A8    A(2,3,7)              109.8763         calculate D2E/DX2 analytically  !
 ! A9    A(4,3,7)              128.0108         calculate D2E/DX2 analytically  !
 ! A10   A(3,4,6)              115.6785         calculate D2E/DX2 analytically  !
 ! A11   A(3,4,10)             114.4576         calculate D2E/DX2 analytically  !
 ! A12   A(6,4,10)             129.6505         calculate D2E/DX2 analytically  !
 ! A13   A(1,5,6)              121.7075         calculate D2E/DX2 analytically  !
 ! A14   A(1,5,27)             119.1082         calculate D2E/DX2 analytically  !
 ! A15   A(6,5,27)             119.1677         calculate D2E/DX2 analytically  !
 ! A16   A(4,6,5)              121.9299         calculate D2E/DX2 analytically  !
 ! A17   A(4,6,28)             118.8406         calculate D2E/DX2 analytically  !
 ! A18   A(5,6,28)             119.2212         calculate D2E/DX2 analytically  !
 ! A19   A(3,7,8)              116.8479         calculate D2E/DX2 analytically  !
 ! A20   A(3,7,23)             105.8755         calculate D2E/DX2 analytically  !
 ! A21   A(8,7,23)             136.989          calculate D2E/DX2 analytically  !
 ! A22   A(7,8,9)              115.8295         calculate D2E/DX2 analytically  !
 ! A23   A(7,8,11)             125.8399         calculate D2E/DX2 analytically  !
 ! A24   A(9,8,11)             118.2535         calculate D2E/DX2 analytically  !
 ! A25   A(8,9,10)             123.1628         calculate D2E/DX2 analytically  !
 ! A26   A(8,9,14)             118.7228         calculate D2E/DX2 analytically  !
 ! A27   A(10,9,14)            117.9764         calculate D2E/DX2 analytically  !
 ! A28   A(4,10,9)             120.8886         calculate D2E/DX2 analytically  !
 ! A29   A(4,10,29)            120.7815         calculate D2E/DX2 analytically  !
 ! A30   A(9,10,29)            118.2445         calculate D2E/DX2 analytically  !
 ! A31   A(8,11,12)            118.281          calculate D2E/DX2 analytically  !
 ! A32   A(8,11,15)            124.9587         calculate D2E/DX2 analytically  !
 ! A33   A(12,11,15)           116.7084         calculate D2E/DX2 analytically  !
 ! A34   A(11,12,13)           119.7787         calculate D2E/DX2 analytically  !
 ! A35   A(11,12,18)           120.5425         calculate D2E/DX2 analytically  !
 ! A36   A(13,12,18)           119.5865         calculate D2E/DX2 analytically  !
 ! A37   A(12,13,14)           120.9575         calculate D2E/DX2 analytically  !
 ! A38   A(12,13,31)           118.1726         calculate D2E/DX2 analytically  !
 ! A39   A(14,13,31)           120.7693         calculate D2E/DX2 analytically  !
 ! A40   A(9,14,13)            121.5039         calculate D2E/DX2 analytically  !
 ! A41   A(9,14,30)            117.9747         calculate D2E/DX2 analytically  !
 ! A42   A(13,14,30)           120.4139         calculate D2E/DX2 analytically  !
 ! A43   A(11,15,16)           119.994          calculate D2E/DX2 analytically  !
 ! A44   A(11,15,36)           124.8949         calculate D2E/DX2 analytically  !
 ! A45   A(16,15,36)           114.6696         calculate D2E/DX2 analytically  !
 ! A46   A(15,16,17)           121.5285         calculate D2E/DX2 analytically  !
 ! A47   A(15,16,33)           118.2578         calculate D2E/DX2 analytically  !
 ! A48   A(17,16,33)           120.1454         calculate D2E/DX2 analytically  !
 ! A49   A(16,17,18)           119.1806         calculate D2E/DX2 analytically  !
 ! A50   A(16,17,34)           119.9562         calculate D2E/DX2 analytically  !
 ! A51   A(18,17,34)           120.7453         calculate D2E/DX2 analytically  !
 ! A52   A(12,18,17)           120.9403         calculate D2E/DX2 analytically  !
 ! A53   A(12,18,32)           118.5668         calculate D2E/DX2 analytically  !
 ! A54   A(17,18,32)           120.4778         calculate D2E/DX2 analytically  !
 ! A55   A(1,19,20)            119.7196         calculate D2E/DX2 analytically  !
 ! A56   A(1,19,26)            120.6045         calculate D2E/DX2 analytically  !
 ! A57   A(20,19,26)           119.6714         calculate D2E/DX2 analytically  !
 ! A58   A(19,20,21)           123.3809         calculate D2E/DX2 analytically  !
 ! A59   A(19,20,25)           118.4523         calculate D2E/DX2 analytically  !
 ! A60   A(21,20,25)           118.1628         calculate D2E/DX2 analytically  !
 ! A61   A(20,21,22)           118.4061         calculate D2E/DX2 analytically  !
 ! A62   A(20,21,24)           119.5053         calculate D2E/DX2 analytically  !
 ! A63   A(22,21,24)           122.0874         calculate D2E/DX2 analytically  !
 ! A64   A(2,22,21)            116.3789         calculate D2E/DX2 analytically  !
 ! A65   A(2,22,23)            106.2809         calculate D2E/DX2 analytically  !
 ! A66   A(21,22,23)           137.2955         calculate D2E/DX2 analytically  !
 ! A67   A(7,23,22)            108.7296         calculate D2E/DX2 analytically  !
 ! A68   A(7,23,35)            126.2871         calculate D2E/DX2 analytically  !
 ! A69   A(22,23,35)           124.9114         calculate D2E/DX2 analytically  !
 ! A70   A(15,36,37)           160.9134         calculate D2E/DX2 analytically  !
 ! A71   A(15,36,39)            97.0221         calculate D2E/DX2 analytically  !
 ! A72   A(37,36,39)           100.4023         calculate D2E/DX2 analytically  !
 ! A73   L(36,37,38,1,-1)      174.2947         calculate D2E/DX2 analytically  !
 ! A74   L(36,37,38,1,-2)      170.6491         calculate D2E/DX2 analytically  !
 ! D1    D(5,1,2,3)              0.2864         calculate D2E/DX2 analytically  !
 ! D2    D(5,1,2,22)           175.3927         calculate D2E/DX2 analytically  !
 ! D3    D(19,1,2,3)          -177.7471         calculate D2E/DX2 analytically  !
 ! D4    D(19,1,2,22)           -2.6408         calculate D2E/DX2 analytically  !
 ! D5    D(2,1,5,6)             -2.173          calculate D2E/DX2 analytically  !
 ! D6    D(2,1,5,27)           179.3237         calculate D2E/DX2 analytically  !
 ! D7    D(19,1,5,6)           175.5018         calculate D2E/DX2 analytically  !
 ! D8    D(19,1,5,27)           -3.0015         calculate D2E/DX2 analytically  !
 ! D9    D(2,1,19,20)            1.4414         calculate D2E/DX2 analytically  !
 ! D10   D(2,1,19,26)         -179.33           calculate D2E/DX2 analytically  !
 ! D11   D(5,1,19,20)         -176.2386         calculate D2E/DX2 analytically  !
 ! D12   D(5,1,19,26)            2.99           calculate D2E/DX2 analytically  !
 ! D13   D(1,2,3,4)              3.0755         calculate D2E/DX2 analytically  !
 ! D14   D(1,2,3,7)            177.8017         calculate D2E/DX2 analytically  !
 ! D15   D(22,2,3,4)          -172.7974         calculate D2E/DX2 analytically  !
 ! D16   D(22,2,3,7)             1.9289         calculate D2E/DX2 analytically  !
 ! D17   D(1,2,22,21)            1.8572         calculate D2E/DX2 analytically  !
 ! D18   D(1,2,22,23)         -176.1339         calculate D2E/DX2 analytically  !
 ! D19   D(3,2,22,21)          177.5384         calculate D2E/DX2 analytically  !
 ! D20   D(3,2,22,23)           -0.4527         calculate D2E/DX2 analytically  !
 ! D21   D(2,3,4,6)             -4.2594         calculate D2E/DX2 analytically  !
 ! D22   D(2,3,4,10)           170.9527         calculate D2E/DX2 analytically  !
 ! D23   D(7,3,4,6)           -177.9609         calculate D2E/DX2 analytically  !
 ! D24   D(7,3,4,10)            -2.7488         calculate D2E/DX2 analytically  !
 ! D25   D(2,3,7,8)           -177.4695         calculate D2E/DX2 analytically  !
 ! D26   D(2,3,7,23)            -2.5828         calculate D2E/DX2 analytically  !
 ! D27   D(4,3,7,8)             -3.1554         calculate D2E/DX2 analytically  !
 ! D28   D(4,3,7,23)           171.7313         calculate D2E/DX2 analytically  !
 ! D29   D(3,4,6,5)              2.373          calculate D2E/DX2 analytically  !
 ! D30   D(3,4,6,28)          -178.6867         calculate D2E/DX2 analytically  !
 ! D31   D(10,4,6,5)          -171.9639         calculate D2E/DX2 analytically  !
 ! D32   D(10,4,6,28)            6.9764         calculate D2E/DX2 analytically  !
 ! D33   D(3,4,10,9)             2.028          calculate D2E/DX2 analytically  !
 ! D34   D(3,4,10,29)         -174.5548         calculate D2E/DX2 analytically  !
 ! D35   D(6,4,10,9)           176.4212         calculate D2E/DX2 analytically  !
 ! D36   D(6,4,10,29)           -0.1616         calculate D2E/DX2 analytically  !
 ! D37   D(1,5,6,4)              0.8402         calculate D2E/DX2 analytically  !
 ! D38   D(1,5,6,28)          -178.0962         calculate D2E/DX2 analytically  !
 ! D39   D(27,5,6,4)           179.3427         calculate D2E/DX2 analytically  !
 ! D40   D(27,5,6,28)            0.4063         calculate D2E/DX2 analytically  !
 ! D41   D(3,7,8,9)              9.1446         calculate D2E/DX2 analytically  !
 ! D42   D(3,7,8,11)          -174.121          calculate D2E/DX2 analytically  !
 ! D43   D(23,7,8,9)          -163.6358         calculate D2E/DX2 analytically  !
 ! D44   D(23,7,8,11)           13.0986         calculate D2E/DX2 analytically  !
 ! D45   D(3,7,23,22)            2.2733         calculate D2E/DX2 analytically  !
 ! D46   D(3,7,23,35)         -174.7517         calculate D2E/DX2 analytically  !
 ! D47   D(8,7,23,22)          175.579          calculate D2E/DX2 analytically  !
 ! D48   D(8,7,23,35)           -1.446          calculate D2E/DX2 analytically  !
 ! D49   D(7,8,9,10)           -10.2897         calculate D2E/DX2 analytically  !
 ! D50   D(7,8,9,14)           165.3501         calculate D2E/DX2 analytically  !
 ! D51   D(11,8,9,10)          172.7154         calculate D2E/DX2 analytically  !
 ! D52   D(11,8,9,14)          -11.6448         calculate D2E/DX2 analytically  !
 ! D53   D(7,8,11,12)         -158.287          calculate D2E/DX2 analytically  !
 ! D54   D(7,8,11,15)           24.4264         calculate D2E/DX2 analytically  !
 ! D55   D(9,8,11,12)           18.376          calculate D2E/DX2 analytically  !
 ! D56   D(9,8,11,15)         -158.9106         calculate D2E/DX2 analytically  !
 ! D57   D(8,9,10,4)             4.5558         calculate D2E/DX2 analytically  !
 ! D58   D(8,9,10,29)         -178.7767         calculate D2E/DX2 analytically  !
 ! D59   D(14,9,10,4)         -171.1146         calculate D2E/DX2 analytically  !
 ! D60   D(14,9,10,29)           5.5529         calculate D2E/DX2 analytically  !
 ! D61   D(8,9,14,13)           -1.8763         calculate D2E/DX2 analytically  !
 ! D62   D(8,9,14,30)         -178.1204         calculate D2E/DX2 analytically  !
 ! D63   D(10,9,14,13)         173.9912         calculate D2E/DX2 analytically  !
 ! D64   D(10,9,14,30)          -2.253          calculate D2E/DX2 analytically  !
 ! D65   D(8,11,12,13)         -12.1345         calculate D2E/DX2 analytically  !
 ! D66   D(8,11,12,18)         171.3729         calculate D2E/DX2 analytically  !
 ! D67   D(15,11,12,13)        165.3763         calculate D2E/DX2 analytically  !
 ! D68   D(15,11,12,18)        -11.1163         calculate D2E/DX2 analytically  !
 ! D69   D(8,11,15,16)        -171.7963         calculate D2E/DX2 analytically  !
 ! D70   D(8,11,15,36)          16.248          calculate D2E/DX2 analytically  !
 ! D71   D(12,11,15,16)         10.8785         calculate D2E/DX2 analytically  !
 ! D72   D(12,11,15,36)       -161.0771         calculate D2E/DX2 analytically  !
 ! D73   D(11,12,13,14)         -1.4084         calculate D2E/DX2 analytically  !
 ! D74   D(11,12,13,31)       -177.7886         calculate D2E/DX2 analytically  !
 ! D75   D(18,12,13,14)        175.118          calculate D2E/DX2 analytically  !
 ! D76   D(18,12,13,31)         -1.2623         calculate D2E/DX2 analytically  !
 ! D77   D(11,12,18,17)          3.6715         calculate D2E/DX2 analytically  !
 ! D78   D(11,12,18,32)       -177.7377         calculate D2E/DX2 analytically  !
 ! D79   D(13,12,18,17)       -172.8278         calculate D2E/DX2 analytically  !
 ! D80   D(13,12,18,32)          5.763          calculate D2E/DX2 analytically  !
 ! D81   D(12,13,14,9)           8.5807         calculate D2E/DX2 analytically  !
 ! D82   D(12,13,14,30)       -175.2657         calculate D2E/DX2 analytically  !
 ! D83   D(31,13,14,9)        -175.1331         calculate D2E/DX2 analytically  !
 ! D84   D(31,13,14,30)          1.0205         calculate D2E/DX2 analytically  !
 ! D85   D(11,15,16,17)         -3.2843         calculate D2E/DX2 analytically  !
 ! D86   D(11,15,16,33)        179.7181         calculate D2E/DX2 analytically  !
 ! D87   D(36,15,16,17)        169.4595         calculate D2E/DX2 analytically  !
 ! D88   D(36,15,16,33)         -7.5381         calculate D2E/DX2 analytically  !
 ! D89   D(11,15,36,37)       -157.5522         calculate D2E/DX2 analytically  !
 ! D90   D(11,15,36,39)         46.6197         calculate D2E/DX2 analytically  !
 ! D91   D(16,15,36,37)         30.1123         calculate D2E/DX2 analytically  !
 ! D92   D(16,15,36,39)       -125.7159         calculate D2E/DX2 analytically  !
 ! D93   D(15,16,17,18)         -4.5842         calculate D2E/DX2 analytically  !
 ! D94   D(15,16,17,34)        179.3343         calculate D2E/DX2 analytically  !
 ! D95   D(33,16,17,18)        172.3575         calculate D2E/DX2 analytically  !
 ! D96   D(33,16,17,34)         -3.724          calculate D2E/DX2 analytically  !
 ! D97   D(16,17,18,12)          4.379          calculate D2E/DX2 analytically  !
 ! D98   D(16,17,18,32)       -174.1849         calculate D2E/DX2 analytically  !
 ! D99   D(34,17,18,12)       -179.5712         calculate D2E/DX2 analytically  !
 ! D100  D(34,17,18,32)          1.8649         calculate D2E/DX2 analytically  !
 ! D101  D(1,19,20,21)           0.3321         calculate D2E/DX2 analytically  !
 ! D102  D(1,19,20,25)         179.5923         calculate D2E/DX2 analytically  !
 ! D103  D(26,19,20,21)       -178.9037         calculate D2E/DX2 analytically  !
 ! D104  D(26,19,20,25)          0.3565         calculate D2E/DX2 analytically  !
 ! D105  D(19,20,21,22)         -1.1732         calculate D2E/DX2 analytically  !
 ! D106  D(19,20,21,24)        178.4299         calculate D2E/DX2 analytically  !
 ! D107  D(25,20,21,22)        179.5645         calculate D2E/DX2 analytically  !
 ! D108  D(25,20,21,24)         -0.8323         calculate D2E/DX2 analytically  !
 ! D109  D(20,21,22,2)           0.1552         calculate D2E/DX2 analytically  !
 ! D110  D(20,21,22,23)        177.3113         calculate D2E/DX2 analytically  !
 ! D111  D(24,21,22,2)        -179.4371         calculate D2E/DX2 analytically  !
 ! D112  D(24,21,22,23)         -2.281          calculate D2E/DX2 analytically  !
 ! D113  D(2,22,23,7)           -1.1576         calculate D2E/DX2 analytically  !
 ! D114  D(2,22,23,35)         175.9182         calculate D2E/DX2 analytically  !
 ! D115  D(21,22,23,7)        -178.5036         calculate D2E/DX2 analytically  !
 ! D116  D(21,22,23,35)         -1.4278         calculate D2E/DX2 analytically  !
 --------------------------------------------------------------------------------
 Trust Radius=3.00D-01 FncErr=1.00D-07 GrdErr=1.00D-06
 Number of steps in this run=    234 maximum allowed number of steps=    234.
 Search for a saddle point of order  1.
 GradGradGradGradGradGradGradGradGradGradGradGradGradGradGradGradGradGrad

                          Input orientation:                          
 ---------------------------------------------------------------------
 Center     Atomic      Atomic             Coordinates (Angstroms)
 Number     Number       Type             X           Y           Z
 ---------------------------------------------------------------------
      1          6           0        3.862180    0.281280    0.023050
      2          6           0        2.557830   -0.180960   -0.069830
      3          6           0        1.434990    0.630450    0.126150
      4          6           0        1.548690    1.994230    0.371250
      5          6           0        3.995860    1.683730    0.348470
      6          6           0        2.898790    2.496740    0.504990
      7          6           0        0.248070   -0.125840   -0.087630
      8          6           0       -0.988270    0.573350    0.019510
      9          6           0       -0.890620    2.017580    0.130760
     10          6           0        0.328440    2.694380    0.346010
     11          6           0       -2.312030   -0.024230   -0.040650
     12          6           0       -3.418270    0.813080   -0.387130
     13          6           0       -3.254090    2.238070   -0.408240
     14          6           0       -2.072350    2.807450   -0.077020
     15          6           0       -2.611810   -1.389310    0.275750
     16          6           0       -3.886660   -1.902170    0.019850
     17          6           0       -4.910800   -1.096250   -0.479740
     18          6           0       -4.686970    0.255720   -0.636370
     19          6           0        4.862300   -0.688410   -0.259850
     20          6           0        4.488540   -1.978890   -0.627670
     21          6           0        3.139880   -2.395490   -0.747300
     22          6           0        2.134130   -1.475490   -0.459910
     23          6           0        0.683880   -1.437550   -0.488130
     24          1           0        2.920050   -3.409540   -1.063170
     25          1           0        5.268390   -2.700420   -0.845410
     26          1           0        5.914260   -0.429330   -0.204050
     27          1           0        4.988790    2.110260    0.448070
     28          1           0        3.046400    3.550370    0.718470
     29          1           0        0.306520    3.775610    0.436740
     30          1           0       -1.979200    3.886690   -0.021710
     31          1           0       -4.119320    2.849780   -0.638890
     32          1           0       -5.494530    0.916330   -0.932960
     33          1           0       -4.081070   -2.938400    0.265590
     34          1           0       -5.886770   -1.522960   -0.679100
     35          1           0        0.052210   -2.248980   -0.808080
     36          6           0       -1.741900   -2.276580    1.005600
     37          6           0       -1.231670   -3.299130    1.427130
     38          1           0       -0.702650   -4.070880    1.932070
     39          1           0       -1.301920   -1.063100    2.418310
 ---------------------------------------------------------------------
                    Distance matrix (angstroms):
                    1          2          3          4          5
     1  C    0.000000
     2  C    1.386947   0.000000
     3  C    2.454343   1.399130   0.000000
     4  C    2.899599   2.438107   1.390287   0.000000
     5  C    1.445903   2.391647   2.777927   2.466895   0.000000
     6  C    2.463463   2.759846   2.401930   1.446780   1.374426
     7  C    3.638652   2.310486   1.423536   2.529205   4.184574
     8  C    4.859237   3.626540   2.426277   2.928957   5.116904
     9  C    5.061171   4.094584   2.707880   2.451247   4.902707
    10  C    4.291232   3.662060   2.352148   1.407074   3.804128
    11  C    6.182092   4.872469   3.807438   4.375957   6.546604
    12  C    7.311362   6.066512   4.883743   5.161487   7.501231
    13  C    7.392992   6.304335   4.985728   4.871731   7.310382
    14  C    6.450596   5.510827   4.133043   3.738209   6.186030
    15  C    6.690835   5.320217   4.525307   5.363509   7.287672
    16  C    8.050589   6.670986   5.894525   6.696898   8.666071
    17  C    8.894693   7.535663   6.604366   7.211121   9.367113
    18  C    8.574582   7.280026   6.180635   6.551425   8.854415
    19  C    1.421468   2.367318   3.692539   4.309856   2.597657
    20  C    2.433954   2.696549   4.086694   5.042444   3.822351
    21  C    2.877543   2.387863   3.581323   4.801321   4.309693
    22  C    2.511105   1.416860   2.295048   3.615595   3.755022
    23  C    3.649284   2.294707   2.284323   3.641915   4.627256
    24  H    3.961014   3.397301   4.465580   5.756641   5.393653
    25  H    3.409132   3.781050   5.170453   6.111969   4.718628
    26  H    2.183477   3.368282   4.614762   5.026213   2.906985
    27  H    2.189763   3.380455   3.863025   3.442913   1.085246
    28  H    3.440357   3.844859   3.387243   2.187526   2.126669
    29  H    5.002419   4.580334   3.355882   2.172692   4.242049
    30  H    6.864598   6.093663   4.720345   4.022665   6.378982
    31  H    8.410690   7.354831   6.030014   5.820540   8.257766
    32  H    9.426838   8.172487   7.015817   7.243603   9.607209
    33  H    8.574403   7.196595   6.571381   7.485733   9.306329
    34  H    9.939332   8.572248   7.674228   8.292161  10.440553
    35  H    4.648534   3.331644   3.328060   4.651355   5.688250
    36  C    6.238090   4.902637   4.395098   5.428646   7.002697
    37  C    6.382639   5.130710   4.923944   6.071651   7.302018
    38  H    6.589638   5.456172   5.471138   6.655092   7.596007
    39  H    5.849150   4.676182   3.951302   4.654428   6.316311
                    6          7          8          9         10
     6  C    0.000000
     7  C    3.775638   0.000000
     8  C    4.363984   1.424388   0.000000
     9  C    3.837873   2.436916   1.451796   0.000000
    10  C    2.582835   2.854495   2.517756   1.410850   0.000000
    11  C    5.814263   2.562546   1.453637   2.493747   3.809518
    12  C    6.598169   3.796488   2.475425   2.847463   4.256127
    13  C    6.225659   4.237450   2.843977   2.434158   3.689395
    14  C    5.014729   3.740141   2.485106   1.436507   2.440396
    15  C    6.746899   3.147589   2.559995   3.819740   5.032547
    16  C    8.101117   4.501432   3.811675   4.934876   6.245136
    17  C    8.652685   5.263971   4.292209   5.121572   6.519231
    18  C    7.991785   4.980093   3.769808   4.254987   5.662726
    19  C    3.819101   4.651587   5.991598   6.369541   5.689132
    20  C    4.882775   4.659080   6.076859   6.744060   6.331977
    21  C    5.055716   3.734841   5.142337   6.040787   5.916612
    22  C    4.158647   2.348908   3.765232   4.658277   4.614958
    23  C    4.622851   1.439067   2.664114   3.847077   4.230245
    24  H    6.110951   4.344403   5.684239   6.737975   6.779386
    25  H    5.869332   5.692654   7.114173   7.819580   7.411238
    26  H    4.261183   5.675506   6.978558   7.239189   6.423513
    27  H    2.126195   5.268922   6.186356   5.888696   4.697922
    28  H    1.085126   4.689879   5.062584   4.265557   2.873804
    29  H    2.891372   3.936965   3.479229   2.148822   1.085251
    30  H    5.099427   4.589714   3.458593   2.168369   2.623361
    31  H    7.119478   5.313407   3.926716   3.421903   4.558152
    32  H    8.661017   5.897301   4.618573   4.851828   6.221270
    33  H    8.849661   5.174622   4.685974   5.895667   7.153912
    34  H    9.733762   6.319655   5.373814   6.176796   7.580610
    35  H    5.687621   2.250585   3.119784   4.469215   5.083801
    36  C    6.676166   3.127429   3.108445   4.464284   5.425109
    37  C    7.176570   3.814957   4.127558   5.483092   6.286885
    38  H    7.624996   4.532813   5.030739   6.352117   7.024776
    39  H    5.829170   3.092032   2.920717   3.859099   4.590333
                   11         12         13         14         15
    11  C    0.000000
    12  C    1.430001   0.000000
    13  C    2.478024   1.434572   0.000000
    14  C    2.842038   2.425939   1.352926   0.000000
    15  C    1.432976   2.437275   3.746765   4.245970   0.000000
    16  C    2.451485   2.785248   4.210106   5.047933   1.397767
    17  C    2.845282   2.425235   3.723908   4.843331   2.437623
    18  C    2.464466   1.407967   2.456603   3.696003   2.800781
    19  C    7.208342   8.416562   8.629142   7.768129   7.525985
    20  C    7.100214   8.388719   8.819253   8.139874   7.181834
    21  C    5.987115   7.309855   7.903651   7.395080   5.927982
    22  C    4.695772   6.005997   6.544166   6.015368   4.803391
    23  C    3.342632   4.680082   5.387409   5.077976   3.383402
    24  H    6.315103   7.646035   8.393118   8.034147   6.039496
    25  H    8.079134   9.381512   9.859638   9.209426   8.066819
    26  H    8.237879   9.416646   9.550673   8.618516   8.593349
    27  H    7.622130   8.547449   8.288225   7.114878   8.369337
    28  H    6.485892   7.106832   6.533589   5.233196   7.524080
    29  H    4.639341   4.830052   3.969378   2.619219   5.934557
    30  H    3.925103   3.413434   2.119599   1.084664   5.322110
    31  H    3.447335   2.168640   1.084441   2.123105   4.591191
    32  H    3.436448   2.149290   2.653658   4.002535   3.884203
    33  H    3.422816   3.865094   5.285242   6.096485   2.135066
    34  H    3.928432   3.411132   4.598882   5.802133   3.413937
    35  H    3.335880   4.647326   5.587943   5.533145   3.001787
    36  C    2.548091   3.780994   4.966662   5.208515   1.441066
    37  C    3.747870   4.998303   6.174087   6.345040   2.622570
    38  H    4.780910   6.050318   7.196509   7.295474   3.684984
    39  H    2.854130   3.983652   4.764250   4.669196   2.532348
                   16         17         18         19         20
    16  C    0.000000
    17  C    1.395693   0.000000
    18  C    2.393243   1.379295   0.000000
    19  C    8.837180   9.784077   9.603213   0.000000
    20  C    8.400544   9.441850   9.443704   1.392956   0.000000
    21  C    7.085489   8.159232   8.264430   2.473552   1.416598
    22  C    6.054927   7.055158   7.039576   2.846477   2.413463
    23  C    4.622094   5.605087   5.633398   4.251178   3.845511
    24  H    7.055239   8.186203   8.454764   3.438344   2.167160
    25  H    9.230429  10.311304  10.387091   2.134473   1.084519
    26  H    9.913497  10.849088  10.632134   1.084830   2.147852
    27  H    9.749696  10.447221   9.911390   2.889585   4.257771
    28  H    8.847914   9.292137   8.514418   4.714007   5.870654
    29  H    7.070625   7.196901   6.202913   6.416217   7.192811
    30  H    6.095165   5.799462   4.570970   8.233734   8.752364
    31  H    4.803030   4.027769   2.655443   9.660847   9.869723
    32  H    3.381869   2.143975   1.084677  10.502009  10.398903
    33  H    1.082569   2.153482   3.373877   9.237013   8.669301
    34  H    2.152387   1.083671   2.145938  10.789567  10.385450
    35  H    4.039857   5.105689   5.363099   5.086541   4.448204
    36  C    2.389954   3.693419   4.216876   6.909349   6.447835
    37  C    3.313745   4.693062   5.369738   6.840923   6.219810
    38  H    4.300908   5.689796   6.418034   6.871265   6.154441
    39  H    3.624573   4.628586   4.746464   6.731311   6.606519
                   21         22         23         24         25
    21  C    0.000000
    22  C    1.393028   0.000000
    23  C    2.648916   1.451021   0.000000
    24  H    1.084618   2.173049   3.036424   0.000000
    25  H    2.152478   3.387130   4.768671   2.462716   0.000000
    26  H    3.443558   3.930559   5.334237   4.311036   2.446700
    27  H    5.014894   4.672378   5.656472   6.085370   4.989380
    28  H    6.124579   5.242145   5.649489   7.185440   6.815815
    29  H    6.892921   5.631891   5.307996   7.791447   8.258512
    30  H    8.136169   6.772332   5.971354   8.849987   9.828329
    31  H    8.956595   7.605632   6.440082   9.429307  10.907634
    32  H    9.249630   8.008810   6.626566   9.462307  11.354690
    33  H    7.311827   6.426132   5.052266   7.141656   9.418246
    34  H    9.068978   8.024035   6.573979   9.014809  11.218363
    35  H    3.091741   2.248088   1.076937   3.104267   5.235812
    36  C    5.188311   4.220554   2.969783   5.224671   7.262923
    37  C    4.965396   4.267926   3.286797   4.842578   6.911850
    38  H    4.975037   4.528238   3.835917   4.746871   6.726505
    39  H    5.614796   4.501184   3.539916   5.954117   7.516759
                   26         27         28         29         30
    26  H    0.000000
    27  H    2.780517   0.000000
    28  H    4.991360   2.433087   0.000000
    29  H    7.038386   4.969625   2.763521   0.000000
    30  H    8.998221   7.206197   5.090936   2.333888   0.000000
    31  H   10.564771   9.202502   7.326718   4.647817   2.456869
    32  H   11.510977  10.641086   9.089162   6.610881   4.691584
    33  H   10.316134  10.381938   9.649356   8.022354   7.147185
    34  H   11.861113  11.521658  10.367903   8.226590   6.705638
    35  H    6.167626   6.704529   6.702834   6.157104   6.510872
    36  C    7.968210   8.053409   7.547424   6.414720   6.252805
    37  C    7.871519   8.301457   8.106771   7.307451   7.368443
    38  H    7.849038   8.532364   8.579723   8.051201   8.292753
    39  H    7.704005   7.316084   6.563646   5.470541   5.559930
                   31         32         33         34         35
    31  H    0.000000
    32  H    2.390797   0.000000
    33  H    5.858547   4.277071   0.000000
    34  H    4.716604   2.483633   2.481222   0.000000
    35  H    6.589965   6.387574   4.325745   5.984582   0.000000
    36  C    5.885239   5.294801   2.541129   4.537191   2.551280
    37  C    7.100426   6.442989   3.098126   5.409338   2.783402
    38  H    8.135048   7.486172   3.933623   6.339180   3.376027
    39  H    5.709189   5.720763   3.984298   5.552141   3.694533
                   36         37         38         39
    36  C    0.000000
    37  C    1.218044   0.000000
    38  H    2.271101   1.063214   0.000000
    39  H    1.913600   2.446876   3.105204   0.000000
 Stoichiometry    C25H14(3)
 Framework group  C1[X(C25H14)]
 Deg. of freedom   111
 Full point group                 C1      NOp   1
 Largest Abelian subgroup         C1      NOp   1
 Largest concise Abelian subgroup C1      NOp   1
                         Standard orientation:                         
 ---------------------------------------------------------------------
 Center     Atomic      Atomic             Coordinates (Angstroms)
 Number     Number       Type             X           Y           Z
 ---------------------------------------------------------------------
      1          6           0        3.862180    0.281280    0.023049
      2          6           0        2.557830   -0.180960   -0.069831
      3          6           0        1.434990    0.630450    0.126149
      4          6           0        1.548690    1.994230    0.371249
      5          6           0        3.995860    1.683730    0.348469
      6          6           0        2.898790    2.496740    0.504989
      7          6           0        0.248070   -0.125840   -0.087631
      8          6           0       -0.988270    0.573350    0.019509
      9          6           0       -0.890620    2.017580    0.130759
     10          6           0        0.328440    2.694380    0.346009
     11          6           0       -2.312030   -0.024230   -0.040651
     12          6           0       -3.418270    0.813080   -0.387131
     13          6           0       -3.254090    2.238070   -0.408241
     14          6           0       -2.072350    2.807450   -0.077021
     15          6           0       -2.611810   -1.389310    0.275749
     16          6           0       -3.886660   -1.902170    0.019849
     17          6           0       -4.910800   -1.096250   -0.479741
     18          6           0       -4.686970    0.255720   -0.636371
     19          6           0        4.862300   -0.688410   -0.259851
     20          6           0        4.488540   -1.978890   -0.627671
     21          6           0        3.139880   -2.395490   -0.747301
     22          6           0        2.134130   -1.475490   -0.459911
     23          6           0        0.683880   -1.437550   -0.488131
     24          1           0        2.920050   -3.409540   -1.063171
     25          1           0        5.268390   -2.700420   -0.845411
     26          1           0        5.914260   -0.429330   -0.204051
     27          1           0        4.988790    2.110260    0.448069
     28          1           0        3.046400    3.550370    0.718469
     29          1           0        0.306520    3.775610    0.436739
     30          1           0       -1.979200    3.886690   -0.021711
     31          1           0       -4.119320    2.849780   -0.638891
     32          1           0       -5.494530    0.916330   -0.932961
     33          1           0       -4.081070   -2.938400    0.265589
     34          1           0       -5.886770   -1.522960   -0.679101
     35          1           0        0.052210   -2.248980   -0.808081
     36          6           0       -1.741900   -2.276580    1.005599
     37          6           0       -1.231670   -3.299130    1.427129
     38          1           0       -0.702650   -4.070880    1.932069
     39          1           0       -1.301920   -1.063100    2.418309
 ---------------------------------------------------------------------
 Rotational constants (GHZ):      0.4547931      0.1751158      0.1323784
 Standard basis: 6-311+G(d,p) (5D, 7F)
 There are   659 symmetry adapted cartesian basis functions of A   symmetry.
 There are   634 symmetry adapted basis functions of A   symmetry.
   634 basis functions,  1012 primitive gaussians,   659 cartesian basis functions
    83 alpha electrons       81 beta electrons
       nuclear repulsion energy      1914.9797537651 Hartrees.
 NAtoms=   39 NActive=   39 NUniq=   39 SFac= 1.00D+00 NAtFMM=   60 NAOKFM=F Big=F
 Integral buffers will be    131072 words long.
 Raffenetti 2 integral format.
 Two-electron integral symmetry is turned on.
 One-electron integrals computed using PRISM.
 NBasis=   634 RedAO= T EigKep=  1.08D-06  NBF=   634
 NBsUse=   619 1.00D-06 EigRej=  9.09D-07 NBFU=   619
 ExpMin= 4.38D-02 ExpMax= 4.56D+03 ExpMxC= 6.82D+02 IAcc=2 IRadAn=         4 AccDes= 0.00D+00
 Harris functional with IExCor=  402 and IRadAn=       4 diagonalized for initial guess.
 HarFok:  IExCor=  402 AccDes= 0.00D+00 IRadAn=         4 IDoV= 1 UseB2=F ITyADJ=14
 ICtDFT=  3500011 ScaDFX=  1.000000  1.000000  1.000000  1.000000
 FoFCou: FMM=F IPFlag=           0 FMFlag=      100000 FMFlg1=           0
         NFxFlg=           0 DoJE=T BraDBF=F KetDBF=T FulRan=T
         wScrn=  0.000000 ICntrl=     500 IOpCl=  0 I1Cent=   200000004 NGrid=           0
         NMat0=    1 NMatS0=      1 NMatT0=    0 NMatD0=    1 NMtDS0=    0 NMtDT0=    0
 Petite list used in FoFCou.
 Initial guess <Sx>= 0.0000 <Sy>= 0.0000 <Sz>= 1.0000 <S**2>= 2.0000 S= 1.0000
 Requested convergence on RMS density matrix=1.00D-08 within 128 cycles.
 Requested convergence on MAX density matrix=1.00D-06.
 Requested convergence on             energy=1.00D-06.
 No special actions if energy rises.
 Restarting incremental Fock formation.
 SCF Done:  E(UB3LYP) =  -961.137684559     A.U. after   25 cycles
            NFock= 25  Conv=0.67D-08     -V/T= 2.0044
 <Sx>= 0.0000 <Sy>= 0.0000 <Sz>= 1.0000 <S**2>= 2.0505 S= 1.0167
 <L.S>= 0.000000000000E+00
 Annihilation of the first spin contaminant:
 S**2 before annihilation     2.0505,   after     2.0015
 DoSCS=F DFT=T ScalE2(SS,OS)=  1.000000  1.000000
 Range of M.O.s used for correlation:     1   619
 NBasis=   634 NAE=    83 NBE=    81 NFC=     0 NFV=     0
 NROrb=    619 NOA=    83 NOB=    81 NVA=   536 NVB=   538

 **** Warning!!: The largest alpha MO coefficient is  0.20791942D+03


 **** Warning!!: The largest beta MO coefficient is  0.19964526D+03


 **** Warning!!: The smallest beta delta epsilon is  0.87376812D-01

 Symmetrizing basis deriv contribution to polar:
 IMax=3 JMax=2 DiffMx= 0.00D+00
 G2DrvN: will do    40 centers at a time, making    1 passes.
 Calling FoFCou, ICntrl=  3107 FMM=F I1Cent=   0 AccDes= 0.00D+00.
 End of G2Drv F.D. properties file   721 does not exist.
 End of G2Drv F.D. properties file   722 does not exist.
 End of G2Drv F.D. properties file   788 does not exist.
          IDoAtm=111111111111111111111111111111111111111
          Differentiating once with respect to nuclear coordinates.
          There are   120 degrees of freedom in the 1st order CPHF.  IDoFFX=6 NUNeed=     0.
    117 vectors produced by pass  0 Test12= 8.81D-14 1.00D-09 XBig12= 6.33D-01 2.43D-01.
 AX will form   117 AO Fock derivatives at one time.
    114 vectors produced by pass  1 Test12= 8.81D-14 1.00D-09 XBig12= 1.95D-01 6.25D-02.
    114 vectors produced by pass  2 Test12= 8.81D-14 1.00D-09 XBig12= 3.10D-03 1.05D-02.
    114 vectors produced by pass  3 Test12= 8.81D-14 1.00D-09 XBig12= 4.92D-05 7.89D-04.
    114 vectors produced by pass  4 Test12= 8.81D-14 1.00D-09 XBig12= 4.60D-07 5.89D-05.
    114 vectors produced by pass  5 Test12= 8.81D-14 1.00D-09 XBig12= 3.00D-09 3.80D-06.
    114 vectors produced by pass  6 Test12= 8.81D-14 1.00D-09 XBig12= 8.43D-11 7.69D-07.
    114 vectors produced by pass  7 Test12= 8.81D-14 1.00D-09 XBig12= 2.35D-11 3.17D-07.
    114 vectors produced by pass  8 Test12= 8.81D-14 1.00D-09 XBig12= 3.08D-12 7.61D-08.
    106 vectors produced by pass  9 Test12= 8.81D-14 1.00D-09 XBig12= 1.80D-13 2.14D-08.
     39 vectors produced by pass 10 Test12= 8.81D-14 1.00D-09 XBig12= 1.09D-15 1.46D-09.
     39 vectors produced by pass 11 Test12= 8.81D-14 1.00D-09 XBig12= 6.91D-14 1.46D-08.
     39 vectors produced by pass 12 Test12= 8.81D-14 1.00D-09 XBig12= 3.86D-12 8.99D-08.
     39 vectors produced by pass 13 Test12= 8.81D-14 1.00D-09 XBig12= 1.27D-12 4.51D-08.
     39 vectors produced by pass 14 Test12= 8.81D-14 1.00D-09 XBig12= 1.70D-13 1.87D-08.
     39 vectors produced by pass 15 Test12= 8.81D-14 1.00D-09 XBig12= 1.25D-13 1.93D-08.
     39 vectors produced by pass 16 Test12= 8.81D-14 1.00D-09 XBig12= 3.65D-13 2.59D-08.
     39 vectors produced by pass 17 Test12= 8.81D-14 1.00D-09 XBig12= 2.24D-13 1.76D-08.
     38 vectors produced by pass 18 Test12= 8.81D-14 1.00D-09 XBig12= 1.59D-13 2.27D-08.
     36 vectors produced by pass 19 Test12= 8.81D-14 1.00D-09 XBig12= 1.29D-13 1.48D-08.
     36 vectors produced by pass 20 Test12= 8.81D-14 1.00D-09 XBig12= 1.34D-13 1.45D-08.
     36 vectors produced by pass 21 Test12= 8.81D-14 1.00D-09 XBig12= 1.26D-13 1.39D-08.
     36 vectors produced by pass 22 Test12= 8.81D-14 1.00D-09 XBig12= 1.12D-13 1.27D-08.
     32 vectors produced by pass 23 Test12= 8.81D-14 1.00D-09 XBig12= 7.53D-14 1.41D-08.
     29 vectors produced by pass 24 Test12= 8.81D-14 1.00D-09 XBig12= 8.93D-14 1.22D-08.
     29 vectors produced by pass 25 Test12= 8.81D-14 1.00D-09 XBig12= 1.42D-13 1.31D-08.
     25 vectors produced by pass 26 Test12= 8.81D-14 1.00D-09 XBig12= 5.74D-14 9.70D-09.
     22 vectors produced by pass 27 Test12= 8.81D-14 1.00D-09 XBig12= 4.71D-14 8.42D-09.
     22 vectors produced by pass 28 Test12= 8.81D-14 1.00D-09 XBig12= 6.40D-14 1.02D-08.
     22 vectors produced by pass 29 Test12= 8.81D-14 1.00D-09 XBig12= 9.38D-14 1.09D-08.
     22 vectors produced by pass 30 Test12= 8.81D-14 1.00D-09 XBig12= 1.27D-13 1.22D-08.
     21 vectors produced by pass 31 Test12= 8.81D-14 1.00D-09 XBig12= 8.32D-14 1.13D-08.
     20 vectors produced by pass 32 Test12= 8.81D-14 1.00D-09 XBig12= 6.83D-14 1.14D-08.
     19 vectors produced by pass 33 Test12= 8.81D-14 1.00D-09 XBig12= 7.13D-14 1.09D-08.
     15 vectors produced by pass 34 Test12= 8.81D-14 1.00D-09 XBig12= 2.95D-14 6.18D-09.
      7 vectors produced by pass 35 Test12= 8.81D-14 1.00D-09 XBig12= 1.36D-14 4.19D-09.
      7 vectors produced by pass 36 Test12= 8.81D-14 1.00D-09 XBig12= 1.15D-13 1.37D-08.
      7 vectors produced by pass 37 Test12= 8.81D-14 1.00D-09 XBig12= 4.52D-14 7.69D-09.
      7 vectors produced by pass 38 Test12= 8.81D-14 1.00D-09 XBig12= 7.25D-14 9.78D-09.
      7 vectors produced by pass 39 Test12= 8.81D-14 1.00D-09 XBig12= 7.45D-14 1.45D-08.
      7 vectors produced by pass 40 Test12= 8.81D-14 1.00D-09 XBig12= 9.55D-14 1.16D-08.
      7 vectors produced by pass 41 Test12= 8.81D-14 1.00D-09 XBig12= 6.85D-14 9.33D-09.
      7 vectors produced by pass 42 Test12= 8.81D-14 1.00D-09 XBig12= 8.56D-14 9.84D-09.
      7 vectors produced by pass 43 Test12= 8.81D-14 1.00D-09 XBig12= 6.11D-14 8.03D-09.
      7 vectors produced by pass 44 Test12= 8.81D-14 1.00D-09 XBig12= 5.07D-14 8.57D-09.
      7 vectors produced by pass 45 Test12= 8.81D-14 1.00D-09 XBig12= 2.53D-14 6.10D-09.
      7 vectors produced by pass 46 Test12= 8.81D-14 1.00D-09 XBig12= 2.11D-14 5.68D-09.
      7 vectors produced by pass 47 Test12= 8.81D-14 1.00D-09 XBig12= 6.01D-14 8.68D-09.
      7 vectors produced by pass 48 Test12= 8.81D-14 1.00D-09 XBig12= 5.19D-14 9.22D-09.
      7 vectors produced by pass 49 Test12= 8.81D-14 1.00D-09 XBig12= 7.55D-14 8.97D-09.
      7 vectors produced by pass 50 Test12= 8.81D-14 1.00D-09 XBig12= 1.30D-14 4.32D-09.
      7 vectors produced by pass 51 Test12= 8.81D-14 1.00D-09 XBig12= 3.56D-14 7.12D-09.
      7 vectors produced by pass 52 Test12= 8.81D-14 1.00D-09 XBig12= 7.13D-14 1.29D-08.
      7 vectors produced by pass 53 Test12= 8.81D-14 1.00D-09 XBig12= 3.91D-14 7.93D-09.
      7 vectors produced by pass 54 Test12= 8.81D-14 1.00D-09 XBig12= 5.24D-14 9.49D-09.
      7 vectors produced by pass 55 Test12= 8.81D-14 1.00D-09 XBig12= 5.18D-14 8.68D-09.
      7 vectors produced by pass 56 Test12= 8.81D-14 1.00D-09 XBig12= 2.84D-14 6.23D-09.
      7 vectors produced by pass 57 Test12= 8.81D-14 1.00D-09 XBig12= 2.09D-14 5.52D-09.
      7 vectors produced by pass 58 Test12= 8.81D-14 1.00D-09 XBig12= 1.63D-14 4.92D-09.
      7 vectors produced by pass 59 Test12= 8.81D-14 1.00D-09 XBig12= 8.39D-14 1.04D-08.
      7 vectors produced by pass 60 Test12= 8.81D-14 1.00D-09 XBig12= 2.01D-14 5.42D-09.
      5 vectors produced by pass 61 Test12= 8.81D-14 1.00D-09 XBig12= 6.20D-15 2.94D-09.
      5 vectors produced by pass 62 Test12= 8.81D-14 1.00D-09 XBig12= 1.49D-14 4.46D-09.
      5 vectors produced by pass 63 Test12= 8.81D-14 1.00D-09 XBig12= 7.29D-14 1.03D-08.
      5 vectors produced by pass 64 Test12= 8.81D-14 1.00D-09 XBig12= 4.17D-14 7.20D-09.
      5 vectors produced by pass 65 Test12= 8.81D-14 1.00D-09 XBig12= 2.03D-14 5.40D-09.
      5 vectors produced by pass 66 Test12= 8.81D-14 1.00D-09 XBig12= 1.20D-14 3.86D-09.
      5 vectors produced by pass 67 Test12= 8.81D-14 1.00D-09 XBig12= 2.05D-14 4.81D-09.
      5 vectors produced by pass 68 Test12= 8.81D-14 1.00D-09 XBig12= 5.30D-14 9.06D-09.
      5 vectors produced by pass 69 Test12= 8.81D-14 1.00D-09 XBig12= 3.68D-14 8.31D-09.
      5 vectors produced by pass 70 Test12= 8.81D-14 1.00D-09 XBig12= 3.94D-14 7.48D-09.
      5 vectors produced by pass 71 Test12= 8.81D-14 1.00D-09 XBig12= 7.34D-14 1.07D-08.
      5 vectors produced by pass 72 Test12= 8.81D-14 1.00D-09 XBig12= 2.62D-14 5.70D-09.
      5 vectors produced by pass 73 Test12= 8.81D-14 1.00D-09 XBig12= 1.45D-14 4.18D-09.
      5 vectors produced by pass 74 Test12= 8.81D-14 1.00D-09 XBig12= 4.62D-14 9.14D-09.
      5 vectors produced by pass 75 Test12= 8.81D-14 1.00D-09 XBig12= 5.79D-14 9.62D-09.
      5 vectors produced by pass 76 Test12= 8.81D-14 1.00D-09 XBig12= 8.96D-15 3.75D-09.
      5 vectors produced by pass 77 Test12= 8.81D-14 1.00D-09 XBig12= 4.78D-14 7.78D-09.
      5 vectors produced by pass 78 Test12= 8.81D-14 1.00D-09 XBig12= 2.85D-14 6.57D-09.
      5 vectors produced by pass 79 Test12= 8.81D-14 1.00D-09 XBig12= 4.18D-14 8.10D-09.
      5 vectors produced by pass 80 Test12= 8.81D-14 1.00D-09 XBig12= 3.93D-14 7.13D-09.
      5 vectors produced by pass 81 Test12= 8.81D-14 1.00D-09 XBig12= 1.36D-14 3.42D-09.
      5 vectors produced by pass 82 Test12= 8.81D-14 1.00D-09 XBig12= 1.23D-13 1.12D-08.
      5 vectors produced by pass 83 Test12= 8.81D-14 1.00D-09 XBig12= 2.95D-14 5.86D-09.
      5 vectors produced by pass 84 Test12= 8.81D-14 1.00D-09 XBig12= 3.13D-14 5.37D-09.
      5 vectors produced by pass 85 Test12= 8.81D-14 1.00D-09 XBig12= 4.68D-14 8.32D-09.
      5 vectors produced by pass 86 Test12= 8.81D-14 1.00D-09 XBig12= 1.97D-14 5.70D-09.
      5 vectors produced by pass 87 Test12= 8.81D-14 1.00D-09 XBig12= 3.19D-14 6.67D-09.
      5 vectors produced by pass 88 Test12= 8.81D-14 1.00D-09 XBig12= 6.17D-14 8.64D-09.
      5 vectors produced by pass 89 Test12= 8.81D-14 1.00D-09 XBig12= 2.53D-14 7.16D-09.
      5 vectors produced by pass 90 Test12= 8.81D-14 1.00D-09 XBig12= 2.11D-14 4.73D-09.
      5 vectors produced by pass 91 Test12= 8.81D-14 1.00D-09 XBig12= 2.31D-14 5.55D-09.
      5 vectors produced by pass 92 Test12= 8.81D-14 1.00D-09 XBig12= 1.57D-14 4.57D-09.
      5 vectors produced by pass 93 Test12= 8.81D-14 1.00D-09 XBig12= 2.37D-14 6.14D-09.
      5 vectors produced by pass 94 Test12= 8.81D-14 1.00D-09 XBig12= 4.33D-14 8.35D-09.
      5 vectors produced by pass 95 Test12= 8.81D-14 1.00D-09 XBig12= 1.47D-14 4.27D-09.
      5 vectors produced by pass 96 Test12= 8.81D-14 1.00D-09 XBig12= 5.67D-14 9.53D-09.
      5 vectors produced by pass 97 Test12= 8.81D-14 1.00D-09 XBig12= 3.52D-14 6.62D-09.
      5 vectors produced by pass 98 Test12= 8.81D-14 1.00D-09 XBig12= 2.13D-14 5.72D-09.
      5 vectors produced by pass 99 Test12= 8.81D-14 1.00D-09 XBig12= 1.86D-14 4.54D-09.
      5 vectors produced by pass100 Test12= 8.81D-14 1.00D-09 XBig12= 4.52D-14 7.96D-09.
      5 vectors produced by pass101 Test12= 8.81D-14 1.00D-09 XBig12= 1.16D-14 4.50D-09.
      4 vectors produced by pass102 Test12= 8.81D-14 1.00D-09 XBig12= 4.14D-15 2.27D-09.
      4 vectors produced by pass103 Test12= 8.81D-14 1.00D-09 XBig12= 3.03D-14 6.39D-09.
      4 vectors produced by pass104 Test12= 8.81D-14 1.00D-09 XBig12= 5.54D-14 8.36D-09.
      4 vectors produced by pass105 Test12= 8.81D-14 1.00D-09 XBig12= 1.29D-14 3.99D-09.
      4 vectors produced by pass106 Test12= 8.81D-14 1.00D-09 XBig12= 6.91D-15 3.29D-09.
      4 vectors produced by pass107 Test12= 8.81D-14 1.00D-09 XBig12= 4.11D-14 7.83D-09.
      4 vectors produced by pass108 Test12= 8.81D-14 1.00D-09 XBig12= 3.38D-14 6.78D-09.
      4 vectors produced by pass109 Test12= 8.81D-14 1.00D-09 XBig12= 1.72D-14 4.79D-09.
      4 vectors produced by pass110 Test12= 8.81D-14 1.00D-09 XBig12= 5.01D-14 8.43D-09.
      4 vectors produced by pass111 Test12= 8.81D-14 1.00D-09 XBig12= 1.40D-14 3.76D-09.
      4 vectors produced by pass112 Test12= 8.81D-14 1.00D-09 XBig12= 1.91D-14 4.82D-09.
      4 vectors produced by pass113 Test12= 8.81D-14 1.00D-09 XBig12= 4.15D-14 7.45D-09.
      4 vectors produced by pass114 Test12= 8.81D-14 1.00D-09 XBig12= 4.86D-15 2.42D-09.
      4 vectors produced by pass115 Test12= 8.81D-14 1.00D-09 XBig12= 4.80D-14 7.34D-09.
      4 vectors produced by pass116 Test12= 8.81D-14 1.00D-09 XBig12= 3.81D-14 7.22D-09.
      4 vectors produced by pass117 Test12= 8.81D-14 1.00D-09 XBig12= 2.87D-14 6.34D-09.
      4 vectors produced by pass118 Test12= 8.81D-14 1.00D-09 XBig12= 1.90D-14 4.86D-09.
      4 vectors produced by pass119 Test12= 8.81D-14 1.00D-09 XBig12= 3.65D-14 6.74D-09.
      4 vectors produced by pass120 Test12= 8.81D-14 1.00D-09 XBig12= 1.29D-14 3.97D-09.
      4 vectors produced by pass121 Test12= 8.81D-14 1.00D-09 XBig12= 3.95D-14 6.41D-09.
      4 vectors produced by pass122 Test12= 8.81D-14 1.00D-09 XBig12= 1.71D-14 4.09D-09.
      4 vectors produced by pass123 Test12= 8.81D-14 1.00D-09 XBig12= 3.25D-14 6.41D-09.
      4 vectors produced by pass124 Test12= 8.81D-14 1.00D-09 XBig12= 1.62D-14 4.48D-09.
      4 vectors produced by pass125 Test12= 8.81D-14 1.00D-09 XBig12= 1.38D-14 4.10D-09.
      4 vectors produced by pass126 Test12= 8.81D-14 1.00D-09 XBig12= 4.29D-14 7.35D-09.
      4 vectors produced by pass127 Test12= 8.81D-14 1.00D-09 XBig12= 2.56D-14 6.61D-09.
      4 vectors produced by pass128 Test12= 8.81D-14 1.00D-09 XBig12= 5.10D-14 9.16D-09.
      4 vectors produced by pass129 Test12= 8.81D-14 1.00D-09 XBig12= 1.03D-14 4.30D-09.
      4 vectors produced by pass130 Test12= 8.81D-14 1.00D-09 XBig12= 1.48D-14 4.01D-09.
      4 vectors produced by pass131 Test12= 8.81D-14 1.00D-09 XBig12= 3.09D-14 6.12D-09.
      4 vectors produced by pass132 Test12= 8.81D-14 1.00D-09 XBig12= 1.31D-14 3.76D-09.
      4 vectors produced by pass133 Test12= 8.81D-14 1.00D-09 XBig12= 4.41D-14 8.40D-09.
      4 vectors produced by pass134 Test12= 8.81D-14 1.00D-09 XBig12= 1.73D-14 3.93D-09.
      4 vectors produced by pass135 Test12= 8.81D-14 1.00D-09 XBig12= 2.18D-14 5.12D-09.
      4 vectors produced by pass136 Test12= 8.81D-14 1.00D-09 XBig12= 2.69D-14 5.38D-09.
      4 vectors produced by pass137 Test12= 8.81D-14 1.00D-09 XBig12= 9.25D-15 3.53D-09.
      4 vectors produced by pass138 Test12= 8.81D-14 1.00D-09 XBig12= 2.39D-14 5.75D-09.
      4 vectors produced by pass139 Test12= 8.81D-14 1.00D-09 XBig12= 1.56D-14 4.34D-09.
      4 vectors produced by pass140 Test12= 8.81D-14 1.00D-09 XBig12= 2.08D-14 5.29D-09.
      4 vectors produced by pass141 Test12= 8.81D-14 1.00D-09 XBig12= 1.74D-14 4.51D-09.
      4 vectors produced by pass142 Test12= 8.81D-14 1.00D-09 XBig12= 2.97D-14 5.63D-09.
      4 vectors produced by pass143 Test12= 8.81D-14 1.00D-09 XBig12= 1.17D-14 4.48D-09.
      4 vectors produced by pass144 Test12= 8.81D-14 1.00D-09 XBig12= 1.83D-14 4.79D-09.
      4 vectors produced by pass145 Test12= 8.81D-14 1.00D-09 XBig12= 7.37D-15 2.83D-09.
      4 vectors produced by pass146 Test12= 8.81D-14 1.00D-09 XBig12= 6.09D-15 2.78D-09.
      4 vectors produced by pass147 Test12= 8.81D-14 1.00D-09 XBig12= 1.18D-14 4.67D-09.
      4 vectors produced by pass148 Test12= 8.81D-14 1.00D-09 XBig12= 7.48D-15 2.83D-09.
      4 vectors produced by pass149 Test12= 8.81D-14 1.00D-09 XBig12= 2.56D-14 5.31D-09.
      4 vectors produced by pass150 Test12= 8.81D-14 1.00D-09 XBig12= 1.66D-14 4.88D-09.
      4 vectors produced by pass151 Test12= 8.81D-14 1.00D-09 XBig12= 1.68D-14 4.68D-09.
      4 vectors produced by pass152 Test12= 8.81D-14 1.00D-09 XBig12= 2.47D-14 5.47D-09.
      4 vectors produced by pass153 Test12= 8.81D-14 1.00D-09 XBig12= 1.06D-14 3.45D-09.
      4 vectors produced by pass154 Test12= 8.81D-14 1.00D-09 XBig12= 7.22D-15 3.03D-09.
      4 vectors produced by pass155 Test12= 8.81D-14 1.00D-09 XBig12= 1.23D-14 3.69D-09.
      4 vectors produced by pass156 Test12= 8.81D-14 1.00D-09 XBig12= 2.57D-14 5.87D-09.
      4 vectors produced by pass157 Test12= 8.81D-14 1.00D-09 XBig12= 4.78D-15 2.58D-09.
      4 vectors produced by pass158 Test12= 8.81D-14 1.00D-09 XBig12= 2.64D-14 6.90D-09.
      4 vectors produced by pass159 Test12= 8.81D-14 1.00D-09 XBig12= 1.72D-14 4.30D-09.
      4 vectors produced by pass160 Test12= 8.81D-14 1.00D-09 XBig12= 9.86D-15 3.50D-09.
      4 vectors produced by pass161 Test12= 8.81D-14 1.00D-09 XBig12= 9.08D-15 3.79D-09.
      4 vectors produced by pass162 Test12= 8.81D-14 1.00D-09 XBig12= 1.59D-14 5.14D-09.
      4 vectors produced by pass163 Test12= 8.81D-14 1.00D-09 XBig12= 1.15D-14 4.06D-09.
      4 vectors produced by pass164 Test12= 8.81D-14 1.00D-09 XBig12= 1.17D-14 4.25D-09.
      4 vectors produced by pass165 Test12= 8.81D-14 1.00D-09 XBig12= 1.24D-14 3.74D-09.
      4 vectors produced by pass166 Test12= 8.81D-14 1.00D-09 XBig12= 1.87D-15 1.34D-09.
      4 vectors produced by pass167 Test12= 8.81D-14 1.00D-09 XBig12= 1.58D-14 4.23D-09.
      4 vectors produced by pass168 Test12= 8.81D-14 1.00D-09 XBig12= 1.81D-14 4.43D-09.
      4 vectors produced by pass169 Test12= 8.81D-14 1.00D-09 XBig12= 2.86D-14 6.27D-09.
      4 vectors produced by pass170 Test12= 8.81D-14 1.00D-09 XBig12= 8.03D-15 3.47D-09.
      4 vectors produced by pass171 Test12= 8.81D-14 1.00D-09 XBig12= 1.21D-14 3.86D-09.
      4 vectors produced by pass172 Test12= 8.81D-14 1.00D-09 XBig12= 7.53D-15 3.17D-09.
      4 vectors produced by pass173 Test12= 8.81D-14 1.00D-09 XBig12= 8.46D-15 3.41D-09.
      4 vectors produced by pass174 Test12= 8.81D-14 1.00D-09 XBig12= 1.28D-14 4.23D-09.
      4 vectors produced by pass175 Test12= 8.81D-14 1.00D-09 XBig12= 2.56D-14 5.88D-09.
      4 vectors produced by pass176 Test12= 8.81D-14 1.00D-09 XBig12= 1.15D-14 3.71D-09.
      4 vectors produced by pass177 Test12= 8.81D-14 1.00D-09 XBig12= 1.02D-14 3.91D-09.
      4 vectors produced by pass178 Test12= 8.81D-14 1.00D-09 XBig12= 1.52D-14 3.89D-09.
      4 vectors produced by pass179 Test12= 8.81D-14 1.00D-09 XBig12= 1.54D-14 4.28D-09.
      4 vectors produced by pass180 Test12= 8.81D-14 1.00D-09 XBig12= 1.17D-14 3.47D-09.
      4 vectors produced by pass181 Test12= 8.81D-14 1.00D-09 XBig12= 2.31D-14 4.88D-09.
      4 vectors produced by pass182 Test12= 8.81D-14 1.00D-09 XBig12= 5.74D-15 2.56D-09.
      4 vectors produced by pass183 Test12= 8.81D-14 1.00D-09 XBig12= 3.26D-14 6.44D-09.
      4 vectors produced by pass184 Test12= 8.81D-14 1.00D-09 XBig12= 7.11D-15 2.55D-09.
      4 vectors produced by pass185 Test12= 8.81D-14 1.00D-09 XBig12= 1.22D-14 3.47D-09.
      4 vectors produced by pass186 Test12= 8.81D-14 1.00D-09 XBig12= 4.46D-15 2.47D-09.
      4 vectors produced by pass187 Test12= 8.81D-14 1.00D-09 XBig12= 1.47D-14 4.95D-09.
      4 vectors produced by pass188 Test12= 8.81D-14 1.00D-09 XBig12= 1.38D-14 3.70D-09.
      4 vectors produced by pass189 Test12= 8.81D-14 1.00D-09 XBig12= 1.66D-14 4.24D-09.
      4 vectors produced by pass190 Test12= 8.81D-14 1.00D-09 XBig12= 1.28D-14 4.35D-09.
      4 vectors produced by pass191 Test12= 8.81D-14 1.00D-09 XBig12= 5.70D-15 2.76D-09.
      4 vectors produced by pass192 Test12= 8.81D-14 1.00D-09 XBig12= 1.27D-14 3.88D-09.
      4 vectors produced by pass193 Test12= 8.81D-14 1.00D-09 XBig12= 1.76D-14 4.76D-09.
      4 vectors produced by pass194 Test12= 8.81D-14 1.00D-09 XBig12= 1.31D-14 3.85D-09.
      4 vectors produced by pass195 Test12= 8.81D-14 1.00D-09 XBig12= 1.43D-14 3.99D-09.
      4 vectors produced by pass196 Test12= 8.81D-14 1.00D-09 XBig12= 1.31D-14 3.99D-09.
      4 vectors produced by pass197 Test12= 8.81D-14 1.00D-09 XBig12= 1.42D-14 3.98D-09.
      4 vectors produced by pass198 Test12= 8.81D-14 1.00D-09 XBig12= 1.46D-14 4.08D-09.
      4 vectors produced by pass199 Test12= 8.81D-14 1.00D-09 XBig12= 1.03D-14 3.56D-09.
      4 vectors produced by pass200 Test12= 8.81D-14 1.00D-09 XBig12= 5.69D-15 2.50D-09.
      4 vectors produced by pass201 Test12= 8.81D-14 1.00D-09 XBig12= 1.81D-14 4.54D-09.
      4 vectors produced by pass202 Test12= 8.81D-14 1.00D-09 XBig12= 8.12D-15 3.22D-09.
      4 vectors produced by pass203 Test12= 8.81D-14 1.00D-09 XBig12= 2.56D-14 5.41D-09.
      4 vectors produced by pass204 Test12= 8.81D-14 1.00D-09 XBig12= 1.19D-14 4.00D-09.
      4 vectors produced by pass205 Test12= 8.81D-14 1.00D-09 XBig12= 5.16D-15 2.19D-09.
      4 vectors produced by pass206 Test12= 8.81D-14 1.00D-09 XBig12= 1.57D-14 4.40D-09.
      4 vectors produced by pass207 Test12= 8.81D-14 1.00D-09 XBig12= 2.08D-14 4.59D-09.
      4 vectors produced by pass208 Test12= 8.81D-14 1.00D-09 XBig12= 2.79D-15 1.97D-09.
      4 vectors produced by pass209 Test12= 8.81D-14 1.00D-09 XBig12= 1.52D-14 4.16D-09.
      4 vectors produced by pass210 Test12= 8.81D-14 1.00D-09 XBig12= 7.53D-15 3.04D-09.
      4 vectors produced by pass211 Test12= 8.81D-14 1.00D-09 XBig12= 1.00D-14 3.37D-09.
      4 vectors produced by pass212 Test12= 8.81D-14 1.00D-09 XBig12= 6.36D-15 2.91D-09.
      4 vectors produced by pass213 Test12= 8.81D-14 1.00D-09 XBig12= 2.70D-14 5.00D-09.
      4 vectors produced by pass214 Test12= 8.81D-14 1.00D-09 XBig12= 6.80D-15 3.05D-09.
      4 vectors produced by pass215 Test12= 8.81D-14 1.00D-09 XBig12= 3.75D-15 2.03D-09.
      4 vectors produced by pass216 Test12= 8.81D-14 1.00D-09 XBig12= 7.98D-15 2.97D-09.
      4 vectors produced by pass217 Test12= 8.81D-14 1.00D-09 XBig12= 5.59D-15 2.49D-09.
      4 vectors produced by pass218 Test12= 8.81D-14 1.00D-09 XBig12= 1.91D-14 5.16D-09.
      4 vectors produced by pass219 Test12= 8.81D-14 1.00D-09 XBig12= 7.88D-15 3.42D-09.
      4 vectors produced by pass220 Test12= 8.81D-14 1.00D-09 XBig12= 1.53D-14 3.97D-09.
      4 vectors produced by pass221 Test12= 8.81D-14 1.00D-09 XBig12= 4.67D-15 2.46D-09.
      4 vectors produced by pass222 Test12= 8.81D-14 1.00D-09 XBig12= 9.46D-15 3.35D-09.
      4 vectors produced by pass223 Test12= 8.81D-14 1.00D-09 XBig12= 4.54D-15 2.51D-09.
      4 vectors produced by pass224 Test12= 8.81D-14 1.00D-09 XBig12= 8.31D-15 2.98D-09.
      4 vectors produced by pass225 Test12= 8.81D-14 1.00D-09 XBig12= 6.40D-15 2.64D-09.
      4 vectors produced by pass226 Test12= 8.81D-14 1.00D-09 XBig12= 8.09D-15 3.55D-09.
      4 vectors produced by pass227 Test12= 8.81D-14 1.00D-09 XBig12= 5.41D-15 2.26D-09.
      4 vectors produced by pass228 Test12= 8.81D-14 1.00D-09 XBig12= 1.50D-14 3.78D-09.
      4 vectors produced by pass229 Test12= 8.81D-14 1.00D-09 XBig12= 4.90D-15 2.28D-09.
      4 vectors produced by pass230 Test12= 8.81D-14 1.00D-09 XBig12= 1.59D-14 4.09D-09.
      4 vectors produced by pass231 Test12= 8.81D-14 1.00D-09 XBig12= 9.98D-15 3.44D-09.
      4 vectors produced by pass232 Test12= 8.81D-14 1.00D-09 XBig12= 8.83D-15 3.29D-09.
      4 vectors produced by pass233 Test12= 8.81D-14 1.00D-09 XBig12= 2.26D-14 5.17D-09.
      4 vectors produced by pass234 Test12= 8.81D-14 1.00D-09 XBig12= 1.26D-14 3.77D-09.
      4 vectors produced by pass235 Test12= 8.81D-14 1.00D-09 XBig12= 9.48D-15 3.09D-09.
      4 vectors produced by pass236 Test12= 8.81D-14 1.00D-09 XBig12= 5.88D-15 2.53D-09.
      4 vectors produced by pass237 Test12= 8.81D-14 1.00D-09 XBig12= 5.51D-15 2.71D-09.
      4 vectors produced by pass238 Test12= 8.81D-14 1.00D-09 XBig12= 1.39D-14 4.38D-09.
      4 vectors produced by pass239 Test12= 8.81D-14 1.00D-09 XBig12= 5.80D-15 2.66D-09.
      4 vectors produced by pass240 Test12= 8.81D-14 1.00D-09 XBig12= 1.55D-14 3.86D-09.
      4 vectors produced by pass241 Test12= 8.81D-14 1.00D-09 XBig12= 4.72D-15 2.09D-09.
      4 vectors produced by pass242 Test12= 8.81D-14 1.00D-09 XBig12= 1.77D-14 5.30D-09.
      4 vectors produced by pass243 Test12= 8.81D-14 1.00D-09 XBig12= 7.11D-15 2.52D-09.
      4 vectors produced by pass244 Test12= 8.81D-14 1.00D-09 XBig12= 1.79D-14 4.14D-09.
      4 vectors produced by pass245 Test12= 8.81D-14 1.00D-09 XBig12= 6.33D-15 2.66D-09.
      4 vectors produced by pass246 Test12= 8.81D-14 1.00D-09 XBig12= 4.73D-15 2.33D-09.
      4 vectors produced by pass247 Test12= 8.81D-14 1.00D-09 XBig12= 8.07D-15 2.71D-09.
      4 vectors produced by pass248 Test12= 8.81D-14 1.00D-09 XBig12= 8.01D-15 3.60D-09.
      4 vectors produced by pass249 Test12= 8.81D-14 1.00D-09 XBig12= 1.25D-14 3.60D-09.
      4 vectors produced by pass250 Test12= 8.81D-14 1.00D-09 XBig12= 1.77D-14 4.77D-09.
      4 vectors produced by pass251 Test12= 8.81D-14 1.00D-09 XBig12= 6.75D-15 3.28D-09.
      4 vectors produced by pass252 Test12= 8.81D-14 1.00D-09 XBig12= 1.67D-14 3.99D-09.
      4 vectors produced by pass253 Test12= 8.81D-14 1.00D-09 XBig12= 3.34D-15 2.16D-09.
      4 vectors produced by pass254 Test12= 8.81D-14 1.00D-09 XBig12= 1.04D-14 3.57D-09.
      4 vectors produced by pass255 Test12= 8.81D-14 1.00D-09 XBig12= 3.58D-15 1.89D-09.
      4 vectors produced by pass256 Test12= 8.81D-14 1.00D-09 XBig12= 1.08D-14 3.00D-09.
      4 vectors produced by pass257 Test12= 8.81D-14 1.00D-09 XBig12= 7.61D-15 2.67D-09.
      4 vectors produced by pass258 Test12= 8.81D-14 1.00D-09 XBig12= 1.48D-14 4.10D-09.
      4 vectors produced by pass259 Test12= 8.81D-14 1.00D-09 XBig12= 1.08D-14 3.26D-09.
      4 vectors produced by pass260 Test12= 8.81D-14 1.00D-09 XBig12= 1.44D-14 3.68D-09.
      4 vectors produced by pass261 Test12= 8.81D-14 1.00D-09 XBig12= 1.55D-14 4.07D-09.
      4 vectors produced by pass262 Test12= 8.81D-14 1.00D-09 XBig12= 2.22D-15 1.47D-09.
      4 vectors produced by pass263 Test12= 8.81D-14 1.00D-09 XBig12= 6.44D-15 2.32D-09.
      4 vectors produced by pass264 Test12= 8.81D-14 1.00D-09 XBig12= 1.04D-14 3.36D-09.
      4 vectors produced by pass265 Test12= 8.81D-14 1.00D-09 XBig12= 7.58D-15 3.43D-09.
      4 vectors produced by pass266 Test12= 8.81D-14 1.00D-09 XBig12= 1.03D-14 3.47D-09.
      4 vectors produced by pass267 Test12= 8.81D-14 1.00D-09 XBig12= 1.53D-14 4.28D-09.
      4 vectors produced by pass268 Test12= 8.81D-14 1.00D-09 XBig12= 5.05D-15 2.30D-09.
      4 vectors produced by pass269 Test12= 8.81D-14 1.00D-09 XBig12= 1.35D-14 3.76D-09.
      4 vectors produced by pass270 Test12= 8.81D-14 1.00D-09 XBig12= 3.67D-15 2.12D-09.
      4 vectors produced by pass271 Test12= 8.81D-14 1.00D-09 XBig12= 1.27D-14 3.53D-09.
      4 vectors produced by pass272 Test12= 8.81D-14 1.00D-09 XBig12= 4.62D-15 2.25D-09.
      4 vectors produced by pass273 Test12= 8.81D-14 1.00D-09 XBig12= 1.77D-14 4.34D-09.
      4 vectors produced by pass274 Test12= 8.81D-14 1.00D-09 XBig12= 3.97D-15 2.01D-09.
      4 vectors produced by pass275 Test12= 8.81D-14 1.00D-09 XBig12= 1.35D-14 3.70D-09.
      4 vectors produced by pass276 Test12= 8.81D-14 1.00D-09 XBig12= 8.79D-15 2.67D-09.
      4 vectors produced by pass277 Test12= 8.81D-14 1.00D-09 XBig12= 8.85D-15 3.05D-09.
      4 vectors produced by pass278 Test12= 8.81D-14 1.00D-09 XBig12= 7.55D-15 2.86D-09.
      4 vectors produced by pass279 Test12= 8.81D-14 1.00D-09 XBig12= 1.81D-14 4.01D-09.
      4 vectors produced by pass280 Test12= 8.81D-14 1.00D-09 XBig12= 5.17D-15 2.19D-09.
      4 vectors produced by pass281 Test12= 8.81D-14 1.00D-09 XBig12= 1.44D-14 3.91D-09.
      4 vectors produced by pass282 Test12= 8.81D-14 1.00D-09 XBig12= 8.36D-15 2.98D-09.
      4 vectors produced by pass283 Test12= 8.81D-14 1.00D-09 XBig12= 1.19D-14 4.03D-09.
      4 vectors produced by pass284 Test12= 8.81D-14 1.00D-09 XBig12= 6.11D-15 2.63D-09.
      4 vectors produced by pass285 Test12= 8.81D-14 1.00D-09 XBig12= 1.44D-14 3.72D-09.
      4 vectors produced by pass286 Test12= 8.81D-14 1.00D-09 XBig12= 5.84D-15 2.26D-09.
      4 vectors produced by pass287 Test12= 8.81D-14 1.00D-09 XBig12= 7.55D-15 3.00D-09.
      4 vectors produced by pass288 Test12= 8.81D-14 1.00D-09 XBig12= 7.27D-15 2.63D-09.
      4 vectors produced by pass289 Test12= 8.81D-14 1.00D-09 XBig12= 1.60D-14 4.52D-09.
      4 vectors produced by pass290 Test12= 8.81D-14 1.00D-09 XBig12= 6.86D-15 2.56D-09.
      4 vectors produced by pass291 Test12= 8.81D-14 1.00D-09 XBig12= 7.52D-15 2.81D-09.
      4 vectors produced by pass292 Test12= 8.81D-14 1.00D-09 XBig12= 7.50D-15 2.93D-09.
      4 vectors produced by pass293 Test12= 8.81D-14 1.00D-09 XBig12= 6.79D-15 2.58D-09.
      4 vectors produced by pass294 Test12= 8.81D-14 1.00D-09 XBig12= 1.31D-14 3.93D-09.
      4 vectors produced by pass295 Test12= 8.81D-14 1.00D-09 XBig12= 9.22D-15 3.35D-09.
      4 vectors produced by pass296 Test12= 8.81D-14 1.00D-09 XBig12= 1.13D-14 3.67D-09.
      4 vectors produced by pass297 Test12= 8.81D-14 1.00D-09 XBig12= 1.01D-14 3.80D-09.
      4 vectors produced by pass298 Test12= 8.81D-14 1.00D-09 XBig12= 1.27D-14 3.54D-09.
      4 vectors produced by pass299 Test12= 8.81D-14 1.00D-09 XBig12= 1.17D-14 3.33D-09.
      4 vectors produced by pass300 Test12= 8.81D-14 1.00D-09 XBig12= 7.35D-15 2.76D-09.
      4 vectors produced by pass301 Test12= 8.81D-14 1.00D-09 XBig12= 5.63D-15 2.30D-09.
      4 vectors produced by pass302 Test12= 8.81D-14 1.00D-09 XBig12= 3.75D-15 2.28D-09.
      4 vectors produced by pass303 Test12= 8.81D-14 1.00D-09 XBig12= 1.65D-14 3.99D-09.
      3 vectors produced by pass304 Test12= 8.81D-14 1.00D-09 XBig12= 1.63D-15 1.23D-09.
      3 vectors produced by pass305 Test12= 8.81D-14 1.00D-09 XBig12= 6.18D-15 2.57D-09.
      3 vectors produced by pass306 Test12= 8.81D-14 1.00D-09 XBig12= 7.11D-15 2.45D-09.
      3 vectors produced by pass307 Test12= 8.81D-14 1.00D-09 XBig12= 5.76D-15 2.86D-09.
      3 vectors produced by pass308 Test12= 8.81D-14 1.00D-09 XBig12= 2.05D-15 1.61D-09.
      3 vectors produced by pass309 Test12= 8.81D-14 1.00D-09 XBig12= 5.72D-15 2.18D-09.
      3 vectors produced by pass310 Test12= 8.81D-14 1.00D-09 XBig12= 7.33D-15 2.80D-09.
      3 vectors produced by pass311 Test12= 8.81D-14 1.00D-09 XBig12= 1.21D-14 4.29D-09.
      3 vectors produced by pass312 Test12= 8.81D-14 1.00D-09 XBig12= 3.94D-15 1.82D-09.
      3 vectors produced by pass313 Test12= 8.81D-14 1.00D-09 XBig12= 3.70D-15 1.91D-09.
      3 vectors produced by pass314 Test12= 8.81D-14 1.00D-09 XBig12= 1.91D-14 4.09D-09.
      3 vectors produced by pass315 Test12= 8.81D-14 1.00D-09 XBig12= 7.41D-15 3.32D-09.
      3 vectors produced by pass316 Test12= 8.81D-14 1.00D-09 XBig12= 1.27D-14 3.60D-09.
      3 vectors produced by pass317 Test12= 8.81D-14 1.00D-09 XBig12= 8.56D-15 3.19D-09.
      3 vectors produced by pass318 Test12= 8.81D-14 1.00D-09 XBig12= 1.15D-14 3.21D-09.
      3 vectors produced by pass319 Test12= 8.81D-14 1.00D-09 XBig12= 9.00D-15 3.10D-09.
      3 vectors produced by pass320 Test12= 8.81D-14 1.00D-09 XBig12= 8.97D-15 2.67D-09.
      3 vectors produced by pass321 Test12= 8.81D-14 1.00D-09 XBig12= 4.94D-15 2.10D-09.
      3 vectors produced by pass322 Test12= 8.81D-14 1.00D-09 XBig12= 1.12D-14 3.19D-09.
      3 vectors produced by pass323 Test12= 8.81D-14 1.00D-09 XBig12= 5.07D-15 2.26D-09.
      3 vectors produced by pass324 Test12= 8.81D-14 1.00D-09 XBig12= 5.65D-15 2.39D-09.
      3 vectors produced by pass325 Test12= 8.81D-14 1.00D-09 XBig12= 9.44D-15 3.27D-09.
      3 vectors produced by pass326 Test12= 8.81D-14 1.00D-09 XBig12= 1.11D-14 3.24D-09.
      3 vectors produced by pass327 Test12= 8.81D-14 1.00D-09 XBig12= 6.02D-15 2.58D-09.
      3 vectors produced by pass328 Test12= 8.81D-14 1.00D-09 XBig12= 2.55D-15 1.69D-09.
      3 vectors produced by pass329 Test12= 8.81D-14 1.00D-09 XBig12= 1.56D-14 3.98D-09.
      3 vectors produced by pass330 Test12= 8.81D-14 1.00D-09 XBig12= 6.95D-15 2.68D-09.
      3 vectors produced by pass331 Test12= 8.81D-14 1.00D-09 XBig12= 5.48D-15 2.27D-09.
      3 vectors produced by pass332 Test12= 8.81D-14 1.00D-09 XBig12= 8.56D-15 3.18D-09.
      3 vectors produced by pass333 Test12= 8.81D-14 1.00D-09 XBig12= 8.97D-15 2.95D-09.
      3 vectors produced by pass334 Test12= 8.81D-14 1.00D-09 XBig12= 4.38D-15 2.12D-09.
      3 vectors produced by pass335 Test12= 8.81D-14 1.00D-09 XBig12= 1.02D-14 3.19D-09.
      3 vectors produced by pass336 Test12= 8.81D-14 1.00D-09 XBig12= 9.21D-15 3.75D-09.
      3 vectors produced by pass337 Test12= 8.81D-14 1.00D-09 XBig12= 5.71D-15 2.35D-09.
      3 vectors produced by pass338 Test12= 8.81D-14 1.00D-09 XBig12= 7.84D-15 2.81D-09.
      3 vectors produced by pass339 Test12= 8.81D-14 1.00D-09 XBig12= 6.39D-15 2.64D-09.
      3 vectors produced by pass340 Test12= 8.81D-14 1.00D-09 XBig12= 7.10D-15 2.91D-09.
      3 vectors produced by pass341 Test12= 8.81D-14 1.00D-09 XBig12= 3.89D-15 2.26D-09.
      3 vectors produced by pass342 Test12= 8.81D-14 1.00D-09 XBig12= 4.75D-15 2.14D-09.
      3 vectors produced by pass343 Test12= 8.81D-14 1.00D-09 XBig12= 4.99D-15 2.07D-09.
      3 vectors produced by pass344 Test12= 8.81D-14 1.00D-09 XBig12= 6.46D-15 2.38D-09.
      3 vectors produced by pass345 Test12= 8.81D-14 1.00D-09 XBig12= 4.57D-15 2.02D-09.
      3 vectors produced by pass346 Test12= 8.81D-14 1.00D-09 XBig12= 8.16D-15 2.84D-09.
      2 vectors produced by pass347 Test12= 8.81D-14 1.00D-09 XBig12= 1.87D-15 1.58D-09.
 InvSVY:  IOpt=1 It=  1 EMax= 1.55D-15
 Solved reduced A of dimension  3233 with   120 vectors.
 End of Minotr F.D. properties file   721 does not exist.
 End of Minotr F.D. properties file   722 does not exist.
 End of Minotr F.D. properties file   788 does not exist.

 **********************************************************************

            Population analysis using the SCF density.

 **********************************************************************

 Orbital symmetries:
 Alpha Orbitals:
       Occupied  (A) (A) (A) (A) (A) (A) (A) (A) (A) (A) (A) (A)
                 (A) (A) (A) (A) (A) (A) (A) (A) (A) (A) (A) (A)
                 (A) (A) (A) (A) (A) (A) (A) (A) (A) (A) (A) (A)
                 (A) (A) (A) (A) (A) (A) (A) (A) (A) (A) (A) (A)
                 (A) (A) (A) (A) (A) (A) (A) (A) (A) (A) (A) (A)
                 (A) (A) (A) (A) (A) (A) (A) (A) (A) (A) (A) (A)
                 (A) (A) (A) (A) (A) (A) (A) (A) (A) (A) (A)
       Virtual   (A) (A) (A) (A) (A) (A) (A) (A) (A) (A) (A) (A)
                 (A) (A) (A) (A) (A) (A) (A) (A) (A) (A) (A) (A)
                 (A) (A) (A) (A) (A) (A) (A) (A) (A) (A) (A) (A)
                 (A) (A) (A) (A) (A) (A) (A) (A) (A) (A) (A) (A)
                 (A) (A) (A) (A) (A) (A) (A) (A) (A) (A) (A) (A)
[...]
 3117,-0.00024704,0.00006748,0.00009302,0.00008518,-0.00000849,0.000185
 29,-0.00011277,-0.00007257,0.00019731,-0.00002474,0.00004431,0.0000490
 3,-0.00000027,0.00001878,-0.00011295,0.00001790,-0.00001572,0.00050912
 ,-0.00012698,0.00003518,0.00016748,0.00007440,0.00006317,-0.00000795,0
 .00007344,-0.00001670,-0.00004702,-0.00002925,0.00000809,0.00000124,0.
 00020464,0.00002469,-0.00027980,-0.00023834,0.00001313,-0.00030857,0.0
 0015177,0.00051928,0.00327971,0.00715726,0.00186832,-0.12963160,-0.223
 59035,-0.07938781,-0.00024592,-0.00017705,-0.00019135,-0.00000195,-0.0
 0000201,-0.00000984,-0.00000962,0.00000174,-0.00001191,-0.00000292,0.0
 0004753,0.00004595,-0.00012325,-0.00005493,0.00003798,0.00003163,-0.00
 003154,-0.00001170,0.00001831,-0.00001696,-0.00000078,0.00000885,0.000
 01196,0.00000108,0.00000576,0.00000102,-0.00000600,0.00000117,0.000005
 61,0.00001730,-0.00000377,0.00000618,-0.00001045,0.14298707,0.22886279
 ,0.00048363,-0.00055546,0.00047099,0.00014200,-0.00135595,0.00248761,-
 0.00012282,-0.00277605,0.00293023,-0.00113585,0.00056566,0.00056469,-0
 .00018102,0.00033163,-0.00011096,0.00036979,-0.00023742,-0.00022675,-0
 .00624217,-0.00076612,0.00144993,0.00090666,0.00015709,-0.00147594,0.0
 0027063,0.00010067,-0.00006159,0.00032950,-0.00019481,0.00006961,-0.00
 003361,-0.00056630,-0.00017634,0.00006294,0.00002466,0.00001816,0.0000
 4256,-0.00002197,0.00000871,-0.00005896,0.00000567,0.00000620,0.000009
 69,-0.00038159,0.00014876,0.00012425,0.00018157,0.00001919,-0.00003912
 ,0.00011422,-0.00007268,-0.00011614,-0.00002385,-0.00004713,-0.0001899
 9,0.00033034,0.00022007,-0.00027619,-0.00001589,-0.00030229,-0.0001580
 0,0.00064878,-0.00118688,0.00230117,0.00004418,0.00274823,-0.05473796,
 -0.07808567,-0.05503546,-0.00011552,-0.00015061,0.00032920,-0.00001432
 ,-0.00001631,0.00002006,-0.00001552,-0.00000161,0.00004580,-0.00000996
 ,0.00002041,-0.00014215,-0.00006559,-0.00000600,-0.00012653,0.00001597
 ,-0.00002985,0.00002852,0.00001628,-0.00000934,0.00000201,-0.00000212,
 0.00000998,0.00000550,0.00000015,0.00001235,0.00001561,0.00003090,0.00
 000354,0.00001711,-0.00002884,0.00001741,-0.00000298,0.05605836,0.0820
 6661,0.04903543,-0.00030438,-0.00002729,0.00020495,0.00038391,-0.00012
 036,-0.00030110,-0.00006998,0.00028537,-0.00001854,0.00046619,-0.00048
 951,-0.00012900,0.00004595,-0.00000277,-0.00005602,-0.00004510,0.00009
 747,0.00004484,0.00074755,-0.00245797,0.00077097,-0.00341520,-0.003163
 27,0.00091304,-0.00037154,0.00146241,-0.00021484,-0.00055313,0.0000724
 7,0.00000568,0.01054226,0.01222330,-0.00121065,0.00192102,-0.00220157,
 -0.00005378,-0.00009242,-0.00055416,-0.00021547,0.00089235,-0.00031399
 ,0.00018275,-0.13476459,0.05936628,-0.06333122,-0.04153664,0.02102059,
 -0.02553970,-0.00174520,-0.00716863,-0.00153922,-0.00030640,0.00120051
 ,0.00042768,0.00001559,-0.00022664,-0.00012903,0.00025971,0.00025167,0
 .00010750,-0.00047102,0.00024799,-0.00004033,0.00059233,0.00012718,-0.
 00013544,-0.00303744,0.00019443,0.00290831,-0.00002710,0.00001916,0.00
 004782,-0.00001080,0.00001135,0.00001717,-0.00000511,-0.00000618,0.000
 00213,-0.00002171,0.00000610,-0.00000089,0.00000497,-0.00001728,0.0000
 0754,-0.00002387,-0.00002636,-0.00000904,-0.00005442,-0.00003003,0.000
 04478,-0.00000059,-0.00020688,-0.00009319,0.00000916,0.00012229,0.0002
 5589,-0.00028149,0.00164036,0.00071368,-0.00074019,0.00064083,-0.00035
 984,-0.00176819,-0.00132000,0.00189612,0.38625810,0.00016554,0.0001629
 1,0.00001372,-0.00050086,0.00021799,-0.00010482,0.00074591,0.00019031,
 0.00024084,-0.00005239,0.00020812,0.00002711,-0.00000187,-0.00018270,-
 0.00001614,-0.00010090,0.00006197,-0.00000003,-0.00195610,-0.00144066,
 0.00077954,0.00540829,0.00341366,0.00006480,-0.00003402,-0.00159160,-0
 .00017591,0.00076724,0.00008000,0.00009290,0.01755516,-0.02720008,0.01
 921077,-0.00461955,-0.00339645,0.00007127,0.00168042,-0.00022981,0.000
 37941,-0.00039774,0.00008278,-0.00007044,0.07824320,-0.13832674,0.0844
 6064,0.01242357,0.00866044,0.00672071,-0.00471127,0.00542825,-0.000832
 23,-0.00043522,-0.00306978,0.00007503,0.00017893,0.00002825,0.00004712
 ,-0.00010083,-0.00005358,0.00002411,0.00031169,-0.00009029,-0.00003920
 ,-0.00077081,0.00000221,-0.00017910,-0.00073874,-0.00024495,0.00174293
 ,0.00002049,-0.00002041,-0.00004688,0.00001254,-0.00000530,-0.00000377
 ,-0.00000626,0.00000669,-0.00001889,0.00002363,0.00000410,0.00000664,0
 .00000255,0.00001907,-0.00000089,0.00002030,0.00003563,0.00002207,-0.0
 0002078,-0.00000151,-0.00001933,-0.00000920,-0.00042224,-0.00003344,0.
 00010526,0.00003629,-0.00021090,-0.00121238,0.00038310,-0.00216497,-0.
 00029513,0.00039600,-0.00026850,-0.00069625,-0.00028559,0.00032281,-0.
 42451990,0.72812980,0.00011114,-0.00016038,-0.00012246,0.00007619,-0.0
 0020968,0.00005505,-0.00062784,-0.00025258,0.00019453,-0.00028622,0.00
 025105,-0.00003768,-0.00011762,0.00019331,0.00004028,0.00017110,-0.000
 01053,0.00000245,0.00074183,0.00180189,-0.00014527,0.00052717,-0.00093
 956,-0.00269505,-0.00021916,-0.00030498,0.00006822,0.00009854,-0.00016
 395,0.00012943,-0.00377015,0.01039933,-0.00465072,-0.00007468,0.001265
 68,0.00510867,-0.00069468,0.00043655,0.00018470,-0.00005992,-0.0002831
 5,-0.00019920,-0.05920205,0.06940907,-0.10076731,-0.02490183,0.0051582
 5,-0.00582680,0.00072095,-0.00417983,0.00730656,0.00202598,0.00256372,
 -0.00084793,-0.00014334,0.00013844,0.00009673,-0.00015440,-0.00006510,
 -0.00009925,0.00003554,-0.00006941,-0.00001288,0.00035837,0.00021446,0
 .00019009,0.00176862,-0.00023999,-0.00257559,-0.00000932,0.00001898,0.
 00005579,-0.00001098,-0.00000278,0.00000499,-0.00000623,0.00000131,0.0
 0001797,-0.00000537,0.00000182,-0.00000643,-0.00000958,-0.00001468,0.0
 0000717,-0.00002561,-0.00002830,-0.00002414,-0.00002744,-0.00002923,0.
 00000378,0.00004485,0.00009854,0.00007413,0.00024455,-0.00004528,-0.00
 081261,0.00166318,-0.00030610,-0.00314157,-0.00001692,-0.00002012,0.00
 026754,0.00256299,0.00113576,-0.00114468,0.23697311,-0.42682150,0.2540
 9559,-0.00005557,0.00037827,-0.00003173,-0.00047368,0.00026119,-0.0000
 0617,0.00076841,0.00003655,0.00004072,0.00046722,-0.00017132,0.0000893
 5,0.00020524,-0.00035683,-0.00001410,-0.00040280,0.00001031,-0.0000439
 8,-0.00029443,-0.00093514,0.00000015,0.00053868,0.00139938,0.00036973,
 0.00016832,-0.00062098,-0.00017570,-0.00006254,0.00004106,-0.00004820,
 -0.00380186,-0.00447366,0.00038122,-0.00066825,0.00048422,-0.00104351,
 0.00019544,0.00006002,0.00007466,-0.00047011,0.00027614,-0.00002141,-0
 .00252052,0.01776313,-0.00166157,0.00282940,0.00150558,0.00038211,0.00
 052416,0.00109097,-0.00047251,-0.00017186,0.00022797,-0.00018527,0.000
 16229,-0.00020069,-0.00001658,0.00015441,0.00003342,0.00002469,0.00008
 004,-0.00007617,0.00007185,-0.00031118,-0.00019026,-0.00000582,-0.0006
 1807,0.00006001,0.00249847,0.00003040,-0.00003714,-0.00009004,0.000002
 14,0.00000533,-0.00000800,-0.00000321,-0.00000831,-0.00001623,0.000007
 23,-0.00000993,0.00000011,-0.00000012,0.00000749,-0.00001065,0.0000103
 8,0.00001705,0.00003569,0.00004076,0.00002296,-0.00001660,0.00000657,0
 .00007926,0.00005391,-0.00001299,0.00006286,0.00005473,0.00008470,0.00
 029601,0.00012554,-0.00012230,0.00002510,-0.00001721,-0.00131051,-0.00
 124494,0.00046693,-0.21370435,0.32247601,-0.16699076,0.33556250,0.0000
 9177,-0.00004990,-0.00004275,-0.00003678,-0.00023682,-0.00004298,0.000
 04601,0.00018875,0.00019135,0.00011836,-0.00023675,-0.00010496,-0.0000
 4968,-0.00002664,-0.00002953,0.00003264,0.00009442,0.00004644,0.000688
 80,-0.00042567,0.00026788,-0.00222942,-0.00151051,-0.00035255,-0.00016
 161,0.00107146,0.00014291,-0.00038416,0.00013546,-0.00000563,0.0046897
 6,0.00507850,-0.00128209,0.00005898,-0.00077142,0.00133786,-0.00003295
 ,-0.00011132,-0.00009106,0.00035634,-0.00009713,0.00005625,0.00300312,
 -0.01939646,-0.00374982,-0.00866453,-0.00250939,-0.00343403,0.00120764
 ,-0.00163053,0.00135316,0.00010469,0.00126373,-0.00015891,-0.00014337,
 0.00006207,-0.00000648,-0.00000560,0.00011858,0.00000009,-0.00029067,0
 .00000822,-0.00007687,0.00058223,0.00017215,0.00041963,-0.00129884,-0.
 00045005,-0.00000236,-0.00005330,0.00007908,0.00010187,-0.00003234,0.0
 0001203,0.00001750,-0.00000754,0.00000252,0.00001454,-0.00003572,-0.00
 000019,0.00000466,-0.00000667,-0.00002621,-0.00001194,-0.00002963,-0.0
 0004926,-0.00001976,-0.00003017,-0.00003404,0.00000754,0.00000332,-0.0
 0010754,-0.00002550,0.00007951,-0.00001171,-0.00003624,0.00046272,0.00
 050627,-0.00026242,0.00016553,-0.00020908,0.00017702,0.00007984,-0.000
 02299,0.00029167,0.33798874,-0.59378129,0.31924396,-0.48008670,0.86321
 624,0.00002128,-0.00000657,0.00011382,0.00026851,0.00008749,0.00000263
 ,0.00028891,0.00018602,0.00024705,0.00000908,-0.00005780,-0.00002178,0
 .00003042,0.00005189,0.00002163,0.00009052,-0.00003651,-0.00001731,-0.
 00007561,-0.00005778,0.00018643,0.00029121,-0.00000032,0.00059642,0.00
 032613,0.00025168,0.00012931,-0.00005434,-0.00002832,-0.00001749,-0.00
 350059,-0.00231774,0.00049639,-0.00018287,0.00061817,-0.00073393,-0.00
 010034,-0.00010103,-0.00007952,-0.00014627,0.00017908,0.00002872,-0.00
 518803,0.01361869,0.00049709,0.00288231,0.00235177,0.00167403,-0.00042
 926,0.00063635,-0.00072590,-0.00021550,-0.00015191,0.00003270,0.000030
 55,0.00003464,-0.00001356,-0.00001305,-0.00001008,0.00002641,0.0000335
 6,-0.00002423,-0.00003499,-0.00008180,0.00028092,-0.00005053,0.0006970
 6,-0.00022347,-0.00156697,-0.00002280,0.00000528,0.00000923,0.00001514
 ,-0.00000592,-0.00001278,0.00001286,0.00000780,-0.00000722,0.00001869,
 0.00001465,-0.00002136,0.00000935,0.00002429,-0.00000627,0.00001361,0.
 00003429,-0.00002181,0.00004044,0.00003185,-0.00001740,-0.00000301,0.0
 0010268,-0.00001795,-0.00004997,0.00004727,0.00006019,-0.00000096,-0.0
 0012388,0.00005450,-0.00012785,0.00008935,-0.00022861,0.00087419,0.001
 07044,-0.00028549,-0.15972029,0.29042876,-0.16779787,0.25923466,-0.433
 49540,0.27853822,0.00004952,-0.00004262,0.00000122,-0.00002307,-0.0000
 8557,-0.00000737,-0.00000082,0.00002921,0.00002947,-0.00005863,0.00000
 402,-0.00000849,-0.00005144,0.00001088,-0.00000975,0.00004328,0.000021
 22,0.00000868,-0.00007909,0.00000516,0.00002028,-0.00001083,-0.0001004
 5,-0.00010874,-0.00001778,0.00006432,0.00005275,-0.00000072,0.00001047
 ,0.00001448,-0.00055814,0.00025933,-0.00034582,0.00014078,0.00032267,0
 .00015310,-0.00014642,0.00004505,-0.00001504,0.00004442,-0.00005688,-0
 .00000334,0.00420961,0.00283722,-0.00183141,0.00047918,-0.00050674,0.0
 0033133,-0.00006904,-0.00003958,0.00022565,0.00016920,-0.00003978,0.00
 003276,-0.00002646,0.00003046,0.00000029,-0.00006500,0.00003298,-0.000
 01524,-0.00003643,0.00000805,-0.00005856,0.00005013,-0.00000785,-0.000
 02879,0.00007859,-0.00005297,-0.00022750,-0.00001820,0.00002913,0.0000
 8506,-0.00000695,-0.00000392,0.00001235,0.00000131,0.00000466,0.000008
 01,0.00000271,0.00000284,0.00000463,-0.00000289,0.00000195,0.00000135,
 -0.00000118,0.00000309,-0.00000634,-0.00000121,-0.00000039,-0.00000495
 ,0.00000440,0.00002539,-0.00000284,-0.00000192,-0.00001287,-0.00003712
 ,0.00002035,-0.00005967,-0.00012452,0.00002188,-0.00001905,0.00001410,
 0.00019970,0.00006875,0.00003292,0.00486921,-0.00842042,0.00257542,-0.
 12096323,0.14810086,-0.09546827,0.11198565,0.00005242,-0.00005388,-0.0
 0000619,0.00001664,0.00000891,0.00000760,-0.00007378,-0.00006338,-0.00
 001853,-0.00008359,0.00006735,-0.00000059,-0.00001110,0.00003202,0.000
 00307,0.00001713,-0.00003908,-0.00001002,-0.00009523,0.00014848,0.0000
 0821,0.00007348,-0.00002775,-0.00003814,0.00006994,-0.00003403,0.00000
 192,0.00002808,-0.00003080,0.00001271,-0.00041019,-0.00000585,0.000014
 52,0.00000675,0.00001770,-0.00015009,0.00001459,0.00002001,0.00000867,
 -0.00003056,-0.00000636,-0.00001554,0.00069385,0.00281671,0.00027870,0
 .00050292,-0.00014156,0.00002133,0.00006409,0.00012769,0.00004006,-0.0
 0005923,0.00005046,-0.00001292,-0.00000831,0.00006277,0.00002038,-0.00
 004198,-0.00005667,-0.00001361,0.00003690,0.00006929,0.00004105,-0.000
 11098,-0.00003600,-0.00003142,0.00013371,-0.00001838,-0.00014823,0.000
 00203,-0.00001262,-0.00002103,0.00002280,-0.00000643,-0.00000716,0.000
 00918,0.00000282,-0.00000061,0.00001150,0.00000260,0.00000127,0.000001
 33,0.00000940,0.00000466,0.00000264,0.00000883,0.00000317,0.00000594,0
 .00001054,0.00000036,-0.00000965,0.00001489,0.00000117,-0.00000714,0.0
 0000663,-0.00000462,0.00002755,0.00001559,0.00001090,-0.00002028,-0.00
 000544,0.00000962,0.00000511,0.00006367,0.00007462,0.00484978,-0.00357
 750,0.00416571,0.13706192,-0.22180329,0.13309315,-0.14274510,0.2210499
 2,-0.00004146,0.00003081,-0.00000047,-0.00007163,0.00006363,-0.0000028
 5,0.00002314,-0.00011246,-0.00004292,0.00003314,0.00001435,0.00000126,
 0.00002325,-0.00003099,-0.00000833,-0.00005342,-0.00000867,-0.00000681
 ,-0.00008724,0.00002261,0.00004959,-0.00004749,0.00003857,0.00006149,-
 0.00000046,-0.00002208,-0.00005144,-0.00000136,-0.00001519,-0.00000311
 ,-0.00024422,0.00025451,0.00036893,0.00008853,-0.00008921,-0.00033989,
 0.00004599,-0.00001421,-0.00000678,-0.00000422,-0.00000224,0.00000093,
 -0.00133312,0.00172487,0.00334099,0.00032116,-0.00018724,-0.00008604,0
 .00007572,0.00017163,-0.00018274,-0.00015401,-0.00004543,0.00001610,0.
 00000573,-0.00002449,-0.00001077,0.00002209,-0.00004944,-0.00001257,0.
 00006904,0.00002876,0.00003861,-0.00010022,-0.00001820,-0.00000378,0.0
 0026952,0.00009683,0.00017924,0.00004912,-0.00003644,-0.00005435,-0.00
 000331,0.00000466,0.00000474,-0.00000809,-0.00000975,0.00000109,-0.000
 00668,-0.00000658,0.00000232,-0.00000199,-0.00000807,0.00000218,0.0000
 0002,-0.00000758,0.00000938,-0.00000025,-0.00000494,0.00000664,0.00000
 186,-0.00000972,-0.00000181,-0.00000324,-0.00000698,0.00003421,-0.0000
 9020,0.00003549,0.00013568,0.00000762,-0.00000763,0.00000641,-0.000202
 81,0.00001798,-0.00015010,0.00526798,-0.01274834,0.00424085,-0.0984058
 2,0.14818100,-0.11049733,0.09441161,-0.13843846,0.10223341,-0.00000791
 ,0.00003027,0.00001198,0.00002821,0.00001164,0.00000244,0.00020275,0.0
 0005621,0.00012717,0.00011795,-0.00009010,-0.00000709,0.00003556,-0.00
 003573,-0.00001416,-0.00003359,0.00000969,0.00001193,-0.00010743,-0.00
 044672,0.00006806,-0.00023207,-0.00041508,0.00032921,0.00004474,0.0002
 6017,0.00010615,-0.00015116,-0.00000409,-0.00008293,-0.00028479,-0.000
 02284,-0.00083322,0.00028894,-0.00014622,0.00011011,0.00003732,-0.0001
 1120,-0.00002259,0.00000341,0.00006863,0.00001717,-0.00292572,-0.00109
 287,-0.00611469,0.00110929,0.00007593,-0.00042599,-0.00034212,0.000569
 44,0.00016175,-0.00033548,-0.00020907,-0.00002817,0.00003226,-0.000034
 76,-0.00000893,0.00003658,0.00004172,0.00001377,-0.00003315,0.00001296
 ,0.00002124,0.00003310,0.00001220,-0.00006691,-0.00009612,0.00020761,0
 .00015357,-0.00000026,0.00000102,-0.00000584,0.00000122,0.00000121,-0.
 00000231,-0.00000009,-0.00000055,-0.00000184,0.00000173,0.00000129,-0.
 00000105,0.00000051,0.00000332,-0.00000488,-0.00000398,0.00000175,-0.0
 0000074,0.00000951,0.00000135,0.00000102,-0.00000165,0.00000369,0.0000
 0635,0.00000035,-0.00000342,-0.00001628,0.00003055,-0.00001084,-0.0000
 4958,-0.00003942,0.00002402,0.00001929,-0.00000558,-0.00002981,-0.0000
 1674,-0.00365743,0.00945988,0.00665455,0.00412931,-0.00428120,0.000192
 30,-0.00023046,-0.00000316,0.00014571,0.00234510,-0.00005508,0.0000403
 3,0.00000699,-0.00001321,-0.00000445,0.00005475,0.00012306,0.00007809,
 -0.00006093,0.00009197,-0.00016548,-0.00000222,0.00002460,-0.00003942,
 -0.00001770,-0.00004149,0.00000253,0.00000028,-0.00015556,-0.00029352,
 0.00004442,-0.00018857,-0.00047690,0.00057851,0.00000735,0.00013087,0.
 00007178,-0.00014585,0.00002158,-0.00007722,0.00080378,-0.00066358,0.0
 0086142,0.00004021,-0.00001201,0.00026500,0.00001717,0.00000834,-0.000
 01143,0.00000169,-0.00001571,-0.00001056,-0.00347902,-0.00003311,-0.00
 502957,0.00112322,0.00000607,-0.00005342,-0.00035159,0.00016908,-0.000
 13842,0.00009163,-0.00036149,0.00004534,0.00001412,-0.00007785,-0.0000
 2662,0.00008372,0.00006486,0.00002915,-0.00009490,0.00003764,0.0000252
 6,0.00014191,-0.00004338,-0.00008827,-0.00008749,0.00037976,0.00010009
 ,0.00000345,-0.00000366,-0.00001220,-0.00000034,0.00000176,0.00000108,
 -0.00000094,-0.00000324,-0.00000006,-0.00000166,-0.00000234,0.00000443
 ,-0.00000123,-0.00000283,0.00000156,-0.00000434,-0.00000478,0.00000613
 ,-0.00000818,-0.00000730,0.00000548,0.00000318,-0.00000697,-0.00000379
 ,-0.00001083,-0.00001374,0.00000155,-0.00010557,-0.00009329,0.00007863
 ,-0.00000417,0.00002018,0.00004071,0.00006478,-0.00004724,-0.00012908,
 0.00102450,0.02637287,0.01764931,0.00472987,-0.02851130,-0.00660555,0.
 00027613,0.00131271,0.00121863,-0.00391632,0.00223691,-0.00002480,0.00
 002364,0.00000513,0.00000494,0.00003256,0.00003014,0.00001665,-0.00001
 426,-0.00008827,0.00007082,-0.00009548,-0.00001423,0.00002703,-0.00003
 346,-0.00000777,-0.00004554,-0.00000961,0.00000481,0.00033003,0.000068
 46,-0.00022594,-0.00082078,-0.00002417,-0.00051322,0.00001748,0.000108
 13,-0.00001183,-0.00016498,0.00001319,-0.00000412,-0.00015614,-0.00001
 761,-0.00154111,0.00051117,-0.00040764,0.00024156,0.00000275,-0.000065
 17,-0.00000494,0.00003245,0.00007543,0.00002733,-0.00778105,-0.0031503
 1,-0.01042039,0.00158547,0.00048197,-0.00087876,-0.00062550,0.00063016
 ,0.00008599,-0.00046084,-0.00035494,-0.00004204,-0.00000022,-0.0000415
 5,-0.00001402,0.00005652,0.00002003,0.00001386,-0.00006060,0.00001882,
 0.00000791,0.00008497,-0.00005920,-0.00001645,-0.00004709,0.00019034,0
 .00000751,-0.00000125,0.00000049,-0.00000683,-0.00000089,0.00000055,-0
 .00000119,0.00000300,-0.00000105,-0.00000218,0.00000075,-0.00000138,-0
 .00000156,0.00000026,0.00000175,-0.00000288,0.00000130,0.00000132,0.00
 000147,0.00000747,0.00000691,0.00000341,-0.00000521,0.00000183,-0.0000
 0614,-0.00000762,-0.00000673,-0.00001189,-0.00004312,-0.00014285,0.000
 03205,-0.00009357,0.00007159,0.00005525,0.00006431,0.00000744,-0.00009
 366,0.00230568,0.03902407,0.01876290,0.00537733,-0.02862409,-0.0005387
 0,0.00028866,0.00109430,0.00072804,-0.00044983,-0.00882347,-0.00555925
 \\0.00000002,-0.00000040,-0.00000034,-0.00000003,-0.00000043,0.0000003
 5,0.00000005,-0.00000009,-0.00000054,0.00000015,0.00000025,-0.00000249
 ,0.00000019,-0.00000004,-0.00000204,0.00000023,0.00000032,-0.00000298,
 -0.00000005,-0.00000018,0.00000008,0.00000017,0.00000008,-0.00000068,0
 .00000022,0.00000021,-0.00000246,0.00000030,0.00000036,-0.00000327,-0.
 00000001,0.00000022,-0.00000006,0.00000010,-0.00000013,-0.00000117,0.0
 0000021,-0.00000018,-0.00000275,0.00000037,0.00000013,-0.00000353,-0.0
 0000015,0.00000064,0.00000164,-0.00000019,0.00000041,0.00000227,-0.000
 00016,-0.00000012,0.00000118,0.00000002,-0.00000029,-0.00000042,-0.000
 00004,-0.00000084,0.00000091,-0.00000019,-0.00000132,0.00000241,-0.000
 00028,-0.00000133,0.00000291,-0.00000017,-0.00000080,0.00000181,-0.000
 00016,-0.00000068,0.00000168,-0.00000034,-0.00000166,0.00000414,-0.000
 00026,-0.00000166,0.00000334,-0.00000002,-0.00000093,0.00000061,0.0000
 0024,-0.00000001,-0.00000247,0.00000038,0.00000052,-0.00000426,0.00000
 042,0.00000045,-0.00000461,0.00000041,0.00000015,-0.00000477,0.0000003
 3,-0.00000036,-0.00000357,0.00000011,-0.00000058,-0.00000124,-0.000000
 34,0.00000074,0.00000346,-0.00000016,-0.00000023,0.00000171,-0.0000002
 1,-0.00000100,0.00000271,-0.00000042,0.00000132,0.00000262,-0.00000035
 ,0.00000181,0.00000391,-0.00000050,0.00000244,0.00000489,0.00000010,0.
 00000321,0.00000104\\\@


 THE UNDERLYING PHYSICAL LAWS NECESSARY FOR THE 
 MATHEMATICAL THEORY OF A LARGE PART OF PHYSICS AND THE
 WHOLE OF CHEMISTRY ARE THUS COMPLETELY KNOWN, AND THE
 DIFFICULTY IS ONLY THAT THE EXACT APPLICATION OF THESE
 LAWS LEADS TO EQUATIONS MUCH TOO COMPLICATED 
 TO BE SOLUBLE.

                                        -- P. A. M. DIRAC, 1929
 Job cpu time:       2 days 21 hours 16 minutes 44.6 seconds.
 File lengths (MBytes):  RWF=   8865 Int=      0 D2E=      0 Chk=     42 Scr=      1
 Normal termination of Gaussian 09 at Mon Feb  3 03:35:41 2020.
