 Entering Gaussian System, Link 0=g09
 Initial command:
 /usr/local/Cluster-Apps/gaussian/g09/l1.exe "/rds/user/am2145/hpc-work/scratch/19190026/Gau-179373.inp" -scrdir="/rds/user/am2145/hpc-work/scratch/19190026/"
 Entering Link 1 = /usr/local/Cluster-Apps/gaussian/g09/l1.exe PID=    179374.
  
 Copyright (c) 1988,1990,1992,1993,1995,1998,2003,2009,2013,
            Gaussian, Inc.  All Rights Reserved.
  
 This is part of the Gaussian(R) 09 program.  It is based on
 the Gaussian(R) 03 system (copyright 2003, Gaussian, Inc.),
 the Gaussian(R) 98 system (copyright 1998, Gaussian, Inc.),
 the Gaussian(R) 94 system (copyright 1995, Gaussian, Inc.),
 the Gaussian 92(TM) system (copyright 1992, Gaussian, Inc.),
 the Gaussian 90(TM) system (copyright 1990, Gaussian, Inc.),
 the Gaussian 88(TM) system (copyright 1988, Gaussian, Inc.),
 the Gaussian 86(TM) system (copyright 1986, Carnegie Mellon
 University), and the Gaussian 82(TM) system (copyright 1983,
 Carnegie Mellon University). Gaussian is a federally registered
 trademark of Gaussian, Inc.
  
 This software contains proprietary and confidential information,
 including trade secrets, belonging to Gaussian, Inc.
  
 This software is provided under written license and may be
 used, copied, transmitted, or stored only in accord with that
 written license.
  
 The following legend is applicable only to US Government
 contracts under FAR:
  
                    RESTRICTED RIGHTS LEGEND
  
 Use, reproduction and disclosure by the US Government is
 subject to restrictions as set forth in subparagraphs (a)
 and (c) of the Commercial Computer Software - Restricted
 Rights clause in FAR 52.227-19.
  
 Gaussian, Inc.
 340 Quinnipiac St., Bldg. 40, Wallingford CT 06492
  
  
 ---------------------------------------------------------------
 Warning -- This program may not be used in any manner that
 competes with the business of Gaussian, Inc. or will provide
 assistance to any competitor of Gaussian, Inc.  The licensee
 of this program is prohibited from giving any competitor of
 Gaussian, Inc. access to this program.  By using this program,
 the user acknowledges that Gaussian, Inc. is engaged in the
 business of creating and licensing software in the field of
 computational chemistry and represents and warrants to the
 licensee that it is not a competitor of Gaussian, Inc. and that
 it will not use this program in any manner prohibited above.
 ---------------------------------------------------------------
  

 Cite this work as:
 Gaussian 09, Revision D.01,
 M. J. Frisch, G. W. Trucks, H. B. Schlegel, G. E. Scuseria, 
 M. A. Robb, J. R. Cheeseman, G. Scalmani, V. Barone, B. Mennucci, 
 G. A. Petersson, H. Nakatsuji, M. Caricato, X. Li, H. P. Hratchian, 
 A. F. Izmaylov, J. Bloino, G. Zheng, J. L. Sonnenberg, M. Hada, 
 M. Ehara, K. Toyota, R. Fukuda, J. Hasegawa, M. Ishida, T. Nakajima, 
 Y. Honda, O. Kitao, H. Nakai, T. Vreven, J. A. Montgomery, Jr., 
 J. E. Peralta, F. Ogliaro, M. Bearpark, J. J. Heyd, E. Brothers, 
 K. N. Kudin, V. N. Staroverov, T. Keith, R. Kobayashi, J. Normand, 
 K. Raghavachari, A. Rendell, J. C. Burant, S. S. Iyengar, J. Tomasi, 
 M. Cossi, N. Rega, J. M. Millam, M. Klene, J. E. Knox, J. B. Cross, 
 V. Bakken, C. Adamo, J. Jaramillo, R. Gomperts, R. E. Stratmann, 
 O. Yazyev, A. J. Austin, R. Cammi, C. Pomelli, J. W. Ochterski, 
 R. L. Martin, K. Morokuma, V. G. Zakrzewski, G. A. Voth, 
 P. Salvador, J. J. Dannenberg, S. Dapprich, A. D. Daniels, 
 O. Farkas, J. B. Foresman, J. V. Ortiz, J. Cioslowski, 
 and D. J. Fox, Gaussian, Inc., Wallingford CT, 2013.
 
 ******************************************
 Gaussian 09:  ES64L-G09RevD.01 24-Apr-2013
                 2-Feb-2020 
 ******************************************
 %NProcShared=20
 Will use up to   20 processors via shared memory.
 %mem=64GB
 %Chk=BS2a_Hloss_guess.chk
 --------------------------------------------------
 #n opt=(ts,calcfc,noeigen) freq b3lyp/6-311+g(d,p)
 --------------------------------------------------
 1/5=1,10=4,11=1,14=-1,18=20,26=3,38=1/1,3;
 2/9=110,12=2,17=6,18=5,40=1/2;
 3/5=4,6=6,7=111,11=2,16=1,25=1,30=1,71=2,74=-5,140=1/1,2,3;
 4//1;
 5/5=2,38=5/2;
 8/6=4,10=90,11=11/1;
 11/6=1,8=1,9=11,15=111,16=1/1,2,10;
 10/6=1,13=1/2;
 6/7=2,8=2,9=2,10=2,28=1/1;
 7/10=1,18=20,25=1/1,2,3,16;
 1/5=1,10=4,11=1,14=-1,18=20,26=3/3(2);
 2/9=110/2;
 99//99;
 2/9=110/2;
 3/5=4,6=6,7=111,11=2,16=1,25=1,30=1,71=1,74=-5/1,2,3;
 4/5=5,16=3,69=1/1;
 5/5=2,38=5/2;
 7//1,2,3,16;
 1/5=1,11=1,14=-1,18=20,26=3/3(-5);
 2/9=110/2;
 6/7=2,8=2,9=2,10=2,19=2,28=1/1;
 99/9=1/99;
 ----------------
 BS2a_Hloss_guess
 ----------------
 Symbolic Z-matrix:
 Charge =  0 Multiplicity = 3
 C                     3.74821  -0.54833  -0.15991 
 C                     2.47422   0.00269  -0.09796 
 C                     1.2955   -0.75509  -0.08508 
 C                     1.33545  -2.14874  -0.08425 
 C                     3.79416  -1.99147  -0.20911 
 C                     2.64927  -2.74768  -0.1644 
 C                     0.15484   0.08652   0.00381 
 C                    -1.11574  -0.56436   0.01132 
 C                    -1.09497  -2.01122   0.13126 
 C                     0.08803  -2.77201   0.06503 
 C                    -2.41299   0.08028  -0.1203 
 C                    -3.60462  -0.66521   0.12961 
 C                    -3.5217   -2.07039   0.39778 
 C                    -2.33214  -2.7129    0.34632 
 C                    -2.56159   1.4121   -0.56508 
 C                    -3.80263   2.00911  -0.66762 
 C                    -4.9633    1.29441  -0.33582 
 C                    -4.8593   -0.02793   0.04354 
 C                     4.81111   0.39184  -0.12844 
 C                     4.53046   1.75094  -0.01613 
 C                     3.21441   2.2654    0.07676 
 C                     2.15718   1.36667   0.02828 
 C                     0.69125   1.44716   0.12534 
 H                     3.05403   3.33193   0.18544 
 H                     5.35813   2.45094   0.01206 
 H                     5.84217   0.05875  -0.1807 
 H                     4.75737  -2.48815  -0.26328 
 H                     2.72673  -3.82989  -0.17884 
 H                     0.0128   -3.85178   0.14424 
 H                    -2.28351  -3.78769   0.48459 
 H                    -4.43871  -2.61709   0.58949 
 H                    -5.75077  -0.60764   0.25889 
 H                    -1.69105   1.97317  -0.86268 
 H                    -3.87703   3.03224  -1.01826 
 H                    -5.93563   1.76879  -0.40578 
 C                     0.08022   2.66093   0.48087 
 C                    -0.16617   3.86243   0.52985 
 H                    -0.80282   2.03232   2.05874 
 H                    -0.50659   4.84311   0.76214 
 
 Add virtual bond connecting atoms H38        and C36        Dist= 3.62D+00.

 GradGradGradGradGradGradGradGradGradGradGradGradGradGradGradGradGradGrad
 Berny optimization.
 Initialization pass.
                           ----------------------------
                           !    Initial Parameters    !
                           ! (Angstroms and Degrees)  !
 --------------------------                            --------------------------
 ! Name  Definition              Value          Derivative Info.                !
 --------------------------------------------------------------------------------
 ! R1    R(1,2)                  1.3894         calculate D2E/DX2 analytically  !
 ! R2    R(1,5)                  1.4447         calculate D2E/DX2 analytically  !
 ! R3    R(1,19)                 1.4194         calculate D2E/DX2 analytically  !
 ! R4    R(2,3)                  1.4013         calculate D2E/DX2 analytically  !
 ! R5    R(2,22)                 1.406          calculate D2E/DX2 analytically  !
 ! R6    R(3,4)                  1.3942         calculate D2E/DX2 analytically  !
 ! R7    R(3,7)                  1.4203         calculate D2E/DX2 analytically  !
 ! R8    R(4,6)                  1.4461         calculate D2E/DX2 analytically  !
 ! R9    R(4,10)                 1.4024         calculate D2E/DX2 analytically  !
 ! R10   R(5,6)                  1.3728         calculate D2E/DX2 analytically  !
 ! R11   R(5,27)                 1.0851         calculate D2E/DX2 analytically  !
 ! R12   R(6,28)                 1.0851         calculate D2E/DX2 analytically  !
 ! R13   R(7,8)                  1.4276         calculate D2E/DX2 analytically  !
 ! R14   R(7,23)                 1.4676         calculate D2E/DX2 analytically  !
 ! R15   R(8,9)                  1.452          calculate D2E/DX2 analytically  !
 ! R16   R(8,11)                 1.4546         calculate D2E/DX2 analytically  !
 ! R17   R(9,10)                 1.4081         calculate D2E/DX2 analytically  !
 ! R18   R(9,14)                 1.4385         calculate D2E/DX2 analytically  !
 ! R19   R(10,29)                1.0853         calculate D2E/DX2 analytically  !
 ! R20   R(11,12)                1.4277         calculate D2E/DX2 analytically  !
 ! R21   R(11,15)                1.412          calculate D2E/DX2 analytically  !
 ! R22   R(12,13)                1.4329         calculate D2E/DX2 analytically  !
 ! R23   R(12,18)                1.4099         calculate D2E/DX2 analytically  !
 ! R24   R(13,14)                1.353          calculate D2E/DX2 analytically  !
 ! R25   R(13,31)                1.0847         calculate D2E/DX2 analytically  !
 ! R26   R(14,30)                1.0847         calculate D2E/DX2 analytically  !
 ! R27   R(15,16)                1.381          calculate D2E/DX2 analytically  !
 ! R28   R(15,33)                1.0776         calculate D2E/DX2 analytically  !
 ! R29   R(16,17)                1.4029         calculate D2E/DX2 analytically  !
 ! R30   R(16,34)                1.0841         calculate D2E/DX2 analytically  !
 ! R31   R(17,18)                1.3796         calculate D2E/DX2 analytically  !
 ! R32   R(17,35)                1.0841         calculate D2E/DX2 analytically  !
 ! R33   R(18,32)                1.085          calculate D2E/DX2 analytically  !
 ! R34   R(19,20)                1.3923         calculate D2E/DX2 analytically  !
 ! R35   R(19,26)                1.0848         calculate D2E/DX2 analytically  !
 ! R36   R(20,21)                1.4161         calculate D2E/DX2 analytically  !
 ! R37   R(20,25)                1.0844         calculate D2E/DX2 analytically  !
 ! R38   R(21,22)                1.3885         calculate D2E/DX2 analytically  !
 ! R39   R(21,24)                1.084          calculate D2E/DX2 analytically  !
 ! R40   R(22,23)                1.4713         calculate D2E/DX2 analytically  !
 ! R41   R(23,36)                1.4046         calculate D2E/DX2 analytically  !
 ! R42   R(36,37)                1.2275         calculate D2E/DX2 analytically  !
 ! R43   R(36,38)                1.9143         calculate D2E/DX2 analytically  !
 ! R44   R(37,39)                1.0638         calculate D2E/DX2 analytically  !
 ! A1    A(2,1,5)              115.2666         calculate D2E/DX2 analytically  !
 ! A2    A(2,1,19)             115.0211         calculate D2E/DX2 analytically  !
 ! A3    A(5,1,19)             129.6871         calculate D2E/DX2 analytically  !
 ! A4    A(1,2,3)              123.8629         calculate D2E/DX2 analytically  !
 ! A5    A(1,2,22)             126.5468         calculate D2E/DX2 analytically  !
 ! A6    A(3,2,22)             109.5173         calculate D2E/DX2 analytically  !
 ! A7    A(2,3,4)              121.0932         calculate D2E/DX2 analytically  !
 ! A8    A(2,3,7)              110.8344         calculate D2E/DX2 analytically  !
 ! A9    A(4,3,7)              127.9723         calculate D2E/DX2 analytically  !
 ! A10   A(3,4,6)              116.1038         calculate D2E/DX2 analytically  !
 ! A11   A(3,4,10)             114.7598         calculate D2E/DX2 analytically  !
 ! A12   A(6,4,10)             129.0448         calculate D2E/DX2 analytically  !
 ! A13   A(1,5,6)              121.5077         calculate D2E/DX2 analytically  !
 ! A14   A(1,5,27)             119.1549         calculate D2E/DX2 analytically  !
 ! A15   A(6,5,27)             119.3267         calculate D2E/DX2 analytically  !
 ! A16   A(4,6,5)              122.0956         calculate D2E/DX2 analytically  !
 ! A17   A(4,6,28)             118.5985         calculate D2E/DX2 analytically  !
 ! A18   A(5,6,28)             119.3027         calculate D2E/DX2 analytically  !
 ! A19   A(3,7,8)              116.4192         calculate D2E/DX2 analytically  !
 ! A20   A(3,7,23)             105.1301         calculate D2E/DX2 analytically  !
 ! A21   A(8,7,23)             138.3792         calculate D2E/DX2 analytically  !
 ! A22   A(7,8,9)              116.2329         calculate D2E/DX2 analytically  !
 ! A23   A(7,8,11)             126.2434         calculate D2E/DX2 analytically  !
 ! A24   A(9,8,11)             117.5071         calculate D2E/DX2 analytically  !
 ! A25   A(8,9,10)             123.1297         calculate D2E/DX2 analytically  !
 ! A26   A(8,9,14)             119.0863         calculate D2E/DX2 analytically  !
 ! A27   A(10,9,14)            117.7786         calculate D2E/DX2 analytically  !
 ! A28   A(4,10,9)             120.8089         calculate D2E/DX2 analytically  !
 ! A29   A(4,10,29)            120.7698         calculate D2E/DX2 analytically  !
 ! A30   A(9,10,29)            118.4173         calculate D2E/DX2 analytically  !
 ! A31   A(8,11,12)            119.8114         calculate D2E/DX2 analytically  !
 ! A32   A(8,11,15)            122.7105         calculate D2E/DX2 analytically  !
 ! A33   A(12,11,15)           117.3765         calculate D2E/DX2 analytically  !
 ! A34   A(11,12,13)           119.7702         calculate D2E/DX2 analytically  !
 ! A35   A(11,12,18)           119.741          calculate D2E/DX2 analytically  !
 ! A36   A(13,12,18)           120.4094         calculate D2E/DX2 analytically  !
 ! A37   A(12,13,14)           120.6271         calculate D2E/DX2 analytically  !
 ! A38   A(12,13,31)           118.5815         calculate D2E/DX2 analytically  !
 ! A39   A(14,13,31)           120.7091         calculate D2E/DX2 analytically  !
 ! A40   A(9,14,13)            122.0204         calculate D2E/DX2 analytically  !
 ! A41   A(9,14,30)            117.634          calculate D2E/DX2 analytically  !
 ! A42   A(13,14,30)           120.3382         calculate D2E/DX2 analytically  !
 ! A43   A(11,15,16)           121.7178         calculate D2E/DX2 analytically  !
 ! A44   A(11,15,33)           119.5438         calculate D2E/DX2 analytically  !
 ! A45   A(16,15,33)           118.7112         calculate D2E/DX2 analytically  !
 ! A46   A(15,16,17)           120.3785         calculate D2E/DX2 analytically  !
 ! A47   A(15,16,34)           119.5829         calculate D2E/DX2 analytically  !
 ! A48   A(17,16,34)           120.0345         calculate D2E/DX2 analytically  !
 ! A49   A(16,17,18)           119.4047         calculate D2E/DX2 analytically  !
 ! A50   A(16,17,35)           120.2548         calculate D2E/DX2 analytically  !
 ! A51   A(18,17,35)           120.3151         calculate D2E/DX2 analytically  !
 ! A52   A(12,18,17)           121.1393         calculate D2E/DX2 analytically  !
 ! A53   A(12,18,32)           118.5273         calculate D2E/DX2 analytically  !
 ! A54   A(17,18,32)           120.3161         calculate D2E/DX2 analytically  !
 ! A55   A(1,19,20)            119.8294         calculate D2E/DX2 analytically  !
 ! A56   A(1,19,26)            120.4841         calculate D2E/DX2 analytically  !
 ! A57   A(20,19,26)           119.6833         calculate D2E/DX2 analytically  !
 ! A58   A(19,20,21)           123.179          calculate D2E/DX2 analytically  !
 ! A59   A(19,20,25)           118.5801         calculate D2E/DX2 analytically  !
 ! A60   A(21,20,25)           118.2379         calculate D2E/DX2 analytically  !
 ! A61   A(20,21,22)           118.0478         calculate D2E/DX2 analytically  !
 ! A62   A(20,21,24)           120.1012         calculate D2E/DX2 analytically  !
 ! A63   A(22,21,24)           121.8508         calculate D2E/DX2 analytically  !
 ! A64   A(2,22,21)            117.3467         calculate D2E/DX2 analytically  !
 ! A65   A(2,22,23)            106.4782         calculate D2E/DX2 analytically  !
 ! A66   A(21,22,23)           136.1313         calculate D2E/DX2 analytically  !
 ! A67   A(7,23,22)            107.9373         calculate D2E/DX2 analytically  !
 ! A68   A(7,23,36)            131.537          calculate D2E/DX2 analytically  !
 ! A69   A(22,23,36)           119.8267         calculate D2E/DX2 analytically  !
 ! A70   A(23,36,37)           160.6042         calculate D2E/DX2 analytically  !
 ! A71   A(23,36,38)            97.2117         calculate D2E/DX2 analytically  !
 ! A72   A(37,36,38)           101.2997         calculate D2E/DX2 analytically  !
 ! A73   L(36,37,39,16,-1)     175.4944         calculate D2E/DX2 analytically  !
 ! A74   L(36,37,39,16,-2)     167.7443         calculate D2E/DX2 analytically  !
 ! D1    D(5,1,2,3)             -0.1283         calculate D2E/DX2 analytically  !
 ! D2    D(5,1,2,22)           176.4338         calculate D2E/DX2 analytically  !
 ! D3    D(19,1,2,3)          -178.4834         calculate D2E/DX2 analytically  !
 ! D4    D(19,1,2,22)           -1.9213         calculate D2E/DX2 analytically  !
 ! D5    D(2,1,5,6)             -1.4833         calculate D2E/DX2 analytically  !
 ! D6    D(2,1,5,27)           179.7168         calculate D2E/DX2 analytically  !
 ! D7    D(19,1,5,6)           176.5797         calculate D2E/DX2 analytically  !
 ! D8    D(19,1,5,27)           -2.2202         calculate D2E/DX2 analytically  !
 ! D9    D(2,1,19,20)            1.1903         calculate D2E/DX2 analytically  !
 ! D10   D(2,1,19,26)         -179.4601         calculate D2E/DX2 analytically  !
 ! D11   D(5,1,19,20)         -176.8766         calculate D2E/DX2 analytically  !
 ! D12   D(5,1,19,26)            2.473          calculate D2E/DX2 analytically  !
 ! D13   D(1,2,3,4)              2.4465         calculate D2E/DX2 analytically  !
 ! D14   D(1,2,3,7)            179.0854         calculate D2E/DX2 analytically  !
 ! D15   D(22,2,3,4)          -174.6238         calculate D2E/DX2 analytically  !
 ! D16   D(22,2,3,7)             2.0151         calculate D2E/DX2 analytically  !
 ! D17   D(1,2,22,21)            1.0457         calculate D2E/DX2 analytically  !
 ! D18   D(1,2,22,23)         -176.9338         calculate D2E/DX2 analytically  !
 ! D19   D(3,2,22,21)          178.0173         calculate D2E/DX2 analytically  !
 ! D20   D(3,2,22,23)            0.0378         calculate D2E/DX2 analytically  !
 ! D21   D(2,3,4,6)             -2.9609         calculate D2E/DX2 analytically  !
 ! D22   D(2,3,4,10)           173.8786         calculate D2E/DX2 analytically  !
 ! D23   D(7,3,4,6)           -178.975          calculate D2E/DX2 analytically  !
 ! D24   D(7,3,4,10)            -2.1356         calculate D2E/DX2 analytically  !
 ! D25   D(2,3,7,8)            179.3548         calculate D2E/DX2 analytically  !
 ! D26   D(2,3,7,23)            -3.1536         calculate D2E/DX2 analytically  !
 ! D27   D(4,3,7,8)             -4.2967         calculate D2E/DX2 analytically  !
 ! D28   D(4,3,7,23)           173.1949         calculate D2E/DX2 analytically  !
 ! D29   D(3,4,6,5)              1.3853         calculate D2E/DX2 analytically  !
 ! D30   D(3,4,6,28)          -179.2676         calculate D2E/DX2 analytically  !
 ! D31   D(10,4,6,5)          -174.9186         calculate D2E/DX2 analytically  !
 ! D32   D(10,4,6,28)            4.4285         calculate D2E/DX2 analytically  !
 ! D33   D(3,4,10,9)             3.2942         calculate D2E/DX2 analytically  !
 ! D34   D(3,4,10,29)         -175.965          calculate D2E/DX2 analytically  !
 ! D35   D(6,4,10,9)           179.6392         calculate D2E/DX2 analytically  !
 ! D36   D(6,4,10,29)            0.38           calculate D2E/DX2 analytically  !
 ! D37   D(1,5,6,4)              0.856          calculate D2E/DX2 analytically  !
 ! D38   D(1,5,6,28)          -178.4867         calculate D2E/DX2 analytically  !
 ! D39   D(27,5,6,4)           179.6539         calculate D2E/DX2 analytically  !
 ! D40   D(27,5,6,28)            0.3113         calculate D2E/DX2 analytically  !
 ! D41   D(3,7,8,9)              8.992          calculate D2E/DX2 analytically  !
 ! D42   D(3,7,8,11)          -169.4783         calculate D2E/DX2 analytically  !
 ! D43   D(23,7,8,9)          -167.3611         calculate D2E/DX2 analytically  !
 ! D44   D(23,7,8,11)           14.1686         calculate D2E/DX2 analytically  !
 ! D45   D(3,7,23,22)            3.0954         calculate D2E/DX2 analytically  !
 ! D46   D(3,7,23,36)         -167.0322         calculate D2E/DX2 analytically  !
 ! D47   D(8,7,23,22)          179.7124         calculate D2E/DX2 analytically  !
 ! D48   D(8,7,23,36)            9.5848         calculate D2E/DX2 analytically  !
 ! D49   D(7,8,9,10)            -8.345          calculate D2E/DX2 analytically  !
 ! D50   D(7,8,9,14)           170.7835         calculate D2E/DX2 analytically  !
 ! D51   D(11,8,9,10)          170.2641         calculate D2E/DX2 analytically  !
 ! D52   D(11,8,9,14)          -10.6075         calculate D2E/DX2 analytically  !
 ! D53   D(7,8,11,12)         -169.443          calculate D2E/DX2 analytically  !
 ! D54   D(7,8,11,15)           14.3206         calculate D2E/DX2 analytically  !
 ! D55   D(9,8,11,12)           12.104          calculate D2E/DX2 analytically  !
 ! D56   D(9,8,11,15)         -164.1324         calculate D2E/DX2 analytically  !
 ! D57   D(8,9,10,4)             1.9312         calculate D2E/DX2 analytically  !
 ! D58   D(8,9,10,29)         -178.7925         calculate D2E/DX2 analytically  !
 ! D59   D(14,9,10,4)         -177.2079         calculate D2E/DX2 analytically  !
 ! D60   D(14,9,10,29)           2.0684         calculate D2E/DX2 analytically  !
 ! D61   D(8,9,14,13)            2.1612         calculate D2E/DX2 analytically  !
 ! D62   D(8,9,14,30)         -176.8536         calculate D2E/DX2 analytically  !
 ! D63   D(10,9,14,13)        -178.6637         calculate D2E/DX2 analytically  !
 ! D64   D(10,9,14,30)           2.3215         calculate D2E/DX2 analytically  !
 ! D65   D(8,11,12,13)          -5.258          calculate D2E/DX2 analytically  !
 ! D66   D(8,11,12,18)         177.9687         calculate D2E/DX2 analytically  !
 ! D67   D(15,11,12,13)        171.1761         calculate D2E/DX2 analytically  !
 ! D68   D(15,11,12,18)         -5.5972         calculate D2E/DX2 analytically  !
 ! D69   D(8,11,15,16)        -179.2332         calculate D2E/DX2 analytically  !
 ! D70   D(8,11,15,33)           2.6851         calculate D2E/DX2 analytically  !
 ! D71   D(12,11,15,16)          4.4441         calculate D2E/DX2 analytically  !
 ! D72   D(12,11,15,33)       -173.6376         calculate D2E/DX2 analytically  !
 ! D73   D(11,12,13,14)         -3.5514         calculate D2E/DX2 analytically  !
 ! D74   D(11,12,13,31)        179.7246         calculate D2E/DX2 analytically  !
 ! D75   D(18,12,13,14)        173.2            calculate D2E/DX2 analytically  !
 ! D76   D(18,12,13,31)         -3.524          calculate D2E/DX2 analytically  !
 ! D77   D(11,12,18,17)          2.8486         calculate D2E/DX2 analytically  !
 ! D78   D(11,12,18,32)       -178.66           calculate D2E/DX2 analytically  !
 ! D79   D(13,12,18,17)       -173.9038         calculate D2E/DX2 analytically  !
 ! D80   D(13,12,18,32)          4.5876         calculate D2E/DX2 analytically  !
 ! D81   D(12,13,14,9)           5.116          calculate D2E/DX2 analytically  !
 ! D82   D(12,13,14,30)       -175.8953         calculate D2E/DX2 analytically  !
 ! D83   D(31,13,14,9)        -178.23           calculate D2E/DX2 analytically  !
 ! D84   D(31,13,14,30)          0.7587         calculate D2E/DX2 analytically  !
 ! D85   D(11,15,16,17)         -0.4092         calculate D2E/DX2 analytically  !
 ! D86   D(11,15,16,34)       -179.6749         calculate D2E/DX2 analytically  !
 ! D87   D(33,15,16,17)        177.688          calculate D2E/DX2 analytically  !
 ! D88   D(33,15,16,34)         -1.5777         calculate D2E/DX2 analytically  !
 ! D89   D(15,16,17,18)         -2.5553         calculate D2E/DX2 analytically  !
 ! D90   D(15,16,17,35)        179.2709         calculate D2E/DX2 analytically  !
 ! D91   D(34,16,17,18)        176.7071         calculate D2E/DX2 analytically  !
 ! D92   D(34,16,17,35)         -1.4667         calculate D2E/DX2 analytically  !
 ! D93   D(16,17,18,12)          1.3017         calculate D2E/DX2 analytically  !
 ! D94   D(16,17,18,32)       -177.1629         calculate D2E/DX2 analytically  !
 ! D95   D(35,17,18,12)        179.4744         calculate D2E/DX2 analytically  !
 ! D96   D(35,17,18,32)          1.0098         calculate D2E/DX2 analytically  !
 ! D97   D(1,19,20,21)           0.2839         calculate D2E/DX2 analytically  !
 ! D98   D(1,19,20,25)         179.6346         calculate D2E/DX2 analytically  !
 ! D99   D(26,19,20,21)       -179.071          calculate D2E/DX2 analytically  !
 ! D100  D(26,19,20,25)          0.2797         calculate D2E/DX2 analytically  !
 ! D101  D(19,20,21,22)         -1.2098         calculate D2E/DX2 analytically  !
 ! D102  D(19,20,21,24)        178.5973         calculate D2E/DX2 analytically  !
 ! D103  D(25,20,21,22)        179.4374         calculate D2E/DX2 analytically  !
 ! D104  D(25,20,21,24)         -0.7555         calculate D2E/DX2 analytically  !
 ! D105  D(20,21,22,2)           0.57           calculate D2E/DX2 analytically  !
 ! D106  D(20,21,22,23)        177.7737         calculate D2E/DX2 analytically  !
 ! D107  D(24,21,22,2)        -179.2335         calculate D2E/DX2 analytically  !
 ! D108  D(24,21,22,23)         -2.0298         calculate D2E/DX2 analytically  !
 ! D109  D(2,22,23,7)           -1.9765         calculate D2E/DX2 analytically  !
 ! D110  D(2,22,23,36)         169.5162         calculate D2E/DX2 analytically  !
 ! D111  D(21,22,23,7)        -179.3865         calculate D2E/DX2 analytically  !
 ! D112  D(21,22,23,36)         -7.8937         calculate D2E/DX2 analytically  !
 ! D113  D(7,23,36,37)        -148.5062         calculate D2E/DX2 analytically  !
 ! D114  D(7,23,36,38)          48.9143         calculate D2E/DX2 analytically  !
 ! D115  D(22,23,36,37)         42.3316         calculate D2E/DX2 analytically  !
 ! D116  D(22,23,36,38)       -120.248          calculate D2E/DX2 analytically  !
 --------------------------------------------------------------------------------
 Trust Radius=3.00D-01 FncErr=1.00D-07 GrdErr=1.00D-06
 Number of steps in this run=    234 maximum allowed number of steps=    234.
 Search for a saddle point of order  1.
 GradGradGradGradGradGradGradGradGradGradGradGradGradGradGradGradGradGrad

                          Input orientation:                          
 ---------------------------------------------------------------------
 Center     Atomic      Atomic             Coordinates (Angstroms)
 Number     Number       Type             X           Y           Z
 ---------------------------------------------------------------------
      1          6           0        3.748210   -0.548330   -0.159910
      2          6           0        2.474220    0.002690   -0.097960
      3          6           0        1.295500   -0.755090   -0.085080
      4          6           0        1.335450   -2.148740   -0.084250
      5          6           0        3.794160   -1.991470   -0.209110
      6          6           0        2.649270   -2.747680   -0.164400
      7          6           0        0.154840    0.086520    0.003810
      8          6           0       -1.115740   -0.564360    0.011320
      9          6           0       -1.094970   -2.011220    0.131260
     10          6           0        0.088030   -2.772010    0.065030
     11          6           0       -2.412990    0.080280   -0.120300
     12          6           0       -3.604620   -0.665210    0.129610
     13          6           0       -3.521700   -2.070390    0.397780
     14          6           0       -2.332140   -2.712900    0.346320
     15          6           0       -2.561590    1.412100   -0.565080
     16          6           0       -3.802630    2.009110   -0.667620
     17          6           0       -4.963300    1.294410   -0.335820
     18          6           0       -4.859300   -0.027930    0.043540
     19          6           0        4.811110    0.391840   -0.128440
     20          6           0        4.530460    1.750940   -0.016130
     21          6           0        3.214410    2.265400    0.076760
     22          6           0        2.157180    1.366670    0.028280
     23          6           0        0.691250    1.447160    0.125340
     24          1           0        3.054030    3.331930    0.185440
     25          1           0        5.358130    2.450940    0.012060
     26          1           0        5.842170    0.058750   -0.180700
     27          1           0        4.757370   -2.488150   -0.263280
     28          1           0        2.726730   -3.829890   -0.178840
     29          1           0        0.012800   -3.851780    0.144240
     30          1           0       -2.283510   -3.787690    0.484590
     31          1           0       -4.438710   -2.617090    0.589490
     32          1           0       -5.750770   -0.607640    0.258890
     33          1           0       -1.691050    1.973170   -0.862680
     34          1           0       -3.877030    3.032240   -1.018260
     35          1           0       -5.935630    1.768790   -0.405780
     36          6           0        0.080220    2.660930    0.480870
     37          6           0       -0.166170    3.862430    0.529850
     38          1           0       -0.802820    2.032320    2.058740
     39          1           0       -0.506590    4.843110    0.762140
 ---------------------------------------------------------------------
                    Distance matrix (angstroms):
                    1          2          3          4          5
     1  C    0.000000
     2  C    1.389428   0.000000
     3  C    2.462547   1.401348   0.000000
     4  C    2.896282   2.434263   1.394223   0.000000
     5  C    1.444709   2.394007   2.790577   2.466897   0.000000
     6  C    2.458624   2.756736   2.410270   1.446125   1.372817
     7  C    3.652690   2.323125   1.420322   2.529423   4.196192
     8  C    4.866989   3.636111   2.420692   2.920227   5.117846
     9  C    5.067664   4.104570   2.709061   2.443828   4.901003
    10  C    4.288621   3.663254   2.355522   1.402429   3.797341
    11  C    6.193311   4.887877   3.801576   4.361265   6.544368
    12  C    7.359456   6.119655   4.905644   5.162450   7.524337
    13  C    7.448441   6.363527   5.016830   4.881639   7.341413
    14  C    6.473970   5.538313   4.144743   3.735624   6.193587
    15  C    6.619745   5.250145   4.450197   5.300726   7.218487
    16  C    7.988332   6.614309   5.828472   6.635353   8.598028
    17  C    8.906012   7.552604   6.590592   7.182814   9.354473
    18  C    8.625627   7.334949   6.198941   6.548976   8.877032
    19  C    1.419389   2.369266   3.698221   4.305428   2.592462
    20  C    2.432947   2.700222   4.092665   5.041848   3.819033
    21  C    2.873679   2.387104   3.582146   4.800109   4.305668
    22  C    2.496801   1.406020   2.292860   3.611926   3.743416
    23  C    3.661742   2.305502   2.293316   3.659155   4.643714
    24  H    3.956965   3.391214   4.457504   5.750130   5.389068
    25  H    3.408377   3.784570   5.176198   6.111324   4.714862
    26  H    2.180286   3.369433   4.619923   5.019247   2.898026
    27  H    2.189062   3.382956   3.875538   3.443369   1.085080
    28  H    3.436920   3.841741   3.392876   2.184233   2.126055
    29  H    4.995856   4.579759   3.359672   2.168399   4.228982
    30  H    6.876807   6.110838   4.725516   4.013304   6.375398
    31  H    8.477442   7.424583   6.066568   5.832169   8.295138
    32  H    9.508393   8.255320   7.056201   7.259976   9.656071
    33  H    6.036340   4.670874   4.119168   5.172601   6.799489
    34  H    8.467676   7.096725   6.478407   7.408433   9.205408
    35  H    9.960234   8.598805   7.665642   8.265532  10.432979
    36  C    4.915699   3.623882   3.669659   5.002788   5.992850
    37  C    5.937419   4.718410   4.882224   6.226247   7.106224
    38  H    5.682784   4.416984   4.094944   5.161964   6.516614
    39  H    6.929728   5.749319   5.941814   7.279798   8.133343
                    6          7          8          9         10
     6  C    0.000000
     7  C    3.779308   0.000000
     8  C    4.355808   1.427612   0.000000
     9  C    3.827417   2.445155   1.451971   0.000000
    10  C    2.571610   2.859966   2.515088   1.408076   0.000000
    11  C    5.798774   2.570835   1.454559   2.484921   3.798027
    12  C    6.598050   3.835944   2.493730   2.847822   4.251875
    13  C    6.233429   4.280703   2.864633   2.442039   3.692309
    14  C    5.007643   3.760204   2.491602   1.438470   2.437179
    15  C    6.679624   3.075677   2.515773   3.788797   4.992424
    16  C    8.031643   4.450701   3.781942   4.912503   6.207505
    17  C    8.620853   5.269697   4.287103   5.109729   6.497106
    18  C    7.988673   5.015603   3.781936   4.255739   5.657430
    19  C    3.812011   4.668143   6.005115   6.381530   5.688133
    20  C    4.878365   4.681532   6.102536   6.769124   6.340256
    21  C    5.050595   3.756835   5.173202   6.071508   5.928734
    22  C    4.148151   2.376710   3.800154   4.690120   4.627246
    23  C    4.638370   1.467599   2.706368   3.892430   4.262500
    24  H    6.103104   4.355569   5.709499   6.765086   6.787469
    25  H    5.864700   5.715311   7.141640   7.846501   7.419971
    26  H    4.250991   5.690390   6.988394   7.246103   6.417454
    27  H    2.126316   5.280487   6.186258   5.884982   4.689467
    28  H    1.085075   4.688949   5.046229   4.243715   2.853300
    29  H    2.874938   3.943362   3.478276   2.148251   1.085282
    30  H    5.082827   4.602847   3.460856   2.166406   2.613779
    31  H    7.129156   5.362204   3.948431   3.428943   4.559653
    32  H    8.678688   5.951735   4.641839   4.864442   6.230061
    33  H    6.450767   2.778050   2.744798   4.149529   5.151942
    34  H    8.759517   5.096849   4.649762   5.873478   7.112281
    35  H    9.703467   6.331794   5.371117   6.165134   7.558109
    36  C    6.022413   2.619302   3.471785   4.830350   5.448837
    37  C    7.218188   3.825867   4.557085   5.959975   6.655559
    38  H    6.301403   2.987639   3.321535   4.488958   5.277318
    39  H    8.272728   4.861862   5.493225   6.908404   7.670045
                   11         12         13         14         15
    11  C    0.000000
    12  C    1.427653   0.000000
    13  C    2.474475   1.432942   0.000000
    14  C    2.833042   2.420579   1.352967   0.000000
    15  C    1.411969   2.426051   3.738535   4.230712   0.000000
    16  C    2.439476   2.797637   4.225674   5.048544   1.380984
    17  C    2.832780   2.429557   3.733398   4.842195   2.415496
    18  C    2.454177   1.409878   2.467043   3.699632   2.779132
    19  C    7.230820   8.485780   8.704896   7.803258   7.455756
    20  C    7.142370   8.487553   8.922509   8.194664   7.121329
    21  C    6.039968   7.422293   8.017313   7.457905   5.873862
    22  C    4.750087   6.110413   6.648277   6.074375   4.756147
    23  C    3.400736   4.787131   5.495119   5.147409   3.325489
    24  H    6.368282   7.766458   8.512953   8.097943   5.981991
    25  H    8.125753   9.489736   9.972090   9.269155   8.008386
    26  H    8.255409   9.479570   9.620288   8.647493   8.520709
    27  H    7.617830   8.567400   8.315920   7.119219   8.298808
    28  H    6.458295   7.084937   6.516994   5.207267   7.456136
    29  H    4.627692   4.820806   3.966147   2.614695   5.902461
    30  H    3.917123   3.408992   2.118908   1.084738   5.311963
    31  H    3.447194   2.171873   1.084685   2.122722   4.592492
    32  H    3.428964   2.150811   2.669772   4.015818   3.863825
    33  H    2.157628   3.406969   4.614154   4.881796   1.077592
    34  H    3.415233   3.881102   5.307378   6.103720   2.135558
    35  H    3.916830   3.412419   4.605656   5.799684   3.396579
    36  C    3.638304   4.976408   5.946942   5.891997   3.103667
    37  C    4.446971   5.699356   6.817285   6.925321   3.597364
    38  H    3.339360   4.341462   5.194548   5.271462   3.219064
    39  H    5.205537   6.351336   7.551167   7.784525   4.213831
                   16         17         18         19         20
    16  C    0.000000
    17  C    1.402869   0.000000
    18  C    2.402464   1.379606   0.000000
    19  C    8.780820   9.818184   9.681044   0.000000
    20  C    8.362504   9.510105   9.556962   1.392311   0.000000
    21  C    7.061065   8.245483   8.393167   2.470179   1.416081
    22  C    6.034595   7.130149   7.153750   2.831642   2.404598
    23  C    4.597775   5.675380   5.743796   4.260440   3.853807
    24  H    7.035009   8.288593   8.598232   3.439474   2.172557
    25  H    9.196559  10.391848  10.513880   2.135150   1.084358
    26  H    9.852064  10.876999  10.704170   1.084788   2.147364
    27  H    9.677936  10.430937   9.931121   2.883646   4.252347
    28  H    8.772991   9.242275   8.488357   4.708523   5.867332
    29  H    7.040359   7.174629   6.194298   6.411431   7.198989
    30  H    6.102311   5.803627   4.578757   8.256992   8.795302
    31  H    4.835975   4.053545   2.679311   9.753371   9.994622
    32  H    3.391320   2.142798   1.084969  10.616134  10.551883
    33  H    2.120875   3.383181   3.855314   6.731849   6.282772
    34  H    1.084103   2.160037   3.384806   9.123994   8.563404
    35  H    2.162407   1.084139   2.142097  10.838142  10.473356
    36  C    4.101271   5.288805   5.640929   5.282173   4.569434
    37  C    4.253536   5.509679   6.115298   6.103414   5.178303
    38  H    4.053694   4.856750   4.976012   6.244289   5.729584
    39  H    4.575986   5.801815   6.571872   6.991772   5.961467
                   21         22         23         24         25
    21  C    0.000000
    22  C    1.388453   0.000000
    23  C    2.652963   1.471343   0.000000
    24  H    1.083983   2.165938   3.023028   0.000000
    25  H    2.152707   3.379643   4.774953   2.472869   0.000000
    26  H    3.441034   3.915799   5.343531   4.315263   2.448270
    27  H    5.009250   4.658930   5.671950   6.080793   4.983105
    28  H    6.120108   5.231780   5.664182   7.178544   6.812454
    29  H    6.904691   5.643052   5.342230   7.801055   8.265247
    30  H    8.187390   6.818752   6.031742   8.903247   9.876156
    31  H    9.092406   7.725999   6.561254   9.575764  11.045199
    32  H    9.416049   8.153941   6.763110   9.646248  11.524908
    33  H    5.003147   3.996314   2.632152   5.045847   7.119296
    34  H    7.216345   6.346736   4.968851   7.041186   9.310620
    35  H    9.176203   8.114412   6.655905   9.143683  11.322055
    36  C    3.184791   2.488716   1.404634   3.062853   5.302849
    37  C    3.766181   3.446498   2.594673   3.281728   5.725234
    38  H    4.485611   3.650679   2.512507   4.480349   6.505494
    39  H    4.578228   4.440704   3.656885   3.910788   6.378090
                   26         27         28         29         30
    26  H    0.000000
    27  H    2.769532   0.000000
    28  H    4.982719   2.435343   0.000000
    29  H    7.027047   4.953434   2.733181   0.000000
    30  H    9.014676   7.198757   5.054149   2.322280   0.000000
    31  H   10.651282   9.236435   7.307855   4.640975   2.454831
    32  H   11.620395  10.687843   9.079786   6.614857   4.710154
    33  H    7.802532   7.864145   7.325293   6.151994   5.945894
    34  H   10.198333  10.276068   9.560497   7.991991   7.163052
    35  H   11.903423  11.510087  10.316647   8.202265   6.708592
    36  C    6.356814   6.995893   7.040595   6.521753   6.868183
    37  C    7.146538   8.074662   8.248812   7.725915   7.937853
    38  H    7.284639   7.532738   7.199305   6.241248   6.208293
    39  H    8.005361   9.083399   9.303802   8.732278   8.816189
                   31         32         33         34         35
    31  H    0.000000
    32  H    2.422537   0.000000
    33  H    5.543367   4.939618   0.000000
    34  H    5.900447   4.288443   2.433997   0.000000
    35  H    4.739966   2.474546   4.273990   2.491841   0.000000
    36  C    6.949102   6.688293   2.327131   4.247951   6.145935
    37  C    7.761594   7.158401   2.798875   4.105648   6.208494
    38  H    6.082385   5.889912   3.054038   4.463019   5.699916
    39  H    8.434806   7.580591   3.504218   4.220064   6.347437
                   36         37         38         39
    36  C    0.000000
    37  C    1.227481   0.000000
    38  H    1.914310   2.468224   0.000000
    39  H    2.277140   1.063756   3.109576   0.000000
 Stoichiometry    C25H14(3)
 Framework group  C1[X(C25H14)]
 Deg. of freedom   111
 Full point group                 C1      NOp   1
 Largest Abelian subgroup         C1      NOp   1
 Largest concise Abelian subgroup C1      NOp   1
                         Standard orientation:                         
 ---------------------------------------------------------------------
 Center     Atomic      Atomic             Coordinates (Angstroms)
 Number     Number       Type             X           Y           Z
 ---------------------------------------------------------------------
      1          6           0        3.748210   -0.548330   -0.159910
      2          6           0        2.474220    0.002691   -0.097960
      3          6           0        1.295499   -0.755089   -0.085080
      4          6           0        1.335449   -2.148739   -0.084250
      5          6           0        3.794159   -1.991470   -0.209110
      6          6           0        2.649269   -2.747679   -0.164400
      7          6           0        0.154840    0.086521    0.003810
      8          6           0       -1.115740   -0.564359    0.011320
      9          6           0       -1.094971   -2.011219    0.131260
     10          6           0        0.088029   -2.772009    0.065030
     11          6           0       -2.412990    0.080281   -0.120300
     12          6           0       -3.604620   -0.665209    0.129610
     13          6           0       -3.521701   -2.070389    0.397780
     14          6           0       -2.332141   -2.712899    0.346320
     15          6           0       -2.561590    1.412101   -0.565080
     16          6           0       -3.802630    2.009111   -0.667620
     17          6           0       -4.963300    1.294411   -0.335820
     18          6           0       -4.859300   -0.027929    0.043540
     19          6           0        4.811110    0.391840   -0.128440
     20          6           0        4.530460    1.750940   -0.016130
     21          6           0        3.214410    2.265400    0.076760
     22          6           0        2.157180    1.366671    0.028280
     23          6           0        0.691250    1.447161    0.125340
     24          1           0        3.054030    3.331930    0.185440
     25          1           0        5.358130    2.450940    0.012060
     26          1           0        5.842170    0.058750   -0.180700
     27          1           0        4.757369   -2.488150   -0.263280
     28          1           0        2.726729   -3.829889   -0.178840
     29          1           0        0.012799   -3.851779    0.144240
     30          1           0       -2.283511   -3.787689    0.484590
     31          1           0       -4.438711   -2.617089    0.589490
     32          1           0       -5.750770   -0.607639    0.258890
     33          1           0       -1.691050    1.973171   -0.862680
     34          1           0       -3.877030    3.032241   -1.018260
     35          1           0       -5.935630    1.768791   -0.405780
     36          6           0        0.080220    2.660931    0.480870
     37          6           0       -0.166170    3.862431    0.529850
     38          1           0       -0.802820    2.032321    2.058740
     39          1           0       -0.506590    4.843111    0.762140
 ---------------------------------------------------------------------
 Rotational constants (GHZ):      0.4404606      0.1806504      0.1301027
 Standard basis: 6-311+G(d,p) (5D, 7F)
 There are   659 symmetry adapted cartesian basis functions of A   symmetry.
 There are   634 symmetry adapted basis functions of A   symmetry.
   634 basis functions,  1012 primitive gaussians,   659 cartesian basis functions
    83 alpha electrons       81 beta electrons
       nuclear repulsion energy      1912.8507189485 Hartrees.
 NAtoms=   39 NActive=   39 NUniq=   39 SFac= 1.00D+00 NAtFMM=   60 NAOKFM=F Big=F
 Integral buffers will be    131072 words long.
 Raffenetti 2 integral format.
 Two-electron integral symmetry is turned on.
 One-electron integrals computed using PRISM.
 NBasis=   634 RedAO= T EigKep=  1.09D-06  NBF=   634
 NBsUse=   618 1.00D-06 EigRej=  9.78D-07 NBFU=   618
 ExpMin= 4.38D-02 ExpMax= 4.56D+03 ExpMxC= 6.82D+02 IAcc=2 IRadAn=         4 AccDes= 0.00D+00
 Harris functional with IExCor=  402 and IRadAn=       4 diagonalized for initial guess.
 HarFok:  IExCor=  402 AccDes= 0.00D+00 IRadAn=         4 IDoV= 1 UseB2=F ITyADJ=14
 ICtDFT=  3500011 ScaDFX=  1.000000  1.000000  1.000000  1.000000
 FoFCou: FMM=F IPFlag=           0 FMFlag=      100000 FMFlg1=           0
         NFxFlg=           0 DoJE=T BraDBF=F KetDBF=T FulRan=T
         wScrn=  0.000000 ICntrl=     500 IOpCl=  0 I1Cent=   200000004 NGrid=           0
         NMat0=    1 NMatS0=      1 NMatT0=    0 NMatD0=    1 NMtDS0=    0 NMtDT0=    0
 Petite list used in FoFCou.
 Initial guess <Sx>= 0.0000 <Sy>= 0.0000 <Sz>= 1.0000 <S**2>= 2.0000 S= 1.0000
 Requested convergence on RMS density matrix=1.00D-08 within 128 cycles.
 Requested convergence on MAX density matrix=1.00D-06.
 Requested convergence on             energy=1.00D-06.
 No special actions if energy rises.
 Restarting incremental Fock formation.
 SCF Done:  E(UB3LYP) =  -961.154724730     A.U. after   25 cycles
            NFock= 25  Conv=0.80D-08     -V/T= 2.0044
 <Sx>= 0.0000 <Sy>= 0.0000 <Sz>= 1.0000 <S**2>= 2.0482 S= 1.0160
 <L.S>= 0.000000000000E+00
 Annihilation of the first spin contaminant:
 S**2 before annihilation     2.0482,   after     2.0013
 DoSCS=F DFT=T ScalE2(SS,OS)=  1.000000  1.000000
 Range of M.O.s used for correlation:     1   618
 NBasis=   634 NAE=    83 NBE=    81 NFC=     0 NFV=     0
 NROrb=    618 NOA=    83 NOB=    81 NVA=   535 NVB=   537

 **** Warning!!: The largest alpha MO coefficient is  0.15138149D+03


 **** Warning!!: The largest beta MO coefficient is  0.15243364D+03


 **** Warning!!: The smallest beta delta epsilon is  0.81900168D-01

 Symmetrizing basis deriv contribution to polar:
 IMax=3 JMax=2 DiffMx= 0.00D+00
 G2DrvN: will do    40 centers at a time, making    1 passes.
 Calling FoFCou, ICntrl=  3107 FMM=F I1Cent=   0 AccDes= 0.00D+00.
 End of G2Drv F.D. properties file   721 does not exist.
 End of G2Drv F.D. properties file   722 does not exist.
 End of G2Drv F.D. properties file   788 does not exist.
          IDoAtm=111111111111111111111111111111111111111
          Differentiating once with respect to nuclear coordinates.
          There are   120 degrees of freedom in the 1st order CPHF.  IDoFFX=6 NUNeed=     0.
    115 vectors produced by pass  0 Test12= 8.79D-14 1.00D-09 XBig12= 6.31D-01 2.12D-01.
 AX will form   115 AO Fock derivatives at one time.
    114 vectors produced by pass  1 Test12= 8.79D-14 1.00D-09 XBig12= 1.67D-01 6.67D-02.
    114 vectors produced by pass  2 Test12= 8.79D-14 1.00D-09 XBig12= 2.59D-03 9.79D-03.
    114 vectors produced by pass  3 Test12= 8.79D-14 1.00D-09 XBig12= 4.88D-05 9.88D-04.
    114 vectors produced by pass  4 Test12= 8.79D-14 1.00D-09 XBig12= 4.59D-07 6.36D-05.
    114 vectors produced by pass  5 Test12= 8.79D-14 1.00D-09 XBig12= 2.99D-09 3.72D-06.
    114 vectors produced by pass  6 Test12= 8.79D-14 1.00D-09 XBig12= 8.14D-11 6.71D-07.
    114 vectors produced by pass  7 Test12= 8.79D-14 1.00D-09 XBig12= 1.54D-11 2.35D-07.
    111 vectors produced by pass  8 Test12= 8.79D-14 1.00D-09 XBig12= 2.06D-12 7.10D-08.
     69 vectors produced by pass  9 Test12= 8.79D-14 1.00D-09 XBig12= 3.59D-14 8.99D-09.
     33 vectors produced by pass 10 Test12= 8.79D-14 1.00D-09 XBig12= 7.54D-16 1.38D-09.
     33 vectors produced by pass 11 Test12= 8.79D-14 1.00D-09 XBig12= 1.13D-13 1.65D-08.
     33 vectors produced by pass 12 Test12= 8.79D-14 1.00D-09 XBig12= 1.17D-12 4.57D-08.
     33 vectors produced by pass 13 Test12= 8.79D-14 1.00D-09 XBig12= 4.29D-13 3.00D-08.
     33 vectors produced by pass 14 Test12= 8.79D-14 1.00D-09 XBig12= 2.61D-13 2.52D-08.
     33 vectors produced by pass 15 Test12= 8.79D-14 1.00D-09 XBig12= 2.07D-13 2.16D-08.
     33 vectors produced by pass 16 Test12= 8.79D-14 1.00D-09 XBig12= 1.12D-13 1.68D-08.
     33 vectors produced by pass 17 Test12= 8.79D-14 1.00D-09 XBig12= 2.41D-13 2.41D-08.
     33 vectors produced by pass 18 Test12= 8.79D-14 1.00D-09 XBig12= 1.62D-13 1.44D-08.
     33 vectors produced by pass 19 Test12= 8.79D-14 1.00D-09 XBig12= 1.95D-13 2.28D-08.
     33 vectors produced by pass 20 Test12= 8.79D-14 1.00D-09 XBig12= 1.18D-13 1.95D-08.
     33 vectors produced by pass 21 Test12= 8.79D-14 1.00D-09 XBig12= 1.11D-13 1.45D-08.
     32 vectors produced by pass 22 Test12= 8.79D-14 1.00D-09 XBig12= 4.79D-14 7.75D-09.
     32 vectors produced by pass 23 Test12= 8.79D-14 1.00D-09 XBig12= 1.36D-13 1.44D-08.
     32 vectors produced by pass 24 Test12= 8.79D-14 1.00D-09 XBig12= 1.14D-13 1.40D-08.
     32 vectors produced by pass 25 Test12= 8.79D-14 1.00D-09 XBig12= 1.09D-13 1.37D-08.
     25 vectors produced by pass 26 Test12= 8.79D-14 1.00D-09 XBig12= 3.30D-14 6.86D-09.
     25 vectors produced by pass 27 Test12= 8.79D-14 1.00D-09 XBig12= 1.04D-13 1.25D-08.
     23 vectors produced by pass 28 Test12= 8.79D-14 1.00D-09 XBig12= 3.61D-14 9.25D-09.
     23 vectors produced by pass 29 Test12= 8.79D-14 1.00D-09 XBig12= 3.96D-14 7.03D-09.
     23 vectors produced by pass 30 Test12= 8.79D-14 1.00D-09 XBig12= 7.18D-14 1.14D-08.
     22 vectors produced by pass 31 Test12= 8.79D-14 1.00D-09 XBig12= 3.61D-14 6.77D-09.
     18 vectors produced by pass 32 Test12= 8.79D-14 1.00D-09 XBig12= 2.95D-14 9.51D-09.
     18 vectors produced by pass 33 Test12= 8.79D-14 1.00D-09 XBig12= 8.08D-14 1.08D-08.
     18 vectors produced by pass 34 Test12= 8.79D-14 1.00D-09 XBig12= 2.23D-14 5.46D-09.
     18 vectors produced by pass 35 Test12= 8.79D-14 1.00D-09 XBig12= 3.98D-14 7.85D-09.
     18 vectors produced by pass 36 Test12= 8.79D-14 1.00D-09 XBig12= 6.81D-14 1.41D-08.
     18 vectors produced by pass 37 Test12= 8.79D-14 1.00D-09 XBig12= 3.05D-14 6.96D-09.
     18 vectors produced by pass 38 Test12= 8.79D-14 1.00D-09 XBig12= 6.33D-14 9.70D-09.
     18 vectors produced by pass 39 Test12= 8.79D-14 1.00D-09 XBig12= 5.55D-14 8.52D-09.
     18 vectors produced by pass 40 Test12= 8.79D-14 1.00D-09 XBig12= 3.23D-14 8.42D-09.
     18 vectors produced by pass 41 Test12= 8.79D-14 1.00D-09 XBig12= 5.27D-14 7.32D-09.
     18 vectors produced by pass 42 Test12= 8.79D-14 1.00D-09 XBig12= 3.68D-14 6.16D-09.
     18 vectors produced by pass 43 Test12= 8.79D-14 1.00D-09 XBig12= 6.70D-14 1.05D-08.
     18 vectors produced by pass 44 Test12= 8.79D-14 1.00D-09 XBig12= 4.27D-14 7.18D-09.
     18 vectors produced by pass 45 Test12= 8.79D-14 1.00D-09 XBig12= 4.12D-14 6.94D-09.
     15 vectors produced by pass 46 Test12= 8.79D-14 1.00D-09 XBig12= 1.60D-14 4.45D-09.
     15 vectors produced by pass 47 Test12= 8.79D-14 1.00D-09 XBig12= 4.82D-14 7.60D-09.
     15 vectors produced by pass 48 Test12= 8.79D-14 1.00D-09 XBig12= 2.83D-14 6.96D-09.
     15 vectors produced by pass 49 Test12= 8.79D-14 1.00D-09 XBig12= 2.49D-14 6.13D-09.
     13 vectors produced by pass 50 Test12= 8.79D-14 1.00D-09 XBig12= 1.91D-14 4.97D-09.
     13 vectors produced by pass 51 Test12= 8.79D-14 1.00D-09 XBig12= 4.14D-14 7.16D-09.
     13 vectors produced by pass 52 Test12= 8.79D-14 1.00D-09 XBig12= 3.07D-14 6.74D-09.
     13 vectors produced by pass 53 Test12= 8.79D-14 1.00D-09 XBig12= 7.01D-14 9.47D-09.
     13 vectors produced by pass 54 Test12= 8.79D-14 1.00D-09 XBig12= 2.75D-14 5.72D-09.
     13 vectors produced by pass 55 Test12= 8.79D-14 1.00D-09 XBig12= 2.98D-14 5.49D-09.
     13 vectors produced by pass 56 Test12= 8.79D-14 1.00D-09 XBig12= 4.30D-14 7.03D-09.
     13 vectors produced by pass 57 Test12= 8.79D-14 1.00D-09 XBig12= 4.55D-14 7.31D-09.
     12 vectors produced by pass 58 Test12= 8.79D-14 1.00D-09 XBig12= 2.16D-14 5.66D-09.
     12 vectors produced by pass 59 Test12= 8.79D-14 1.00D-09 XBig12= 3.55D-14 7.88D-09.
     10 vectors produced by pass 60 Test12= 8.79D-14 1.00D-09 XBig12= 1.59D-14 4.60D-09.
     10 vectors produced by pass 61 Test12= 8.79D-14 1.00D-09 XBig12= 3.52D-14 6.55D-09.
     10 vectors produced by pass 62 Test12= 8.79D-14 1.00D-09 XBig12= 5.52D-14 8.65D-09.
      2 vectors produced by pass 63 Test12= 8.79D-14 1.00D-09 XBig12= 5.10D-15 2.58D-09.
 InvSVY:  IOpt=1 It=  1 EMax= 1.22D-15
 Solved reduced A of dimension  2230 with   120 vectors.
 End of Minotr F.D. properties file   721 does not exist.
 End of Minotr F.D. properties file   722 does not exist.
 End of Minotr F.D. properties file   788 does not exist.

 **********************************************************************

            Population analysis using the SCF density.

 **********************************************************************

 Orbital symmetries:
 Alpha Orbitals:
       Occupied  (A) (A) (A) (A) (A) (A) (A) (A) (A) (A) (A) (A)
                 (A) (A) (A) (A) (A) (A) (A) (A) (A) (A) (A) (A)
                 (A) (A) (A) (A) (A) (A) (A) (A) (A) (A) (A) (A)
                 (A) (A) (A) (A) (A) (A) (A) (A) (A) (A) (A) (A)
                 (A) (A) (A) (A) (A) (A) (A) (A) (A) (A) (A) (A)
                 (A) (A) (A) (A) (A) (A) (A) (A) (A) (A) (A) (A)
                 (A) (A) (A) (A) (A) (A) (A) (A) (A) (A) (A)
       Virtual   (A) (A) (A) (A) (A) (A) (A) (A) (A) (A) (A) (A)
                 (A) (A) (A) (A) (A) (A) (A) (A) (A) (A) (A) (A)
                 (A) (A) (A) (A) (A) (A) (A) (A) (A) (A) (A) (A)
                 (A) (A) (A) (A) (A) (A) (A) (A) (A) (A) (A) (A)
                 (A) (A) (A) (A) (A) (A) (A) (A) (A) (A) (A) (A)
                 (A) (A) (A) (A) (A) (A) (A) (A) (A) (A) (A) (A)
                 (A) (A) (A) (A) (A) (A) (A) (A) (A) (A) (A) (A)
                 (A) (A) (A) (A) (A) (A) (A) (A) (A) (A) (A) (A)
                 (A) (A) (A) (A) (A) (A) (A) (A) (A) (A) (A) (A)
                 (A) (A) (A) (A) (A) (A) (A) (A) (A) (A) (A) (A)
                 (A) (A) (A) (A) (A) (A) (A) (A) (A) (A) (A) (A)
                 (A) (A) (A) (A) (A) (A) (A) (A) (A) (A) (A) (A)
                 (A) (A) (A) (A) (A) (A) (A) (A) (A) (A) (A) (A)
                 (A) (A) (A) (A) (A) (A) (A) (A) (A) (A) (A) (A)
                 (A) (A) (A) (A) (A) (A) (A) (A) (A) (A) (A) (A)
                 (A) (A) (A) (A) (A) (A) (A) (A) (A) (A) (A) (A)
                 (A) (A) (A) (A) (A) (A) (A) (A) (A) (A) (A) (A)
                 (A) (A) (A) (A) (A) (A) (A) (A) (A) (A) (A) (A)
                 (A) (A) (A) (A) (A) (A) (A) (A) (A) (A) (A) (A)
                 (A) (A) (A) (A) (A) (A) (A) (A) (A) (A) (A) (A)
                 (A) (A) (A) (A) (A) (A) (A) (A) (A) (A) (A) (A)
                 (A) (A) (A) (A) (A) (A) (A) (A) (A) (A) (A) (A)
                 (A) (A) (A) (A) (A) (A) (A) (A) (A) (A) (A) (A)
                 (A) (A) (A) (A) (A) (A) (A) (A) (A) (A) (A) (A)
                 (A) (A) (A) (A) (A) (A) (A) (A) (A) (A) (A) (A)
                 (A) (A) (A) (A) (A) (A) (A) (A) (A) (A) (A) (A)
                 (A) (A) (A) (A) (A) (A) (A) (A) (A) (A) (A) (A)
                 (A) (A) (A) (A) (A) (A) (A) (A) (A) (A) (A) (A)
                 (A) (A) (A) (A) (A) (A) (A) (A) (A) (A) (A) (A)
                 (A) (A) (A) (A) (A) (A) (A) (A) (A) (A) (A) (A)
                 (A) (A) (A) (A) (A) (A) (A) (A) (A) (A) (A) (A)
                 (A) (A) (A) (A) (A) (A) (A) (A) (A) (A) (A) (A)
                 (A) (A) (A) (A) (A) (A) (A) (A) (A) (A) (A) (A)
                 (A) (A) (A) (A) (A) (A) (A) (A) (A) (A) (A) (A)
                 (A) (A) (A) (A) (A) (A) (A) (A) (A) (A) (A) (A)
                 (A) (A) (A) (A) (A) (A) (A) (A) (A) (A) (A) (A)
                 (A) (A) (A) (A) (A) (A) (A) (A) (A) (A) (A) (A)
                 (A) (A) (A) (A) (A) (A) (A) (A) (A) (A) (A) (A)
                 (A) (A) (A) (A) (A) (A) (A) (A) (A) (A) (A) (A)
                 (A) (A) (A) (A) (A) (A) (A) (A) (A) (A) (A) (A)
                 (A) (A) (A) (A) (A) (A) (A) (A) (A) (A) (A) (A)
                 (A) (A) (A) (A) (A) (A) (A) (A) (A) (A) (A) (A)
                 (A) (A) (A) (A) (A) (A) (A) (A) (A) (A) (A) (A)
                 (A) (A) (A) (A) (A) (A) (A) (A) (A) (A) (A) (A)
                 (A) (A) (A) (A) (A) (A) (A)
 Beta  Orbitals:
       Occupied  (A) (A) (A) (A) (A) (A) (A) (A) (A) (A) (A) (A)
                 (A) (A) (A) (A) (A) (A) (A) (A) (A) (A) (A) (A)
                 (A) (A) (A) (A) (A) (A) (A) (A) (A) (A) (A) (A)
                 (A) (A) (A) (A) (A) (A) (A) (A) (A) (A) (A) (A)
                 (A) (A) (A) (A) (A) (A) (A) (A) (A) (A) (A) (A)
                 (A) (A) (A) (A) (A) (A) (A) (A) (A) (A) (A) (A)
                 (A) (A) (A) (A) (A) (A) (A) (A) (A)
       Virtual   (A) (A) (A) (A) (A) (A) (A) (A) (A) (A) (A) (A)
                 (A) (A) (A) (A) (A) (A) (A) (A) (A) (A) (A) (A)
                 (A) (A) (A) (A) (A) (A) (A) (A) (A) (A) (A) (A)
                 (A) (A) (A) (A) (A) (A) (A) (A) (A) (A) (A) (A)
                 (A) (A) (A) (A) (A) (A) (A) (A) (A) (A) (A) (A)
                 (A) (A) (A) (A) (A) (A) (A) (A) (A) (A) (A) (A)
                 (A) (A) (A) (A) (A) (A) (A) (A) (A) (A) (A) (A)
                 (A) (A) (A) (A) (A) (A) (A) (A) (A) (A) (A) (A)
                 (A) (A) (A) (A) (A) (A) (A) (A) (A) (A) (A) (A)
                 (A) (A) (A) (A) (A) (A) (A) (A) (A) (A) (A) (A)
                 (A) (A) (A) (A) (A) (A) (A) (A) (A) (A) (A) (A)
                 (A) (A) (A) (A) (A) (A) (A) (A) (A) (A) (A) (A)
                 (A) (A) (A) (A) (A) (A) (A) (A) (A) (A) (A) (A)
                 (A) (A) (A) (A) (A) (A) (A) (A) (A) (A) (A) (A)
                 (A) (A) (A) (A) (A) (A) (A) (A) (A) (A) (A) (A)
                 (A) (A) (A) (A) (A) (A) (A) (A) (A) (A) (A) (A)
                 (A) (A) (A) (A) (A) (A) (A) (A) (A) (A) (A) (A)
                 (A) (A) (A) (A) (A) (A) (A) (A) (A) (A) (A) (A)
                 (A) (A) (A) (A) (A) (A) (A) (A) (A) (A) (A) (A)
                 (A) (A) (A) (A) (A) (A) (A) (A) (A) (A) (A) (A)
                 (A) (A) (A) (A) (A) (A) (A) (A) (A) (A) (A) (A)
                 (A) (A) (A) (A) (A) (A) (A) (A) (A) (A) (A) (A)
                 (A) (A) (A) (A) (A) (A) (A) (A) (A) (A) (A) (A)
                 (A) (A) (A) (A) (A) (A) (A) (A) (A) (A) (A) (A)
                 (A) (A) (A) (A) (A) (A) (A) (A) (A) (A) (A) (A)
                 (A) (A) (A) (A) (A) (A) (A) (A) (A) (A) (A) (A)
                 (A) (A) (A) (A) (A) (A) (A) (A) (A) (A) (A) (A)
                 (A) (A) (A) (A) (A) (A) (A) (A) (A) (A) (A) (A)
                 (A) (A) (A) (A) (A) (A) (A) (A) (A) (A) (A) (A)
                 (A) (A) (A) (A) (A) (A) (A) (A) (A) (A) (A) (A)
                 (A) (A) (A) (A) (A) (A) (A) (A) (A) (A) (A) (A)
                 (A) (A) (A) (A) (A) (A) (A) (A) (A) (A) (A) (A)
                 (A) (A) (A) (A) (A) (A) (A) (A) (A) (A) (A) (A)
                 (A) (A) (A) (A) (A) (A) (A) (A) (A) (A) (A) (A)
                 (A) (A) (A) (A) (A) (A) (A) (A) (A) (A) (A) (A)
                 (A) (A) (A) (A) (A) (A) (A) (A) (A) (A) (A) (A)
                 (A) (A) (A) (A) (A) (A) (A) (A) (A) (A) (A) (A)
                 (A) (A) (A) (A) (A) (A) (A) (A) (A) (A) (A) (A)
                 (A) (A) (A) (A) (A) (A) (A) (A) (A) (A) (A) (A)
                 (A) (A) (A) (A) (A) (A) (A) (A) (A) (A) (A) (A)
                 (A) (A) (A) (A) (A) (A) (A) (A) (A) (A) (A) (A)
                 (A) (A) (A) (A) (A) (A) (A) (A) (A) (A) (A) (A)
                 (A) (A) (A) (A) (A) (A) (A) (A) (A) (A) (A) (A)
                 (A) (A) (A) (A) (A) (A) (A) (A) (A) (A) (A) (A)
                 (A) (A) (A) (A) (A) (A) (A) (A) (A)
 The electronic state is 3-A.
 Alpha  occ. eigenvalues --  -10.22686 -10.20973 -10.20575 -10.19944 -10.19779
 Alpha  occ. eigenvalues --  -10.19526 -10.19467 -10.19404 -10.19394 -10.19382
 Alpha  occ. eigenvalues --  -10.19224 -10.19184 -10.19161 -10.19098 -10.19034
 Alpha  occ. eigenvalues --  -10.19012 -10.18591 -10.18303 -10.18119 -10.18034
 Alpha  occ. eigenvalues --  -10.17960 -10.17940 -10.17797 -10.17717 -10.17275
 Alpha  occ. eigenvalues --   -0.92078  -0.88665  -0.85885  -0.84918  -0.82957
 Alpha  occ. eigenvalues --   -0.79710  -0.79158  -0.78584  -0.75485  -0.74907
 Alpha  occ. eigenvalues --   -0.73358  -0.71798  -0.70696  -0.65003  -0.64718
 Alpha  occ. eigenvalues --   -0.63091  -0.61887  -0.60355  -0.59638  -0.57050
 Alpha  occ. eigenvalues --   -0.54981  -0.53311  -0.52149  -0.52056  -0.51141
 Alpha  occ. eigenvalues --   -0.49441  -0.48150  -0.47178  -0.46498  -0.45384
 Alpha  occ. eigenvalues --   -0.44611  -0.44088  -0.43578  -0.43116  -0.42416
 Alpha  occ. eigenvalues --   -0.41595  -0.41137  -0.40316  -0.39996  -0.38865
 Alpha  occ. eigenvalues --   -0.38432  -0.37807  -0.36977  -0.35915  -0.34823
 Alpha  occ. eigenvalues --   -0.34434  -0.34062  -0.33551  -0.33117  -0.30783
 Alpha  occ. eigenvalues --   -0.29567  -0.29300  -0.25935  -0.25263  -0.24213
 Alpha  occ. eigenvalues --   -0.23329  -0.21554  -0.19648
 Alpha virt. eigenvalues --   -0.07212  -0.05590  -0.02520  -0.02164  -0.00249
 Alpha virt. eigenvalues --    0.00132   0.00222   0.00621   0.00762   0.00941
 Alpha virt. eigenvalues --    0.01762   0.01943   0.02881   0.03084   0.03345
 Alpha virt. eigenvalues --    0.03583   0.04256   0.04660   0.05046   0.05306
 Alpha virt. eigenvalues --    0.05736   0.05860   0.06359   0.06813   0.07504
 Alpha virt. eigenvalues --    0.07655   0.07878   0.07980   0.08586   0.08720
 Alpha virt. eigenvalues --    0.09069   0.09484   0.10421   0.10685   0.10866
 Alpha virt. eigenvalues --    0.11005   0.11243   0.12279   0.12572   0.12694
 Alpha virt. eigenvalues --    0.12858   0.13509   0.13845   0.14019   0.14364
 Alpha virt. eigenvalues --    0.14533   0.14859   0.15310   0.15570   0.15811
 Alpha virt. eigenvalues --    0.16000   0.16341   0.16444   0.16675   0.17044
 Alpha virt. eigenvalues --    0.17370   0.17555   0.17701   0.18113   0.18195
 Alpha virt. eigenvalues --    0.18249   0.18704   0.19018   0.19107   0.19647
 Alpha virt. eigenvalues --    0.20095   0.20172   0.20281   0.20694   0.20916
 Alpha virt. eigenvalues --    0.21134   0.21273   0.21624   0.21816   0.22081
 Alpha virt. eigenvalues --    0.22442   0.22531   0.22732   0.23286   0.23582
 Alpha virt. eigenvalues --    0.23758   0.23951   0.24324   0.24514   0.24662
 Alpha virt. eigenvalues --    0.25087   0.25367   0.25441   0.25811   0.25981
 Alpha virt. eigenvalues --    0.26290   0.27122   0.27458   0.27536   0.27752
 Alpha virt. eigenvalues --    0.28085   0.28408   0.29009   0.29084   0.29418
 Alpha virt. eigenvalues --    0.29618   0.29965   0.30174   0.30522   0.30894
 Alpha virt. eigenvalues --    0.31040   0.31576   0.31842   0.32098   0.32716
 Alpha virt. eigenvalues --    0.32856   0.33131   0.33653   0.34605   0.35006
 Alpha virt. eigenvalues --    0.35868   0.36294   0.36514   0.37043   0.38099
 Alpha virt. eigenvalues --    0.38509   0.39667   0.40372   0.40969   0.41773
 Alpha virt. eigenvalues --    0.42678   0.43517   0.44204   0.44442   0.45169
 Alpha virt. eigenvalues --    0.45630   0.46067   0.47291   0.47577   0.48285
 Alpha virt. eigenvalues --    0.49450   0.50987   0.52020   0.52472   0.52589
 Alpha virt. eigenvalues --    0.53050   0.53373   0.53469   0.53856   0.54141
 Alpha virt. eigenvalues --    0.54894   0.55003   0.55044   0.56020   0.56237
 Alpha virt. eigenvalues --    0.56500   0.57128   0.57334   0.57621   0.57988
 Alpha virt. eigenvalues --    0.58389   0.59003   0.59926   0.60451   0.60900
 Alpha virt. eigenvalues --    0.60935   0.61242   0.62232   0.62610   0.62867
 Alpha virt. eigenvalues --    0.63775   0.64043   0.64287   0.64438   0.65146
 Alpha virt. eigenvalues --    0.65553   0.66004   0.66283   0.66903   0.67248
 Alpha virt. eigenvalues --    0.67936   0.68286   0.68828   0.69393   0.69681
 Alpha virt. eigenvalues --    0.70093   0.70326   0.71212   0.71409   0.71618
 Alpha virt. eigenvalues --    0.71828   0.72200   0.72960   0.73702   0.73809
 Alpha virt. eigenvalues --    0.74498   0.74861   0.75540   0.75959   0.76177
 Alpha virt. eigenvalues --    0.76549   0.77479   0.78127   0.79012   0.79812
 Alpha virt. eigenvalues --    0.80689   0.81247   0.82251   0.82727   0.83597
 Alpha virt. eigenvalues --    0.84679   0.85563   0.86038   0.86697   0.87827
 Alpha virt. eigenvalues --    0.88381   0.88733   0.89232   0.89507   0.91026
 Alpha virt. eigenvalues --    0.91602   0.91891   0.92415   0.92702   0.92912
 Alpha virt. eigenvalues --    0.93545   0.93813   0.94569   0.94989   0.95365
 Alpha virt. eigenvalues --    0.95721   0.96591   0.96719   0.97286   0.97809
 Alpha virt. eigenvalues --    0.98560   0.99270   0.99736   1.00603   1.01206
 Alpha virt. eigenvalues --    1.01594   1.02370   1.02615   1.02829   1.03796
 Alpha virt. eigenvalues --    1.04092   1.04808   1.05465   1.05842   1.07261
 Alpha virt. eigenvalues --    1.08261   1.08706   1.09476   1.09763   1.10313
 Alpha virt. eigenvalues --    1.11069   1.12139   1.12884   1.14136   1.15401
 Alpha virt. eigenvalues --    1.15820   1.16277   1.18013   1.19009   1.20071
 Alpha virt. eigenvalues --    1.21074   1.21190   1.23757   1.26220   1.26615
 Alpha virt. eigenvalues --    1.28210   1.30196   1.32094   1.32506   1.34671
 Alpha virt. eigenvalues --    1.34800   1.37022   1.37775   1.37992   1.39799
 Alpha virt. eigenvalues --    1.40754   1.42404   1.44066   1.45822   1.45956
 Alpha virt. eigenvalues --    1.46916   1.47205   1.47946   1.48906   1.49064
 Alpha virt. eigenvalues --    1.49985   1.50122   1.50765   1.51893   1.52713
 Alpha virt. eigenvalues --    1.52984   1.54296   1.54881   1.55272   1.55897
 Alpha virt. eigenvalues --    1.56190   1.56856   1.57184   1.58956   1.59114
 Alpha virt. eigenvalues --    1.60100   1.60479   1.60918   1.62315   1.63111
 Alpha virt. eigenvalues --    1.65261   1.66272   1.66869   1.67518   1.68243
 Alpha virt. eigenvalues --    1.68483   1.69203   1.70367   1.72029   1.73418
 Alpha virt. eigenvalues --    1.73568   1.73837   1.74512   1.75020   1.75895
 Alpha virt. eigenvalues --    1.76578   1.77760   1.78055   1.78817   1.80866
 Alpha virt. eigenvalues --    1.81789   1.82577   1.83463   1.83501   1.84545
 Alpha virt. eigenvalues --    1.85786   1.86537   1.86806   1.87192   1.88096
 Alpha virt. eigenvalues --    1.88771   1.89324   1.89681   1.91072   1.91921
 Alpha virt. eigenvalues --    1.92024   1.92471   1.93126   1.93834   1.94373
 Alpha virt. eigenvalues --    1.94830   1.94915   1.96379   1.97897   1.98366
 Alpha virt. eigenvalues --    1.99075   1.99609   2.00384   2.00641   2.02188
 Alpha virt. eigenvalues --    2.04151   2.04503   2.05092   2.06293   2.06409
 Alpha virt. eigenvalues --    2.07608   2.09008   2.10122   2.11575   2.13053
 Alpha virt. eigenvalues --    2.13603   2.14491   2.15305   2.16841   2.18217
 Alpha virt. eigenvalues --    2.18855   2.20679   2.21821   2.22352   2.23667
 Alpha virt. eigenvalues --    2.24624   2.27433   2.28219   2.31787   2.32525
 Alpha virt. eigenvalues --    2.35198   2.36246   2.37870   2.38930   2.39474
 Alpha virt. eigenvalues --    2.41495   2.42642   2.43681   2.44427   2.44954
 Alpha virt. eigenvalues --    2.46591   2.46914   2.49580   2.50480   2.52751
 Alpha virt. eigenvalues --    2.54902   2.55394   2.57823   2.58160   2.60591
 Alpha virt. eigenvalues --    2.61873   2.63286   2.64593   2.64781   2.66392
 Alpha virt. eigenvalues --    2.67598   2.69256   2.69569   2.70205   2.71037
 Alpha virt. eigenvalues --    2.71430   2.71916   2.72158   2.72582   2.72883
 Alpha virt. eigenvalues --    2.74202   2.74722   2.75172   2.76222   2.76388
 Alpha virt. eigenvalues --    2.76984   2.77624   2.77808   2.78475   2.78662
 Alpha virt. eigenvalues --    2.79280   2.80114   2.80674   2.81341   2.82599
 Alpha virt. eigenvalues --    2.83226   2.84014   2.85020   2.86164   2.87143
 Alpha virt. eigenvalues --    2.87855   2.88101   2.89639   2.91300   2.91461
 Alpha virt. eigenvalues --    2.92020   2.93124   2.94022   2.95000   2.96794
 Alpha virt. eigenvalues --    2.99541   3.01296   3.01752   3.03384   3.04798
 Alpha virt. eigenvalues --    3.06795   3.07822   3.10454   3.11448   3.13169
 Alpha virt. eigenvalues --    3.14423   3.16088   3.19493   3.20035   3.21439
 Alpha virt. eigenvalues --    3.23478   3.23577   3.25020   3.27771   3.32737
 Alpha virt. eigenvalues --    3.33487   3.35663   3.37120   3.37614   3.39210
 Alpha virt. eigenvalues --    3.39325   3.41863   3.43712   3.45840   3.47017
 Alpha virt. eigenvalues --    3.48359   3.49137   3.49876   3.52232   3.54292
 Alpha virt. eigenvalues --    3.55965   3.58672   3.58893   3.62051   3.63915
 Alpha virt. eigenvalues --    3.66438   3.70673   3.74359   3.78307   3.82724
 Alpha virt. eigenvalues --    3.88366   4.00445   4.04007   4.04432   4.06890
 Alpha virt. eigenvalues --    4.07341   4.09458   4.11933   4.18941   4.23521
 Alpha virt. eigenvalues --    4.29206   4.31882   4.36912   4.62153   4.73907
 Alpha virt. eigenvalues --    4.77650   4.79432   4.80749   4.84045   4.86927
 Alpha virt. eigenvalues --   23.40846  23.58416  23.62980  23.76617  23.82041
 Alpha virt. eigenvalues --   23.84957  23.89786  23.90213  23.94149  23.94839
 Alpha virt. eigenvalues --   23.95985  23.97024  23.99595  24.01680  24.02410
 Alpha virt. eigenvalues --   24.05716  24.08395  24.10276  24.11418  24.13586
 Alpha virt. eigenvalues --   24.15768  24.17853  24.19647  24.22468  24.95883
  Beta  occ. eigenvalues --  -10.21916 -10.20872 -10.20773 -10.20121 -10.19867
  Beta  occ. eigenvalues --  -10.19525 -10.19440 -10.19418 -10.19172 -10.19154
  Beta  occ. eigenvalues --  -10.19124 -10.19105 -10.19100 -10.19019 -10.18865
  Beta  occ. eigenvalues --  -10.18721 -10.18647 -10.18255 -10.18084 -10.18069
  Beta  occ. eigenvalues --  -10.17986 -10.17821 -10.17795 -10.17670 -10.17218
  Beta  occ. eigenvalues --   -0.91800  -0.88563  -0.85715  -0.84523  -0.82851
  Beta  occ. eigenvalues --   -0.79459  -0.78577  -0.78412  -0.75372  -0.74791
  Beta  occ. eigenvalues --   -0.72925  -0.71711  -0.69629  -0.64896  -0.64566
  Beta  occ. eigenvalues --   -0.62737  -0.61798  -0.60224  -0.59446  -0.57004
  Beta  occ. eigenvalues --   -0.54554  -0.53009  -0.52011  -0.51951  -0.51080
  Beta  occ. eigenvalues --   -0.49269  -0.48047  -0.47083  -0.46424  -0.45176
  Beta  occ. eigenvalues --   -0.44456  -0.43738  -0.43339  -0.42845  -0.42363
  Beta  occ. eigenvalues --   -0.41513  -0.41092  -0.40058  -0.39909  -0.38421
  Beta  occ. eigenvalues --   -0.37760  -0.36785  -0.36230  -0.35714  -0.34753
  Beta  occ. eigenvalues --   -0.34243  -0.33865  -0.33162  -0.31557  -0.29996
  Beta  occ. eigenvalues --   -0.28858  -0.28755  -0.25564  -0.24990  -0.22847
  Beta  occ. eigenvalues --   -0.21310
  Beta virt. eigenvalues --   -0.13120  -0.07556  -0.06481  -0.05173  -0.02177
  Beta virt. eigenvalues --   -0.01564   0.00100   0.00349   0.00628   0.00793
  Beta virt. eigenvalues --    0.00977   0.01244   0.01826   0.01988   0.02982
  Beta virt. eigenvalues --    0.03171   0.03473   0.03649   0.04447   0.04762
  Beta virt. eigenvalues --    0.05137   0.05401   0.05799   0.05918   0.06548
  Beta virt. eigenvalues --    0.07017   0.07534   0.07788   0.07996   0.08110
  Beta virt. eigenvalues --    0.08878   0.08964   0.09367   0.09709   0.10529
  Beta virt. eigenvalues --    0.10794   0.11046   0.11250   0.11567   0.12334
  Beta virt. eigenvalues --    0.12673   0.12787   0.13112   0.13672   0.14026
  Beta virt. eigenvalues --    0.14354   0.14513   0.14896   0.15114   0.15441
  Beta virt. eigenvalues --    0.15891   0.16057   0.16254   0.16479   0.16533
  Beta virt. eigenvalues --    0.16865   0.17204   0.17469   0.17683   0.17799
  Beta virt. eigenvalues --    0.18205   0.18393   0.18466   0.18812   0.19119
  Beta virt. eigenvalues --    0.19256   0.19757   0.20162   0.20230   0.20431
  Beta virt. eigenvalues --    0.20832   0.21054   0.21193   0.21377   0.21753
  Beta virt. eigenvalues --    0.21925   0.22240   0.22493   0.22721   0.23008
  Beta virt. eigenvalues --    0.23349   0.23653   0.23840   0.24074   0.24396
  Beta virt. eigenvalues --    0.24587   0.24745   0.25163   0.25450   0.25587
  Beta virt. eigenvalues --    0.25927   0.26083   0.26388   0.27402   0.27531
  Beta virt. eigenvalues --    0.27750   0.27915   0.28180   0.28534   0.29048
  Beta virt. eigenvalues --    0.29201   0.29500   0.29700   0.30108   0.30233
  Beta virt. eigenvalues --    0.30655   0.31103   0.31221   0.31670   0.31960
  Beta virt. eigenvalues --    0.32345   0.32769   0.32950   0.33206   0.33705
  Beta virt. eigenvalues --    0.34831   0.35192   0.35945   0.36431   0.36705
  Beta virt. eigenvalues --    0.37179   0.38196   0.38838   0.39815   0.40483
  Beta virt. eigenvalues --    0.41163   0.41944   0.42810   0.43617   0.44341
  Beta virt. eigenvalues --    0.44611   0.45305   0.45867   0.46614   0.47672
  Beta virt. eigenvalues --    0.48134   0.48419   0.50214   0.51322   0.52518
  Beta virt. eigenvalues --    0.52746   0.52817   0.53377   0.53599   0.53880
  Beta virt. eigenvalues --    0.54273   0.54404   0.55096   0.55141   0.55240
  Beta virt. eigenvalues --    0.56242   0.56481   0.57108   0.57351   0.57630
  Beta virt. eigenvalues --    0.57869   0.58421   0.58600   0.59270   0.60120
  Beta virt. eigenvalues --    0.60724   0.60988   0.61146   0.61497   0.62456
  Beta virt. eigenvalues --    0.62901   0.63333   0.64105   0.64139   0.64564
  Beta virt. eigenvalues --    0.64773   0.65297   0.65728   0.66042   0.66527
  Beta virt. eigenvalues --    0.67210   0.67402   0.68066   0.68428   0.69044
  Beta virt. eigenvalues --    0.69540   0.69928   0.70300   0.70582   0.71370
  Beta virt. eigenvalues --    0.71636   0.71893   0.71956   0.72588   0.73144
  Beta virt. eigenvalues --    0.73813   0.74122   0.74554   0.74952   0.75690
  Beta virt. eigenvalues --    0.76043   0.76553   0.76751   0.77606   0.78334
  Beta virt. eigenvalues --    0.79166   0.79960   0.80875   0.81377   0.82398
  Beta virt. eigenvalues --    0.82932   0.83731   0.84871   0.85795   0.86190
  Beta virt. eigenvalues --    0.86804   0.87982   0.88509   0.88932   0.89367
  Beta virt. eigenvalues --    0.89636   0.91137   0.91854   0.92013   0.92538
  Beta virt. eigenvalues --    0.93002   0.93187   0.93712   0.94016   0.94825
  Beta virt. eigenvalues --    0.95150   0.95647   0.95857   0.96722   0.96795
  Beta virt. eigenvalues --    0.97473   0.97954   0.98928   0.99403   1.00001
  Beta virt. eigenvalues --    1.00821   1.01566   1.01779   1.02455   1.02918
  Beta virt. eigenvalues --    1.03211   1.04075   1.04312   1.05086   1.05812
  Beta virt. eigenvalues --    1.06080   1.07601   1.08601   1.08873   1.09636
  Beta virt. eigenvalues --    1.09963   1.10518   1.11247   1.12348   1.12996
  Beta virt. eigenvalues --    1.14265   1.15632   1.15991   1.16775   1.18262
  Beta virt. eigenvalues --    1.19213   1.20314   1.21267   1.21483   1.24144
  Beta virt. eigenvalues --    1.26892   1.27059   1.29022   1.31078   1.32509
  Beta virt. eigenvalues --    1.32730   1.35160   1.35405   1.37570   1.38352
  Beta virt. eigenvalues --    1.38568   1.40092   1.41866   1.43259   1.45093
  Beta virt. eigenvalues --    1.46574   1.46991   1.47313   1.47491   1.48328
  Beta virt. eigenvalues --    1.49347   1.49556   1.50184   1.50430   1.51763
  Beta virt. eigenvalues --    1.52266   1.52886   1.53322   1.54417   1.55167
  Beta virt. eigenvalues --    1.55934   1.56477   1.56676   1.57269   1.57433
  Beta virt. eigenvalues --    1.59321   1.60085   1.60545   1.61202   1.62252
  Beta virt. eigenvalues --    1.62505   1.64183   1.65765   1.66649   1.67263
  Beta virt. eigenvalues --    1.67803   1.68708   1.69926   1.70742   1.71767
  Beta virt. eigenvalues --    1.72321   1.73701   1.73780   1.74165   1.74603
  Beta virt. eigenvalues --    1.75577   1.76195   1.77485   1.78071   1.78463
  Beta virt. eigenvalues --    1.79173   1.81342   1.82321   1.82789   1.83844
  Beta virt. eigenvalues --    1.84116   1.85254   1.86034   1.86925   1.87356
  Beta virt. eigenvalues --    1.87493   1.88271   1.89472   1.89553   1.90241
  Beta virt. eigenvalues --    1.91532   1.92125   1.92209   1.93213   1.93680
  Beta virt. eigenvalues --    1.94455   1.94736   1.95020   1.96099   1.97172
  Beta virt. eigenvalues --    1.98429   1.98616   1.99415   1.99869   2.00599
  Beta virt. eigenvalues --    2.00839   2.02811   2.04282   2.04708   2.05356
  Beta virt. eigenvalues --    2.06458   2.06851   2.07835   2.09470   2.10326
  Beta virt. eigenvalues --    2.11619   2.13302   2.13680   2.14742   2.15412
  Beta virt. eigenvalues --    2.17155   2.18372   2.19071   2.20954   2.22015
  Beta virt. eigenvalues --    2.22534   2.23902   2.24861   2.27519   2.28634
  Beta virt. eigenvalues --    2.31993   2.32667   2.35399   2.36355   2.38080
  Beta virt. eigenvalues --    2.39081   2.39778   2.41597   2.42757   2.43742
  Beta virt. eigenvalues --    2.44583   2.45144   2.46755   2.47220   2.49868
  Beta virt. eigenvalues --    2.51830   2.53164   2.55011   2.55478   2.58165
  Beta virt. eigenvalues --    2.60236   2.62120   2.63443   2.64169   2.64880
  Beta virt. eigenvalues --    2.66452   2.67756   2.68075   2.69380   2.70078
  Beta virt. eigenvalues --    2.70395   2.71136   2.71842   2.72176   2.72671
  Beta virt. eigenvalues --    2.72818   2.73203   2.74279   2.74903   2.75306
  Beta virt. eigenvalues --    2.76306   2.76606   2.77531   2.77746   2.77937
  Beta virt. eigenvalues --    2.78720   2.79053   2.79822   2.80476   2.80945
  Beta virt. eigenvalues --    2.81629   2.82658   2.83399   2.84289   2.85188
  Beta virt. eigenvalues --    2.86543   2.87287   2.87948   2.88450   2.90150
  Beta virt. eigenvalues --    2.91468   2.91672   2.92269   2.93340   2.94165
  Beta virt. eigenvalues --    2.95208   2.97200   2.99842   3.01787   3.02038
  Beta virt. eigenvalues --    3.04138   3.05781   3.07773   3.08404   3.10630
  Beta virt. eigenvalues --    3.11572   3.13429   3.14498   3.16156   3.19548
  Beta virt. eigenvalues --    3.20369   3.21541   3.23547   3.23637   3.25100
  Beta virt. eigenvalues --    3.27893   3.32853   3.33590   3.35745   3.37181
  Beta virt. eigenvalues --    3.37686   3.39246   3.39378   3.42046   3.43782
  Beta virt. eigenvalues --    3.45936   3.47327   3.48468   3.49207   3.50246
  Beta virt. eigenvalues --    3.52292   3.54334   3.55984   3.58787   3.58943
  Beta virt. eigenvalues --    3.62102   3.63984   3.66561   3.70766   3.74486
  Beta virt. eigenvalues --    3.78389   3.82901   3.88412   4.00643   4.04079
  Beta virt. eigenvalues --    4.04502   4.06922   4.07412   4.09492   4.12139
  Beta virt. eigenvalues --    4.19020   4.23645   4.29319   4.32375   4.37096
  Beta virt. eigenvalues --    4.62358   4.74298   4.77736   4.79543   4.80914
  Beta virt. eigenvalues --    4.84088   4.87018  23.40937  23.58637  23.63045
  Beta virt. eigenvalues --   23.76657  23.82050  23.85012  23.89910  23.90715
[...]
 9,-0.00000227,0.00001544,0.00000400,0.00000556,-0.00000113,0.00005044,
 -0.00000204,-0.00003996,-0.00003676,0.00000355,-0.00000437,-0.00000867
 ,0.00000077,0.00000897,0.00000961,-0.00000254,0.00012472,0.00008732,-0
 .00002107,-0.00023761,0.00009290,-0.00032042,-0.00027047,-0.00005817,0
 .00010618,0.00009802,0.00000024,0.00000634,-0.00031078,-0.00082445,0.0
 0003056,-0.00102675,-0.00447044,0.00377879,0.00131703,0.00029763,-0.00
 003230,0.00010997,-0.00058053,-0.00007192,-0.00301665,-0.00041957,0.00
 253495,-0.01542275,0.01095533,-0.00135104,0.10846412,-0.10996991,0.014
 68053,0.02864307,-0.00830400,0.00173284,0.00000420,0.00000830,0.000006
 65,0.00001537,-0.00000863,-0.00000782,-0.00001624,-0.00000836,-0.00000
 056,0.00003180,0.00000899,-0.00001143,-0.00002239,-0.00007655,0.000000
 01,-0.00000058,0.00000191,0.00000102,0.00000251,0.00000143,0.00000079,
 0.00000238,-0.00000046,-0.00000018,0.00000340,-0.00000030,-0.00000114,
 -0.00000062,-0.00000232,0.00000080,-0.00000634,0.00000094,-0.00000211,
 0.00013659,-0.00008384,-0.00004029,-0.00003321,-0.00002672,0.00004485,
 -0.00047039,0.00057410,-0.00148123,-0.00074005,0.00036124,-0.00004107,
 0.00049866,0.00030204,-0.00126430,-0.11782785,0.11208795,0.00001621,0.
 00000220,-0.00000397,-0.00001090,-0.00000721,0.00000428,-0.00000129,-0
 .00002258,0.00002987,-0.00000776,-0.00000144,-0.00001069,-0.00000876,0
 .00000789,0.00000202,-0.00000231,-0.00000550,0.00000398,-0.00010693,0.
 00006319,-0.00004195,-0.00012821,-0.00026357,-0.00083701,0.00006517,-0
 .00005351,0.00012279,-0.00003892,-0.00000201,0.00004555,0.00027588,0.0
 0024285,-0.00092464,0.00040348,0.00355162,0.00711597,-0.00054471,0.000
 12604,0.00015216,0.00000760,0.00005926,-0.00043862,0.00174363,0.002634
 90,0.00511926,0.00686681,-0.00349021,0.00385123,-0.01517213,0.01496346
 ,-0.04059182,-0.00870769,0.00330795,0.00325770,0.00000161,-0.00001914,
 -0.00000229,-0.00002279,0.00001510,-0.00000143,0.00003299,0.00001145,-
 0.00000420,-0.00006878,-0.00000533,0.00001070,0.00007838,0.00007660,-0
 .00001048,-0.00000206,-0.00000237,0.00000335,-0.00000010,-0.00000023,0
 .00000130,-0.00000057,-0.00000090,0.00000145,-0.00000064,-0.00000022,-
 0.00000155,-0.00000027,-0.00000062,0.00000121,-0.00000045,-0.00000416,
 -0.00000368,-0.00003808,0.00001879,0.00000386,0.00003125,0.00001467,0.
 00007131,-0.00016044,-0.00148129,-0.00403949,0.00036966,-0.00018252,0.
 00005154,-0.00051815,-0.00128969,-0.00278000,0.01567782,-0.01828306,0.
 02980560,-0.00130201,0.00045300,0.00007854,-0.00566322,-0.00314415,-0.
 00009695,0.00223559,-0.00680598,-0.00044667,0.00265389,0.00256793,-0.0
 0001871,0.00015673,0.00059315,0.00000139,-0.00079484,-0.00031615,0.000
 08768,0.01426310,0.00979009,-0.00136237,-0.00278729,-0.00228703,0.0002
 0053,-0.00103111,0.00088036,0.00034609,-0.00082892,-0.00147618,0.00012
 576,0.00120857,-0.00094095,-0.00030986,-0.00044455,-0.00042814,0.00013
 036,-0.00029877,0.00031444,-0.00003476,0.00050479,-0.00000084,-0.00004
 175,-0.00262319,-0.00120561,-0.00183239,0.00021572,0.00007954,0.000111
 70,-0.00011915,0.00011387,0.00014469,0.00000143,-0.00004914,0.00000139
 ,0.00070200,0.00040821,0.00000748,0.00040828,0.00093246,0.00003043,0.0
 0183763,0.00101700,0.00021556,-0.02401063,0.03172923,0.00917334,-0.108
 63685,0.06844640,0.02201405,-0.00001612,-0.00017097,-0.00000665,0.0000
 5045,-0.00005658,0.00002776,0.00000640,0.00003048,-0.00001068,0.000023
 87,0.00013082,-0.00003824,0.00013700,-0.00008537,-0.00001580,-0.000034
 91,-0.00004648,-0.00004576,-0.00004171,-0.00005371,0.00000128,-0.00003
 198,0.00001331,0.00000589,-0.00001548,-0.00000012,0.00000087,-0.002937
 71,-0.00180858,-0.00227181,-0.00005028,0.00010950,-0.00007460,-0.00002
 182,0.00000224,-0.00005084,0.19493836,0.00490594,0.00268453,0.00000642
 ,-0.00025255,0.00960194,0.00140423,-0.01481768,0.00332484,0.00246501,-
 0.00415300,-0.00616324,0.00059872,-0.00162606,-0.00231554,-0.00004675,
 0.00230176,0.00036459,-0.00027517,0.00631782,-0.05300632,-0.01170250,0
 .01010287,0.00700635,-0.00002486,0.00318856,-0.00314441,-0.00057587,0.
 00184177,0.00356406,-0.00031573,-0.00347713,0.00149537,0.00035145,0.00
 043327,0.00164297,0.00021320,0.00081105,-0.00086037,0.00002161,-0.0010
 4636,-0.00006234,0.00018229,-0.00096877,-0.00230578,-0.00160991,-0.000
 99592,-0.00022677,-0.00023099,0.00059670,0.00056731,-0.00021473,0.0001
 2168,-0.00048951,0.00006960,-0.00287754,-0.00098164,0.00005789,0.00016
 431,-0.00142490,-0.00039328,-0.00688857,-0.00272440,-0.00015005,0.0374
 0152,-0.00682720,-0.00715405,0.08445178,-0.21425965,-0.06364634,-0.000
 51076,0.00021891,0.00036841,-0.00013871,0.00008642,-0.00000080,-0.0000
 4439,-0.00004146,0.00006883,-0.00003664,0.00011311,-0.00001405,0.00006
 148,0.00002238,-0.00003503,0.00005697,0.00003965,0.00007910,0.00004166
 ,0.00002977,-0.00001436,-0.00000129,-0.00004030,-0.00003672,-0.0000111
 3,-0.00001364,-0.00000030,-0.00198239,-0.00034104,-0.00025487,0.000026
 56,0.00004443,0.00006549,-0.00001253,0.00003032,0.00006403,-0.30848337
 ,1.04067465,0.00062779,-0.00019580,0.00053359,-0.00118153,0.00070579,0
 .00230269,-0.00041083,0.00030499,0.00274180,0.00046442,-0.00005994,0.0
 0094256,0.00013714,0.00035007,-0.00004510,-0.00040695,-0.00011624,-0.0
 0024144,0.00139579,-0.00369665,-0.00145308,-0.00092841,-0.00020526,-0.
 00177218,-0.00001553,0.00037106,0.00005395,-0.00002540,-0.00003954,0.0
 0004524,-0.00005362,-0.00045843,0.00009341,0.00003225,-0.00001036,0.00
 017234,-0.00002970,0.00005681,0.00000563,-0.00000004,-0.00004937,-0.00
 005055,-0.00113704,-0.00137171,-0.00021355,0.00017893,-0.00000432,-0.0
 0015561,0.00007776,-0.00001752,0.00003676,-0.00002000,-0.00006477,-0.0
 0004977,-0.00013007,0.00016311,0.00000727,0.00024489,-0.00055821,-0.00
 001796,-0.00155825,-0.00039545,-0.00077526,0.00687984,-0.00335931,0.00
 270321,0.01967895,-0.05563809,-0.04946825,-0.00015347,0.00007618,-0.00
 006461,-0.00005660,0.00000712,0.00004226,-0.00001378,0.00000362,-0.000
 00066,-0.00001953,0.00002658,-0.00010408,-0.00000045,-0.00000874,-0.00
 013281,0.00000634,0.00000755,0.00003746,-0.00000049,-0.00000054,-0.000
 00039,0.00001259,-0.00000041,0.00000410,0.00000448,0.00000915,0.000003
 25,-0.00239210,-0.00050844,-0.00069420,0.00002371,0.00005957,-0.000001
 37,0.00002389,0.00001448,0.00003670,-0.01901152,0.17816991,0.04322571,
 -0.00008870,-0.00022951,0.00001060,0.00031076,0.00085639,0.00035466,-0
 .00106943,0.00162498,0.00029199,-0.00004613,-0.00045521,-0.00003580,0.
 00014887,0.00012276,-0.00004855,-0.00018647,0.00012972,-0.00001028,-0.
 00227358,-0.00466156,0.00019430,0.00036105,0.00105202,-0.00034367,0.00
 056782,-0.00052176,0.00000200,-0.00034419,0.00048568,-0.00000194,-0.00
 055182,0.00025589,0.00000023,-0.00008617,0.00013572,0.00024709,0.00018
 044,-0.00004578,-0.00005285,-0.00026428,-0.00018871,0.00006394,0.00030
 256,-0.00070552,-0.00166519,0.00006582,-0.00042630,-0.00016085,0.00028
 043,0.00005296,0.00002193,-0.00007282,-0.00031847,0.00012583,-0.000058
 59,0.00029454,0.00002979,0.00017428,-0.00002658,0.00002549,0.00000598,
 0.00018105,-0.00001678,0.00196850,-0.00077254,-0.00044999,-0.00043990,
 0.02030660,0.00100412,0.00028580,-0.00001628,-0.00007204,-0.00001819,-
 0.00001568,-0.00000524,-0.00002013,0.00002242,0.00000365,-0.00001819,0
 .00001839,0.00000135,-0.00001465,0.00002562,0.00001356,0.00001284,0.00
 001289,0.00000065,0.00002361,0.00001307,0.00000628,0.00001718,-0.00002
 796,-0.00000043,0.00000664,-0.00002129,-0.00000568,-0.00175858,-0.0010
 4932,0.00018695,0.00009438,0.00000918,0.00008323,-0.00004122,-0.000012
 82,0.00002824,-0.07427675,0.19362905,0.01392778,0.13780432,-0.00219229
 ,-0.00109887,-0.00010241,0.00038853,-0.00453012,-0.00130414,0.00555576
 ,-0.00498275,-0.00177780,0.00238765,0.00289055,-0.00021355,0.00075422,
 0.00078740,0.00005109,-0.00093617,-0.00029357,0.00014800,0.00700864,0.
 01708756,0.00178132,-0.00413792,-0.00349355,-0.00002280,-0.00165199,0.
 00168219,0.00026917,-0.00060457,-0.00192396,0.00013476,0.00167086,-0.0
 0105917,-0.00021557,-0.00022787,-0.00058179,0.00004706,-0.00045485,0.0
 0040954,0.00001763,0.00064967,0.00013775,-0.00013285,0.00024742,0.0009
 7032,-0.00013840,0.00035014,-0.00001235,0.00017115,-0.00042827,-0.0001
 6618,0.00017949,-0.00001828,0.00030562,-0.00010860,0.00107762,0.000461
 64,-0.00005224,0.00031223,0.00083533,0.00021650,0.00162200,0.00088229,
 0.00029811,-0.01551545,0.00076210,0.00224258,0.00883611,-0.05699782,0.
 00332576,0.00050463,0.00022864,-0.00017027,0.00013984,-0.00003293,-0.0
 0000844,0.00006214,0.00005762,-0.00002902,0.00005644,-0.00007772,0.000
 04615,0.00006802,-0.00007931,0.00003205,-0.00005065,-0.00006129,-0.000
 04906,-0.00004389,-0.00005434,0.00002775,-0.00004157,0.00002143,0.0000
 0657,-0.00002113,0.00000689,-0.00001512,-0.00056973,-0.00084637,-0.000
 50328,-0.00014566,0.00003117,-0.00012942,-0.00002599,-0.00001219,-0.00
 003906,0.20132644,-0.78177101,-0.09859818,-0.31870340,1.19727159,-0.00
 005708,0.00000332,-0.00015469,0.00069233,0.00004138,-0.00008173,-0.000
 15742,-0.00061771,0.00022965,0.00003013,-0.00000480,-0.00021551,-0.000
 04291,-0.00013042,0.00001321,0.00013321,-0.00004183,-0.00000254,0.0009
 6930,-0.00018542,0.00066737,0.00023363,0.00017394,0.00042299,0.0000322
 6,-0.00032539,-0.00003691,-0.00002404,0.00015748,0.00000835,-0.0005483
 0,-0.00000393,0.00012570,-0.00007169,-0.00002855,0.00016355,-0.0000117
 6,-0.00004130,-0.00000142,-0.00002117,-0.00002885,0.00005869,0.0006929
 8,0.00001969,-0.00088372,-0.00030070,-0.00007931,0.00016078,0.00001308
 ,0.00011291,0.00000360,-0.00002342,-0.00010604,0.00004478,-0.00001119,
 -0.00003528,-0.00001532,0.00000440,-0.00000186,-0.00004210,-0.00009100
 ,-0.00000391,0.00005774,-0.00047855,-0.00093289,0.00085424,0.00290760,
 -0.00624966,0.00125128,-0.00003582,0.00003859,-0.00012216,0.00002754,0
 .00000295,-0.00002063,0.00001001,-0.00000431,0.00000923,0.00000893,-0.
 00002312,-0.00000247,0.00001282,-0.00000321,-0.00000048,-0.00000601,-0
 .00001536,-0.00000289,-0.00000081,-0.00000834,-0.00000870,-0.00001221,
 -0.00002430,-0.00002237,-0.00001059,-0.00002460,-0.00001865,-0.0009461
 5,-0.00063912,0.00007398,0.00009007,-0.00001771,-0.00001392,-0.0000444
 3,-0.00001509,-0.00000919,0.01249333,-0.08592584,-0.02463365,-0.047600
 61,0.16148164,0.06455081,0.00008054,-0.00008934,-0.00006812,-0.0002518
 7,0.00026612,-0.00025245,0.00002950,-0.00016557,-0.00010827,0.00014145
 ,0.00006613,-0.00001841,0.00005731,0.00009325,0.00000641,-0.00011193,-
 0.00001176,0.00001253,0.00000340,-0.00014724,0.00028076,-0.00038145,-0
 .00025345,-0.00027360,-0.00005090,0.00012857,-0.00000714,-0.00005063,-
 0.00009152,0.00003686,0.00007678,-0.00024963,-0.00012198,-0.00001543,-
 0.00003653,-0.00001342,-0.00000931,0.00002756,0.00001711,0.00000333,-0
 .00002704,-0.00000626,-0.00001456,0.00009617,-0.00012368,-0.00003061,-
 0.00005506,-0.00005727,0.00008416,0.00004972,-0.00001480,0.00001439,-0
 .00007160,0.00003559,-0.00003142,0.00007587,0.00001775,0.00009312,-0.0
 0009617,-0.00005486,-0.00023194,-0.00008264,-0.00009478,0.00094037,-0.
 00005741,0.00072587,-0.00570965,0.00220012,0.00878669,-0.00005408,-0.0
 0001567,0.00003161,-0.00000336,-0.00000356,0.,0.00000094,0.00000019,0.
 00000497,-0.00000005,0.00000186,0.00001067,0.00000225,0.00000153,-0.00
 000078,0.00000116,0.00000064,-0.00000302,0.00000038,-0.00000125,-0.000
 00044,0.00000116,-0.00000189,0.00000058,0.00000257,-0.00000141,0.00000
 464,-0.00000334,0.00006989,-0.00006017,0.00001176,-0.00000723,0.000021
 17,-0.00000382,-0.00000175,-0.00000040,0.00359559,0.01445171,-0.016717
 06,0.00097413,-0.01315147,0.00570360,0.00069445,0.00031465,0.00017825,
 -0.00000948,-0.00010556,-0.00005516,0.00012483,0.00008938,0.00002683,-
 0.00011235,-0.00023113,-0.00014782,0.00004385,-0.00007942,-0.00007823,
 -0.00000852,0.00011812,0.00000511,0.00000500,0.00037608,-0.00048699,-0
 .00058950,0.00019534,-0.00015341,0.00001721,0.00000731,0.00001023,0.00
 003529,0.00017614,0.00001005,-0.00003913,-0.00017755,-0.00001134,-0.00
 010774,0.00001939,-0.00000925,0.00000714,-0.00002921,0.00001359,0.0000
 1239,0.00003057,0.00004179,-0.00000646,0.00002663,0.00002922,-0.000083
 70,-0.00005218,0.00000756,0.00003509,-0.00006607,0.00002030,0.00002161
 ,0.00000602,0.00004531,-0.00002525,-0.00003666,-0.00027372,-0.00001101
 ,-0.00017855,0.00009688,0.00004039,0.00009073,-0.00009202,0.00001991,0
 .00001354,0.00004975,-0.00006768,0.00019872,0.00152807,-0.00060019,-0.
 00002035,0.00002007,-0.00003058,0.00001688,0.00000970,-0.00000577,0.00
 000106,-0.00000838,-0.00000647,0.00000623,-0.00000329,-0.00000638,-0.0
 0000231,-0.00001001,0.00000066,-0.00000351,-0.00000404,-0.00000796,0.0
 0000123,-0.00000522,0.00000184,-0.00001014,-0.00000239,-0.00000492,-0.
 00000719,-0.00000540,-0.00000379,0.00007770,0.00006101,0.00002494,0.00
 000723,0.00000636,-0.00000680,-0.00000491,0.00000159,-0.00000348,0.005
 85824,0.00557065,-0.01211706,-0.00401142,-0.01441051,0.01096860,-0.003
 22387,0.00731309,-0.00022910,0.00003061,0.00016938,0.00048389,-0.00044
 258,0.00016738,0.00002708,0.00025461,0.00007547,-0.00009652,-0.0000169
 7,-0.00000521,-0.00001959,-0.00007359,-0.00002811,0.00008072,0.0000209
 2,0.00001027,0.00008101,0.00028305,-0.00030608,0.00033418,0.00040195,0
 .00022932,0.00011013,-0.00022678,0.00004796,-0.00004850,0.00011851,-0.
 00004019,-0.00023380,-0.00005449,-0.00012941,0.00017788,0.00007462,-0.
 00010873,0.00004569,0.00000960,-0.00000419,-0.00002342,-0.00000267,0.0
 0001945,-0.00046108,-0.00000270,-0.00038907,0.00024309,-0.00004787,-0.
 00013291,-0.00007822,-0.00009294,0.00010213,-0.00007122,0.00012137,-0.
 00001007,0.00009924,-0.00005235,-0.00002154,-0.00008836,0.00015342,0.0
 0011183,0.00048662,0.00016466,0.00014179,-0.00150253,-0.00006623,-0.00
 140333,0.01093954,-0.00253355,-0.01015300,0.00010865,0.00003634,-0.000
 05672,0.00000855,0.00000327,-0.00000185,0.00000187,0.00000491,-0.00001
 599,0.00000382,-0.00000703,-0.00001712,-0.00000334,-0.00000009,0.00000
 118,-0.00000244,-0.00000251,-0.00000261,0.00000430,0.00000024,0.000001
 63,-0.00000304,-0.00000189,0.00000045,-0.00000401,0.00000369,0.0000024
 4,-0.00027698,-0.00013631,-0.00010979,-0.00002124,0.00000776,-0.000019
 04,-0.00000386,0.00000131,0.00000298,-0.01641059,-0.02904853,0.0270554
 6,0.00432530,0.02823042,-0.00988852,0.00295928,0.00373322,-0.00635868,
 0.00007145,0.00004630,-0.00005063,0.00010354,-0.00003911,-0.00010383,0
 .00024499,0.00025253,0.00003033,-0.00023523,-0.00007414,0.00003002,-0.
 00006151,-0.00005833,0.00002093,0.00011109,0.00000683,-0.00001899,-0.0
 0075891,0.00029462,-0.00011153,0.00008212,-0.00002702,0.00007323,-0.00
 002071,0.00007303,-0.00002530,0.00013983,-0.00002951,-0.00001250,-0.00
 002056,-0.00003405,0.00004599,0.00009036,0.00000255,-0.00003525,-0.000
 04875,-0.00001028,0.00001962,0.00003251,0.00007077,-0.00002605,0.00000
 427,0.00005952,0.00010061,-0.00001351,-0.00005374,0.00009606,-0.000121
 52,0.00001804,0.00002956,-0.00001142,0.00008654,-0.00003630,-0.0000387
 9,-0.00007681,-0.00001056,-0.00009532,-0.00006257,-0.00000233,0.000008
 58,0.00020226,0.00000836,0.00029540,-0.00082633,0.00010298,0.00527274,
 0.00270496,0.00091771,-0.00008381,0.00002198,0.00003744,-0.00002287,0.
 00001031,0.00000688,0.00000146,-0.00001310,-0.00000176,0.00000009,-0.0
 0000611,0.00000936,-0.00001318,0.00000267,-0.00000384,0.00000163,0.000
 00444,0.00000866,-0.00000115,0.00000303,-0.00000293,-0.00000144,0.0000
 0324,-0.00000324,-0.00000081,0.00001098,-0.00000522,0.00022512,0.00004
 003,-0.00000758,-0.00007222,0.00002046,-0.00011429,-0.00000850,-0.0000
 0932,-0.00000556,0.00302791,-0.01258170,0.00054581,-0.06195563,0.12590
 278,0.02644065,0.00014559,0.00060880,-0.00094299,0.05372720,-0.0001209
 6,-0.00010473,-0.00002173,-0.00003167,-0.00000066,-0.00001832,0.000084
 41,0.00002190,0.00005796,0.00016543,0.00008444,-0.00002368,0.00004024,
 0.00008019,0.00000470,-0.00008451,-0.00003598,-0.00000203,0.00001053,0
 .00007728,-0.00005064,-0.00011061,0.00005229,0.00005727,-0.00002810,-0
 .00002761,0.00002304,-0.00010838,0.00002208,0.00001313,0.00006436,-0.0
 0003623,-0.00001646,0.00002061,-0.00004466,-0.00001067,-0.00001256,0.0
 0000548,-0.00000257,0.00000714,-0.00002209,0.00001019,-0.00003894,0.00
 002868,0.00011944,0.00004477,0.00009705,-0.00000135,-0.00003833,-0.000
 05699,0.00002711,-0.00001549,0.00003796,-0.00000672,0.00003689,0.00013
 776,0.00001976,0.00009655,-0.00010114,-0.00001196,-0.00007763,0.000063
 36,0.00001469,0.00032946,-0.00018515,0.00006876,0.00039067,0.00158894,
 -0.00012444,0.00002530,0.00001350,-0.00001438,-0.00002879,-0.00000590,
 -0.00000023,-0.00001214,0.00000758,-0.00000273,-0.00001262,0.00000676,
 0.00000138,-0.00000269,0.00001417,-0.00000065,0.00000028,0.00000860,-0
 .00000298,-0.00000080,0.00001265,-0.00000741,0.00001528,0.00000715,-0.
 00000215,0.00001044,0.00001080,-0.00000340,0.00006700,0.00000420,-0.00
 009127,-0.00002333,-0.00000244,-0.00002678,0.00002521,-0.00000028,-0.0
 0000190,0.00256263,-0.00008273,-0.00285166,0.11298118,-0.35234384,-0.0
 7748235,0.00031373,0.00071179,-0.00084539,-0.11654455,0.34995583,0.000
 13462,0.00017383,-0.00003880,-0.00014766,-0.00023485,0.00000089,0.0001
 6492,0.00007094,-0.00029516,-0.00026123,-0.00010399,-0.00003624,-0.000
 07648,-0.00010433,-0.00001055,0.00011846,0.00004490,0.00000974,0.00000
 268,0.00010747,0.00067845,0.00004433,-0.00010623,-0.00002995,-0.000003
 23,0.00010848,-0.00004925,0.00018003,-0.00007796,-0.00002275,0.0000872
 9,-0.00004804,0.00004925,0.00002476,0.00004969,-0.00004697,-0.00000470
 ,-0.00002911,0.00000158,0.00000421,0.00007366,-0.00001002,-0.00016975,
 -0.00001812,0.00010440,0.00000455,-0.00007605,0.00003915,-0.00005536,0
 .00005313,-0.00004030,0.00005119,0.00005904,-0.00002740,-0.00005634,-0
 .00019650,0.00002183,-0.00013744,0.00017708,-0.00004089,0.00020202,0.0
 0002223,-0.00001284,-0.00039522,0.00022675,-0.00005431,0.00139754,-0.0
 0252157,0.00320370,0.00006277,0.00000140,0.00008315,0.00000333,0.00000
 519,0.00001322,0.00000048,-0.00000089,0.00000748,0.00000493,0.00000310
 ,0.00000256,-0.00000225,-0.00000098,0.00001531,0.00000296,0.00000463,0
 .00000445,0.00000172,0.00000254,0.00000533,-0.00000244,0.00000825,0.00
 000402,0.00000011,0.00001381,0.00000533,0.00017721,-0.00007474,-0.0000
 2408,-0.00010362,0.00002907,-0.00002388,0.00000557,0.00000191,0.000006
 20,-0.00311819,0.01748454,-0.00016889,0.02952094,-0.09509698,-0.032518
 41,-0.00065918,-0.00123775,0.00106304,-0.02700353,0.08120644,0.0281315
 9\\0.00000003,0.00000025,-0.00000046,0.00000001,0.00000019,-0.00000105
 ,-0.00000021,0.00000013,-0.00000300,0.00000005,0.00000008,0.00000097,0
 .00000037,0.00000022,0.00000143,-0.00000004,0.00000003,-0.00000008,0.0
 0000046,0.00000024,0.00000147,-0.00000015,-0.00000025,0.00000122,-0.00
 000020,0.00000014,-0.00000064,0.00000013,-0.00000017,-0.00000087,0.000
 00014,-0.00000029,-0.00000122,0.00000008,0.00000032,0.00000131,-0.0000
 0021,-0.00000011,-0.00000164,0.00000045,-0.00000040,0.00000070,0.00000
 012,-0.00000035,-0.00000098,0.00000005,0.00000004,-0.00000007,-0.00000
 017,-0.00000011,-0.00000042,-0.00000008,-0.00000047,-0.00000030,0.0000
 0009,0.00000002,0.00000075,0.00000010,0.00000031,0.00000079,-0.0000002
 9,0.00000028,0.00000035,-0.00000012,0.00000016,-0.00000002,0.00000031,
 0.00000048,0.00000094,-0.00000005,0.00000014,0.00000055,-0.00000013,0.
 00000025,0.00000044,0.00000002,0.00000036,0.00000030,0.00000016,0.0000
 0021,-0.00000014,0.00000021,0.00000017,-0.00000029,0.00000024,-0.00000
 007,-0.00000027,0.00000013,-0.00000016,-0.00000042,0.00000016,-0.00000
 026,-0.00000021,0.,-0.00000025,-0.00000028,0.00000001,0.00000006,0.000
 00025,-0.00000012,-0.00000017,-0.00000018,-0.00000005,-0.00000023,-0.0
 0000018,-0.00000124,-0.00000052,-0.00000164,0.00000031,-0.00000006,0.0
 0000232,-0.00000047,-0.00000026,0.00000034,-0.00000007,0.00000005,0.00
 000022\\\@


 Make no judgements where you have no compassion.
                               -- Anne McCaffrey
 Job cpu time:       4 days  0 hours 51 minutes 18.5 seconds.
 File lengths (MBytes):  RWF=   8835 Int=      0 D2E=      0 Chk=     51 Scr=      1
 Normal termination of Gaussian 09 at Mon Feb  3 02:29:40 2020.
