 Entering Gaussian System, Link 0=g09
 Initial command:
 /usr/local/Cluster-Apps/gaussian/g09/l1.exe "/rds/user/am2145/hpc-work/scratch/19202013/Gau-236509.inp" -scrdir="/rds/user/am2145/hpc-work/scratch/19202013/"
 Entering Link 1 = /usr/local/Cluster-Apps/gaussian/g09/l1.exe PID=    236510.
  
 Copyright (c) 1988,1990,1992,1993,1995,1998,2003,2009,2013,
            Gaussian, Inc.  All Rights Reserved.
  
 This is part of the Gaussian(R) 09 program.  It is based on
 the Gaussian(R) 03 system (copyright 2003, Gaussian, Inc.),
 the Gaussian(R) 98 system (copyright 1998, Gaussian, Inc.),
 the Gaussian(R) 94 system (copyright 1995, Gaussian, Inc.),
 the Gaussian 92(TM) system (copyright 1992, Gaussian, Inc.),
 the Gaussian 90(TM) system (copyright 1990, Gaussian, Inc.),
 the Gaussian 88(TM) system (copyright 1988, Gaussian, Inc.),
 the Gaussian 86(TM) system (copyright 1986, Carnegie Mellon
 University), and the Gaussian 82(TM) system (copyright 1983,
 Carnegie Mellon University). Gaussian is a federally registered
 trademark of Gaussian, Inc.
  
 This software contains proprietary and confidential information,
 including trade secrets, belonging to Gaussian, Inc.
  
 This software is provided under written license and may be
 used, copied, transmitted, or stored only in accord with that
 written license.
  
 The following legend is applicable only to US Government
 contracts under FAR:
  
                    RESTRICTED RIGHTS LEGEND
  
 Use, reproduction and disclosure by the US Government is
 subject to restrictions as set forth in subparagraphs (a)
 and (c) of the Commercial Computer Software - Restricted
 Rights clause in FAR 52.227-19.
  
 Gaussian, Inc.
 340 Quinnipiac St., Bldg. 40, Wallingford CT 06492
  
  
 ---------------------------------------------------------------
 Warning -- This program may not be used in any manner that
 competes with the business of Gaussian, Inc. or will provide
 assistance to any competitor of Gaussian, Inc.  The licensee
 of this program is prohibited from giving any competitor of
 Gaussian, Inc. access to this program.  By using this program,
 the user acknowledges that Gaussian, Inc. is engaged in the
 business of creating and licensing software in the field of
 computational chemistry and represents and warrants to the
 licensee that it is not a competitor of Gaussian, Inc. and that
 it will not use this program in any manner prohibited above.
 ---------------------------------------------------------------
  

 Cite this work as:
 Gaussian 09, Revision D.01,
 M. J. Frisch, G. W. Trucks, H. B. Schlegel, G. E. Scuseria, 
 M. A. Robb, J. R. Cheeseman, G. Scalmani, V. Barone, B. Mennucci, 
 G. A. Petersson, H. Nakatsuji, M. Caricato, X. Li, H. P. Hratchian, 
 A. F. Izmaylov, J. Bloino, G. Zheng, J. L. Sonnenberg, M. Hada, 
 M. Ehara, K. Toyota, R. Fukuda, J. Hasegawa, M. Ishida, T. Nakajima, 
 Y. Honda, O. Kitao, H. Nakai, T. Vreven, J. A. Montgomery, Jr., 
 J. E. Peralta, F. Ogliaro, M. Bearpark, J. J. Heyd, E. Brothers, 
 K. N. Kudin, V. N. Staroverov, T. Keith, R. Kobayashi, J. Normand, 
 K. Raghavachari, A. Rendell, J. C. Burant, S. S. Iyengar, J. Tomasi, 
 M. Cossi, N. Rega, J. M. Millam, M. Klene, J. E. Knox, J. B. Cross, 
 V. Bakken, C. Adamo, J. Jaramillo, R. Gomperts, R. E. Stratmann, 
 O. Yazyev, A. J. Austin, R. Cammi, C. Pomelli, J. W. Ochterski, 
 R. L. Martin, K. Morokuma, V. G. Zakrzewski, G. A. Voth, 
 P. Salvador, J. J. Dannenberg, S. Dapprich, A. D. Daniels, 
 O. Farkas, J. B. Foresman, J. V. Ortiz, J. Cioslowski, 
 and D. J. Fox, Gaussian, Inc., Wallingford CT, 2013.
 
 ******************************************
 Gaussian 09:  ES64L-G09RevD.01 24-Apr-2013
                 3-Feb-2020 
 ******************************************
 %NProcShared=20
 Will use up to   20 processors via shared memory.
 %mem=64GB
 %Chk=BS7ring_closeTS.chk
 --------------------------------------------------
 #n opt=(ts,calcfc,noeigen) freq b3lyp/6-311+g(d,p)
 --------------------------------------------------
 1/5=1,10=4,11=1,14=-1,18=20,26=3,38=1/1,3;
 2/9=110,12=2,17=6,18=5,40=1/2;
 3/5=4,6=6,7=111,11=2,16=1,25=1,30=1,71=2,74=-5,140=1/1,2,3;
 4//1;
 5/5=2,38=5/2;
 8/6=4,10=90,11=11/1;
 11/6=1,8=1,9=11,15=111,16=1/1,2,10;
 10/6=1,13=1/2;
 6/7=2,8=2,9=2,10=2,28=1/1;
 7/10=1,18=20,25=1/1,2,3,16;
 1/5=1,10=4,11=1,14=-1,18=20,26=3/3(2);
 2/9=110/2;
 99//99;
 2/9=110/2;
 3/5=4,6=6,7=111,11=2,16=1,25=1,30=1,71=1,74=-5/1,2,3;
 4/5=5,16=3,69=1/1;
 5/5=2,38=5/2;
 7//1,2,3,16;
 1/5=1,11=1,14=-1,18=20,26=3/3(-5);
 2/9=110/2;
 6/7=2,8=2,9=2,10=2,19=2,28=1/1;
 99/9=1/99;
 ---------------
 BS7ring_closeTS
 ---------------
 Symbolic Z-matrix:
 Charge =  0 Multiplicity = 3
 C                    -3.62019   0.62582  -0.11003 
 C                    -2.39049   0.01438   0.1011 
 C                    -1.18601   0.73677   0.10038 
 C                    -1.16856   2.13972   0.1049 
 C                    -3.62059   2.06627  -0.06634 
 C                    -2.45523   2.78443   0.0593 
 C                    -0.05307  -0.11353   0.02689 
 C                     1.2241    0.48577   0.00512 
 C                     1.26725   1.93271   0.11072 
 C                     0.10709   2.72475   0.13824 
 C                     2.47737  -0.24128  -0.14334 
 C                     3.71335   0.46035  -0.04211 
 C                     3.70876   1.88517   0.13805 
 C                     2.54916   2.58177   0.18262 
 C                     2.52851  -1.6257   -0.41596 
 C                     3.73179  -2.29629  -0.53249 
 C                     4.94441  -1.60732  -0.38356 
 C                     4.92802  -0.24674  -0.15065 
 C                    -4.68183  -0.24466  -0.49342 
 C                    -4.39965  -1.58696  -0.78149 
 C                    -3.13653  -2.16291  -0.61316 
 C                    -2.11049  -1.399     0.04004 
 C                    -0.58971  -1.47722   0.08071 
 H                    -2.96346  -3.19681  -0.88856 
 H                    -5.1966   -2.20665  -1.17848 
 H                    -5.68046   0.14419  -0.65894 
 H                    -4.56348   2.59534  -0.16031 
 H                    -2.49836   3.86849   0.08479 
 H                     0.21728   3.80371   0.17821 
 H                     2.56386   3.66173   0.28486 
 H                     4.66208   2.3978    0.21175 
 H                     5.85886   0.30334  -0.0588 
 H                     1.60731  -2.16931  -0.57168 
 H                     3.73541  -3.35836  -0.75071 
 H                     5.88666  -2.13668  -0.46835 
 C                    -0.41526  -2.48456   1.09769 
 C                    -1.67204  -2.55512   1.57917 
 H                     0.4951   -2.95551   1.45286 
 H                    -2.20515  -3.13102   2.32908 
 

 GradGradGradGradGradGradGradGradGradGradGradGradGradGradGradGradGradGrad
 Berny optimization.
 Initialization pass.
                           ----------------------------
                           !    Initial Parameters    !
                           ! (Angstroms and Degrees)  !
 --------------------------                            --------------------------
 ! Name  Definition              Value          Derivative Info.                !
 --------------------------------------------------------------------------------
 ! R1    R(1,2)                  1.3895         calculate D2E/DX2 analytically  !
 ! R2    R(1,5)                  1.4411         calculate D2E/DX2 analytically  !
 ! R3    R(1,19)                 1.4254         calculate D2E/DX2 analytically  !
 ! R4    R(2,3)                  1.4045         calculate D2E/DX2 analytically  !
 ! R5    R(2,22)                 1.4421         calculate D2E/DX2 analytically  !
 ! R6    R(3,4)                  1.4031         calculate D2E/DX2 analytically  !
 ! R7    R(3,7)                  1.4184         calculate D2E/DX2 analytically  !
 ! R8    R(4,6)                  1.4399         calculate D2E/DX2 analytically  !
 ! R9    R(4,10)                 1.4038         calculate D2E/DX2 analytically  !
 ! R10   R(5,6)                  1.3746         calculate D2E/DX2 analytically  !
 ! R11   R(5,27)                 1.0853         calculate D2E/DX2 analytically  !
 ! R12   R(6,28)                 1.0852         calculate D2E/DX2 analytically  !
 ! R13   R(7,8)                  1.411          calculate D2E/DX2 analytically  !
 ! R14   R(7,23)                 1.4665         calculate D2E/DX2 analytically  !
 ! R15   R(8,9)                  1.4514         calculate D2E/DX2 analytically  !
 ! R16   R(8,11)                 1.4565         calculate D2E/DX2 analytically  !
 ! R17   R(9,10)                 1.405          calculate D2E/DX2 analytically  !
 ! R18   R(9,14)                 1.4387         calculate D2E/DX2 analytically  !
 ! R19   R(10,29)                1.0853         calculate D2E/DX2 analytically  !
 ! R20   R(11,12)                1.4248         calculate D2E/DX2 analytically  !
 ! R21   R(11,15)                1.4119         calculate D2E/DX2 analytically  !
 ! R22   R(12,13)                1.4362         calculate D2E/DX2 analytically  !
 ! R23   R(12,18)                1.4097         calculate D2E/DX2 analytically  !
 ! R24   R(13,14)                1.3535         calculate D2E/DX2 analytically  !
 ! R25   R(13,31)                1.0849         calculate D2E/DX2 analytically  !
 ! R26   R(14,30)                1.0849         calculate D2E/DX2 analytically  !
 ! R27   R(15,16)                1.3824         calculate D2E/DX2 analytically  !
 ! R28   R(15,33)                1.0809         calculate D2E/DX2 analytically  !
 ! R29   R(16,17)                1.4026         calculate D2E/DX2 analytically  !
 ! R30   R(16,34)                1.0843         calculate D2E/DX2 analytically  !
 ! R31   R(17,18)                1.3805         calculate D2E/DX2 analytically  !
 ! R32   R(17,35)                1.0841         calculate D2E/DX2 analytically  !
 ! R33   R(18,32)                1.0851         calculate D2E/DX2 analytically  !
 ! R34   R(19,20)                1.4016         calculate D2E/DX2 analytically  !
 ! R35   R(19,26)                1.0844         calculate D2E/DX2 analytically  !
 ! R36   R(20,21)                1.3984         calculate D2E/DX2 analytically  !
 ! R37   R(20,25)                1.0848         calculate D2E/DX2 analytically  !
 ! R38   R(21,22)                1.4363         calculate D2E/DX2 analytically  !
 ! R39   R(21,24)                1.0839         calculate D2E/DX2 analytically  !
 ! R40   R(22,23)                1.5233         calculate D2E/DX2 analytically  !
 ! R41   R(23,36)                1.442          calculate D2E/DX2 analytically  !
 ! R42   R(36,37)                1.3477         calculate D2E/DX2 analytically  !
 ! R43   R(36,38)                1.0848         calculate D2E/DX2 analytically  !
 ! R44   R(37,39)                1.0855         calculate D2E/DX2 analytically  !
 ! A1    A(2,1,5)              115.8167         calculate D2E/DX2 analytically  !
 ! A2    A(2,1,19)             115.5496         calculate D2E/DX2 analytically  !
 ! A3    A(5,1,19)             128.196          calculate D2E/DX2 analytically  !
 ! A4    A(1,2,3)              122.179          calculate D2E/DX2 analytically  !
 ! A5    A(1,2,22)             126.6324         calculate D2E/DX2 analytically  !
 ! A6    A(3,2,22)             109.728          calculate D2E/DX2 analytically  !
 ! A7    A(2,3,4)              121.6656         calculate D2E/DX2 analytically  !
 ! A8    A(2,3,7)              112.1278         calculate D2E/DX2 analytically  !
 ! A9    A(4,3,7)              126.1319         calculate D2E/DX2 analytically  !
 ! A10   A(3,4,6)              115.8808         calculate D2E/DX2 analytically  !
 ! A11   A(3,4,10)             115.3465         calculate D2E/DX2 analytically  !
 ! A12   A(6,4,10)             128.7684         calculate D2E/DX2 analytically  !
 ! A13   A(1,5,6)              121.6504         calculate D2E/DX2 analytically  !
 ! A14   A(1,5,27)             119.0058         calculate D2E/DX2 analytically  !
 ! A15   A(6,5,27)             119.3256         calculate D2E/DX2 analytically  !
 ! A16   A(4,6,5)              121.7712         calculate D2E/DX2 analytically  !
 ! A17   A(4,6,28)             118.8191         calculate D2E/DX2 analytically  !
 ! A18   A(5,6,28)             119.3627         calculate D2E/DX2 analytically  !
 ! A19   A(3,7,8)              117.9803         calculate D2E/DX2 analytically  !
 ! A20   A(3,7,23)             105.2637         calculate D2E/DX2 analytically  !
 ! A21   A(8,7,23)             136.6177         calculate D2E/DX2 analytically  !
 ! A22   A(7,8,9)              116.6937         calculate D2E/DX2 analytically  !
 ! A23   A(7,8,11)             124.6412         calculate D2E/DX2 analytically  !
 ! A24   A(9,8,11)             118.6511         calculate D2E/DX2 analytically  !
 ! A25   A(8,9,10)             122.6059         calculate D2E/DX2 analytically  !
 ! A26   A(8,9,14)             118.678          calculate D2E/DX2 analytically  !
 ! A27   A(10,9,14)            118.7152         calculate D2E/DX2 analytically  !
 ! A28   A(4,10,9)             120.9944         calculate D2E/DX2 analytically  !
 ! A29   A(4,10,29)            120.4938         calculate D2E/DX2 analytically  !
 ! A30   A(9,10,29)            118.5101         calculate D2E/DX2 analytically  !
 ! A31   A(8,11,12)            119.5623         calculate D2E/DX2 analytically  !
 ! A32   A(8,11,15)            122.7043         calculate D2E/DX2 analytically  !
 ! A33   A(12,11,15)           117.7186         calculate D2E/DX2 analytically  !
 ! A34   A(11,12,13)           119.6482         calculate D2E/DX2 analytically  !
 ! A35   A(11,12,18)           119.6686         calculate D2E/DX2 analytically  !
 ! A36   A(13,12,18)           120.6669         calculate D2E/DX2 analytically  !
 ! A37   A(12,13,14)           121.163          calculate D2E/DX2 analytically  !
 ! A38   A(12,13,31)           118.3259         calculate D2E/DX2 analytically  !
 ! A39   A(14,13,31)           120.4915         calculate D2E/DX2 analytically  !
 ! A40   A(9,14,13)            121.9759         calculate D2E/DX2 analytically  !
 ! A41   A(9,14,30)            117.7678         calculate D2E/DX2 analytically  !
 ! A42   A(13,14,30)           120.2537         calculate D2E/DX2 analytically  !
 ! A43   A(11,15,16)           121.5622         calculate D2E/DX2 analytically  !
 ! A44   A(11,15,33)           119.3449         calculate D2E/DX2 analytically  !
 ! A45   A(16,15,33)           119.0581         calculate D2E/DX2 analytically  !
 ! A46   A(15,16,17)           120.3499         calculate D2E/DX2 analytically  !
 ! A47   A(15,16,34)           119.6709         calculate D2E/DX2 analytically  !
 ! A48   A(17,16,34)           119.9759         calculate D2E/DX2 analytically  !
 ! A49   A(16,17,18)           119.4576         calculate D2E/DX2 analytically  !
 ! A50   A(16,17,35)           120.2167         calculate D2E/DX2 analytically  !
 ! A51   A(18,17,35)           120.3168         calculate D2E/DX2 analytically  !
 ! A52   A(12,18,17)           121.1709         calculate D2E/DX2 analytically  !
 ! A53   A(12,18,32)           118.5786         calculate D2E/DX2 analytically  !
 ! A54   A(17,18,32)           120.2466         calculate D2E/DX2 analytically  !
 ! A55   A(1,19,20)            119.3534         calculate D2E/DX2 analytically  !
 ! A56   A(1,19,26)            120.5287         calculate D2E/DX2 analytically  !
 ! A57   A(20,19,26)           119.8329         calculate D2E/DX2 analytically  !
 ! A58   A(19,20,21)           123.4743         calculate D2E/DX2 analytically  !
 ! A59   A(19,20,25)           118.321          calculate D2E/DX2 analytically  !
 ! A60   A(21,20,25)           118.188          calculate D2E/DX2 analytically  !
 ! A61   A(20,21,22)           118.747          calculate D2E/DX2 analytically  !
 ! A62   A(20,21,24)           120.4327         calculate D2E/DX2 analytically  !
 ! A63   A(22,21,24)           120.5858         calculate D2E/DX2 analytically  !
 ! A64   A(2,22,21)            113.6912         calculate D2E/DX2 analytically  !
 ! A65   A(2,22,23)            104.0651         calculate D2E/DX2 analytically  !
 ! A66   A(21,22,23)           134.2662         calculate D2E/DX2 analytically  !
 ! A67   A(7,23,22)            108.4573         calculate D2E/DX2 analytically  !
 ! A68   A(7,23,36)            129.1399         calculate D2E/DX2 analytically  !
 ! A69   A(22,23,36)           100.1061         calculate D2E/DX2 analytically  !
 ! A70   A(23,36,37)           100.1203         calculate D2E/DX2 analytically  !
 ! A71   A(23,36,38)           129.4736         calculate D2E/DX2 analytically  !
 ! A72   A(37,36,38)           130.009          calculate D2E/DX2 analytically  !
 ! A73   A(36,37,39)           137.1047         calculate D2E/DX2 analytically  !
 ! D1    D(5,1,2,3)            -11.8123         calculate D2E/DX2 analytically  !
 ! D2    D(5,1,2,22)          -176.5723         calculate D2E/DX2 analytically  !
 ! D3    D(19,1,2,3)           161.2265         calculate D2E/DX2 analytically  !
 ! D4    D(19,1,2,22)           -3.5335         calculate D2E/DX2 analytically  !
 ! D5    D(2,1,5,6)              5.4865         calculate D2E/DX2 analytically  !
 ! D6    D(2,1,5,27)          -176.0771         calculate D2E/DX2 analytically  !
 ! D7    D(19,1,5,6)          -166.5158         calculate D2E/DX2 analytically  !
 ! D8    D(19,1,5,27)           11.9206         calculate D2E/DX2 analytically  !
 ! D9    D(2,1,19,20)           -7.4066         calculate D2E/DX2 analytically  !
 ! D10   D(2,1,19,26)          178.7351         calculate D2E/DX2 analytically  !
 ! D11   D(5,1,19,20)          164.6137         calculate D2E/DX2 analytically  !
 ! D12   D(5,1,19,26)           -9.2446         calculate D2E/DX2 analytically  !
 ! D13   D(1,2,3,4)             10.5961         calculate D2E/DX2 analytically  !
 ! D14   D(1,2,3,7)           -166.4446         calculate D2E/DX2 analytically  !
 ! D15   D(22,2,3,4)           177.6464         calculate D2E/DX2 analytically  !
 ! D16   D(22,2,3,7)             0.6057         calculate D2E/DX2 analytically  !
 ! D17   D(1,2,22,21)           15.8166         calculate D2E/DX2 analytically  !
 ! D18   D(1,2,22,23)          169.4176         calculate D2E/DX2 analytically  !
 ! D19   D(3,2,22,21)         -150.5118         calculate D2E/DX2 analytically  !
 ! D20   D(3,2,22,23)            3.0892         calculate D2E/DX2 analytically  !
 ! D21   D(2,3,4,6)             -2.2552         calculate D2E/DX2 analytically  !
 ! D22   D(2,3,4,10)           178.4332         calculate D2E/DX2 analytically  !
 ! D23   D(7,3,4,6)            174.3502         calculate D2E/DX2 analytically  !
 ! D24   D(7,3,4,10)            -4.9614         calculate D2E/DX2 analytically  !
 ! D25   D(2,3,7,8)            179.3998         calculate D2E/DX2 analytically  !
 ! D26   D(2,3,7,23)            -4.1722         calculate D2E/DX2 analytically  !
 ! D27   D(4,3,7,8)              2.5185         calculate D2E/DX2 analytically  !
 ! D28   D(4,3,7,23)           178.9465         calculate D2E/DX2 analytically  !
 ! D29   D(3,4,6,5)             -3.9589         calculate D2E/DX2 analytically  !
 ! D30   D(3,4,6,28)           178.5496         calculate D2E/DX2 analytically  !
 ! D31   D(10,4,6,5)           175.2431         calculate D2E/DX2 analytically  !
 ! D32   D(10,4,6,28)           -2.2483         calculate D2E/DX2 analytically  !
 ! D33   D(3,4,10,9)             2.5682         calculate D2E/DX2 analytically  !
 ! D34   D(3,4,10,29)         -177.9114         calculate D2E/DX2 analytically  !
 ! D35   D(6,4,10,9)          -176.6374         calculate D2E/DX2 analytically  !
 ! D36   D(6,4,10,29)            2.883          calculate D2E/DX2 analytically  !
 ! D37   D(1,5,6,4)              2.3063         calculate D2E/DX2 analytically  !
 ! D38   D(1,5,6,28)           179.7844         calculate D2E/DX2 analytically  !
 ! D39   D(27,5,6,4)          -176.1252         calculate D2E/DX2 analytically  !
 ! D40   D(27,5,6,28)            1.3529         calculate D2E/DX2 analytically  !
 ! D41   D(3,7,8,9)              2.2244         calculate D2E/DX2 analytically  !
 ! D42   D(3,7,8,11)          -176.3908         calculate D2E/DX2 analytically  !
 ! D43   D(23,7,8,9)          -172.7554         calculate D2E/DX2 analytically  !
 ! D44   D(23,7,8,11)            8.6293         calculate D2E/DX2 analytically  !
 ! D45   D(3,7,23,22)            5.9725         calculate D2E/DX2 analytically  !
 ! D46   D(3,7,23,36)         -114.7006         calculate D2E/DX2 analytically  !
 ! D47   D(8,7,23,22)         -178.622          calculate D2E/DX2 analytically  !
 ! D48   D(8,7,23,36)           60.705          calculate D2E/DX2 analytically  !
 ! D49   D(7,8,9,10)            -4.4332         calculate D2E/DX2 analytically  !
 ! D50   D(7,8,9,14)           175.9184         calculate D2E/DX2 analytically  !
 ! D51   D(11,8,9,10)          174.2686         calculate D2E/DX2 analytically  !
 ! D52   D(11,8,9,14)           -5.3797         calculate D2E/DX2 analytically  !
 ! D53   D(7,8,11,12)         -174.9165         calculate D2E/DX2 analytically  !
 ! D54   D(7,8,11,15)            6.5122         calculate D2E/DX2 analytically  !
 ! D55   D(9,8,11,12)            6.4933         calculate D2E/DX2 analytically  !
 ! D56   D(9,8,11,15)         -172.0781         calculate D2E/DX2 analytically  !
 ! D57   D(8,9,10,4)             1.9727         calculate D2E/DX2 analytically  !
 ! D58   D(8,9,10,29)         -177.5571         calculate D2E/DX2 analytically  !
 ! D59   D(14,9,10,4)         -178.3791         calculate D2E/DX2 analytically  !
 ! D60   D(14,9,10,29)           2.0912         calculate D2E/DX2 analytically  !
 ! D61   D(8,9,14,13)            0.8293         calculate D2E/DX2 analytically  !
 ! D62   D(8,9,14,30)         -178.5855         calculate D2E/DX2 analytically  !
 ! D63   D(10,9,14,13)        -178.8329         calculate D2E/DX2 analytically  !
 ! D64   D(10,9,14,30)           1.7522         calculate D2E/DX2 analytically  !
 ! D65   D(8,11,12,13)          -3.1049         calculate D2E/DX2 analytically  !
 ! D66   D(8,11,12,18)         178.3516         calculate D2E/DX2 analytically  !
 ! D67   D(15,11,12,13)        175.5371         calculate D2E/DX2 analytically  !
 ! D68   D(15,11,12,18)         -3.0064         calculate D2E/DX2 analytically  !
 ! D69   D(8,11,15,16)        -179.0166         calculate D2E/DX2 analytically  !
 ! D70   D(8,11,15,33)           3.1478         calculate D2E/DX2 analytically  !
 ! D71   D(12,11,15,16)          2.3872         calculate D2E/DX2 analytically  !
 ! D72   D(12,11,15,33)       -175.4484         calculate D2E/DX2 analytically  !
 ! D73   D(11,12,13,14)         -1.5616         calculate D2E/DX2 analytically  !
 ! D74   D(11,12,13,31)       -179.9542         calculate D2E/DX2 analytically  !
 ! D75   D(18,12,13,14)        176.967          calculate D2E/DX2 analytically  !
 ! D76   D(18,12,13,31)         -1.4256         calculate D2E/DX2 analytically  !
 ! D77   D(11,12,18,17)          1.4496         calculate D2E/DX2 analytically  !
 ! D78   D(11,12,18,32)       -179.2635         calculate D2E/DX2 analytically  !
 ! D79   D(13,12,18,17)       -177.0787         calculate D2E/DX2 analytically  !
 ! D80   D(13,12,18,32)          2.2082         calculate D2E/DX2 analytically  !
 ! D81   D(12,13,14,9)           2.7212         calculate D2E/DX2 analytically  !
 ! D82   D(12,13,14,30)       -177.8782         calculate D2E/DX2 analytically  !
 ! D83   D(31,13,14,9)        -178.9208         calculate D2E/DX2 analytically  !
 ! D84   D(31,13,14,30)          0.4798         calculate D2E/DX2 analytically  !
 ! D85   D(11,15,16,17)         -0.1416         calculate D2E/DX2 analytically  !
 ! D86   D(11,15,16,34)       -179.4864         calculate D2E/DX2 analytically  !
 ! D87   D(33,15,16,17)        177.7001         calculate D2E/DX2 analytically  !
 ! D88   D(33,15,16,34)         -1.6448         calculate D2E/DX2 analytically  !
 ! D89   D(15,16,17,18)         -1.5179         calculate D2E/DX2 analytically  !
 ! D90   D(15,16,17,35)        179.5625         calculate D2E/DX2 analytically  !
 ! D91   D(34,16,17,18)        177.825          calculate D2E/DX2 analytically  !
 ! D92   D(34,16,17,35)         -1.0947         calculate D2E/DX2 analytically  !
 ! D93   D(16,17,18,12)          0.8477         calculate D2E/DX2 analytically  !
 ! D94   D(16,17,18,32)       -178.4274         calculate D2E/DX2 analytically  !
 ! D95   D(35,17,18,12)        179.7663         calculate D2E/DX2 analytically  !
 ! D96   D(35,17,18,32)          0.4912         calculate D2E/DX2 analytically  !
 ! D97   D(1,19,20,21)           5.2649         calculate D2E/DX2 analytically  !
 ! D98   D(1,19,20,25)        -173.2171         calculate D2E/DX2 analytically  !
 ! D99   D(26,19,20,21)        179.1666         calculate D2E/DX2 analytically  !
 ! D100  D(26,19,20,25)          0.6845         calculate D2E/DX2 analytically  !
 ! D101  D(19,20,21,22)          7.9577         calculate D2E/DX2 analytically  !
 ! D102  D(19,20,21,24)       -177.5734         calculate D2E/DX2 analytically  !
 ! D103  D(25,20,21,22)       -173.5584         calculate D2E/DX2 analytically  !
 ! D104  D(25,20,21,24)          0.9105         calculate D2E/DX2 analytically  !
 ! D105  D(20,21,22,2)         -17.1483         calculate D2E/DX2 analytically  !
 ! D106  D(20,21,22,23)       -160.1154         calculate D2E/DX2 analytically  !
 ! D107  D(24,21,22,2)         168.3916         calculate D2E/DX2 analytically  !
 ! D108  D(24,21,22,23)         25.4245         calculate D2E/DX2 analytically  !
 ! D109  D(2,22,23,7)           -5.6157         calculate D2E/DX2 analytically  !
 ! D110  D(2,22,23,36)         131.7274         calculate D2E/DX2 analytically  !
 ! D111  D(21,22,23,7)         139.7343         calculate D2E/DX2 analytically  !
 ! D112  D(21,22,23,36)        -82.9226         calculate D2E/DX2 analytically  !
 ! D113  D(7,23,36,37)         112.4953         calculate D2E/DX2 analytically  !
 ! D114  D(7,23,36,38)         -60.7385         calculate D2E/DX2 analytically  !
 ! D115  D(22,23,36,37)        -11.5386         calculate D2E/DX2 analytically  !
 ! D116  D(22,23,36,38)        175.2276         calculate D2E/DX2 analytically  !
 ! D117  D(23,36,37,39)        178.1297         calculate D2E/DX2 analytically  !
 ! D118  D(38,36,37,39)         -8.6895         calculate D2E/DX2 analytically  !
 --------------------------------------------------------------------------------
 Trust Radius=3.00D-01 FncErr=1.00D-07 GrdErr=1.00D-06
 Number of steps in this run=    234 maximum allowed number of steps=    234.
 Search for a saddle point of order  1.
 GradGradGradGradGradGradGradGradGradGradGradGradGradGradGradGradGradGrad

                          Input orientation:                          
 ---------------------------------------------------------------------
 Center     Atomic      Atomic             Coordinates (Angstroms)
 Number     Number       Type             X           Y           Z
 ---------------------------------------------------------------------
      1          6           0       -3.620190    0.625820   -0.110030
      2          6           0       -2.390490    0.014380    0.101100
      3          6           0       -1.186010    0.736770    0.100380
      4          6           0       -1.168560    2.139720    0.104900
      5          6           0       -3.620590    2.066270   -0.066340
      6          6           0       -2.455230    2.784430    0.059300
      7          6           0       -0.053070   -0.113530    0.026890
      8          6           0        1.224100    0.485770    0.005120
      9          6           0        1.267250    1.932710    0.110720
     10          6           0        0.107090    2.724750    0.138240
     11          6           0        2.477370   -0.241280   -0.143340
     12          6           0        3.713350    0.460350   -0.042110
     13          6           0        3.708760    1.885170    0.138050
     14          6           0        2.549160    2.581770    0.182620
     15          6           0        2.528510   -1.625700   -0.415960
     16          6           0        3.731790   -2.296290   -0.532490
     17          6           0        4.944410   -1.607320   -0.383560
     18          6           0        4.928020   -0.246740   -0.150650
     19          6           0       -4.681830   -0.244660   -0.493420
     20          6           0       -4.399650   -1.586960   -0.781490
     21          6           0       -3.136530   -2.162910   -0.613160
     22          6           0       -2.110490   -1.399000    0.040040
     23          6           0       -0.589710   -1.477220    0.080710
     24          1           0       -2.963460   -3.196810   -0.888560
     25          1           0       -5.196600   -2.206650   -1.178480
     26          1           0       -5.680460    0.144190   -0.658940
     27          1           0       -4.563480    2.595340   -0.160310
     28          1           0       -2.498360    3.868490    0.084790
     29          1           0        0.217280    3.803710    0.178210
     30          1           0        2.563860    3.661730    0.284860
     31          1           0        4.662080    2.397800    0.211750
     32          1           0        5.858860    0.303340   -0.058800
     33          1           0        1.607310   -2.169310   -0.571680
     34          1           0        3.735410   -3.358360   -0.750710
     35          1           0        5.886660   -2.136680   -0.468350
     36          6           0       -0.415260   -2.484560    1.097690
     37          6           0       -1.672040   -2.555120    1.579170
     38          1           0        0.495100   -2.955510    1.452860
     39          1           0       -2.205150   -3.131020    2.329080
 ---------------------------------------------------------------------
                    Distance matrix (angstroms):
                    1          2          3          4          5
     1  C    0.000000
     2  C    1.389459   0.000000
     3  C    2.445775   1.404500   0.000000
     4  C    2.889391   2.451570   1.403066   0.000000
     5  C    1.441112   2.398215   2.778947   2.459099   0.000000
     6  C    2.458740   2.771122   2.409464   1.439878   1.374628
     7  C    3.645508   2.342093   1.418437   2.515460   4.181796
     8  C    4.847682   3.646462   2.425017   2.910383   5.096480
     9  C    5.063967   4.130272   2.729261   2.444598   4.892869
    10  C    4.284829   3.685837   2.371836   1.403800   3.790916
    11  C    6.158994   4.880694   3.799518   4.361604   6.520417
    12  C    7.335721   6.121786   4.909220   5.164779   7.507745
    13  C    7.440498   6.379817   5.027824   4.884071   7.334435
    14  C    6.478600   5.567610   4.166807   3.744715   6.196252
    15  C    6.555108   5.210928   4.432328   5.302642   7.180829
    16  C    7.922677   6.574416   5.812464   6.640624   8.561934
    17  C    8.855174   7.527653   6.581110   7.186606   9.324973
    18  C    8.592724   7.327493   6.197715   6.552006   8.856402
    19  C    1.425413   2.381343   3.679207   4.287927   2.578570
    20  C    2.440248   2.716612   4.062622   5.011364   3.803218
    21  C    2.874732   2.409841   3.566765   4.785514   4.291770
    22  C    2.530141   1.442141   2.328050   3.662510   3.781510
    23  C    3.693639   2.338396   2.292970   3.663046   4.665209
    24  H    3.955996   3.408733   4.428361   5.717270   5.367297
    25  H    3.413142   3.800599   5.136539   6.063258   4.688124
    26  H    2.185860   3.379114   4.596499   4.992277   2.878998
    27  H    2.184338   3.384018   3.863877   3.435609   1.085259
    28  H    3.436767   3.855654   3.395611   2.181151   2.128435
    29  H    4.990816   4.600590   3.373633   2.166746   4.219923
    30  H    6.900374   6.154877   4.759301   4.034831   6.396582
    31  H    8.475816   7.445245   6.080426   5.837327   8.293966
    32  H    9.484672   8.255958   7.059985   7.265241   9.641989
    33  H    5.945808   4.604730   4.086515   5.170199   6.747329
    34  H    8.389816   7.044686   6.458701   7.416864   9.165463
    35  H    9.906563   8.571029   7.655249   8.269966  10.402606
    36  C    4.626514   3.337578   3.459140   4.789265   5.686753
    37  C    4.094761   3.050113   3.641371   4.946563   5.278427
    38  H    5.674871   4.355931   4.276478   5.526855   6.668219
    39  H    4.697387   3.858988   4.578815   5.813966   5.895196
                    6          7          8          9         10
     6  C    0.000000
     7  C    3.764252   0.000000
     8  C    4.338691   1.410956   0.000000
     9  C    3.819022   2.436672   1.451430   0.000000
    10  C    2.564230   2.844975   2.505686   1.405011   0.000000
    11  C    5.790210   2.539375   1.456478   2.501034   3.807210
    12  C    6.592648   3.810514   2.489828   2.859127   4.262059
    13  C    6.229739   4.261282   2.854737   2.442126   3.698232
    14  C    5.010010   3.749733   2.486062   1.438660   2.446655
    15  C    6.671790   3.024455   2.517360   3.811883   5.009673
    16  C    8.027649   4.404828   3.783833   4.936812   6.228898
    17  C    8.616163   5.232082   4.286351   5.128122   6.514505
    18  C    7.984012   4.986033   3.778870   4.268437   5.670501
    19  C    3.799820   4.659757   5.971774   6.363763   5.670110
    20  C    4.857648   4.660175   6.044959   6.730369   6.304558
    21  C    5.039102   3.757306   5.139345   6.057341   5.913957
    22  C    4.197654   2.426022   3.830544   4.744936   4.683227
    23  C    4.652127   1.466468   2.673752   3.882889   4.259741
    24  H    6.077168   4.337630   5.647629   6.723797   6.748886
    25  H    5.827357   5.682426   7.062253   7.783167   7.360814
    26  H    4.229521   5.674883   6.944826   7.215390   6.386746
    27  H    2.128075   5.264677   6.162283   5.874517   4.681891
    28  H    1.085217   4.673251   5.030492   4.234116   2.845939
    29  H    2.862758   3.929473   3.471653   2.146540   1.085308
    30  H    5.100176   4.600811   3.458314   2.168186   2.633467
    31  H    7.129434   5.345427   3.939322   3.428030   4.567301
    32  H    8.677203   5.927229   4.638789   4.875086   6.243790
    33  H    6.437539   2.709498   2.743902   4.172275   5.167830
    34  H    8.758653   5.048382   4.653525   5.901635   7.138569
    35  H    9.699632   6.294346   5.370371   6.183381   7.576601
    36  C    5.744736   2.626705   3.564277   4.828791   5.322622
    37  C    5.606620   3.315418   4.484671   5.562049   5.754877
    38  H    6.602527   3.226566   3.803919   5.127597   5.843298
    39  H    6.340898   4.363115   5.499247   6.528403   6.666054
                   11         12         13         14         15
    11  C    0.000000
    12  C    1.424843   0.000000
    13  C    2.473316   1.436172   0.000000
    14  C    2.842713   2.430281   1.353481   0.000000
    15  C    1.411933   2.428006   3.745147   4.249886   0.000000
    16  C    2.438867   2.799978   4.234945   5.070056   1.382445
    17  C    2.830204   2.430505   3.741176   4.858627   2.416187
    18  C    2.450667   1.409674   2.472849   3.710864   2.780210
    19  C    7.167755   8.436810   8.679685   7.793135   7.341817
    20  C    7.036440   8.399936   8.868346   8.160501   6.937904
    21  C    5.952249   7.357204   7.988070   7.447975   5.693870
    22  C    4.735230   6.114004   6.682743   6.130187   4.666867
    23  C    3.314321   4.720761   5.457637   5.132084   3.161016
    24  H    6.236437   7.659706   8.449791   8.057816   5.731795
    25  H    7.988993   9.369708   9.888462   9.207516   7.784360
    26  H    8.183191   9.419347   9.582466   8.624191   8.401115
    27  H    7.590802   8.548571   8.308027   7.120915   8.257049
    28  H    6.457565   7.086386   6.516497   5.209863   7.463665
    29  H    4.644712   4.842427   3.984073   2.632645   5.930709
    30  H    3.927381   3.417173   2.118611   1.084888   5.333790
    31  H    3.444385   2.172152   1.084915   2.121114   4.597248
    32  H    3.426110   2.151312   2.676540   4.025375   3.865228
    33  H    2.158189   3.410419   4.621538   4.901919   1.080912
    34  H    3.415809   3.883960   5.318384   6.128902   2.137937
    35  H    3.914260   3.413140   4.613702   5.816050   3.397207
    36  C    3.865200   5.197794   6.084652   5.940778   3.419731
    37  C    5.053563   6.381538   7.123623   6.793859   4.742255
    38  H    3.720792   4.925461   5.957224   6.041038   3.065231
    39  H    6.032367   7.317727   8.058356   7.736066   5.675277
                   16         17         18         19         20
    16  C    0.000000
    17  C    1.402607   0.000000
    18  C    2.403627   1.380469   0.000000
    19  C    8.660238   9.722829   9.615961   0.000000
    20  C    8.166117   9.352552   9.444553   1.401563   0.000000
    21  C    6.870089   8.103270   8.301963   2.466166   1.398401
    22  C    5.938447   7.070675   7.134752   2.868601   2.439363
    23  C    4.440974   5.555084   5.657999   4.312108   3.907822
    24  H    6.764916   8.081826   8.457120   3.438622   2.160028
    25  H    8.952178  10.189758  10.363668   2.140958   1.084779
    26  H    9.724319  10.771791  10.627842   1.084372   2.156936
    27  H    9.637327  10.397700   9.907880   2.861917   4.231352
    28  H    8.786371   9.251955   8.493625   4.692534   5.841856
    29  H    7.075795   7.206982   6.221364   6.390748   7.162150
    30  H    6.126183   5.820369   4.588579   8.268351   8.785005
    31  H    4.842914   4.058952   2.682471   9.735939   9.948859
    32  H    3.392180   2.142967   1.085121  10.563870  10.456220
    33  H    2.128632   3.389315   3.860137   6.577514   6.038768
    34  H    1.084263   2.159310   3.385937   8.978377   8.325744
    35  H    2.161725   1.084088   2.142848  10.736543  10.305747
    36  C    4.459928   5.629362   5.925946   5.074683   4.495817
    37  C    5.807536   6.966207   7.202894   4.323504   3.734957
    38  H    3.853874   4.998641   5.436861   6.159328   5.551921
    39  H    6.643238   7.797197   8.083950   4.736193   4.107992
                   21         22         23         24         25
    21  C    0.000000
    22  C    1.436310   0.000000
    23  C    2.727255   1.523333   0.000000
    24  H    1.083858   2.195900   3.087258   0.000000
    25  H    2.136677   3.414845   4.831259   2.459956   0.000000
    26  H    3.434587   3.951543   5.393680   4.312435   2.455706
    27  H    4.988206   4.691700   5.695146   6.053050   4.949406
    28  H    6.105095   5.281941   5.676229   7.147181   6.766364
    29  H    6.890200   5.701385   5.343123   7.762885   8.202142
    30  H    8.199227   6.893509   6.032867   8.886380   9.838902
    31  H    9.071872   7.766137   6.527959   9.521513  10.969379
    32  H    9.343808   8.149741   6.691331   9.527480  11.391968
    33  H    4.744026   3.845727   2.394055   4.695541   6.831017
    34  H    6.976502   6.216022   4.789218   6.702235   9.016109
    35  H    9.024390   8.047176   6.532972   8.923288  11.106207
    36  C    3.230445   2.273954   1.442018   3.308446   5.302772
    37  C    2.665496   1.974278   2.139787   2.858185   4.488718
    38  H    4.252692   3.347818   2.290186   4.183552   6.315076
    39  H    3.234421   2.872030   3.224883   3.306444   4.701724
                   26         27         28         29         30
    26  H    0.000000
    27  H    2.739418   0.000000
    28  H    4.954726   2.438382   0.000000
    29  H    6.991155   4.942714   2.718018   0.000000
    30  H    9.012916   7.220411   5.070389   2.353289   0.000000
    31  H   10.620969   9.235172   7.311016   4.661969   2.450590
    32  H   11.556012  10.671867   9.087026   6.643507   4.717405
    33  H    7.646665   7.807033   7.330928   6.178308   5.970735
    34  H   10.046636  10.230674   9.580465   8.033391   7.192121
    35  H   11.791393  11.475728  10.328436   8.236998   6.725317
    36  C    6.141531   6.677999   6.762138   6.386540   6.878425
    37  C    5.325678   6.157390   6.646709   6.779892   7.633303
    38  H    7.225329   7.681373   7.576239   6.883965   7.030779
    39  H    5.633209   6.674577   7.356354   7.654077   8.547733
                   31         32         33         34         35
    31  H    0.000000
    32  H    2.427394   0.000000
    33  H    5.550124   4.944969   0.000000
    34  H    5.909181   4.289036   2.444320   0.000000
    35  H    4.745908   2.474308   4.280722   2.490001   0.000000
    36  C    7.099416   6.962359   2.641395   4.626896   6.502899
    37  C    8.156122   8.219987   3.940703   5.942563   7.842281
    38  H    6.896521   6.455629   2.440058   3.939241   5.781907
    39  H    9.066961   9.084330   4.886118   6.695300   8.619264
                   36         37         38         39
    36  C    0.000000
    37  C    1.347701   0.000000
    38  H    1.084756   2.207433   0.000000
    39  H    2.266702   1.085464   2.844278   0.000000
 Stoichiometry    C25H14(3)
 Framework group  C1[X(C25H14)]
 Deg. of freedom   111
 Full point group                 C1      NOp   1
 Largest Abelian subgroup         C1      NOp   1
 Largest concise Abelian subgroup C1      NOp   1
                         Standard orientation:                         
 ---------------------------------------------------------------------
 Center     Atomic      Atomic             Coordinates (Angstroms)
 Number     Number       Type             X           Y           Z
 ---------------------------------------------------------------------
      1          6           0       -3.620190    0.625821   -0.110030
      2          6           0       -2.390490    0.014381    0.101100
      3          6           0       -1.186010    0.736771    0.100380
      4          6           0       -1.168559    2.139721    0.104900
      5          6           0       -3.620589    2.066271   -0.066340
      6          6           0       -2.455229    2.784431    0.059300
      7          6           0       -0.053070   -0.113530    0.026890
      8          6           0        1.224100    0.485770    0.005120
      9          6           0        1.267251    1.932710    0.110720
     10          6           0        0.107091    2.724750    0.138240
     11          6           0        2.477370   -0.241281   -0.143340
     12          6           0        3.713350    0.460349   -0.042110
     13          6           0        3.708761    1.885169    0.138050
     14          6           0        2.549161    2.581769    0.182620
     15          6           0        2.528509   -1.625701   -0.415960
     16          6           0        3.731789   -2.296291   -0.532490
     17          6           0        4.944409   -1.607322   -0.383560
     18          6           0        4.928020   -0.246742   -0.150650
     19          6           0       -4.681830   -0.244658   -0.493420
     20          6           0       -4.399651   -1.586958   -0.781490
     21          6           0       -3.136531   -2.162909   -0.613160
     22          6           0       -2.110491   -1.398999    0.040040
     23          6           0       -0.589711   -1.477220    0.080710
     24          1           0       -2.963461   -3.196809   -0.888560
     25          1           0       -5.196601   -2.206648   -1.178480
     26          1           0       -5.680460    0.144192   -0.658940
     27          1           0       -4.563479    2.595342   -0.160310
     28          1           0       -2.498359    3.868491    0.084790
     29          1           0        0.217281    3.803710    0.178210
     30          1           0        2.563861    3.661729    0.284860
     31          1           0        4.662081    2.397798    0.211750
     32          1           0        5.858860    0.303338   -0.058800
     33          1           0        1.607309   -2.169310   -0.571680
     34          1           0        3.735409   -3.358361   -0.750710
     35          1           0        5.886659   -2.136682   -0.468350
     36          6           0       -0.415261   -2.484560    1.097690
     37          6           0       -1.672041   -2.555119    1.579170
     38          1           0        0.495099   -2.955510    1.452860
     39          1           0       -2.205151   -3.131019    2.329080
 ---------------------------------------------------------------------
 Rotational constants (GHZ):      0.4680531      0.1779798      0.1344490
 Standard basis: 6-311+G(d,p) (5D, 7F)
 There are   659 symmetry adapted cartesian basis functions of A   symmetry.
 There are   634 symmetry adapted basis functions of A   symmetry.
   634 basis functions,  1012 primitive gaussians,   659 cartesian basis functions
    83 alpha electrons       81 beta electrons
       nuclear repulsion energy      1928.7839873772 Hartrees.
 NAtoms=   39 NActive=   39 NUniq=   39 SFac= 1.00D+00 NAtFMM=   60 NAOKFM=F Big=F
 Integral buffers will be    131072 words long.
 Raffenetti 2 integral format.
 Two-electron integral symmetry is turned on.
 One-electron integrals computed using PRISM.
 NBasis=   634 RedAO= T EigKep=  1.21D-06  NBF=   634
 NBsUse=   620 1.00D-06 EigRej=  9.33D-07 NBFU=   620
 ExpMin= 4.38D-02 ExpMax= 4.56D+03 ExpMxC= 6.82D+02 IAcc=2 IRadAn=         4 AccDes= 0.00D+00
 Harris functional with IExCor=  402 and IRadAn=       4 diagonalized for initial guess.
 HarFok:  IExCor=  402 AccDes= 0.00D+00 IRadAn=         4 IDoV= 1 UseB2=F ITyADJ=14
 ICtDFT=  3500011 ScaDFX=  1.000000  1.000000  1.000000  1.000000
 FoFCou: FMM=F IPFlag=           0 FMFlag=      100000 FMFlg1=           0
         NFxFlg=           0 DoJE=T BraDBF=F KetDBF=T FulRan=T
         wScrn=  0.000000 ICntrl=     500 IOpCl=  0 I1Cent=   200000004 NGrid=           0
         NMat0=    1 NMatS0=      1 NMatT0=    0 NMatD0=    1 NMtDS0=    0 NMtDT0=    0
 Petite list used in FoFCou.
 Initial guess <Sx>= 0.0000 <Sy>= 0.0000 <Sz>= 1.0000 <S**2>= 2.0000 S= 1.0000
 Requested convergence on RMS density matrix=1.00D-08 within 128 cycles.
 Requested convergence on MAX density matrix=1.00D-06.
 Requested convergence on             energy=1.00D-06.
 No special actions if energy rises.
 Restarting incremental Fock formation.
 SCF Done:  E(UB3LYP) =  -961.170249793     A.U. after   25 cycles
            NFock= 25  Conv=0.62D-08     -V/T= 2.0045
 <Sx>= 0.0000 <Sy>= 0.0000 <Sz>= 1.0000 <S**2>= 2.0638 S= 1.0211
 <L.S>= 0.000000000000E+00
 Annihilation of the first spin contaminant:
 S**2 before annihilation     2.0638,   after     2.0024
 DoSCS=F DFT=T ScalE2(SS,OS)=  1.000000  1.000000
 Range of M.O.s used for correlation:     1   620
 NBasis=   634 NAE=    83 NBE=    81 NFC=     0 NFV=     0
 NROrb=    620 NOA=    83 NOB=    81 NVA=   537 NVB=   539

 **** Warning!!: The largest alpha MO coefficient is  0.12912340D+03


 **** Warning!!: The largest beta MO coefficient is  0.13879413D+03


 **** Warning!!: The smallest beta delta epsilon is  0.95268702D-01

 Symmetrizing basis deriv contribution to polar:
 IMax=3 JMax=2 DiffMx= 0.00D+00
 G2DrvN: will do    40 centers at a time, making    1 passes.
 Calling FoFCou, ICntrl=  3107 FMM=F I1Cent=   0 AccDes= 0.00D+00.
 End of G2Drv F.D. properties file   721 does not exist.
 End of G2Drv F.D. properties file   722 does not exist.
 End of G2Drv F.D. properties file   788 does not exist.
          IDoAtm=111111111111111111111111111111111111111
          Differentiating once with respect to nuclear coordinates.
          There are   120 degrees of freedom in the 1st order CPHF.  IDoFFX=6 NUNeed=     0.
    117 vectors produced by pass  0 Test12= 8.82D-14 1.00D-09 XBig12= 6.28D-01 1.58D-01.
 AX will form   117 AO Fock derivatives at one time.
    114 vectors produced by pass  1 Test12= 8.82D-14 1.00D-09 XBig12= 1.35D-01 5.56D-02.
    114 vectors produced by pass  2 Test12= 8.82D-14 1.00D-09 XBig12= 3.49D-03 9.86D-03.
    114 vectors produced by pass  3 Test12= 8.82D-14 1.00D-09 XBig12= 5.46D-05 8.67D-04.
    114 vectors produced by pass  4 Test12= 8.82D-14 1.00D-09 XBig12= 5.06D-07 6.47D-05.
    114 vectors produced by pass  5 Test12= 8.82D-14 1.00D-09 XBig12= 3.70D-09 4.21D-06.
    114 vectors produced by pass  6 Test12= 8.82D-14 1.00D-09 XBig12= 8.73D-11 5.61D-07.
    114 vectors produced by pass  7 Test12= 8.82D-14 1.00D-09 XBig12= 2.28D-11 2.41D-07.
    113 vectors produced by pass  8 Test12= 8.82D-14 1.00D-09 XBig12= 2.84D-12 7.75D-08.
     92 vectors produced by pass  9 Test12= 8.82D-14 1.00D-09 XBig12= 7.85D-14 1.18D-08.
     49 vectors produced by pass 10 Test12= 8.82D-14 1.00D-09 XBig12= 1.54D-15 1.94D-09.
     27 vectors produced by pass 11 Test12= 8.82D-14 1.00D-09 XBig12= 7.85D-16 1.65D-09.
     27 vectors produced by pass 12 Test12= 8.82D-14 1.00D-09 XBig12= 1.21D-13 1.73D-08.
     27 vectors produced by pass 13 Test12= 8.82D-14 1.00D-09 XBig12= 4.37D-13 3.54D-08.
     27 vectors produced by pass 14 Test12= 8.82D-14 1.00D-09 XBig12= 2.92D-13 2.70D-08.
     27 vectors produced by pass 15 Test12= 8.82D-14 1.00D-09 XBig12= 4.41D-13 3.13D-08.
     27 vectors produced by pass 16 Test12= 8.82D-14 1.00D-09 XBig12= 2.09D-13 1.84D-08.
     27 vectors produced by pass 17 Test12= 8.82D-14 1.00D-09 XBig12= 2.84D-13 2.27D-08.
     27 vectors produced by pass 18 Test12= 8.82D-14 1.00D-09 XBig12= 1.59D-13 1.97D-08.
     27 vectors produced by pass 19 Test12= 8.82D-14 1.00D-09 XBig12= 2.69D-13 2.39D-08.
     27 vectors produced by pass 20 Test12= 8.82D-14 1.00D-09 XBig12= 1.07D-13 1.37D-08.
     27 vectors produced by pass 21 Test12= 8.82D-14 1.00D-09 XBig12= 2.15D-13 1.96D-08.
     27 vectors produced by pass 22 Test12= 8.82D-14 1.00D-09 XBig12= 1.21D-13 1.57D-08.
     27 vectors produced by pass 23 Test12= 8.82D-14 1.00D-09 XBig12= 1.26D-13 1.41D-08.
     27 vectors produced by pass 24 Test12= 8.82D-14 1.00D-09 XBig12= 1.77D-13 1.71D-08.
     27 vectors produced by pass 25 Test12= 8.82D-14 1.00D-09 XBig12= 1.26D-13 1.58D-08.
     27 vectors produced by pass 26 Test12= 8.82D-14 1.00D-09 XBig12= 1.21D-13 1.46D-08.
     27 vectors produced by pass 27 Test12= 8.82D-14 1.00D-09 XBig12= 1.87D-13 1.65D-08.
     27 vectors produced by pass 28 Test12= 8.82D-14 1.00D-09 XBig12= 7.26D-14 1.17D-08.
     27 vectors produced by pass 29 Test12= 8.82D-14 1.00D-09 XBig12= 7.23D-14 1.25D-08.
     27 vectors produced by pass 30 Test12= 8.82D-14 1.00D-09 XBig12= 1.20D-13 1.32D-08.
     25 vectors produced by pass 31 Test12= 8.82D-14 1.00D-09 XBig12= 3.13D-14 6.74D-09.
     25 vectors produced by pass 32 Test12= 8.82D-14 1.00D-09 XBig12= 7.13D-14 1.09D-08.
     25 vectors produced by pass 33 Test12= 8.82D-14 1.00D-09 XBig12= 1.16D-13 1.24D-08.
     25 vectors produced by pass 34 Test12= 8.82D-14 1.00D-09 XBig12= 1.23D-13 1.33D-08.
     25 vectors produced by pass 35 Test12= 8.82D-14 1.00D-09 XBig12= 6.95D-14 1.20D-08.
     25 vectors produced by pass 36 Test12= 8.82D-14 1.00D-09 XBig12= 7.02D-14 9.77D-09.
     25 vectors produced by pass 37 Test12= 8.82D-14 1.00D-09 XBig12= 1.40D-13 1.54D-08.
     25 vectors produced by pass 38 Test12= 8.82D-14 1.00D-09 XBig12= 9.57D-14 1.14D-08.
     25 vectors produced by pass 39 Test12= 8.82D-14 1.00D-09 XBig12= 8.33D-14 9.78D-09.
     25 vectors produced by pass 40 Test12= 8.82D-14 1.00D-09 XBig12= 8.16D-14 9.66D-09.
     25 vectors produced by pass 41 Test12= 8.82D-14 1.00D-09 XBig12= 8.54D-14 9.70D-09.
     24 vectors produced by pass 42 Test12= 8.82D-14 1.00D-09 XBig12= 9.66D-14 1.16D-08.
     23 vectors produced by pass 43 Test12= 8.82D-14 1.00D-09 XBig12= 5.98D-14 9.02D-09.
     23 vectors produced by pass 44 Test12= 8.82D-14 1.00D-09 XBig12= 8.78D-14 1.10D-08.
     23 vectors produced by pass 45 Test12= 8.82D-14 1.00D-09 XBig12= 7.96D-14 1.08D-08.
     23 vectors produced by pass 46 Test12= 8.82D-14 1.00D-09 XBig12= 8.88D-14 1.04D-08.
     23 vectors produced by pass 47 Test12= 8.82D-14 1.00D-09 XBig12= 7.96D-14 1.02D-08.
     21 vectors produced by pass 48 Test12= 8.82D-14 1.00D-09 XBig12= 4.61D-14 7.98D-09.
     19 vectors produced by pass 49 Test12= 8.82D-14 1.00D-09 XBig12= 4.78D-14 7.75D-09.
     18 vectors produced by pass 50 Test12= 8.82D-14 1.00D-09 XBig12= 3.64D-14 6.69D-09.
     18 vectors produced by pass 51 Test12= 8.82D-14 1.00D-09 XBig12= 5.95D-14 9.39D-09.
     18 vectors produced by pass 52 Test12= 8.82D-14 1.00D-09 XBig12= 9.94D-14 1.16D-08.
     16 vectors produced by pass 53 Test12= 8.82D-14 1.00D-09 XBig12= 3.38D-14 7.10D-09.
     16 vectors produced by pass 54 Test12= 8.82D-14 1.00D-09 XBig12= 4.47D-14 8.11D-09.
     16 vectors produced by pass 55 Test12= 8.82D-14 1.00D-09 XBig12= 4.08D-14 6.88D-09.
     14 vectors produced by pass 56 Test12= 8.82D-14 1.00D-09 XBig12= 2.51D-14 5.21D-09.
     14 vectors produced by pass 57 Test12= 8.82D-14 1.00D-09 XBig12= 3.91D-14 6.87D-09.
     14 vectors produced by pass 58 Test12= 8.82D-14 1.00D-09 XBig12= 6.82D-14 9.22D-09.
     14 vectors produced by pass 59 Test12= 8.82D-14 1.00D-09 XBig12= 4.69D-14 8.69D-09.
     12 vectors produced by pass 60 Test12= 8.82D-14 1.00D-09 XBig12= 1.03D-14 4.25D-09.
     12 vectors produced by pass 61 Test12= 8.82D-14 1.00D-09 XBig12= 4.79D-14 7.62D-09.
     12 vectors produced by pass 62 Test12= 8.82D-14 1.00D-09 XBig12= 4.05D-14 7.69D-09.
     12 vectors produced by pass 63 Test12= 8.82D-14 1.00D-09 XBig12= 7.77D-14 1.13D-08.
     12 vectors produced by pass 64 Test12= 8.82D-14 1.00D-09 XBig12= 2.46D-14 5.53D-09.
     12 vectors produced by pass 65 Test12= 8.82D-14 1.00D-09 XBig12= 4.88D-14 7.39D-09.
     12 vectors produced by pass 66 Test12= 8.82D-14 1.00D-09 XBig12= 4.17D-14 7.21D-09.
     12 vectors produced by pass 67 Test12= 8.82D-14 1.00D-09 XBig12= 6.07D-14 1.10D-08.
     12 vectors produced by pass 68 Test12= 8.82D-14 1.00D-09 XBig12= 3.40D-14 5.83D-09.
     12 vectors produced by pass 69 Test12= 8.82D-14 1.00D-09 XBig12= 7.51D-14 8.97D-09.
     12 vectors produced by pass 70 Test12= 8.82D-14 1.00D-09 XBig12= 2.62D-14 5.25D-09.
     12 vectors produced by pass 71 Test12= 8.82D-14 1.00D-09 XBig12= 2.90D-14 5.46D-09.
     12 vectors produced by pass 72 Test12= 8.82D-14 1.00D-09 XBig12= 4.03D-14 7.74D-09.
     12 vectors produced by pass 73 Test12= 8.82D-14 1.00D-09 XBig12= 2.45D-14 5.56D-09.
     12 vectors produced by pass 74 Test12= 8.82D-14 1.00D-09 XBig12= 2.61D-14 5.42D-09.
     10 vectors produced by pass 75 Test12= 8.82D-14 1.00D-09 XBig12= 1.51D-14 4.30D-09.
     10 vectors produced by pass 76 Test12= 8.82D-14 1.00D-09 XBig12= 3.91D-14 6.60D-09.
     10 vectors produced by pass 77 Test12= 8.82D-14 1.00D-09 XBig12= 2.56D-14 4.93D-09.
     10 vectors produced by pass 78 Test12= 8.82D-14 1.00D-09 XBig12= 3.95D-14 6.32D-09.
     10 vectors produced by pass 79 Test12= 8.82D-14 1.00D-09 XBig12= 2.70D-14 6.65D-09.
     10 vectors produced by pass 80 Test12= 8.82D-14 1.00D-09 XBig12= 2.20D-14 4.74D-09.
     10 vectors produced by pass 81 Test12= 8.82D-14 1.00D-09 XBig12= 2.56D-14 5.49D-09.
     10 vectors produced by pass 82 Test12= 8.82D-14 1.00D-09 XBig12= 3.84D-14 6.98D-09.
     10 vectors produced by pass 83 Test12= 8.82D-14 1.00D-09 XBig12= 2.13D-14 5.25D-09.
     10 vectors produced by pass 84 Test12= 8.82D-14 1.00D-09 XBig12= 4.89D-14 8.08D-09.
     10 vectors produced by pass 85 Test12= 8.82D-14 1.00D-09 XBig12= 2.62D-14 5.19D-09.
     10 vectors produced by pass 86 Test12= 8.82D-14 1.00D-09 XBig12= 3.27D-14 5.88D-09.
     10 vectors produced by pass 87 Test12= 8.82D-14 1.00D-09 XBig12= 1.72D-14 4.42D-09.
     10 vectors produced by pass 88 Test12= 8.82D-14 1.00D-09 XBig12= 2.11D-14 5.84D-09.
     10 vectors produced by pass 89 Test12= 8.82D-14 1.00D-09 XBig12= 4.57D-14 8.32D-09.
     10 vectors produced by pass 90 Test12= 8.82D-14 1.00D-09 XBig12= 2.44D-14 6.91D-09.
     10 vectors produced by pass 91 Test12= 8.82D-14 1.00D-09 XBig12= 2.62D-14 5.97D-09.
     10 vectors produced by pass 92 Test12= 8.82D-14 1.00D-09 XBig12= 2.58D-14 5.29D-09.
     10 vectors produced by pass 93 Test12= 8.82D-14 1.00D-09 XBig12= 2.43D-14 5.49D-09.
      8 vectors produced by pass 94 Test12= 8.82D-14 1.00D-09 XBig12= 1.71D-14 4.57D-09.
      8 vectors produced by pass 95 Test12= 8.82D-14 1.00D-09 XBig12= 1.16D-14 3.59D-09.
      8 vectors produced by pass 96 Test12= 8.82D-14 1.00D-09 XBig12= 3.21D-14 5.30D-09.
      8 vectors produced by pass 97 Test12= 8.82D-14 1.00D-09 XBig12= 2.76D-14 6.44D-09.
      8 vectors produced by pass 98 Test12= 8.82D-14 1.00D-09 XBig12= 1.63D-14 4.27D-09.
      8 vectors produced by pass 99 Test12= 8.82D-14 1.00D-09 XBig12= 2.59D-14 5.43D-09.
      8 vectors produced by pass100 Test12= 8.82D-14 1.00D-09 XBig12= 2.23D-14 6.60D-09.
      8 vectors produced by pass101 Test12= 8.82D-14 1.00D-09 XBig12= 2.20D-14 4.87D-09.
      8 vectors produced by pass102 Test12= 8.82D-14 1.00D-09 XBig12= 3.06D-14 5.84D-09.
      7 vectors produced by pass103 Test12= 8.82D-14 1.00D-09 XBig12= 1.71D-14 4.47D-09.
      7 vectors produced by pass104 Test12= 8.82D-14 1.00D-09 XBig12= 3.37D-14 6.99D-09.
      7 vectors produced by pass105 Test12= 8.82D-14 1.00D-09 XBig12= 2.09D-14 4.22D-09.
      7 vectors produced by pass106 Test12= 8.82D-14 1.00D-09 XBig12= 1.70D-14 3.94D-09.
      7 vectors produced by pass107 Test12= 8.82D-14 1.00D-09 XBig12= 2.12D-14 5.50D-09.
      7 vectors produced by pass108 Test12= 8.82D-14 1.00D-09 XBig12= 2.78D-14 6.10D-09.
      7 vectors produced by pass109 Test12= 8.82D-14 1.00D-09 XBig12= 1.49D-14 3.70D-09.
      7 vectors produced by pass110 Test12= 8.82D-14 1.00D-09 XBig12= 2.07D-14 4.81D-09.
      7 vectors produced by pass111 Test12= 8.82D-14 1.00D-09 XBig12= 2.99D-14 5.35D-09.
      7 vectors produced by pass112 Test12= 8.82D-14 1.00D-09 XBig12= 2.15D-14 4.42D-09.
      7 vectors produced by pass113 Test12= 8.82D-14 1.00D-09 XBig12= 1.86D-14 4.11D-09.
      7 vectors produced by pass114 Test12= 8.82D-14 1.00D-09 XBig12= 1.11D-14 3.17D-09.
      7 vectors produced by pass115 Test12= 8.82D-14 1.00D-09 XBig12= 1.17D-14 3.48D-09.
      6 vectors produced by pass116 Test12= 8.82D-14 1.00D-09 XBig12= 1.12D-14 3.50D-09.
      6 vectors produced by pass117 Test12= 8.82D-14 1.00D-09 XBig12= 2.59D-14 6.13D-09.
      6 vectors produced by pass118 Test12= 8.82D-14 1.00D-09 XBig12= 3.16D-14 6.46D-09.
      6 vectors produced by pass119 Test12= 8.82D-14 1.00D-09 XBig12= 1.73D-14 4.30D-09.
      6 vectors produced by pass120 Test12= 8.82D-14 1.00D-09 XBig12= 2.53D-14 4.59D-09.
      6 vectors produced by pass121 Test12= 8.82D-14 1.00D-09 XBig12= 2.76D-14 5.33D-09.
      6 vectors produced by pass122 Test12= 8.82D-14 1.00D-09 XBig12= 1.99D-14 4.81D-09.
      6 vectors produced by pass123 Test12= 8.82D-14 1.00D-09 XBig12= 2.56D-14 6.09D-09.
      6 vectors produced by pass124 Test12= 8.82D-14 1.00D-09 XBig12= 1.50D-14 3.89D-09.
      6 vectors produced by pass125 Test12= 8.82D-14 1.00D-09 XBig12= 3.01D-14 5.94D-09.
      6 vectors produced by pass126 Test12= 8.82D-14 1.00D-09 XBig12= 2.74D-14 4.77D-09.
      6 vectors produced by pass127 Test12= 8.82D-14 1.00D-09 XBig12= 1.50D-14 4.71D-09.
      6 vectors produced by pass128 Test12= 8.82D-14 1.00D-09 XBig12= 8.38D-15 2.70D-09.
      6 vectors produced by pass129 Test12= 8.82D-14 1.00D-09 XBig12= 2.48D-14 4.89D-09.
      6 vectors produced by pass130 Test12= 8.82D-14 1.00D-09 XBig12= 1.68D-14 3.99D-09.
      6 vectors produced by pass131 Test12= 8.82D-14 1.00D-09 XBig12= 2.35D-14 4.46D-09.
      6 vectors produced by pass132 Test12= 8.82D-14 1.00D-09 XBig12= 1.03D-14 3.40D-09.
      6 vectors produced by pass133 Test12= 8.82D-14 1.00D-09 XBig12= 1.12D-14 3.35D-09.
      6 vectors produced by pass134 Test12= 8.82D-14 1.00D-09 XBig12= 1.52D-14 3.72D-09.
      6 vectors produced by pass135 Test12= 8.82D-14 1.00D-09 XBig12= 1.85D-14 4.50D-09.
      6 vectors produced by pass136 Test12= 8.82D-14 1.00D-09 XBig12= 1.26D-14 3.70D-09.
      6 vectors produced by pass137 Test12= 8.82D-14 1.00D-09 XBig12= 2.18D-14 4.79D-09.
      6 vectors produced by pass138 Test12= 8.82D-14 1.00D-09 XBig12= 1.03D-14 3.43D-09.
      6 vectors produced by pass139 Test12= 8.82D-14 1.00D-09 XBig12= 2.41D-14 4.68D-09.
      6 vectors produced by pass140 Test12= 8.82D-14 1.00D-09 XBig12= 1.44D-14 3.89D-09.
      6 vectors produced by pass141 Test12= 8.82D-14 1.00D-09 XBig12= 2.76D-14 5.84D-09.
      6 vectors produced by pass142 Test12= 8.82D-14 1.00D-09 XBig12= 1.40D-14 3.83D-09.
      6 vectors produced by pass143 Test12= 8.82D-14 1.00D-09 XBig12= 1.70D-14 4.77D-09.
      6 vectors produced by pass144 Test12= 8.82D-14 1.00D-09 XBig12= 1.76D-14 5.63D-09.
      6 vectors produced by pass145 Test12= 8.82D-14 1.00D-09 XBig12= 1.83D-14 3.73D-09.
      6 vectors produced by pass146 Test12= 8.82D-14 1.00D-09 XBig12= 1.47D-14 3.34D-09.
      6 vectors produced by pass147 Test12= 8.82D-14 1.00D-09 XBig12= 1.42D-14 3.80D-09.
      6 vectors produced by pass148 Test12= 8.82D-14 1.00D-09 XBig12= 1.44D-14 3.78D-09.
      6 vectors produced by pass149 Test12= 8.82D-14 1.00D-09 XBig12= 1.80D-14 3.84D-09.
      6 vectors produced by pass150 Test12= 8.82D-14 1.00D-09 XBig12= 1.53D-14 3.60D-09.
      6 vectors produced by pass151 Test12= 8.82D-14 1.00D-09 XBig12= 2.77D-14 6.18D-09.
      6 vectors produced by pass152 Test12= 8.82D-14 1.00D-09 XBig12= 1.35D-14 3.66D-09.
      6 vectors produced by pass153 Test12= 8.82D-14 1.00D-09 XBig12= 1.61D-14 4.27D-09.
      6 vectors produced by pass154 Test12= 8.82D-14 1.00D-09 XBig12= 1.12D-14 3.23D-09.
      6 vectors produced by pass155 Test12= 8.82D-14 1.00D-09 XBig12= 2.72D-14 5.38D-09.
      6 vectors produced by pass156 Test12= 8.82D-14 1.00D-09 XBig12= 1.97D-14 4.63D-09.
      6 vectors produced by pass157 Test12= 8.82D-14 1.00D-09 XBig12= 1.18D-14 3.21D-09.
      6 vectors produced by pass158 Test12= 8.82D-14 1.00D-09 XBig12= 1.99D-14 4.30D-09.
      5 vectors produced by pass159 Test12= 8.82D-14 1.00D-09 XBig12= 5.92D-15 2.44D-09.
      5 vectors produced by pass160 Test12= 8.82D-14 1.00D-09 XBig12= 2.16D-14 4.79D-09.
      5 vectors produced by pass161 Test12= 8.82D-14 1.00D-09 XBig12= 1.71D-14 3.94D-09.
      5 vectors produced by pass162 Test12= 8.82D-14 1.00D-09 XBig12= 2.43D-14 4.73D-09.
      5 vectors produced by pass163 Test12= 8.82D-14 1.00D-09 XBig12= 1.72D-14 4.22D-09.
      5 vectors produced by pass164 Test12= 8.82D-14 1.00D-09 XBig12= 2.07D-14 4.93D-09.
      5 vectors produced by pass165 Test12= 8.82D-14 1.00D-09 XBig12= 1.39D-14 3.73D-09.
      5 vectors produced by pass166 Test12= 8.82D-14 1.00D-09 XBig12= 1.72D-14 5.24D-09.
      5 vectors produced by pass167 Test12= 8.82D-14 1.00D-09 XBig12= 2.19D-14 4.52D-09.
      5 vectors produced by pass168 Test12= 8.82D-14 1.00D-09 XBig12= 8.49D-15 2.92D-09.
      5 vectors produced by pass169 Test12= 8.82D-14 1.00D-09 XBig12= 1.79D-14 4.49D-09.
      5 vectors produced by pass170 Test12= 8.82D-14 1.00D-09 XBig12= 1.10D-14 3.08D-09.
      5 vectors produced by pass171 Test12= 8.82D-14 1.00D-09 XBig12= 2.00D-14 4.88D-09.
      5 vectors produced by pass172 Test12= 8.82D-14 1.00D-09 XBig12= 1.44D-14 3.63D-09.
      5 vectors produced by pass173 Test12= 8.82D-14 1.00D-09 XBig12= 1.23D-14 3.90D-09.
      5 vectors produced by pass174 Test12= 8.82D-14 1.00D-09 XBig12= 1.71D-14 4.25D-09.
      5 vectors produced by pass175 Test12= 8.82D-14 1.00D-09 XBig12= 1.77D-14 4.35D-09.
      5 vectors produced by pass176 Test12= 8.82D-14 1.00D-09 XBig12= 9.92D-15 3.05D-09.
      5 vectors produced by pass177 Test12= 8.82D-14 1.00D-09 XBig12= 1.79D-14 4.18D-09.
      5 vectors produced by pass178 Test12= 8.82D-14 1.00D-09 XBig12= 1.17D-14 3.18D-09.
      5 vectors produced by pass179 Test12= 8.82D-14 1.00D-09 XBig12= 1.80D-14 4.00D-09.
      5 vectors produced by pass180 Test12= 8.82D-14 1.00D-09 XBig12= 1.69D-14 3.72D-09.
      5 vectors produced by pass181 Test12= 8.82D-14 1.00D-09 XBig12= 8.64D-15 2.67D-09.
      5 vectors produced by pass182 Test12= 8.82D-14 1.00D-09 XBig12= 1.30D-14 3.62D-09.
      5 vectors produced by pass183 Test12= 8.82D-14 1.00D-09 XBig12= 1.68D-14 4.34D-09.
      5 vectors produced by pass184 Test12= 8.82D-14 1.00D-09 XBig12= 1.78D-14 4.22D-09.
      5 vectors produced by pass185 Test12= 8.82D-14 1.00D-09 XBig12= 1.05D-14 3.23D-09.
      5 vectors produced by pass186 Test12= 8.82D-14 1.00D-09 XBig12= 1.71D-14 4.62D-09.
      5 vectors produced by pass187 Test12= 8.82D-14 1.00D-09 XBig12= 8.59D-15 3.10D-09.
      5 vectors produced by pass188 Test12= 8.82D-14 1.00D-09 XBig12= 1.19D-14 3.49D-09.
      5 vectors produced by pass189 Test12= 8.82D-14 1.00D-09 XBig12= 1.54D-14 3.74D-09.
      5 vectors produced by pass190 Test12= 8.82D-14 1.00D-09 XBig12= 1.32D-14 3.86D-09.
      5 vectors produced by pass191 Test12= 8.82D-14 1.00D-09 XBig12= 1.32D-14 4.12D-09.
      5 vectors produced by pass192 Test12= 8.82D-14 1.00D-09 XBig12= 8.86D-15 2.93D-09.
      5 vectors produced by pass193 Test12= 8.82D-14 1.00D-09 XBig12= 1.64D-14 3.65D-09.
      5 vectors produced by pass194 Test12= 8.82D-14 1.00D-09 XBig12= 1.03D-14 2.88D-09.
      5 vectors produced by pass195 Test12= 8.82D-14 1.00D-09 XBig12= 1.72D-14 3.76D-09.
      5 vectors produced by pass196 Test12= 8.82D-14 1.00D-09 XBig12= 1.04D-14 3.53D-09.
      5 vectors produced by pass197 Test12= 8.82D-14 1.00D-09 XBig12= 1.54D-14 4.22D-09.
      5 vectors produced by pass198 Test12= 8.82D-14 1.00D-09 XBig12= 1.53D-14 4.17D-09.
      5 vectors produced by pass199 Test12= 8.82D-14 1.00D-09 XBig12= 1.82D-14 3.98D-09.
      5 vectors produced by pass200 Test12= 8.82D-14 1.00D-09 XBig12= 1.05D-14 3.05D-09.
      5 vectors produced by pass201 Test12= 8.82D-14 1.00D-09 XBig12= 1.93D-14 4.21D-09.
      4 vectors produced by pass202 Test12= 8.82D-14 1.00D-09 XBig12= 5.78D-15 2.25D-09.
      4 vectors produced by pass203 Test12= 8.82D-14 1.00D-09 XBig12= 1.62D-14 3.60D-09.
      4 vectors produced by pass204 Test12= 8.82D-14 1.00D-09 XBig12= 1.23D-14 2.99D-09.
      4 vectors produced by pass205 Test12= 8.82D-14 1.00D-09 XBig12= 9.59D-15 3.06D-09.
      4 vectors produced by pass206 Test12= 8.82D-14 1.00D-09 XBig12= 1.03D-14 3.19D-09.
      4 vectors produced by pass207 Test12= 8.82D-14 1.00D-09 XBig12= 6.98D-15 2.44D-09.
      4 vectors produced by pass208 Test12= 8.82D-14 1.00D-09 XBig12= 1.48D-14 3.49D-09.
      4 vectors produced by pass209 Test12= 8.82D-14 1.00D-09 XBig12= 1.10D-14 3.92D-09.
      4 vectors produced by pass210 Test12= 8.82D-14 1.00D-09 XBig12= 1.00D-14 3.35D-09.
      4 vectors produced by pass211 Test12= 8.82D-14 1.00D-09 XBig12= 1.22D-14 3.09D-09.
      4 vectors produced by pass212 Test12= 8.82D-14 1.00D-09 XBig12= 6.79D-15 2.76D-09.
      4 vectors produced by pass213 Test12= 8.82D-14 1.00D-09 XBig12= 1.23D-14 3.97D-09.
      4 vectors produced by pass214 Test12= 8.82D-14 1.00D-09 XBig12= 1.58D-14 3.74D-09.
      4 vectors produced by pass215 Test12= 8.82D-14 1.00D-09 XBig12= 1.18D-14 3.47D-09.
      4 vectors produced by pass216 Test12= 8.82D-14 1.00D-09 XBig12= 1.03D-14 2.72D-09.
      4 vectors produced by pass217 Test12= 8.82D-14 1.00D-09 XBig12= 1.47D-14 3.61D-09.
      4 vectors produced by pass218 Test12= 8.82D-14 1.00D-09 XBig12= 9.76D-15 3.26D-09.
      4 vectors produced by pass219 Test12= 8.82D-14 1.00D-09 XBig12= 7.28D-15 2.61D-09.
      4 vectors produced by pass220 Test12= 8.82D-14 1.00D-09 XBig12= 8.10D-15 2.73D-09.
      4 vectors produced by pass221 Test12= 8.82D-14 1.00D-09 XBig12= 1.23D-14 3.47D-09.
      4 vectors produced by pass222 Test12= 8.82D-14 1.00D-09 XBig12= 9.40D-15 3.31D-09.
      4 vectors produced by pass223 Test12= 8.82D-14 1.00D-09 XBig12= 6.06D-15 2.46D-09.
      4 vectors produced by pass224 Test12= 8.82D-14 1.00D-09 XBig12= 1.32D-14 3.41D-09.
      4 vectors produced by pass225 Test12= 8.82D-14 1.00D-09 XBig12= 3.79D-15 2.09D-09.
      4 vectors produced by pass226 Test12= 8.82D-14 1.00D-09 XBig12= 1.21D-14 3.56D-09.
      4 vectors produced by pass227 Test12= 8.82D-14 1.00D-09 XBig12= 1.02D-14 3.39D-09.
      4 vectors produced by pass228 Test12= 8.82D-14 1.00D-09 XBig12= 9.80D-15 3.05D-09.
      4 vectors produced by pass229 Test12= 8.82D-14 1.00D-09 XBig12= 8.08D-15 2.65D-09.
      4 vectors produced by pass230 Test12= 8.82D-14 1.00D-09 XBig12= 1.27D-14 3.58D-09.
      4 vectors produced by pass231 Test12= 8.82D-14 1.00D-09 XBig12= 6.05D-15 2.49D-09.
      4 vectors produced by pass232 Test12= 8.82D-14 1.00D-09 XBig12= 1.33D-14 3.50D-09.
      4 vectors produced by pass233 Test12= 8.82D-14 1.00D-09 XBig12= 1.24D-14 3.96D-09.
      4 vectors produced by pass234 Test12= 8.82D-14 1.00D-09 XBig12= 6.00D-15 2.59D-09.
      4 vectors produced by pass235 Test12= 8.82D-14 1.00D-09 XBig12= 1.03D-14 3.47D-09.
      4 vectors produced by pass236 Test12= 8.82D-14 1.00D-09 XBig12= 1.02D-14 3.11D-09.
      4 vectors produced by pass237 Test12= 8.82D-14 1.00D-09 XBig12= 6.73D-15 3.53D-09.
      4 vectors produced by pass238 Test12= 8.82D-14 1.00D-09 XBig12= 1.25D-14 3.55D-09.
      4 vectors produced by pass239 Test12= 8.82D-14 1.00D-09 XBig12= 6.54D-15 2.50D-09.
      4 vectors produced by pass240 Test12= 8.82D-14 1.00D-09 XBig12= 8.26D-15 2.69D-09.
      4 vectors produced by pass241 Test12= 8.82D-14 1.00D-09 XBig12= 4.90D-15 2.15D-09.
      4 vectors produced by pass242 Test12= 8.82D-14 1.00D-09 XBig12= 8.91D-15 2.80D-09.
      4 vectors produced by pass243 Test12= 8.82D-14 1.00D-09 XBig12= 9.88D-15 3.11D-09.
      4 vectors produced by pass244 Test12= 8.82D-14 1.00D-09 XBig12= 9.65D-15 3.12D-09.
      4 vectors produced by pass245 Test12= 8.82D-14 1.00D-09 XBig12= 8.65D-15 3.34D-09.
      4 vectors produced by pass246 Test12= 8.82D-14 1.00D-09 XBig12= 1.10D-14 3.77D-09.
      4 vectors produced by pass247 Test12= 8.82D-14 1.00D-09 XBig12= 7.86D-15 2.41D-09.
      4 vectors produced by pass248 Test12= 8.82D-14 1.00D-09 XBig12= 5.78D-15 2.17D-09.
      4 vectors produced by pass249 Test12= 8.82D-14 1.00D-09 XBig12= 1.45D-14 3.86D-09.
      4 vectors produced by pass250 Test12= 8.82D-14 1.00D-09 XBig12= 8.15D-15 2.76D-09.
      4 vectors produced by pass251 Test12= 8.82D-14 1.00D-09 XBig12= 7.05D-15 2.20D-09.
      4 vectors produced by pass252 Test12= 8.82D-14 1.00D-09 XBig12= 1.17D-14 3.42D-09.
      4 vectors produced by pass253 Test12= 8.82D-14 1.00D-09 XBig12= 7.41D-15 2.21D-09.
      4 vectors produced by pass254 Test12= 8.82D-14 1.00D-09 XBig12= 6.78D-15 2.44D-09.
      4 vectors produced by pass255 Test12= 8.82D-14 1.00D-09 XBig12= 6.41D-15 2.69D-09.
      4 vectors produced by pass256 Test12= 8.82D-14 1.00D-09 XBig12= 6.77D-15 2.93D-09.
      4 vectors produced by pass257 Test12= 8.82D-14 1.00D-09 XBig12= 7.11D-15 2.36D-09.
      4 vectors produced by pass258 Test12= 8.82D-14 1.00D-09 XBig12= 8.84D-15 2.77D-09.
      4 vectors produced by pass259 Test12= 8.82D-14 1.00D-09 XBig12= 8.92D-15 2.76D-09.
      4 vectors produced by pass260 Test12= 8.82D-14 1.00D-09 XBig12= 1.01D-14 2.92D-09.
      4 vectors produced by pass261 Test12= 8.82D-14 1.00D-09 XBig12= 1.06D-14 3.04D-09.
      4 vectors produced by pass262 Test12= 8.82D-14 1.00D-09 XBig12= 6.81D-15 2.54D-09.
      4 vectors produced by pass263 Test12= 8.82D-14 1.00D-09 XBig12= 1.46D-14 3.48D-09.
      3 vectors produced by pass264 Test12= 8.82D-14 1.00D-09 XBig12= 5.46D-15 2.31D-09.
      3 vectors produced by pass265 Test12= 8.82D-14 1.00D-09 XBig12= 7.23D-15 2.44D-09.
      3 vectors produced by pass266 Test12= 8.82D-14 1.00D-09 XBig12= 6.58D-15 2.34D-09.
      3 vectors produced by pass267 Test12= 8.82D-14 1.00D-09 XBig12= 9.35D-15 2.87D-09.
      3 vectors produced by pass268 Test12= 8.82D-14 1.00D-09 XBig12= 8.08D-15 2.73D-09.
      3 vectors produced by pass269 Test12= 8.82D-14 1.00D-09 XBig12= 8.67D-15 3.25D-09.
      3 vectors produced by pass270 Test12= 8.82D-14 1.00D-09 XBig12= 1.09D-14 3.37D-09.
      3 vectors produced by pass271 Test12= 8.82D-14 1.00D-09 XBig12= 5.86D-15 2.12D-09.
      3 vectors produced by pass272 Test12= 8.82D-14 1.00D-09 XBig12= 5.85D-15 2.57D-09.
      3 vectors produced by pass273 Test12= 8.82D-14 1.00D-09 XBig12= 1.12D-14 3.02D-09.
      3 vectors produced by pass274 Test12= 8.82D-14 1.00D-09 XBig12= 1.10D-14 3.19D-09.
      3 vectors produced by pass275 Test12= 8.82D-14 1.00D-09 XBig12= 5.86D-15 2.31D-09.
      3 vectors produced by pass276 Test12= 8.82D-14 1.00D-09 XBig12= 8.84D-15 3.16D-09.
      3 vectors produced by pass277 Test12= 8.82D-14 1.00D-09 XBig12= 7.76D-15 2.50D-09.
      3 vectors produced by pass278 Test12= 8.82D-14 1.00D-09 XBig12= 9.83D-15 3.43D-09.
      3 vectors produced by pass279 Test12= 8.82D-14 1.00D-09 XBig12= 6.15D-15 2.45D-09.
      3 vectors produced by pass280 Test12= 8.82D-14 1.00D-09 XBig12= 8.46D-15 2.75D-09.
      3 vectors produced by pass281 Test12= 8.82D-14 1.00D-09 XBig12= 1.06D-14 3.17D-09.
      3 vectors produced by pass282 Test12= 8.82D-14 1.00D-09 XBig12= 7.50D-15 3.10D-09.
      3 vectors produced by pass283 Test12= 8.82D-14 1.00D-09 XBig12= 6.05D-15 2.43D-09.
      3 vectors produced by pass284 Test12= 8.82D-14 1.00D-09 XBig12= 1.04D-14 3.01D-09.
      3 vectors produced by pass285 Test12= 8.82D-14 1.00D-09 XBig12= 6.98D-15 2.36D-09.
      3 vectors produced by pass286 Test12= 8.82D-14 1.00D-09 XBig12= 1.22D-14 3.56D-09.
      3 vectors produced by pass287 Test12= 8.82D-14 1.00D-09 XBig12= 5.98D-15 2.70D-09.
      3 vectors produced by pass288 Test12= 8.82D-14 1.00D-09 XBig12= 9.80D-15 3.30D-09.
      3 vectors produced by pass289 Test12= 8.82D-14 1.00D-09 XBig12= 5.64D-15 2.58D-09.
      3 vectors produced by pass290 Test12= 8.82D-14 1.00D-09 XBig12= 4.40D-15 1.94D-09.
      3 vectors produced by pass291 Test12= 8.82D-14 1.00D-09 XBig12= 1.08D-14 3.22D-09.
      3 vectors produced by pass292 Test12= 8.82D-14 1.00D-09 XBig12= 4.11D-15 1.83D-09.
      3 vectors produced by pass293 Test12= 8.82D-14 1.00D-09 XBig12= 1.28D-14 3.53D-09.
      3 vectors produced by pass294 Test12= 8.82D-14 1.00D-09 XBig12= 4.81D-15 2.23D-09.
      3 vectors produced by pass295 Test12= 8.82D-14 1.00D-09 XBig12= 7.83D-15 2.99D-09.
      3 vectors produced by pass296 Test12= 8.82D-14 1.00D-09 XBig12= 1.37D-14 3.38D-09.
      3 vectors produced by pass297 Test12= 8.82D-14 1.00D-09 XBig12= 9.47D-15 3.01D-09.
      3 vectors produced by pass298 Test12= 8.82D-14 1.00D-09 XBig12= 4.09D-15 1.93D-09.
      3 vectors produced by pass299 Test12= 8.82D-14 1.00D-09 XBig12= 8.66D-15 2.74D-09.
      3 vectors produced by pass300 Test12= 8.82D-14 1.00D-09 XBig12= 4.38D-15 1.96D-09.
      3 vectors produced by pass301 Test12= 8.82D-14 1.00D-09 XBig12= 7.37D-15 2.63D-09.
      3 vectors produced by pass302 Test12= 8.82D-14 1.00D-09 XBig12= 8.36D-15 2.86D-09.
      3 vectors produced by pass303 Test12= 8.82D-14 1.00D-09 XBig12= 9.23D-15 2.89D-09.
      3 vectors produced by pass304 Test12= 8.82D-14 1.00D-09 XBig12= 5.42D-15 2.08D-09.
      3 vectors produced by pass305 Test12= 8.82D-14 1.00D-09 XBig12= 1.33D-14 3.69D-09.
      3 vectors produced by pass306 Test12= 8.82D-14 1.00D-09 XBig12= 8.20D-15 2.69D-09.
      3 vectors produced by pass307 Test12= 8.82D-14 1.00D-09 XBig12= 8.63D-15 2.52D-09.
      3 vectors produced by pass308 Test12= 8.82D-14 1.00D-09 XBig12= 9.28D-15 2.70D-09.
      3 vectors produced by pass309 Test12= 8.82D-14 1.00D-09 XBig12= 6.11D-15 2.23D-09.
      3 vectors produced by pass310 Test12= 8.82D-14 1.00D-09 XBig12= 1.01D-14 3.21D-09.
      3 vectors produced by pass311 Test12= 8.82D-14 1.00D-09 XBig12= 7.54D-15 2.70D-09.
      3 vectors produced by pass312 Test12= 8.82D-14 1.00D-09 XBig12= 6.69D-15 2.16D-09.
      3 vectors produced by pass313 Test12= 8.82D-14 1.00D-09 XBig12= 7.94D-15 2.82D-09.
      3 vectors produced by pass314 Test12= 8.82D-14 1.00D-09 XBig12= 3.98D-15 2.05D-09.
      3 vectors produced by pass315 Test12= 8.82D-14 1.00D-09 XBig12= 1.27D-14 3.64D-09.
      3 vectors produced by pass316 Test12= 8.82D-14 1.00D-09 XBig12= 6.39D-15 2.74D-09.
      3 vectors produced by pass317 Test12= 8.82D-14 1.00D-09 XBig12= 8.74D-15 2.68D-09.
      3 vectors produced by pass318 Test12= 8.82D-14 1.00D-09 XBig12= 1.14D-14 3.35D-09.
      3 vectors produced by pass319 Test12= 8.82D-14 1.00D-09 XBig12= 5.32D-15 2.38D-09.
      3 vectors produced by pass320 Test12= 8.82D-14 1.00D-09 XBig12= 7.81D-15 2.77D-09.
      3 vectors produced by pass321 Test12= 8.82D-14 1.00D-09 XBig12= 2.90D-15 1.53D-09.
      3 vectors produced by pass322 Test12= 8.82D-14 1.00D-09 XBig12= 1.04D-14 3.44D-09.
      3 vectors produced by pass323 Test12= 8.82D-14 1.00D-09 XBig12= 8.59D-15 3.04D-09.
      3 vectors produced by pass324 Test12= 8.82D-14 1.00D-09 XBig12= 4.02D-15 2.10D-09.
      3 vectors produced by pass325 Test12= 8.82D-14 1.00D-09 XBig12= 5.57D-15 2.35D-09.
      3 vectors produced by pass326 Test12= 8.82D-14 1.00D-09 XBig12= 6.62D-15 2.70D-09.
      3 vectors produced by pass327 Test12= 8.82D-14 1.00D-09 XBig12= 8.25D-15 2.79D-09.
      3 vectors produced by pass328 Test12= 8.82D-14 1.00D-09 XBig12= 5.29D-15 2.29D-09.
      3 vectors produced by pass329 Test12= 8.82D-14 1.00D-09 XBig12= 1.01D-14 2.97D-09.
      3 vectors produced by pass330 Test12= 8.82D-14 1.00D-09 XBig12= 6.75D-15 2.61D-09.
      3 vectors produced by pass331 Test12= 8.82D-14 1.00D-09 XBig12= 5.81D-15 2.33D-09.
      3 vectors produced by pass332 Test12= 8.82D-14 1.00D-09 XBig12= 1.11D-14 2.80D-09.
      3 vectors produced by pass333 Test12= 8.82D-14 1.00D-09 XBig12= 7.63D-15 2.50D-09.
      3 vectors produced by pass334 Test12= 8.82D-14 1.00D-09 XBig12= 9.57D-15 3.01D-09.
      3 vectors produced by pass335 Test12= 8.82D-14 1.00D-09 XBig12= 9.45D-15 2.94D-09.
      3 vectors produced by pass336 Test12= 8.82D-14 1.00D-09 XBig12= 5.03D-15 2.14D-09.
      3 vectors produced by pass337 Test12= 8.82D-14 1.00D-09 XBig12= 7.78D-15 2.58D-09.
      3 vectors produced by pass338 Test12= 8.82D-14 1.00D-09 XBig12= 6.28D-15 2.12D-09.
      3 vectors produced by pass339 Test12= 8.82D-14 1.00D-09 XBig12= 5.29D-15 2.18D-09.
      3 vectors produced by pass340 Test12= 8.82D-14 1.00D-09 XBig12= 9.04D-15 2.93D-09.
      2 vectors produced by pass341 Test12= 8.82D-14 1.00D-09 XBig12= 2.79D-15 1.70D-09.
 InvSVY:  IOpt=1 It=  1 EMax= 2.00D-15
 Solved reduced A of dimension  3808 with   120 vectors.
 End of Minotr F.D. properties file   721 does not exist.
 End of Minotr F.D. properties file   722 does not exist.
 End of Minotr F.D. properties file   788 does not exist.

 **********************************************************************

            Population analysis using the SCF density.

 **********************************************************************

 Orbital symmetries:
 Alpha Orbitals:
       Occupied  (A) (A) (A) (A) (A) (A) (A) (A) (A) (A) (A) (A)
                 (A) (A) (A) (A) (A) (A) (A) (A) (A) (A) (A) (A)
                 (A) (A) (A) (A) (A) (A) (A) (A) (A) (A) (A) (A)
                 (A) (A) (A) (A) (A) (A) (A) (A) (A) (A) (A) (A)
                 (A) (A) (A) (A) (A) (A) (A) (A) (A) (A) (A) (A)
                 (A) (A) (A) (A) (A) (A) (A) (A) (A) (A) (A) (A)
                 (A) (A) (A) (A) (A) (A) (A) (A) (A) (A) (A)
       Virtual   (A) (A) (A) (A) (A) (A) (A) (A) (A) (A) (A) (A)
                 (A) (A) (A) (A) (A) (A) (A) (A) (A) (A) (A) (A)
                 (A) (A) (A) (A) (A) (A) (A) (A) (A) (A) (A) (A)
                 (A) (A) (A) (A) (A) (A) (A) (A) (A) (A) (A) (A)
                 (A) (A) (A) (A) (A) (A) (A) (A) (A) (A) (A) (A)
                 (A) (A) (A) (A) (A) (A) (A) (A) (A) (A) (A) (A)
                 (A) (A) (A) (A) (A) (A) (A) (A) (A) (A) (A) (A)
                 (A) (A) (A) (A) (A) (A) (A) (A) (A) (A) (A) (A)
                 (A) (A) (A) (A) (A) (A) (A) (A) (A) (A) (A) (A)
                 (A) (A) (A) (A) (A) (A) (A) (A) (A) (A) (A) (A)
                 (A) (A) (A) (A) (A) (A) (A) (A) (A) (A) (A) (A)
                 (A) (A) (A) (A) (A) (A) (A) (A) (A) (A) (A) (A)
                 (A) (A) (A) (A) (A) (A) (A) (A) (A) (A) (A) (A)
[...]
 0001148,-0.00005734,-0.00003680,-0.00000297,-0.00000471,-0.00000782,0.
 00000189,0.00001278,0.00001052,-0.00000262,0.00012529,0.00000265,-0.00
 000701,-0.00013621,0.00014867,0.00020516,-0.00025448,-0.00004381,-0.00
 004480,0.00011166,0.00000135,-0.00000416,-0.00049503,-0.00082106,-0.00
 002325,-0.00159307,-0.00499736,-0.00221132,0.00143403,0.00017239,-0.00
 005944,0.00002906,-0.00057357,0.00002896,-0.00315653,-0.00064707,-0.00
 139514,-0.01474003,0.01141292,0.00146266,0.11693326,-0.12415708,-0.014
 78460,0.02878971,-0.01019251,-0.00229154,0.00000289,0.00001343,0.00000
 671,0.00001441,-0.00000857,0.00000370,-0.00001496,-0.00000104,-0.00000
 302,-0.00000071,-0.00000312,-0.00000238,-0.00000681,-0.00001760,0.0000
 4252,0.00000005,0.00000206,-0.00000038,0.00000216,0.00000180,-0.000000
 43,0.00000305,-0.00000011,0.00000021,0.00000421,-0.00000104,0.00000179
 ,-0.00000073,-0.00000331,-0.00000102,-0.00000580,0.00000309,0.00000240
 ,0.00013968,-0.00008689,0.00001100,-0.00004444,-0.00003002,-0.00002335
 ,-0.00038261,0.00085756,0.00092049,-0.00072450,0.00035855,0.00004740,0
 .00059742,0.00057915,0.00077447,-0.12658268,0.12795921,-0.00002964,0.0
 0000032,0.00000357,0.00002084,-0.00000960,-0.00001094,-0.00000883,0.00
 004407,0.00001772,-0.00000777,-0.00001514,-0.00002041,0.00000915,-0.00
 002069,0.00000028,0.00000950,0.00001366,0.00001440,0.00004052,-0.00008
 218,0.00004078,-0.00000729,0.00019638,-0.00089050,-0.00003815,0.000022
 57,0.00010751,0.00003841,0.00001290,0.00003440,-0.00017151,-0.00016326
 ,-0.00085352,-0.00008571,-0.00215572,0.00774712,0.00032293,-0.00007072
 ,0.00021235,-0.00001870,-0.00004919,-0.00042079,-0.00080110,-0.0013914
 2,0.00587274,-0.00300429,0.00169405,0.00327339,0.01896791,-0.01500712,
 -0.03900429,0.00509526,-0.00216304,0.00309229,0.00000214,0.00001443,0.
 00000080,0.00000288,-0.00000153,-0.00000065,0.00000945,0.00000841,0.00
 000940,0.00005232,0.00001744,-0.00001948,-0.00003467,-0.00005943,-0.00
 007086,0.00000045,-0.00000077,0.00000264,-0.00000141,0.00000043,0.0000
 0021,-0.00000015,0.00000029,0.00000148,0.00000034,0.00000168,-0.000004
 61,0.00000032,-0.00000020,0.00000065,-0.00000031,-0.00000051,-0.000001
 20,0.00002355,-0.00001321,-0.00001326,-0.00001316,-0.00001105,0.000070
 39,-0.00006965,0.00090316,-0.00433144,-0.00013998,0.00007126,0.0001110
 3,0.00017424,0.00084147,-0.00314389,-0.02032262,0.01738751,0.02808290,
 0.00168937,0.00283598,0.00148945,-0.00530897,-0.00132297,-0.00248781,-
 0.00256516,0.00132007,-0.00128940,-0.00241864,-0.00186422,-0.00136306,
 -0.00106351,-0.00085401,0.00005583,0.00098123,0.00021024,0.00028410,0.
 00187010,-0.01299360,0.01628592,0.00152605,-0.00030164,0.00061538,0.00
 012275,0.00056376,-0.00079823,0.00203709,-0.00014800,-0.00010010,0.000
 54580,-0.00051996,0.00010425,-0.00041192,0.00005930,-0.00023176,-0.000
 08546,0.00017759,0.00004940,0.00031927,0.00008716,0.00008129,0.0004979
 7,0.00028347,0.00017786,-0.00077376,-0.00011699,-0.00000326,0.00003955
 ,0.00050460,0.00005878,0.00024480,-0.00019966,-0.00003811,-0.00069364,
 -0.00251721,-0.00087273,-0.00232867,0.00161192,0.00059703,0.00286649,0
 .00240073,0.00278069,-0.03057924,0.04072726,-0.03817035,-0.07757105,0.
 03507936,-0.05171155,0.00007282,-0.00027661,-0.00081128,-0.00030570,0.
 00009432,-0.00003825,-0.00002335,-0.00003154,-0.00004311,-0.00000494,0
 .00021780,0.00000925,0.00002728,0.00001141,0.00011145,0.00006536,0.000
 02011,0.00011098,-0.00000977,-0.00002425,0.00000410,-0.00003784,0.0000
 0185,0.00000527,-0.00002309,-0.00000075,0.00002950,-0.00223793,-0.0008
 6817,0.00121623,-0.00008532,0.00009251,0.00011968,-0.00001638,0.000007
 31,-0.00000925,0.77234596,0.00394041,0.00271024,0.00074896,-0.00058282
 ,0.00465770,0.00127893,-0.00616899,0.00447023,0.00075811,-0.00471582,-
 0.00383792,-0.00207306,-0.00146108,-0.00182809,-0.00051018,0.00206398,
 -0.00026402,0.00036350,-0.00841242,-0.03402307,0.02204945,0.00847748,0
 .00262189,0.00103101,-0.00019590,-0.00121845,-0.00102490,0.00328240,0.
 00222070,0.00011301,-0.00231385,0.00157166,0.00067150,0.00080982,0.000
 27412,-0.00007963,-0.00015298,-0.00021529,-0.00005532,0.00023378,0.000
 04612,0.00001499,-0.00045059,-0.00112212,0.00038124,0.00013114,0.00013
 027,0.00007809,0.00024480,-0.00034908,-0.00004414,-0.00026586,0.000346
 97,0.00000318,-0.00135371,-0.00242754,-0.00070701,-0.00074882,0.000333
 29,-0.00048281,-0.00327788,-0.00214762,0.00052626,0.02536001,-0.013910
 73,0.01788322,0.02440309,-0.14190217,0.08996838,0.00007922,0.00060231,
 0.00013862,0.00007402,0.00010796,-0.00014334,-0.00008306,-0.00006980,0
 .00014640,-0.00000852,-0.00006340,-0.00001948,-0.00002886,-0.00000398,
 0.00007113,-0.00000262,-0.00007576,0.00024144,-0.00000731,-0.00000772,
 -0.00000093,0.00001428,0.00001282,0.00000915,0.00001109,0.00000472,0.0
 0000237,-0.00028295,0.00027606,-0.00007805,-0.00000598,-0.00001891,-0.
 00005213,0.00000716,0.00000597,0.00001406,-0.13907183,0.32668239,-0.00
 474562,-0.00340276,-0.00111577,0.00129390,-0.00258359,0.00085227,0.000
 04229,-0.00653086,0.00163726,0.00568876,0.00238405,0.00190420,0.001675
 13,0.00221901,0.00045295,-0.00293331,-0.00016032,-0.00048703,0.0113559
 6,0.00511442,-0.01166097,-0.00147842,0.00004942,-0.00091944,0.00134453
 ,-0.00149191,0.00013816,-0.00452608,-0.00105346,0.00003359,0.00075357,
 0.00000040,-0.00009635,-0.00036462,0.00061431,0.00030024,0.00050475,-0
 .00045188,-0.00010903,-0.00060767,-0.00030800,0.00003185,-0.00060193,0
 .00054794,-0.00039071,-0.00036362,-0.00013109,-0.00029308,-0.00009017,
 0.00039961,0.00006517,0.00027514,-0.00037654,-0.00004873,0.00197579,0.
 00344039,0.00093244,0.00077171,-0.00029642,0.00067856,0.00261342,0.001
 46311,0.00027993,-0.01836523,0.02219353,-0.01240465,-0.04183774,0.1023
 7964,-0.11997631,0.00005195,-0.00013035,-0.00012670,0.00002539,-0.0001
 5749,0.00013377,0.00008625,0.00011115,-0.00015752,0.00003232,0.0000411
 2,-0.00004642,0.00014591,-0.00006957,-0.00022559,-0.00004321,0.0000246
 5,-0.00015205,-0.00003674,-0.00001361,-0.00000458,-0.00000521,-0.00001
 956,0.00000070,-0.00001664,0.00000454,-0.00002113,0.00264899,-0.000039
 56,-0.00023535,-0.00004976,0.00002181,0.00005599,-0.00001901,-0.000012
 83,0.00003780,0.00755621,-0.18670935,0.31379877,-0.00260012,-0.0034083
 1,-0.00064065,0.00012188,0.00944696,0.00109563,-0.00170783,-0.00709924
 ,-0.00003957,0.00613402,0.00509931,0.00159969,0.00128322,0.00214580,0.
 00033980,-0.00238182,-0.00043480,-0.00049433,0.00821917,0.00928836,-0.
 00865840,-0.00423242,-0.00055856,-0.00169698,0.00139627,-0.00143597,0.
 00007235,-0.00583909,-0.00116367,0.00027024,0.00098450,-0.00064287,0.0
 0001364,-0.00050225,0.00028745,0.00018220,0.00036424,-0.00054211,-0.00
 005696,-0.00086068,-0.00000341,-0.00000327,-0.00036670,0.00035522,0.00
 042302,0.00013534,0.00001361,-0.00005388,-0.00009232,0.00024323,-0.000
 00755,0.00025001,-0.00030468,-0.00004854,0.00102624,0.00654253,0.00227
 560,0.00625549,-0.00711988,-0.00076000,-0.01611567,0.00094336,-0.02209
 352,-0.00984388,-0.01302168,0.02329506,-0.00551420,-0.04829551,0.06038
 911,0.00060399,0.00055473,0.00082493,0.00011171,-0.00028411,0.00059123
 ,0.00014906,0.00019426,-0.00020250,0.00005813,-0.00004258,-0.00005679,
 0.00005014,-0.00006259,-0.00021131,-0.00009754,-0.00001012,-0.00015823
 ,-0.00001703,-0.00001524,-0.00001033,-0.00001083,-0.00000142,0.0000071
 1,-0.00000932,-0.00000938,-0.00000440,-0.00016391,-0.00021242,0.000237
 44,-0.00001787,0.00002375,0.00003275,-0.00000874,0.00000839,0.00001387
 ,-0.41024232,0.01012058,0.09752808,0.55962415,-0.01133186,-0.00387793,
 -0.00252602,0.00265094,-0.02865408,0.00118590,0.00824462,0.00477001,0.
 00159694,0.00302672,-0.00467400,-0.00027155,0.00086149,0.00350289,0.00
 087472,-0.00407735,-0.00040199,-0.00025393,-0.00163684,0.00232529,0.00
 397825,0.00002471,0.00033141,-0.00028372,0.00028661,-0.00059735,-0.000
 43427,-0.00045858,0.00000457,-0.00015929,0.00035491,0.00007420,0.00018
 104,-0.00030820,0.00043047,0.00003543,0.00019202,-0.00003627,0.0000197
 1,0.00006419,-0.00021123,-0.00006076,0.00023350,-0.00012390,-0.0004398
 1,-0.00046891,-0.00000618,0.00000125,0.00011934,0.00040239,0.00010092,
 0.00022921,-0.00035140,-0.00005185,0.00736930,-0.00170437,-0.00090706,
 -0.01044374,0.00945872,0.00150634,0.02554517,0.01244905,0.02177940,-0.
 02333506,0.03217950,-0.07902437,-0.03562966,-0.01866388,0.04212491,0.0
 0038152,0.00028322,-0.00122444,-0.00040713,0.00019472,0.00008411,-0.00
 004833,0.00008667,-0.00013592,0.00001898,0.00009378,0.00010834,-0.0000
 7199,0.00003192,-0.00005339,0.00003125,0.00005495,-0.00005243,-0.00001
 647,0.00000825,0.00001114,0.00000375,-0.00000660,0.00000001,-0.0000009
 1,0.00000718,-0.00000239,0.00025695,-0.00005778,0.00011331,-0.00003136
 ,0.00001333,0.00000297,0.00001776,0.00000101,-0.00000301,-0.03225200,-
 0.04278265,0.01523370,0.12662437,0.13882731,0.01166123,0.00629470,0.00
 295706,-0.00307465,0.02648598,0.01079622,-0.00763880,-0.00140010,-0.00
 230686,-0.00751438,0.00266135,-0.00110059,-0.00240292,-0.00634101,-0.0
 0170271,0.00742589,-0.00021229,0.00094522,-0.00264077,-0.00871189,0.00
 314531,0.00179670,-0.00031992,0.00081458,-0.00221927,0.00248975,0.0000
 9398,0.00532549,0.00127543,0.00015644,-0.00054430,0.00016317,0.0002202
 3,0.00066749,-0.00114547,-0.00017647,-0.00055569,0.00064258,0.00007455
 ,0.00061103,0.00011377,0.00013189,0.00004773,-0.00018195,0.00008181,0.
 00077498,0.00026105,-0.00014727,0.00008146,-0.00091077,-0.00017909,-0.
 00059450,0.00068171,0.00004403,-0.01027207,0.00063590,0.00093191,0.010
 98522,-0.01069762,-0.00272616,-0.03541447,-0.00606653,-0.04129090,0.02
 197106,-0.06382109,0.06879949,0.05574868,0.04417763,-0.05730079,-0.000
 16125,0.00049037,0.00082643,0.00019808,-0.00032462,0.00049432,0.000119
 55,-0.00005746,0.00022298,-0.00006499,-0.00030361,-0.00024699,0.000048
 22,0.00003641,0.00006697,-0.00001553,-0.00010249,0.00018041,0.00000904
 ,0.00001815,-0.00001228,0.00003229,0.00002982,-0.00002736,0.00003601,0
 .00001211,0.00000406,-0.00003911,0.00036171,-0.00008704,0.00006200,-0.
 00007334,-0.00005984,0.00001316,-0.00002220,0.00006739,0.14699902,0.00
 490361,-0.09712994,-0.28117133,-0.11555024,0.28332751,0.00022145,0.000
 14343,-0.00013983,-0.00044301,-0.00011126,-0.00105633,-0.00009424,0.00
 019499,0.00001512,-0.00014744,-0.00009980,-0.00001528,-0.00000435,-0.0
 0005691,0.00006720,0.00003811,0.00007129,-0.00000672,-0.00011927,0.000
 06252,-0.00002572,0.00006253,0.00000527,-0.00010259,0.00006389,0.00008
 009,0.00000362,0.00008959,-0.00004019,-0.00001401,-0.00025169,-0.00000
 668,0.00010978,0.00019227,0.00005037,0.00000049,0.00003328,0.00000931,
 -0.00000104,-0.00002679,-0.00003518,0.00001594,-0.00015008,-0.00014249
 ,0.00050179,0.00011378,-0.00006095,0.00004916,-0.00010680,-0.00011503,
 -0.00005542,-0.00010092,0.00010404,0.00002122,-0.00014933,-0.00009318,
 0.00000342,-0.00001153,0.00012443,-0.00009008,0.00027895,0.00012703,-0
 .00005620,-0.00093154,0.00183652,0.00166890,0.00262567,-0.00054716,0.0
 0130110,-0.00005972,-0.00009910,-0.00000236,-0.00002868,-0.00001124,0.
 00001378,-0.00000743,-0.00000007,-0.00000107,-0.00000678,0.00002910,0.
 00000698,0.00000637,0.00001454,-0.00000079,0.00001085,0.00001434,0.000
 00656,0.00000203,0.00000690,-0.00000301,0.00000468,-0.00000414,-0.0000
 0334,0.00000123,0.00000610,-0.00000141,-0.00027299,-0.00028498,0.00025
 990,0.00001143,0.00000685,0.00002007,0.00000121,-0.00000329,-0.0000147
 7,-0.25143561,0.10295207,-0.07477869,-0.01168496,0.01174860,-0.0091502
 8,0.26200470,0.00122620,0.00044038,0.00008201,-0.00046241,0.00154164,-
 0.00096167,-0.00008622,0.00014040,-0.00016456,-0.00040330,-0.00027774,
 -0.00003094,-0.00020841,-0.00014994,-0.00003744,0.00025352,0.00006398,
 -0.00000535,-0.00010196,0.00053700,-0.00032254,-0.00004441,-0.00045937
 ,-0.00010002,-0.00010469,0.00012570,0.00006386,0.00025026,0.00003504,0
 .00000382,-0.00006678,-0.00008107,-0.00002103,0.00001791,-0.00005180,0
 .00002903,-0.00005287,0.00000355,-0.00001223,0.00006842,0.00006038,0.0
 0001563,-0.00029310,-0.00007378,-0.00029279,-0.00002559,0.00017294,0.0
 0002212,-0.00008518,-0.00002171,0.00001859,0.00004417,0.00011588,0.000
 03014,-0.00039214,-0.00020934,-0.00008123,0.00038945,-0.00006415,-0.00
 011042,0.00006570,-0.00168306,0.00037567,0.00403550,0.00345654,0.00630
 527,0.01209795,0.00312581,-0.00164364,-0.00007470,-0.00013720,0.000132
 22,0.00013456,-0.00002155,-0.00006756,-0.00002908,-0.00004314,0.000050
 95,-0.00000406,0.00001190,0.00001965,-0.00001404,0.00000135,0.00001671
 ,0.00000149,0.00000672,-0.00000924,-0.00000198,0.00000500,0.00000595,0
 .00000106,0.00001066,0.00000322,0.00000403,0.00000467,-0.00000012,0.00
 000734,0.00022262,0.00042931,0.00001832,-0.00000993,-0.00002369,0.0000
 2688,0.00000733,-0.00000641,0.09745978,-0.10395286,0.05228281,0.002057
 91,0.00797139,0.00135243,-0.11505839,0.09049731,0.00110404,0.00098725,
 0.00036549,-0.00227036,0.00161568,-0.00069129,-0.00045261,0.00031392,0
 .00004974,-0.00032318,-0.00004877,-0.00009436,-0.00037649,-0.00016027,
 -0.00010318,0.00022799,0.00005765,0.00001323,-0.00038814,-0.00007290,-
 0.00059981,-0.00024278,0.00008564,0.00001495,-0.00010818,0.00015112,0.
 00004974,0.00025215,0.00016094,-0.00000656,-0.00035965,0.00016546,0.00
 003981,0.00007276,-0.00011976,-0.00010215,-0.00004890,0.00006044,0.000
 00095,0.00002555,-0.00001377,-0.00000963,0.00045315,0.00014890,0.00053
 171,0.00008576,-0.00015994,0.00001487,0.00000754,-0.00008341,-0.000088
 66,-0.00013351,-0.00000582,0.00000457,-0.00007254,-0.00013717,-0.00006
 954,0.00019458,-0.00048825,-0.00012432,-0.00056542,-0.00103576,0.00067
 686,0.00307924,0.00660884,0.00312314,-0.01633256,0.00462145,-0.0024523
 0,-0.00006310,-0.00016577,0.00004620,0.00003173,0.00002036,-0.00007941
 ,-0.00004674,-0.00002975,0.00001737,-0.00000697,0.00007342,0.00000300,
 -0.00001731,0.00000540,0.00002860,0.00000830,-0.00000440,0.00000364,0.
 00001325,-0.00000422,0.00000607,-0.00000294,-0.00001674,0.00000195,-0.
 00000502,-0.00001826,0.00001275,-0.00026720,0.00029957,-0.00082439,0.0
 0007117,-0.00002643,-0.00000846,-0.00003879,-0.00001014,0.00000305,-0.
 07602477,0.04497119,-0.07603873,0.01201490,-0.00119441,0.00806089,0.08
 135490,-0.05534065,0.06987936,0.00102696,0.00059542,0.00009676,-0.0001
 4555,0.00011871,0.00002038,-0.00015602,-0.00038838,-0.00030102,-0.0007
 7757,0.00015720,-0.00015918,0.00000618,-0.00066840,-0.00004658,0.00067
 439,0.00020272,0.00009675,0.00130458,0.00105245,0.00068705,-0.00012245
 ,-0.00029432,-0.00000978,-0.00010956,0.00047150,0.00006309,0.00069549,
 -0.00030056,-0.00001874,0.00003351,-0.00002977,-0.00005237,-0.00002199
 ,-0.00000914,-0.00001092,0.00002572,0.00016350,0.00002310,0.00008395,-
 0.00006098,0.00001166,0.00016996,0.00011551,0.00007661,-0.00003682,-0.
 00008923,0.00001094,-0.00001337,0.00000152,-0.00000674,-0.00003397,-0.
 00000779,0.00000278,-0.00141980,-0.00057960,-0.00019417,0.00011023,0.0
 0042452,0.00010554,0.00042658,-0.00076305,-0.00046349,0.00177935,-0.00
 250443,0.00332236,-0.00316002,-0.00083654,0.00194821,-0.00011817,-0.00
 008434,-0.00027049,-0.00004015,-0.00002557,-0.00007069,0.00001750,-0.0
 0001082,0.00001848,-0.00001162,0.00000768,-0.00001702,0.00003899,0.000
 01054,0.00004433,0.00002210,0.00001509,0.00001806,0.00000283,0.0000016
 8,0.00000109,-0.00000535,-0.00000755,-0.00000807,-0.00000658,-0.000001
 49,0.00000235,-0.00002023,-0.00004984,-0.00009442,0.00000539,-0.000003
 71,-0.00000113,-0.00000684,-0.00000425,-0.00000508,0.00297036,-0.01261
 350,0.01449364,-0.11445804,-0.06776749,0.09885998,0.00027111,-0.000651
 15,-0.00084985,0.11099892,-0.00198015,-0.00206557,-0.00054147,0.000382
 70,-0.00109619,0.00018756,0.00044335,-0.00072409,0.00003189,0.00201403
 ,0.00064043,0.00015939,0.00080875,0.00161350,0.00026402,-0.00175187,0.
 00007033,-0.00027531,0.00002791,0.00302068,-0.00024931,-0.00070224,0.0
 0014353,-0.00028123,0.00108194,-0.00094604,0.00000663,-0.00228343,-0.0
 0056884,0.00001609,0.00019619,-0.00009225,-0.00007291,-0.00022384,0.00
 035081,0.00005865,0.00019704,-0.00031777,-0.00002749,-0.00036519,0.000
 07570,-0.00004226,-0.00004063,-0.00002661,-0.00009514,-0.00020173,-0.0
 0003959,0.00005966,-0.00002234,0.00029212,0.00006812,0.00021687,-0.000
 20725,-0.00001794,0.00174886,0.00186031,0.00036735,0.00061621,-0.00078
 772,-0.00000527,0.00060070,0.00158294,0.00135022,-0.00265475,0.0021307
 2,-0.00737213,-0.00196730,0.00003587,0.00823990,-0.00004325,-0.0000345
 4,0.00024476,0.00001622,-0.00001144,0.00006169,0.00001401,0.00003131,0
 .00000117,0.00003718,0.00001339,0.00003640,-0.00003084,-0.00002033,0.0
 0002272,-0.00002207,0.00001428,-0.00004538,0.00000834,-0.00000665,-0.0
 0000228,-0.00002039,-0.00000834,0.00001433,-0.00001541,-0.00000987,-0.
 00000380,0.00002710,-0.00004197,0.00003823,-0.00001526,0.00002842,0.00
 001089,-0.00000842,0.00001464,-0.00001986,0.00959687,0.00314576,-0.004
 58645,-0.08928125,-0.11135263,0.12315496,-0.00081776,-0.00132157,-0.00
 121063,0.08441387,0.10461451,0.00041416,-0.00025777,-0.00009510,-0.000
 56797,0.00054230,0.00033477,-0.00010320,-0.00037914,-0.00024599,-0.000
 11004,0.00029094,-0.00003858,0.00030751,0.00001199,0.00000601,-0.00000
 337,0.00014134,-0.00003769,0.00143510,0.00109481,-0.00165606,-0.000350
 14,0.00021279,-0.00006279,0.00037662,0.00004852,0.00024723,-0.00008009
 ,-0.00038423,-0.00002638,-0.00001590,-0.00005894,-0.00020451,-0.000055
 74,0.00010288,0.00001454,0.00009099,0.00000776,0.00000111,-0.00010872,
 0.00002276,0.00001398,0.00004458,0.00009526,0.00001038,-0.00007172,-0.
 00007416,0.00006244,-0.00002485,0.00007418,0.00001785,0.00004617,-0.00
 005896,0.00001226,-0.00083048,0.00006005,0.00005000,0.00023843,0.00007
 189,0.00014139,0.00000087,-0.00032450,-0.00077369,0.00207095,-0.003799
 90,0.00363742,0.00413934,0.00497715,0.00342425,-0.00002572,-0.00015626
 ,-0.00039541,-0.00004649,-0.00001926,-0.00005023,0.00002801,-0.0000110
 9,0.00001256,-0.00000404,0.00001082,0.00000823,0.00001593,0.00001114,0
 .00006659,0.00000817,0.00002388,-0.00000716,0.00001771,0.00001189,-0.0
 0000132,-0.00000454,-0.00000646,-0.00000165,-0.00000510,-0.00000167,-0
 .00000133,-0.00001663,-0.00003122,-0.00000820,0.00000136,-0.00000029,-
 0.00000100,0.00000007,0.00000212,-0.00001844,-0.00474865,0.00561255,0.
 00030641,0.11516185,0.11369049,-0.17794939,0.00009904,-0.00200787,-0.0
 0165517,-0.11732344,-0.11954579,0.17486270\\-0.00000053,0.00000256,0.0
 0000205,-0.00000038,-0.00000175,-0.00000385,0.00000169,0.00000207,0.00
 000705,-0.00000044,-0.00000125,0.00000143,0.00000581,0.00000077,-0.000
 00077,-0.00000210,-0.00000093,0.00000063,-0.00000173,-0.00000232,0.000
 00013,-0.00000021,-0.00000051,0.00000456,0.00000118,-0.00000163,-0.000
 00182,0.00000169,0.00000265,-0.00000263,0.00000110,0.,0.00000358,0.000
 00130,0.00000083,-0.00000761,-0.00000361,-0.00000034,0.00000412,0.0000
 0371,-0.00000351,-0.00000222,-0.00000013,-0.00000298,-0.00000474,-0.00
 000178,-0.00000009,0.00000210,-0.00000163,-0.00000118,-0.00000201,-0.0
 0000013,-0.00000083,0.00000117,-0.00000173,-0.00000294,-0.00000056,-0.
 00000052,0.00000630,-0.00000098,-0.00000001,0.00000083,0.00000503,-0.0
 0000003,0.00000229,-0.00000118,-0.00000170,0.00000127,-0.00000445,-0.0
 0000029,0.00000148,0.00000065,-0.00000076,0.00000213,0.00000139,0.0000
 0062,0.00000144,0.00000074,0.00000060,0.00000171,0.00000118,0.00000115
 ,0.00000104,0.00000044,0.00000121,-0.00000029,0.00000024,0.00000140,-0
 .00000042,-0.00000026,0.00000066,-0.00000121,-0.00000094,-0.00000067,-
 0.00000211,-0.00000099,-0.00000074,-0.00000076,-0.00000081,-0.00000131
 ,-0.00000122,-0.00000049,-0.00000065,-0.00000193,-0.00000135,-0.000001
 16,-0.00000044,0.00000087,0.00000284,0.00000284,-0.00000102,-0.0000009
 2,-0.00000021,0.00000004,-0.00000181,-0.00000136,0.00000129\\\@


 DIATOMIC MOLECULES ARE PECULIAR BECAUSE THEY ONLY HAVE TWO ENDS,
 AND THESE ENDS ARE VERY CLOSE TOGETHER.
 KLAUS RUEDENBERG, REV.MOD.PHYS. PG 176, 32, (1960)
 Job cpu time:       3 days  7 hours 38 minutes 52.5 seconds.
 File lengths (MBytes):  RWF=   9052 Int=      0 D2E=      0 Chk=     42 Scr=      1
 Normal termination of Gaussian 09 at Tue Feb  4 00:53:24 2020.
