 Entering Gaussian System, Link 0=g09
 Initial command:
 /usr/local/Cluster-Apps/gaussian/g09/l1.exe "/rds/user/am2145/hpc-work/scratch/19190169/Gau-101444.inp" -scrdir="/rds/user/am2145/hpc-work/scratch/19190169/"
 Entering Link 1 = /usr/local/Cluster-Apps/gaussian/g09/l1.exe PID=    101445.
  
 Copyright (c) 1988,1990,1992,1993,1995,1998,2003,2009,2013,
            Gaussian, Inc.  All Rights Reserved.
  
 This is part of the Gaussian(R) 09 program.  It is based on
 the Gaussian(R) 03 system (copyright 2003, Gaussian, Inc.),
 the Gaussian(R) 98 system (copyright 1998, Gaussian, Inc.),
 the Gaussian(R) 94 system (copyright 1995, Gaussian, Inc.),
 the Gaussian 92(TM) system (copyright 1992, Gaussian, Inc.),
 the Gaussian 90(TM) system (copyright 1990, Gaussian, Inc.),
 the Gaussian 88(TM) system (copyright 1988, Gaussian, Inc.),
 the Gaussian 86(TM) system (copyright 1986, Carnegie Mellon
 University), and the Gaussian 82(TM) system (copyright 1983,
 Carnegie Mellon University). Gaussian is a federally registered
 trademark of Gaussian, Inc.
  
 This software contains proprietary and confidential information,
 including trade secrets, belonging to Gaussian, Inc.
  
 This software is provided under written license and may be
 used, copied, transmitted, or stored only in accord with that
 written license.
  
 The following legend is applicable only to US Government
 contracts under FAR:
  
                    RESTRICTED RIGHTS LEGEND
  
 Use, reproduction and disclosure by the US Government is
 subject to restrictions as set forth in subparagraphs (a)
 and (c) of the Commercial Computer Software - Restricted
 Rights clause in FAR 52.227-19.
  
 Gaussian, Inc.
 340 Quinnipiac St., Bldg. 40, Wallingford CT 06492
  
  
 ---------------------------------------------------------------
 Warning -- This program may not be used in any manner that
 competes with the business of Gaussian, Inc. or will provide
 assistance to any competitor of Gaussian, Inc.  The licensee
 of this program is prohibited from giving any competitor of
 Gaussian, Inc. access to this program.  By using this program,
 the user acknowledges that Gaussian, Inc. is engaged in the
 business of creating and licensing software in the field of
 computational chemistry and represents and warrants to the
 licensee that it is not a competitor of Gaussian, Inc. and that
 it will not use this program in any manner prohibited above.
 ---------------------------------------------------------------
  

 Cite this work as:
 Gaussian 09, Revision D.01,
 M. J. Frisch, G. W. Trucks, H. B. Schlegel, G. E. Scuseria, 
 M. A. Robb, J. R. Cheeseman, G. Scalmani, V. Barone, B. Mennucci, 
 G. A. Petersson, H. Nakatsuji, M. Caricato, X. Li, H. P. Hratchian, 
 A. F. Izmaylov, J. Bloino, G. Zheng, J. L. Sonnenberg, M. Hada, 
 M. Ehara, K. Toyota, R. Fukuda, J. Hasegawa, M. Ishida, T. Nakajima, 
 Y. Honda, O. Kitao, H. Nakai, T. Vreven, J. A. Montgomery, Jr., 
 J. E. Peralta, F. Ogliaro, M. Bearpark, J. J. Heyd, E. Brothers, 
 K. N. Kudin, V. N. Staroverov, T. Keith, R. Kobayashi, J. Normand, 
 K. Raghavachari, A. Rendell, J. C. Burant, S. S. Iyengar, J. Tomasi, 
 M. Cossi, N. Rega, J. M. Millam, M. Klene, J. E. Knox, J. B. Cross, 
 V. Bakken, C. Adamo, J. Jaramillo, R. Gomperts, R. E. Stratmann, 
 O. Yazyev, A. J. Austin, R. Cammi, C. Pomelli, J. W. Ochterski, 
 R. L. Martin, K. Morokuma, V. G. Zakrzewski, G. A. Voth, 
 P. Salvador, J. J. Dannenberg, S. Dapprich, A. D. Daniels, 
 O. Farkas, J. B. Foresman, J. V. Ortiz, J. Cioslowski, 
 and D. J. Fox, Gaussian, Inc., Wallingford CT, 2013.
 
 ******************************************
 Gaussian 09:  ES64L-G09RevD.01 24-Apr-2013
                 2-Feb-2020 
 ******************************************
 %NProcShared=20
 Will use up to   20 processors via shared memory.
 %mem=64GB
 %Chk=BS2b_Hmig_guess.chk
 --------------------------------------------------
 #n opt=(ts,calcfc,noeigen) freq b3lyp/6-311+g(d,p)
 --------------------------------------------------
 1/5=1,10=4,11=1,14=-1,18=20,26=3,38=1/1,3;
 2/9=110,12=2,17=6,18=5,40=1/2;
 3/5=4,6=6,7=111,11=2,16=1,25=1,30=1,71=2,74=-5,140=1/1,2,3;
 4//1;
 5/5=2,38=5/2;
 8/6=4,10=90,11=11/1;
 11/6=1,8=1,9=11,15=111,16=1/1,2,10;
 10/6=1,13=1/2;
 6/7=2,8=2,9=2,10=2,28=1/1;
 7/10=1,18=20,25=1/1,2,3,16;
 1/5=1,10=4,11=1,14=-1,18=20,26=3/3(2);
 2/9=110/2;
 99//99;
 2/9=110/2;
 3/5=4,6=6,7=111,11=2,16=1,25=1,30=1,71=1,74=-5/1,2,3;
 4/5=5,16=3,69=1/1;
 5/5=2,38=5/2;
 7//1,2,3,16;
 1/5=1,11=1,14=-1,18=20,26=3/3(-5);
 2/9=110/2;
 6/7=2,8=2,9=2,10=2,19=2,28=1/1;
 99/9=1/99;
 ---------------
 BS2b_Hmig_guess
 ---------------
 Symbolic Z-matrix:
 Charge =  0 Multiplicity = 3
 C                     3.87931   0.31518  -0.06604 
 C                     2.57641  -0.16323  -0.09428 
 C                     1.44925   0.64505   0.10171 
 C                     1.56242   2.01461   0.309 
 C                     4.00877   1.73259   0.18801 
 C                     2.90971   2.53789   0.36285 
 C                     0.25787  -0.13513   0.0174 
 C                    -0.99248   0.54241   0.12588 
 C                    -0.88658   1.99353   0.21503 
 C                     0.33315   2.68811   0.3601 
 C                    -2.33345  -0.0552    0.02558 
 C                    -3.40832   0.82437  -0.34983 
 C                    -3.23425   2.24755  -0.32641 
 C                    -2.05784   2.80131   0.03054 
 C                    -2.7089   -1.41821   0.29297 
 C                    -4.00049  -1.84785  -0.02444 
 C                    -4.97271  -1.00808  -0.56341 
 C                    -4.68477   0.33189  -0.67788 
 C                     4.88295  -0.66276  -0.29747 
 C                     4.51842  -1.98676  -0.53425 
 C                     3.1753   -2.43233  -0.56016 
 C                     2.16628  -1.49963  -0.33243 
 C                     0.72296  -1.46901  -0.25043 
 H                     2.95984  -3.47544  -0.76321 
 H                     5.3024   -2.71462  -0.71228 
 H                     5.93215  -0.38718  -0.29485 
 H                     5.00014   2.1718    0.23344 
 H                     3.05185   3.59929   0.53829 
 H                     0.29607   3.76941   0.44333 
 H                    -1.95263   3.87805   0.10494 
 H                    -4.09336   2.86769  -0.55722 
 H                    -5.44442   1.03772  -0.99551 
 H                    -4.25695  -2.88001   0.18781 
 H                    -5.95119  -1.39621  -0.82115 
 H                    -0.0342   -2.50334   0.0077 
 C                    -1.97624  -2.46361   1.0716 
 C                    -0.82706  -3.07539   0.85626 
 H                    -0.38038  -3.85718   1.45983 
 H                    -2.58751  -2.85372   1.88956 
 

 GradGradGradGradGradGradGradGradGradGradGradGradGradGradGradGradGradGrad
 Berny optimization.
 Initialization pass.
                           ----------------------------
                           !    Initial Parameters    !
                           ! (Angstroms and Degrees)  !
 --------------------------                            --------------------------
 ! Name  Definition              Value          Derivative Info.                !
 --------------------------------------------------------------------------------
 ! R1    R(1,2)                  1.3882         calculate D2E/DX2 analytically  !
 ! R2    R(1,5)                  1.4458         calculate D2E/DX2 analytically  !
 ! R3    R(1,19)                 1.4203         calculate D2E/DX2 analytically  !
 ! R4    R(2,3)                  1.4008         calculate D2E/DX2 analytically  !
 ! R5    R(2,22)                 1.4181         calculate D2E/DX2 analytically  !
 ! R6    R(3,4)                  1.3898         calculate D2E/DX2 analytically  !
 ! R7    R(3,7)                  1.4266         calculate D2E/DX2 analytically  !
 ! R8    R(4,6)                  1.4463         calculate D2E/DX2 analytically  !
 ! R9    R(4,10)                 1.4026         calculate D2E/DX2 analytically  !
 ! R10   R(5,6)                  1.3737         calculate D2E/DX2 analytically  !
 ! R11   R(5,27)                 1.0853         calculate D2E/DX2 analytically  !
 ! R12   R(6,28)                 1.0852         calculate D2E/DX2 analytically  !
 ! R13   R(7,8)                  1.4263         calculate D2E/DX2 analytically  !
 ! R14   R(7,23)                 1.4378         calculate D2E/DX2 analytically  !
 ! R15   R(8,9)                  1.4577         calculate D2E/DX2 analytically  !
 ! R16   R(8,11)                 1.4715         calculate D2E/DX2 analytically  !
 ! R17   R(9,10)                 1.4111         calculate D2E/DX2 analytically  !
 ! R18   R(9,14)                 1.4347         calculate D2E/DX2 analytically  !
 ! R19   R(10,29)                1.0851         calculate D2E/DX2 analytically  !
 ! R20   R(11,12)                1.4387         calculate D2E/DX2 analytically  !
 ! R21   R(11,15)                1.4388         calculate D2E/DX2 analytically  !
 ! R22   R(12,13)                1.434          calculate D2E/DX2 analytically  !
 ! R23   R(12,18)                1.4069         calculate D2E/DX2 analytically  !
 ! R24   R(13,14)                1.3483         calculate D2E/DX2 analytically  !
 ! R25   R(13,31)                1.0844         calculate D2E/DX2 analytically  !
 ! R26   R(14,30)                1.0844         calculate D2E/DX2 analytically  !
 ! R27   R(15,16)                1.3977         calculate D2E/DX2 analytically  !
 ! R28   R(15,36)                1.4953         calculate D2E/DX2 analytically  !
 ! R29   R(16,17)                1.3932         calculate D2E/DX2 analytically  !
 ! R30   R(16,33)                1.0845         calculate D2E/DX2 analytically  !
 ! R31   R(17,18)                1.3753         calculate D2E/DX2 analytically  !
 ! R32   R(17,34)                1.0837         calculate D2E/DX2 analytically  !
 ! R33   R(18,32)                1.0845         calculate D2E/DX2 analytically  !
 ! R34   R(19,20)                1.3935         calculate D2E/DX2 analytically  !
 ! R35   R(19,26)                1.0848         calculate D2E/DX2 analytically  !
 ! R36   R(20,21)                1.4153         calculate D2E/DX2 analytically  !
 ! R37   R(20,25)                1.0845         calculate D2E/DX2 analytically  !
 ! R38   R(21,22)                1.3928         calculate D2E/DX2 analytically  !
 ! R39   R(21,24)                1.0843         calculate D2E/DX2 analytically  !
 ! R40   R(22,23)                1.446          calculate D2E/DX2 analytically  !
 ! R41   R(35,37)                1.2946         calculate D2E/DX2 analytically  !
 ! R42   R(36,37)                1.3196         calculate D2E/DX2 analytically  !
 ! R43   R(36,39)                1.0931         calculate D2E/DX2 analytically  !
 ! R44   R(37,38)                1.084          calculate D2E/DX2 analytically  !
 ! A1    A(2,1,5)              115.1797         calculate D2E/DX2 analytically  !
 ! A2    A(2,1,19)             114.9991         calculate D2E/DX2 analytically  !
 ! A3    A(5,1,19)             129.8205         calculate D2E/DX2 analytically  !
 ! A4    A(1,2,3)              123.6072         calculate D2E/DX2 analytically  !
 ! A5    A(1,2,22)             126.8432         calculate D2E/DX2 analytically  !
 ! A6    A(3,2,22)             109.546          calculate D2E/DX2 analytically  !
 ! A7    A(2,3,4)              121.5988         calculate D2E/DX2 analytically  !
 ! A8    A(2,3,7)              110.3747         calculate D2E/DX2 analytically  !
 ! A9    A(4,3,7)              128.0062         calculate D2E/DX2 analytically  !
 ! A10   A(3,4,6)              115.9725         calculate D2E/DX2 analytically  !
 ! A11   A(3,4,10)             114.0328         calculate D2E/DX2 analytically  !
 ! A12   A(6,4,10)             129.8897         calculate D2E/DX2 analytically  !
 ! A13   A(1,5,6)              121.6981         calculate D2E/DX2 analytically  !
 ! A14   A(1,5,27)             119.072          calculate D2E/DX2 analytically  !
 ! A15   A(6,5,27)             119.2279         calculate D2E/DX2 analytically  !
 ! A16   A(4,6,5)              121.9009         calculate D2E/DX2 analytically  !
 ! A17   A(4,6,28)             118.8103         calculate D2E/DX2 analytically  !
 ! A18   A(5,6,28)             119.2867         calculate D2E/DX2 analytically  !
 ! A19   A(3,7,8)              117.8937         calculate D2E/DX2 analytically  !
 ! A20   A(3,7,23)             104.3725         calculate D2E/DX2 analytically  !
 ! A21   A(8,7,23)             137.6002         calculate D2E/DX2 analytically  !
 ! A22   A(7,8,9)              114.4478         calculate D2E/DX2 analytically  !
 ! A23   A(7,8,11)             126.9256         calculate D2E/DX2 analytically  !
 ! A24   A(9,8,11)             118.3366         calculate D2E/DX2 analytically  !
 ! A25   A(8,9,10)             123.9923         calculate D2E/DX2 analytically  !
 ! A26   A(8,9,14)             119.5583         calculate D2E/DX2 analytically  !
 ! A27   A(10,9,14)            116.2149         calculate D2E/DX2 analytically  !
 ! A28   A(4,10,9)             121.1616         calculate D2E/DX2 analytically  !
 ! A29   A(4,10,29)            120.7453         calculate D2E/DX2 analytically  !
 ! A30   A(9,10,29)            117.9586         calculate D2E/DX2 analytically  !
 ! A31   A(8,11,12)            116.7642         calculate D2E/DX2 analytically  !
 ! A32   A(8,11,15)            127.5775         calculate D2E/DX2 analytically  !
 ! A33   A(12,11,15)           115.6377         calculate D2E/DX2 analytically  !
 ! A34   A(11,12,13)           120.7838         calculate D2E/DX2 analytically  !
 ! A35   A(11,12,18)           121.6449         calculate D2E/DX2 analytically  !
 ! A36   A(13,12,18)           117.4736         calculate D2E/DX2 analytically  !
 ! A37   A(12,13,14)           121.1876         calculate D2E/DX2 analytically  !
 ! A38   A(12,13,31)           117.8995         calculate D2E/DX2 analytically  !
 ! A39   A(14,13,31)           120.8443         calculate D2E/DX2 analytically  !
 ! A40   A(9,14,13)            121.0033         calculate D2E/DX2 analytically  !
 ! A41   A(9,14,30)            118.0999         calculate D2E/DX2 analytically  !
 ! A42   A(13,14,30)           120.7039         calculate D2E/DX2 analytically  !
 ! A43   A(11,15,16)           119.3485         calculate D2E/DX2 analytically  !
 ! A44   A(11,15,36)           129.1383         calculate D2E/DX2 analytically  !
 ! A45   A(16,15,36)           110.8626         calculate D2E/DX2 analytically  !
 ! A46   A(15,16,17)           123.1916         calculate D2E/DX2 analytically  !
 ! A47   A(15,16,33)           117.8158         calculate D2E/DX2 analytically  !
 ! A48   A(17,16,33)           118.9711         calculate D2E/DX2 analytically  !
 ! A49   A(16,17,18)           118.2538         calculate D2E/DX2 analytically  !
 ! A50   A(16,17,34)           120.4108         calculate D2E/DX2 analytically  !
 ! A51   A(18,17,34)           121.2091         calculate D2E/DX2 analytically  !
 ! A52   A(12,18,17)           120.7687         calculate D2E/DX2 analytically  !
 ! A53   A(12,18,32)           118.4223         calculate D2E/DX2 analytically  !
 ! A54   A(17,18,32)           120.7856         calculate D2E/DX2 analytically  !
 ! A55   A(1,19,20)            119.8039         calculate D2E/DX2 analytically  !
 ! A56   A(1,19,26)            120.5405         calculate D2E/DX2 analytically  !
 ! A57   A(20,19,26)           119.6553         calculate D2E/DX2 analytically  !
 ! A58   A(19,20,21)           123.3985         calculate D2E/DX2 analytically  !
 ! A59   A(19,20,25)           118.4546         calculate D2E/DX2 analytically  !
 ! A60   A(21,20,25)           118.1464         calculate D2E/DX2 analytically  !
 ! A61   A(20,21,22)           118.2731         calculate D2E/DX2 analytically  !
 ! A62   A(20,21,24)           119.6598         calculate D2E/DX2 analytically  !
 ! A63   A(22,21,24)           122.0646         calculate D2E/DX2 analytically  !
 ! A64   A(2,22,21)            116.6813         calculate D2E/DX2 analytically  !
 ! A65   A(2,22,23)            105.0231         calculate D2E/DX2 analytically  !
 ! A66   A(21,22,23)           138.2946         calculate D2E/DX2 analytically  !
 ! A67   A(7,23,22)            110.6763         calculate D2E/DX2 analytically  !
 ! A68   A(15,36,37)           131.7484         calculate D2E/DX2 analytically  !
 ! A69   A(15,36,39)           111.4171         calculate D2E/DX2 analytically  !
 ! A70   A(37,36,39)           116.337          calculate D2E/DX2 analytically  !
 ! A71   A(35,37,36)           115.815          calculate D2E/DX2 analytically  !
 ! A72   A(35,37,38)           115.5498         calculate D2E/DX2 analytically  !
 ! A73   A(36,37,38)           127.04           calculate D2E/DX2 analytically  !
 ! D1    D(5,1,2,3)              0.1801         calculate D2E/DX2 analytically  !
 ! D2    D(5,1,2,22)           179.4158         calculate D2E/DX2 analytically  !
 ! D3    D(19,1,2,3)          -179.5473         calculate D2E/DX2 analytically  !
 ! D4    D(19,1,2,22)           -0.3116         calculate D2E/DX2 analytically  !
 ! D5    D(2,1,5,6)             -1.1105         calculate D2E/DX2 analytically  !
 ! D6    D(2,1,5,27)           179.3974         calculate D2E/DX2 analytically  !
 ! D7    D(19,1,5,6)           178.5679         calculate D2E/DX2 analytically  !
 ! D8    D(19,1,5,27)           -0.9243         calculate D2E/DX2 analytically  !
 ! D9    D(2,1,19,20)            0.2367         calculate D2E/DX2 analytically  !
 ! D10   D(2,1,19,26)         -179.9698         calculate D2E/DX2 analytically  !
 ! D11   D(5,1,19,20)         -179.4421         calculate D2E/DX2 analytically  !
 ! D12   D(5,1,19,26)            0.3514         calculate D2E/DX2 analytically  !
 ! D13   D(1,2,3,4)              1.6503         calculate D2E/DX2 analytically  !
 ! D14   D(1,2,3,7)           -179.86           calculate D2E/DX2 analytically  !
 ! D15   D(22,2,3,4)          -177.7007         calculate D2E/DX2 analytically  !
 ! D16   D(22,2,3,7)             0.789          calculate D2E/DX2 analytically  !
 ! D17   D(1,2,22,21)            0.1064         calculate D2E/DX2 analytically  !
 ! D18   D(1,2,22,23)          179.8028         calculate D2E/DX2 analytically  !
 ! D19   D(3,2,22,21)          179.431          calculate D2E/DX2 analytically  !
 ! D20   D(3,2,22,23)           -0.8726         calculate D2E/DX2 analytically  !
 ! D21   D(2,3,4,6)             -2.3947         calculate D2E/DX2 analytically  !
 ! D22   D(2,3,4,10)           174.2519         calculate D2E/DX2 analytically  !
 ! D23   D(7,3,4,6)            179.4022         calculate D2E/DX2 analytically  !
 ! D24   D(7,3,4,10)            -3.9512         calculate D2E/DX2 analytically  !
 ! D25   D(2,3,7,8)           -176.8754         calculate D2E/DX2 analytically  !
 ! D26   D(2,3,7,23)            -0.3469         calculate D2E/DX2 analytically  !
 ! D27   D(4,3,7,8)              1.492          calculate D2E/DX2 analytically  !
 ! D28   D(4,3,7,23)           178.0205         calculate D2E/DX2 analytically  !
 ! D29   D(3,4,6,5)              1.4711         calculate D2E/DX2 analytically  !
 ! D30   D(3,4,6,28)          -179.056          calculate D2E/DX2 analytically  !
 ! D31   D(10,4,6,5)          -174.5364         calculate D2E/DX2 analytically  !
 ! D32   D(10,4,6,28)            4.9365         calculate D2E/DX2 analytically  !
 ! D33   D(3,4,10,9)             0.2836         calculate D2E/DX2 analytically  !
 ! D34   D(3,4,10,29)         -175.4146         calculate D2E/DX2 analytically  !
 ! D35   D(6,4,10,9)           176.3537         calculate D2E/DX2 analytically  !
 ! D36   D(6,4,10,29)            0.6555         calculate D2E/DX2 analytically  !
 ! D37   D(1,5,6,4)              0.2817         calculate D2E/DX2 analytically  !
 ! D38   D(1,5,6,28)          -179.1887         calculate D2E/DX2 analytically  !
 ! D39   D(27,5,6,4)           179.7731         calculate D2E/DX2 analytically  !
 ! D40   D(27,5,6,28)            0.3026         calculate D2E/DX2 analytically  !
 ! D41   D(3,7,8,9)              4.294          calculate D2E/DX2 analytically  !
 ! D42   D(3,7,8,11)           177.9557         calculate D2E/DX2 analytically  !
 ! D43   D(23,7,8,9)          -170.7156         calculate D2E/DX2 analytically  !
 ! D44   D(23,7,8,11)            2.9461         calculate D2E/DX2 analytically  !
 ! D45   D(3,7,23,22)           -0.2093         calculate D2E/DX2 analytically  !
 ! D46   D(8,7,23,22)          175.2386         calculate D2E/DX2 analytically  !
 ! D47   D(7,8,9,10)            -7.9576         calculate D2E/DX2 analytically  !
 ! D48   D(7,8,9,14)           166.2622         calculate D2E/DX2 analytically  !
 ! D49   D(11,8,9,10)          177.7971         calculate D2E/DX2 analytically  !
 ! D50   D(11,8,9,14)           -7.9832         calculate D2E/DX2 analytically  !
 ! D51   D(7,8,11,12)         -156.5847         calculate D2E/DX2 analytically  !
 ! D52   D(7,8,11,15)           25.1507         calculate D2E/DX2 analytically  !
 ! D53   D(9,8,11,12)           16.8589         calculate D2E/DX2 analytically  !
 ! D54   D(9,8,11,15)         -161.4057         calculate D2E/DX2 analytically  !
 ! D55   D(8,9,10,4)             5.7888         calculate D2E/DX2 analytically  !
 ! D56   D(8,9,10,29)         -178.3968         calculate D2E/DX2 analytically  !
 ! D57   D(14,9,10,4)         -168.6074         calculate D2E/DX2 analytically  !
 ! D58   D(14,9,10,29)           7.2071         calculate D2E/DX2 analytically  !
 ! D59   D(8,9,14,13)           -5.2001         calculate D2E/DX2 analytically  !
 ! D60   D(8,9,14,30)          179.813          calculate D2E/DX2 analytically  !
 ! D61   D(10,9,14,13)         169.4593         calculate D2E/DX2 analytically  !
 ! D62   D(10,9,14,30)          -5.5276         calculate D2E/DX2 analytically  !
 ! D63   D(8,11,12,13)         -13.6934         calculate D2E/DX2 analytically  !
 ! D64   D(8,11,12,18)         169.9913         calculate D2E/DX2 analytically  !
 ! D65   D(15,11,12,13)        164.781          calculate D2E/DX2 analytically  !
 ! D66   D(15,11,12,18)        -11.5343         calculate D2E/DX2 analytically  !
 ! D67   D(8,11,15,16)        -171.6692         calculate D2E/DX2 analytically  !
 ! D68   D(8,11,15,36)          18.4837         calculate D2E/DX2 analytically  !
 ! D69   D(12,11,15,16)         10.0495         calculate D2E/DX2 analytically  !
 ! D70   D(12,11,15,36)       -159.7975         calculate D2E/DX2 analytically  !
 ! D71   D(11,12,13,14)          0.8359         calculate D2E/DX2 analytically  !
 ! D72   D(11,12,13,31)       -176.1789         calculate D2E/DX2 analytically  !
 ! D73   D(18,12,13,14)        177.3005         calculate D2E/DX2 analytically  !
 ! D74   D(18,12,13,31)          0.2857         calculate D2E/DX2 analytically  !
 ! D75   D(11,12,18,17)          4.3883         calculate D2E/DX2 analytically  !
 ! D76   D(11,12,18,32)       -177.3578         calculate D2E/DX2 analytically  !
 ! D77   D(13,12,18,17)       -172.0439         calculate D2E/DX2 analytically  !
 ! D78   D(13,12,18,32)          6.21           calculate D2E/DX2 analytically  !
 ! D79   D(12,13,14,9)           8.956          calculate D2E/DX2 analytically  !
 ! D80   D(12,13,14,30)       -176.1875         calculate D2E/DX2 analytically  !
 ! D81   D(31,13,14,9)        -174.1169         calculate D2E/DX2 analytically  !
 ! D82   D(31,13,14,30)          0.7396         calculate D2E/DX2 analytically  !
 ! D83   D(11,15,16,17)         -1.6968         calculate D2E/DX2 analytically  !
 ! D84   D(11,15,16,33)       -179.9876         calculate D2E/DX2 analytically  !
 ! D85   D(36,15,16,17)        169.8897         calculate D2E/DX2 analytically  !
 ! D86   D(36,15,16,33)         -8.4012         calculate D2E/DX2 analytically  !
 ! D87   D(11,15,36,37)        -65.6413         calculate D2E/DX2 analytically  !
 ! D88   D(11,15,36,39)        122.9338         calculate D2E/DX2 analytically  !
 ! D89   D(16,15,36,37)        123.823          calculate D2E/DX2 analytically  !
 ! D90   D(16,15,36,39)        -47.6019         calculate D2E/DX2 analytically  !
 ! D91   D(15,16,17,18)         -5.9281         calculate D2E/DX2 analytically  !
 ! D92   D(15,16,17,34)        178.1099         calculate D2E/DX2 analytically  !
 ! D93   D(33,16,17,18)        172.344          calculate D2E/DX2 analytically  !
 ! D94   D(33,16,17,34)         -3.618          calculate D2E/DX2 analytically  !
 ! D95   D(16,17,18,12)          4.5322         calculate D2E/DX2 analytically  !
 ! D96   D(16,17,18,32)       -173.6803         calculate D2E/DX2 analytically  !
 ! D97   D(34,17,18,12)       -179.5395         calculate D2E/DX2 analytically  !
 ! D98   D(34,17,18,32)          2.248          calculate D2E/DX2 analytically  !
 ! D99   D(1,19,20,21)           0.0207         calculate D2E/DX2 analytically  !
 ! D100  D(1,19,20,25)         179.756          calculate D2E/DX2 analytically  !
 ! D101  D(26,19,20,21)       -179.7747         calculate D2E/DX2 analytically  !
 ! D102  D(26,19,20,25)         -0.0394         calculate D2E/DX2 analytically  !
 ! D103  D(19,20,21,22)         -0.2363         calculate D2E/DX2 analytically  !
 ! D104  D(19,20,21,24)        179.2038         calculate D2E/DX2 analytically  !
 ! D105  D(25,20,21,22)       -179.9724         calculate D2E/DX2 analytically  !
 ! D106  D(25,20,21,24)         -0.5323         calculate D2E/DX2 analytically  !
 ! D107  D(20,21,22,2)           0.1716         calculate D2E/DX2 analytically  !
 ! D108  D(20,21,22,23)       -179.3876         calculate D2E/DX2 analytically  !
 ! D109  D(24,21,22,2)        -179.2542         calculate D2E/DX2 analytically  !
 ! D110  D(24,21,22,23)          1.1865         calculate D2E/DX2 analytically  !
 ! D111  D(2,22,23,7)            0.6658         calculate D2E/DX2 analytically  !
 ! D112  D(21,22,23,7)        -179.7419         calculate D2E/DX2 analytically  !
 ! D113  D(15,36,37,35)         17.6164         calculate D2E/DX2 analytically  !
 ! D114  D(15,36,37,38)       -177.526          calculate D2E/DX2 analytically  !
 ! D115  D(39,36,37,35)       -171.2939         calculate D2E/DX2 analytically  !
 ! D116  D(39,36,37,38)         -6.4362         calculate D2E/DX2 analytically  !
 --------------------------------------------------------------------------------
 Trust Radius=3.00D-01 FncErr=1.00D-07 GrdErr=1.00D-06
 Number of steps in this run=    234 maximum allowed number of steps=    234.
 Search for a saddle point of order  1.
 GradGradGradGradGradGradGradGradGradGradGradGradGradGradGradGradGradGrad

                          Input orientation:                          
 ---------------------------------------------------------------------
 Center     Atomic      Atomic             Coordinates (Angstroms)
 Number     Number       Type             X           Y           Z
 ---------------------------------------------------------------------
      1          6           0        3.879310    0.315180   -0.066040
      2          6           0        2.576410   -0.163230   -0.094280
      3          6           0        1.449250    0.645050    0.101710
      4          6           0        1.562420    2.014610    0.309000
      5          6           0        4.008770    1.732590    0.188010
      6          6           0        2.909710    2.537890    0.362850
      7          6           0        0.257870   -0.135130    0.017400
      8          6           0       -0.992480    0.542410    0.125880
      9          6           0       -0.886580    1.993530    0.215030
     10          6           0        0.333150    2.688110    0.360100
     11          6           0       -2.333450   -0.055200    0.025580
     12          6           0       -3.408320    0.824370   -0.349830
     13          6           0       -3.234250    2.247550   -0.326410
     14          6           0       -2.057840    2.801310    0.030540
     15          6           0       -2.708900   -1.418210    0.292970
     16          6           0       -4.000490   -1.847850   -0.024440
     17          6           0       -4.972710   -1.008080   -0.563410
     18          6           0       -4.684770    0.331890   -0.677880
     19          6           0        4.882950   -0.662760   -0.297470
     20          6           0        4.518420   -1.986760   -0.534250
     21          6           0        3.175300   -2.432330   -0.560160
     22          6           0        2.166280   -1.499630   -0.332430
     23          6           0        0.722960   -1.469010   -0.250430
     24          1           0        2.959840   -3.475440   -0.763210
     25          1           0        5.302400   -2.714620   -0.712280
     26          1           0        5.932150   -0.387180   -0.294850
     27          1           0        5.000140    2.171800    0.233440
     28          1           0        3.051850    3.599290    0.538290
     29          1           0        0.296070    3.769410    0.443330
     30          1           0       -1.952630    3.878050    0.104940
     31          1           0       -4.093360    2.867690   -0.557220
     32          1           0       -5.444420    1.037720   -0.995510
     33          1           0       -4.256950   -2.880010    0.187810
     34          1           0       -5.951190   -1.396210   -0.821150
     35          1           0       -0.034200   -2.503340    0.007700
     36          6           0       -1.976240   -2.463610    1.071600
     37          6           0       -0.827060   -3.075390    0.856260
     38          1           0       -0.380380   -3.857180    1.459830
     39          1           0       -2.587510   -2.853720    1.889560
 ---------------------------------------------------------------------
                    Distance matrix (angstroms):
                    1          2          3          4          5
     1  C    0.000000
     2  C    1.388244   0.000000
     3  C    2.458078   1.400792   0.000000
     4  C    2.897705   2.435939   1.389774   0.000000
     5  C    1.445805   2.392797   2.782325   2.465523   0.000000
     6  C    2.462623   2.759729   2.404991   1.446344   1.373685
     7  C    3.650283   2.321398   1.426596   2.531455   4.193654
     8  C    4.880861   3.644636   2.444006   2.954390   5.141293
     9  C    5.060590   4.091404   2.699508   2.450893   4.902374
    10  C    4.288081   3.656339   2.342336   1.402611   3.801686
    11  C    6.224465   4.912511   3.847722   4.420661   6.591383
    12  C    7.310907   6.071050   4.881806   5.153541   7.491820
    13  C    7.375946   6.295198   4.968548   4.844177   7.279502
    14  C    6.437385   5.502758   4.117548   3.715201   6.162038
    15  C    6.821880   5.446048   4.645840   5.479843   7.420623
    16  C    8.171394   6.789583   5.994175   6.780542   8.775701
    17  C    8.964187   7.610721   6.664593   7.252977   9.420344
    18  C    8.585924   7.301402   6.191287   6.544682   8.848128
    19  C    1.420289   2.368743   3.695945   4.308368   2.595685
    20  C    2.434463   2.700044   4.092759   5.045787   3.822953
    21  C    2.878992   2.392599   3.589929   4.809584   4.312886
    22  C    2.509775   1.418057   2.302664   3.622977   3.756710
    23  C    3.630410   2.272602   2.262907   3.626743   4.608581
    24  H    3.962357   3.400768   4.473076   5.765680   5.397096
    25  H    3.409179   3.784513   5.176556   6.115233   4.718228
    26  H    2.181700   3.369180   4.617267   5.022725   2.902752
    27  H    2.189289   3.381454   3.867446   3.442141   1.085257
    28  H    3.440245   3.844834   3.389168   2.186821   2.126725
    29  H    5.003076   4.577623   3.347858   2.168181   4.242401
    30  H    6.836286   6.073206   4.693089   3.983670   6.336260
    31  H    8.385704   7.340751   6.007898   5.784975   8.215128
    32  H    9.397761   8.160160   6.991478   7.193877   9.552296
    33  H    8.744850   7.359027   6.707770   7.605068   9.465633
    34  H   10.006886   8.646880   7.732071   8.328581  10.488498
    35  H    4.823386   3.507392   3.481641   4.801234   5.858432
    36  C    6.580529   5.232365   4.726355   5.758309   7.362688
    37  C    5.873374   4.579062   4.426354   5.649532   6.851896
    38  H    6.154821   4.980274   5.045999   6.291009   7.219951
    39  H    7.462309   6.151457   5.633226   6.589440   8.212212
                    6          7          8          9         10
     6  C    0.000000
     7  C    3.781088   0.000000
     8  C    4.389212   1.426255   0.000000
     9  C    3.837968   2.424875   1.457708   0.000000
    10  C    2.580937   2.844959   2.533018   1.411109   0.000000
    11  C    5.859061   2.592565   1.471529   2.515277   3.840366
    12  C    6.584950   3.807420   2.478323   2.836402   4.239826
    13  C    6.189315   4.241494   2.852648   2.422651   3.659472
    14  C    4.985617   3.739701   2.499342   1.434711   2.416249
    15  C    6.872000   3.244065   2.611139   3.868707   5.110816
    16  C    8.193630   4.590075   3.845005   4.950756   6.285160
    17  C    8.692779   5.334637   4.326820   5.129531   6.531986
    18  C    7.976571   5.013104   3.784621   4.240823   5.639920
    19  C    3.817572   4.665716   6.012681   6.372284   5.688709
    20  C    4.885202   4.678155   6.099385   6.754121   6.338040
    21  C    5.062171   3.757938   5.166248   6.057064   5.928204
    22  C    4.163853   2.371976   3.789161   4.671385   4.623541
    23  C    4.605783   1.437803   2.670235   3.846616   4.219757
    24  H    6.118060   4.366654   5.705649   6.757332   6.793429
    25  H    5.871093   5.712572   7.136965   7.831351   7.418419
    26  H    4.257199   5.688452   6.999404   7.240362   6.421462
    27  H    2.126186   5.278042   6.211117   5.889447   4.697171
    28  H    1.085151   4.692925   5.086374   4.265465   2.872861
    29  H    2.890369   3.927889   3.489221   2.145817   1.085132
    30  H    5.050237   4.582531   3.471141   2.167948   2.589566
    31  H    7.070947   5.317924   3.935608   3.412325   4.524126
    32  H    8.595763   5.909118   4.617642   4.811745   6.159690
    33  H    8.985839   5.286493   4.730070   5.925498   7.218217
    34  H    9.767013   6.391081   5.407765   6.181770   7.587486
    35  H    5.848653   2.386172   3.195131   4.581635   5.216348
    36  C    7.027790   3.394761   3.301261   4.667673   5.690319
    37  C    6.761347   3.244363   3.694495   5.109664   5.900016
    38  H    7.274956   4.042477   4.637939   6.003047   6.675279
    39  H    7.849824   4.357970   4.145888   5.403059   6.448363
                   11         12         13         14         15
    11  C    0.000000
    12  C    1.438722   0.000000
    13  C    2.497598   1.433977   0.000000
    14  C    2.869780   2.424205   1.348334   0.000000
    15  C    1.438839   2.435476   3.754653   4.277511   0.000000
    16  C    2.448493   2.756321   4.177393   5.039008   1.397693
    17  C    2.867156   2.418844   3.698316   4.833290   2.454879
    18  C    2.484633   1.406939   2.428434   3.674324   2.812377
    19  C    7.249132   8.423744   8.623206   7.764144   7.652157
    20  C    7.140900   8.412471   8.836089   8.154250   7.296691
    21  C    6.028280   7.348087   7.939663   7.424666   6.031590
    22  C    4.739422   6.039656   6.573212   6.039290   4.915805
    23  C    3.378858   4.726198   5.429374   5.103668   3.474986
    24  H    6.351311   7.694980   8.444534   8.074945   6.122281
    25  H    8.119308   9.409169   9.881620   9.227697   8.177538
    26  H    8.278468   9.418878   9.537593   8.608849   8.722173
    27  H    7.667091   8.535688   8.253748   7.088902   8.504176
    28  H    6.528371   7.086800   6.487678   5.196491   7.643411
    29  H    4.660100   4.798424   3.920678   2.578470   5.996987
    30  H    3.952439   3.413328   2.118288   1.084423   5.353286
    31  H    3.461246   2.165051   1.084397   2.119719   4.583502
    32  H    3.451845   2.146654   2.606959   3.953726   3.895490
    33  H    3.421363   3.838185   5.253780   6.094113   2.131754
    34  H    3.950102   3.408710   4.572036   5.788154   3.428439
    35  H    3.358610   4.752491   5.737848   5.677583   2.900501
    36  C    2.649943   3.857736   5.072677   5.367481   1.495298
    37  C    3.475743   4.829667   5.960450   6.060712   2.569993
    38  H    4.508504   5.861757   6.971582   7.013717   3.568213
    39  H    3.372044   4.383713   5.599263   5.976276   2.150471
                   16         17         18         19         20
    16  C    0.000000
    17  C    1.393167   0.000000
    18  C    2.376234   1.375330   0.000000
    19  C    8.966297   9.865293   9.626801   0.000000
    20  C    8.535281   9.541500   9.491864   1.393529   0.000000
    21  C    7.219458   8.271552   8.332795   2.473146   1.415336
    22  C    6.184268   7.159619   7.100048   2.842863   2.410516
    23  C    4.744004   5.722855   5.715724   4.237661   3.841111
    24  H    7.186169   8.309822   8.540674   3.438958   2.167432
    25  H    9.368467  10.416925  10.441550   2.134979   1.084481
    26  H   10.043108  10.925823  10.648134   1.084791   2.148162
    27  H    9.860803  10.497826   9.900164   2.886231   4.256175
    28  H    8.928802   9.318539   8.485886   4.713437   5.874106
    29  H    7.087513   7.183173   6.154870   6.421245   7.205373
    30  H    6.082467   5.782892   4.544518   8.216206   8.756657
    31  H    4.746451   3.974278   2.606647   9.649129   9.885796
    32  H    3.369633   2.143483   1.084506  10.489684  10.422016
    33  H    1.084517   2.140272   3.353916   9.417508   8.850219
    34  H    2.154984   1.083743   2.147248  10.871558  10.490176
    35  H    4.020218   5.191421   5.489658   5.259204   4.613774
    36  C    2.382866   3.710884   4.267509   7.222597   6.707216
    37  C    3.514704   4.845167   5.370761   6.305243   5.629635
    38  H    4.398370   5.770647   6.375413   6.402739   5.610086
    39  H    2.582960   3.887496   4.597647   8.086481   7.557825
                   21         22         23         24         25
    21  C    0.000000
    22  C    1.392807   0.000000
    23  C    2.652902   1.445972   0.000000
    24  H    1.084311   2.172357   3.048333   0.000000
    25  H    2.151135   3.384632   4.768241   2.463540   0.000000
    26  H    3.442855   3.926924   5.320525   4.311767   2.447000
    27  H    5.015761   4.672298   5.637721   6.086662   4.986266
    28  H    6.132069   5.247987   5.633247   7.194037   6.818677
    29  H    6.910755   5.644668   5.301375   7.812763   8.272933
    30  H    8.158365   6.787942   5.989668   8.885936   9.837002
    31  H    8.995757   7.635909   6.488299   9.488169  10.930075
    32  H    9.302169   8.049880   6.698912   9.542230  11.386589
    33  H    7.483196   6.590446   5.194466   7.303495   9.603056
    34  H    9.188824   8.132826   6.698903   9.150574  11.331079
    35  H    3.260122   2.442383   1.307578   3.240919   5.389092
    36  C    5.403886   4.478954   3.165861   5.362389   7.498255
    37  C    4.294026   3.585539   2.491542   4.138035   6.337251
    38  H    4.330522   3.905857   3.137787   4.030472   6.190113
    39  H    6.276040   5.419347   4.178061   6.180357   8.309007
                   26         27         28         29         30
    26  H    0.000000
    27  H    2.774187   0.000000
    28  H    4.988205   2.434439   0.000000
    29  H    7.041843   4.972392   2.762658   0.000000
    30  H    8.973393   7.160224   5.030936   2.276612   0.000000
    31  H   10.543902   9.154297   7.265632   4.591437   2.458050
    32  H   11.486845  10.577584   9.005598   6.518099   4.633688
    33  H   10.500710  10.545927   9.773573   8.062882   7.140598
    34  H   11.937709  11.566092  10.385462   8.204316   6.683109
    35  H    6.337744   6.874043   6.859105   6.296526   6.664230
    36  C    8.289836   8.417804   7.894610   6.663982   6.414954
    37  C    7.364676   7.866204   7.726474   6.948613   7.083906
    38  H    7.414030   8.173287   8.260047   7.723712   8.008838
    39  H    9.134554   9.250460   8.675808   7.366985   6.993187
                   31         32         33         34         35
    31  H    0.000000
    32  H    2.316517   0.000000
    33  H    5.798093   4.261331   0.000000
    34  H    4.658544   2.492234   2.467815   0.000000
    35  H    6.756025   6.543395   4.243340   6.076471   0.000000
    36  C    5.963054   5.344205   2.481151   4.530129   2.214719
    37  C    6.927254   6.454978   3.499878   5.647128   1.294574
    38  H    7.942203   7.458769   4.195318   6.503320   2.015293
    39  H    6.402253   5.623955   2.384046   4.559235   3.191168
                   36         37         38         39
    36  C    0.000000
    37  C    1.319568   0.000000
    38  H    2.153957   1.083981   0.000000
    39  H    1.093113   2.053298   2.462321   0.000000
 Stoichiometry    C25H14(3)
 Framework group  C1[X(C25H14)]
 Deg. of freedom   111
 Full point group                 C1      NOp   1
 Largest Abelian subgroup         C1      NOp   1
 Largest concise Abelian subgroup C1      NOp   1
                         Standard orientation:                         
 ---------------------------------------------------------------------
 Center     Atomic      Atomic             Coordinates (Angstroms)
 Number     Number       Type             X           Y           Z
 ---------------------------------------------------------------------
      1          6           0        3.879310    0.315180   -0.066040
      2          6           0        2.576410   -0.163230   -0.094280
      3          6           0        1.449250    0.645050    0.101710
      4          6           0        1.562420    2.014610    0.309000
      5          6           0        4.008770    1.732590    0.188010
      6          6           0        2.909710    2.537890    0.362850
      7          6           0        0.257870   -0.135130    0.017400
      8          6           0       -0.992480    0.542410    0.125880
      9          6           0       -0.886580    1.993530    0.215030
     10          6           0        0.333150    2.688110    0.360100
     11          6           0       -2.333450   -0.055200    0.025580
     12          6           0       -3.408320    0.824370   -0.349830
     13          6           0       -3.234250    2.247550   -0.326410
     14          6           0       -2.057840    2.801310    0.030540
     15          6           0       -2.708900   -1.418210    0.292970
     16          6           0       -4.000490   -1.847850   -0.024440
     17          6           0       -4.972710   -1.008080   -0.563410
     18          6           0       -4.684770    0.331890   -0.677880
     19          6           0        4.882950   -0.662760   -0.297470
     20          6           0        4.518420   -1.986760   -0.534250
     21          6           0        3.175300   -2.432330   -0.560160
     22          6           0        2.166280   -1.499630   -0.332430
     23          6           0        0.722960   -1.469010   -0.250430
     24          1           0        2.959840   -3.475440   -0.763210
     25          1           0        5.302400   -2.714620   -0.712280
     26          1           0        5.932150   -0.387180   -0.294850
     27          1           0        5.000140    2.171800    0.233440
     28          1           0        3.051849    3.599290    0.538290
     29          1           0        0.296069    3.769410    0.443330
     30          1           0       -1.952631    3.878050    0.104940
     31          1           0       -4.093360    2.867690   -0.557220
     32          1           0       -5.444420    1.037720   -0.995510
     33          1           0       -4.256950   -2.880010    0.187810
     34          1           0       -5.951190   -1.396210   -0.821150
     35          1           0       -0.034200   -2.503340    0.007700
     36          6           0       -1.976240   -2.463610    1.071600
     37          6           0       -0.827060   -3.075390    0.856260
     38          1           0       -0.380380   -3.857180    1.459830
     39          1           0       -2.587510   -2.853720    1.889560
 ---------------------------------------------------------------------
 Rotational constants (GHZ):      0.4642316      0.1740511      0.1305984
 Standard basis: 6-311+G(d,p) (5D, 7F)
 There are   659 symmetry adapted cartesian basis functions of A   symmetry.
 There are   634 symmetry adapted basis functions of A   symmetry.
   634 basis functions,  1012 primitive gaussians,   659 cartesian basis functions
    83 alpha electrons       81 beta electrons
       nuclear repulsion energy      1914.6882727764 Hartrees.
 NAtoms=   39 NActive=   39 NUniq=   39 SFac= 1.00D+00 NAtFMM=   60 NAOKFM=F Big=F
 Integral buffers will be    131072 words long.
 Raffenetti 2 integral format.
 Two-electron integral symmetry is turned on.
 One-electron integrals computed using PRISM.
 NBasis=   634 RedAO= T EigKep=  1.25D-06  NBF=   634
 NBsUse=   619 1.00D-06 EigRej=  8.86D-07 NBFU=   619
 ExpMin= 4.38D-02 ExpMax= 4.56D+03 ExpMxC= 6.82D+02 IAcc=2 IRadAn=         4 AccDes= 0.00D+00
 Harris functional with IExCor=  402 and IRadAn=       4 diagonalized for initial guess.
 HarFok:  IExCor=  402 AccDes= 0.00D+00 IRadAn=         4 IDoV= 1 UseB2=F ITyADJ=14
 ICtDFT=  3500011 ScaDFX=  1.000000  1.000000  1.000000  1.000000
 FoFCou: FMM=F IPFlag=           0 FMFlag=      100000 FMFlg1=           0
         NFxFlg=           0 DoJE=T BraDBF=F KetDBF=T FulRan=T
         wScrn=  0.000000 ICntrl=     500 IOpCl=  0 I1Cent=   200000004 NGrid=           0
         NMat0=    1 NMatS0=      1 NMatT0=    0 NMatD0=    1 NMtDS0=    0 NMtDT0=    0
 Petite list used in FoFCou.
 Initial guess <Sx>= 0.0000 <Sy>= 0.0000 <Sz>= 1.0000 <S**2>= 2.0000 S= 1.0000
 Requested convergence on RMS density matrix=1.00D-08 within 128 cycles.
 Requested convergence on MAX density matrix=1.00D-06.
 Requested convergence on             energy=1.00D-06.
 No special actions if energy rises.
 Restarting incremental Fock formation.
 SCF Done:  E(UB3LYP) =  -961.174211267     A.U. after   25 cycles
            NFock= 25  Conv=0.66D-08     -V/T= 2.0044
 <Sx>= 0.0000 <Sy>= 0.0000 <Sz>= 1.0000 <S**2>= 2.0397 S= 1.0132
 <L.S>= 0.000000000000E+00
 Annihilation of the first spin contaminant:
 S**2 before annihilation     2.0397,   after     2.0009
 DoSCS=F DFT=T ScalE2(SS,OS)=  1.000000  1.000000
 Range of M.O.s used for correlation:     1   619
 NBasis=   634 NAE=    83 NBE=    81 NFC=     0 NFV=     0
 NROrb=    619 NOA=    83 NOB=    81 NVA=   536 NVB=   538

 **** Warning!!: The largest alpha MO coefficient is  0.13205398D+03


 **** Warning!!: The largest beta MO coefficient is  0.13075724D+03


 **** Warning!!: The smallest beta delta epsilon is  0.86911421D-01

 Symmetrizing basis deriv contribution to polar:
 IMax=3 JMax=2 DiffMx= 0.00D+00
 G2DrvN: will do    40 centers at a time, making    1 passes.
 Calling FoFCou, ICntrl=  3107 FMM=F I1Cent=   0 AccDes= 0.00D+00.
 End of G2Drv F.D. properties file   721 does not exist.
 End of G2Drv F.D. properties file   722 does not exist.
 End of G2Drv F.D. properties file   788 does not exist.
          IDoAtm=111111111111111111111111111111111111111
          Differentiating once with respect to nuclear coordinates.
          There are   120 degrees of freedom in the 1st order CPHF.  IDoFFX=6 NUNeed=     0.
    116 vectors produced by pass  0 Test12= 8.81D-14 1.00D-09 XBig12= 5.62D-01 2.18D-01.
 AX will form   116 AO Fock derivatives at one time.
    114 vectors produced by pass  1 Test12= 8.81D-14 1.00D-09 XBig12= 1.12D-01 4.91D-02.
    114 vectors produced by pass  2 Test12= 8.81D-14 1.00D-09 XBig12= 2.58D-03 9.73D-03.
    114 vectors produced by pass  3 Test12= 8.81D-14 1.00D-09 XBig12= 4.61D-05 8.24D-04.
    114 vectors produced by pass  4 Test12= 8.81D-14 1.00D-09 XBig12= 5.21D-07 7.56D-05.
    114 vectors produced by pass  5 Test12= 8.81D-14 1.00D-09 XBig12= 4.16D-09 5.16D-06.
    114 vectors produced by pass  6 Test12= 8.81D-14 1.00D-09 XBig12= 7.57D-11 8.81D-07.
    114 vectors produced by pass  7 Test12= 8.81D-14 1.00D-09 XBig12= 1.99D-11 2.58D-07.
    114 vectors produced by pass  8 Test12= 8.81D-14 1.00D-09 XBig12= 2.72D-12 8.28D-08.
     82 vectors produced by pass  9 Test12= 8.81D-14 1.00D-09 XBig12= 3.51D-14 1.15D-08.
     38 vectors produced by pass 10 Test12= 8.81D-14 1.00D-09 XBig12= 7.02D-16 1.50D-09.
     38 vectors produced by pass 11 Test12= 8.81D-14 1.00D-09 XBig12= 1.44D-13 2.10D-08.
     38 vectors produced by pass 12 Test12= 8.81D-14 1.00D-09 XBig12= 5.19D-13 3.33D-08.
     38 vectors produced by pass 13 Test12= 8.81D-14 1.00D-09 XBig12= 3.11D-13 2.45D-08.
     38 vectors produced by pass 14 Test12= 8.81D-14 1.00D-09 XBig12= 2.98D-13 2.33D-08.
     38 vectors produced by pass 15 Test12= 8.81D-14 1.00D-09 XBig12= 1.15D-13 1.55D-08.
     38 vectors produced by pass 16 Test12= 8.81D-14 1.00D-09 XBig12= 1.29D-13 1.76D-08.
     38 vectors produced by pass 17 Test12= 8.81D-14 1.00D-09 XBig12= 1.55D-13 1.90D-08.
     38 vectors produced by pass 18 Test12= 8.81D-14 1.00D-09 XBig12= 7.80D-14 1.58D-08.
     38 vectors produced by pass 19 Test12= 8.81D-14 1.00D-09 XBig12= 1.79D-13 1.80D-08.
     38 vectors produced by pass 20 Test12= 8.81D-14 1.00D-09 XBig12= 1.49D-13 1.59D-08.
     38 vectors produced by pass 21 Test12= 8.81D-14 1.00D-09 XBig12= 2.12D-13 1.69D-08.
     38 vectors produced by pass 22 Test12= 8.81D-14 1.00D-09 XBig12= 1.89D-13 1.71D-08.
     37 vectors produced by pass 23 Test12= 8.81D-14 1.00D-09 XBig12= 8.53D-14 1.11D-08.
     37 vectors produced by pass 24 Test12= 8.81D-14 1.00D-09 XBig12= 1.11D-13 1.25D-08.
     37 vectors produced by pass 25 Test12= 8.81D-14 1.00D-09 XBig12= 8.37D-14 1.21D-08.
     36 vectors produced by pass 26 Test12= 8.81D-14 1.00D-09 XBig12= 5.96D-14 9.61D-09.
     36 vectors produced by pass 27 Test12= 8.81D-14 1.00D-09 XBig12= 5.91D-14 9.60D-09.
     35 vectors produced by pass 28 Test12= 8.81D-14 1.00D-09 XBig12= 1.06D-13 1.22D-08.
     32 vectors produced by pass 29 Test12= 8.81D-14 1.00D-09 XBig12= 6.08D-14 8.83D-09.
     31 vectors produced by pass 30 Test12= 8.81D-14 1.00D-09 XBig12= 6.57D-14 1.09D-08.
     31 vectors produced by pass 31 Test12= 8.81D-14 1.00D-09 XBig12= 8.24D-14 1.12D-08.
     26 vectors produced by pass 32 Test12= 8.81D-14 1.00D-09 XBig12= 6.30D-14 8.99D-09.
     26 vectors produced by pass 33 Test12= 8.81D-14 1.00D-09 XBig12= 1.12D-13 1.19D-08.
     20 vectors produced by pass 34 Test12= 8.81D-14 1.00D-09 XBig12= 3.53D-14 6.46D-09.
     20 vectors produced by pass 35 Test12= 8.81D-14 1.00D-09 XBig12= 8.01D-14 9.88D-09.
     20 vectors produced by pass 36 Test12= 8.81D-14 1.00D-09 XBig12= 4.65D-14 8.19D-09.
     20 vectors produced by pass 37 Test12= 8.81D-14 1.00D-09 XBig12= 4.57D-14 7.37D-09.
     20 vectors produced by pass 38 Test12= 8.81D-14 1.00D-09 XBig12= 5.96D-14 7.67D-09.
     20 vectors produced by pass 39 Test12= 8.81D-14 1.00D-09 XBig12= 4.99D-14 7.64D-09.
     20 vectors produced by pass 40 Test12= 8.81D-14 1.00D-09 XBig12= 6.61D-14 9.16D-09.
     20 vectors produced by pass 41 Test12= 8.81D-14 1.00D-09 XBig12= 6.01D-14 9.83D-09.
     20 vectors produced by pass 42 Test12= 8.81D-14 1.00D-09 XBig12= 4.46D-14 7.61D-09.
     19 vectors produced by pass 43 Test12= 8.81D-14 1.00D-09 XBig12= 3.08D-14 5.95D-09.
     19 vectors produced by pass 44 Test12= 8.81D-14 1.00D-09 XBig12= 4.52D-14 7.50D-09.
     19 vectors produced by pass 45 Test12= 8.81D-14 1.00D-09 XBig12= 4.68D-14 7.88D-09.
     19 vectors produced by pass 46 Test12= 8.81D-14 1.00D-09 XBig12= 3.86D-14 6.38D-09.
     19 vectors produced by pass 47 Test12= 8.81D-14 1.00D-09 XBig12= 4.25D-14 8.10D-09.
     17 vectors produced by pass 48 Test12= 8.81D-14 1.00D-09 XBig12= 2.13D-14 5.65D-09.
     17 vectors produced by pass 49 Test12= 8.81D-14 1.00D-09 XBig12= 3.59D-14 7.75D-09.
     17 vectors produced by pass 50 Test12= 8.81D-14 1.00D-09 XBig12= 3.81D-14 6.42D-09.
     17 vectors produced by pass 51 Test12= 8.81D-14 1.00D-09 XBig12= 1.85D-14 4.71D-09.
     17 vectors produced by pass 52 Test12= 8.81D-14 1.00D-09 XBig12= 3.54D-14 6.17D-09.
     17 vectors produced by pass 53 Test12= 8.81D-14 1.00D-09 XBig12= 2.61D-14 5.64D-09.
     17 vectors produced by pass 54 Test12= 8.81D-14 1.00D-09 XBig12= 2.29D-14 6.05D-09.
     17 vectors produced by pass 55 Test12= 8.81D-14 1.00D-09 XBig12= 4.43D-14 7.79D-09.
     17 vectors produced by pass 56 Test12= 8.81D-14 1.00D-09 XBig12= 3.56D-14 6.52D-09.
     17 vectors produced by pass 57 Test12= 8.81D-14 1.00D-09 XBig12= 3.98D-14 7.29D-09.
     17 vectors produced by pass 58 Test12= 8.81D-14 1.00D-09 XBig12= 2.60D-14 5.61D-09.
     17 vectors produced by pass 59 Test12= 8.81D-14 1.00D-09 XBig12= 2.63D-14 5.38D-09.
     17 vectors produced by pass 60 Test12= 8.81D-14 1.00D-09 XBig12= 2.77D-14 5.94D-09.
     16 vectors produced by pass 61 Test12= 8.81D-14 1.00D-09 XBig12= 2.34D-14 5.51D-09.
     16 vectors produced by pass 62 Test12= 8.81D-14 1.00D-09 XBig12= 2.49D-14 5.13D-09.
     13 vectors produced by pass 63 Test12= 8.81D-14 1.00D-09 XBig12= 9.83D-15 3.26D-09.
     13 vectors produced by pass 64 Test12= 8.81D-14 1.00D-09 XBig12= 2.69D-14 5.30D-09.
     13 vectors produced by pass 65 Test12= 8.81D-14 1.00D-09 XBig12= 2.39D-14 5.09D-09.
     13 vectors produced by pass 66 Test12= 8.81D-14 1.00D-09 XBig12= 2.48D-14 5.17D-09.
     13 vectors produced by pass 67 Test12= 8.81D-14 1.00D-09 XBig12= 3.24D-14 6.08D-09.
      9 vectors produced by pass 68 Test12= 8.81D-14 1.00D-09 XBig12= 1.07D-14 3.59D-09.
      9 vectors produced by pass 69 Test12= 8.81D-14 1.00D-09 XBig12= 2.26D-14 5.44D-09.
      9 vectors produced by pass 70 Test12= 8.81D-14 1.00D-09 XBig12= 1.89D-14 4.47D-09.
      9 vectors produced by pass 71 Test12= 8.81D-14 1.00D-09 XBig12= 3.37D-14 5.96D-09.
      9 vectors produced by pass 72 Test12= 8.81D-14 1.00D-09 XBig12= 1.85D-14 4.37D-09.
      9 vectors produced by pass 73 Test12= 8.81D-14 1.00D-09 XBig12= 1.73D-14 5.36D-09.
      9 vectors produced by pass 74 Test12= 8.81D-14 1.00D-09 XBig12= 1.14D-14 3.83D-09.
      9 vectors produced by pass 75 Test12= 8.81D-14 1.00D-09 XBig12= 1.18D-14 4.11D-09.
      9 vectors produced by pass 76 Test12= 8.81D-14 1.00D-09 XBig12= 3.10D-14 5.97D-09.
      8 vectors produced by pass 77 Test12= 8.81D-14 1.00D-09 XBig12= 1.11D-14 4.24D-09.
      8 vectors produced by pass 78 Test12= 8.81D-14 1.00D-09 XBig12= 3.04D-14 7.24D-09.
      8 vectors produced by pass 79 Test12= 8.81D-14 1.00D-09 XBig12= 1.41D-14 3.50D-09.
      8 vectors produced by pass 80 Test12= 8.81D-14 1.00D-09 XBig12= 1.86D-14 4.75D-09.
      8 vectors produced by pass 81 Test12= 8.81D-14 1.00D-09 XBig12= 1.55D-14 3.95D-09.
      8 vectors produced by pass 82 Test12= 8.81D-14 1.00D-09 XBig12= 2.21D-14 5.07D-09.
      8 vectors produced by pass 83 Test12= 8.81D-14 1.00D-09 XBig12= 3.40D-14 6.71D-09.
      8 vectors produced by pass 84 Test12= 8.81D-14 1.00D-09 XBig12= 7.29D-15 3.18D-09.
      8 vectors produced by pass 85 Test12= 8.81D-14 1.00D-09 XBig12= 1.87D-14 4.84D-09.
      8 vectors produced by pass 86 Test12= 8.81D-14 1.00D-09 XBig12= 1.65D-14 3.92D-09.
      8 vectors produced by pass 87 Test12= 8.81D-14 1.00D-09 XBig12= 2.45D-14 5.48D-09.
      8 vectors produced by pass 88 Test12= 8.81D-14 1.00D-09 XBig12= 1.54D-14 4.63D-09.
      8 vectors produced by pass 89 Test12= 8.81D-14 1.00D-09 XBig12= 1.17D-14 3.88D-09.
      8 vectors produced by pass 90 Test12= 8.81D-14 1.00D-09 XBig12= 1.73D-14 4.61D-09.
      8 vectors produced by pass 91 Test12= 8.81D-14 1.00D-09 XBig12= 1.69D-14 4.65D-09.
      8 vectors produced by pass 92 Test12= 8.81D-14 1.00D-09 XBig12= 1.21D-14 3.96D-09.
      8 vectors produced by pass 93 Test12= 8.81D-14 1.00D-09 XBig12= 1.50D-14 4.58D-09.
      7 vectors produced by pass 94 Test12= 8.81D-14 1.00D-09 XBig12= 4.00D-15 2.03D-09.
      7 vectors produced by pass 95 Test12= 8.81D-14 1.00D-09 XBig12= 1.22D-14 3.90D-09.
      7 vectors produced by pass 96 Test12= 8.81D-14 1.00D-09 XBig12= 1.37D-14 3.84D-09.
      7 vectors produced by pass 97 Test12= 8.81D-14 1.00D-09 XBig12= 1.47D-14 4.09D-09.
      7 vectors produced by pass 98 Test12= 8.81D-14 1.00D-09 XBig12= 2.00D-14 4.67D-09.
      7 vectors produced by pass 99 Test12= 8.81D-14 1.00D-09 XBig12= 1.65D-14 4.30D-09.
      7 vectors produced by pass100 Test12= 8.81D-14 1.00D-09 XBig12= 6.54D-15 2.62D-09.
      7 vectors produced by pass101 Test12= 8.81D-14 1.00D-09 XBig12= 1.10D-14 3.53D-09.
      7 vectors produced by pass102 Test12= 8.81D-14 1.00D-09 XBig12= 2.52D-14 5.79D-09.
      7 vectors produced by pass103 Test12= 8.81D-14 1.00D-09 XBig12= 1.76D-14 4.49D-09.
      7 vectors produced by pass104 Test12= 8.81D-14 1.00D-09 XBig12= 1.20D-14 3.62D-09.
      7 vectors produced by pass105 Test12= 8.81D-14 1.00D-09 XBig12= 1.77D-14 4.26D-09.
      7 vectors produced by pass106 Test12= 8.81D-14 1.00D-09 XBig12= 1.57D-14 4.44D-09.
      7 vectors produced by pass107 Test12= 8.81D-14 1.00D-09 XBig12= 9.67D-15 4.15D-09.
      7 vectors produced by pass108 Test12= 8.81D-14 1.00D-09 XBig12= 1.35D-14 3.71D-09.
      7 vectors produced by pass109 Test12= 8.81D-14 1.00D-09 XBig12= 2.39D-14 5.00D-09.
      7 vectors produced by pass110 Test12= 8.81D-14 1.00D-09 XBig12= 1.48D-14 3.83D-09.
      7 vectors produced by pass111 Test12= 8.81D-14 1.00D-09 XBig12= 1.12D-14 3.29D-09.
      7 vectors produced by pass112 Test12= 8.81D-14 1.00D-09 XBig12= 1.34D-14 4.03D-09.
      7 vectors produced by pass113 Test12= 8.81D-14 1.00D-09 XBig12= 9.80D-15 3.22D-09.
      7 vectors produced by pass114 Test12= 8.81D-14 1.00D-09 XBig12= 1.59D-14 3.93D-09.
      7 vectors produced by pass115 Test12= 8.81D-14 1.00D-09 XBig12= 1.03D-14 3.17D-09.
      7 vectors produced by pass116 Test12= 8.81D-14 1.00D-09 XBig12= 1.35D-14 3.90D-09.
      7 vectors produced by pass117 Test12= 8.81D-14 1.00D-09 XBig12= 6.49D-15 2.94D-09.
      7 vectors produced by pass118 Test12= 8.81D-14 1.00D-09 XBig12= 6.63D-15 2.63D-09.
      7 vectors produced by pass119 Test12= 8.81D-14 1.00D-09 XBig12= 1.15D-14 3.81D-09.
      7 vectors produced by pass120 Test12= 8.81D-14 1.00D-09 XBig12= 9.47D-15 3.37D-09.
      7 vectors produced by pass121 Test12= 8.81D-14 1.00D-09 XBig12= 1.08D-14 3.40D-09.
      7 vectors produced by pass122 Test12= 8.81D-14 1.00D-09 XBig12= 1.48D-14 3.93D-09.
      7 vectors produced by pass123 Test12= 8.81D-14 1.00D-09 XBig12= 1.30D-14 4.45D-09.
      7 vectors produced by pass124 Test12= 8.81D-14 1.00D-09 XBig12= 1.38D-14 4.16D-09.
      7 vectors produced by pass125 Test12= 8.81D-14 1.00D-09 XBig12= 1.22D-14 3.51D-09.
      7 vectors produced by pass126 Test12= 8.81D-14 1.00D-09 XBig12= 1.71D-14 4.10D-09.
      7 vectors produced by pass127 Test12= 8.81D-14 1.00D-09 XBig12= 1.22D-14 4.56D-09.
      7 vectors produced by pass128 Test12= 8.81D-14 1.00D-09 XBig12= 1.58D-14 4.00D-09.
      7 vectors produced by pass129 Test12= 8.81D-14 1.00D-09 XBig12= 1.17D-14 3.45D-09.
      7 vectors produced by pass130 Test12= 8.81D-14 1.00D-09 XBig12= 1.39D-14 3.85D-09.
      7 vectors produced by pass131 Test12= 8.81D-14 1.00D-09 XBig12= 7.69D-15 2.95D-09.
      7 vectors produced by pass132 Test12= 8.81D-14 1.00D-09 XBig12= 2.03D-14 5.27D-09.
      7 vectors produced by pass133 Test12= 8.81D-14 1.00D-09 XBig12= 1.10D-14 3.40D-09.
      7 vectors produced by pass134 Test12= 8.81D-14 1.00D-09 XBig12= 2.01D-14 4.33D-09.
      7 vectors produced by pass135 Test12= 8.81D-14 1.00D-09 XBig12= 7.88D-15 2.90D-09.
      7 vectors produced by pass136 Test12= 8.81D-14 1.00D-09 XBig12= 1.59D-14 3.86D-09.
      7 vectors produced by pass137 Test12= 8.81D-14 1.00D-09 XBig12= 8.97D-15 2.88D-09.
      7 vectors produced by pass138 Test12= 8.81D-14 1.00D-09 XBig12= 1.19D-14 3.77D-09.
      4 vectors produced by pass139 Test12= 8.81D-14 1.00D-09 XBig12= 5.71D-15 2.06D-09.
      4 vectors produced by pass140 Test12= 8.81D-14 1.00D-09 XBig12= 8.45D-15 3.18D-09.
      4 vectors produced by pass141 Test12= 8.81D-14 1.00D-09 XBig12= 1.08D-14 4.18D-09.
      4 vectors produced by pass142 Test12= 8.81D-14 1.00D-09 XBig12= 1.37D-14 3.54D-09.
      4 vectors produced by pass143 Test12= 8.81D-14 1.00D-09 XBig12= 1.04D-14 2.92D-09.
      4 vectors produced by pass144 Test12= 8.81D-14 1.00D-09 XBig12= 9.70D-15 2.94D-09.
      4 vectors produced by pass145 Test12= 8.81D-14 1.00D-09 XBig12= 1.57D-14 3.96D-09.
      4 vectors produced by pass146 Test12= 8.81D-14 1.00D-09 XBig12= 9.87D-15 2.87D-09.
      4 vectors produced by pass147 Test12= 8.81D-14 1.00D-09 XBig12= 1.06D-14 3.25D-09.
      4 vectors produced by pass148 Test12= 8.81D-14 1.00D-09 XBig12= 1.08D-14 3.24D-09.
      4 vectors produced by pass149 Test12= 8.81D-14 1.00D-09 XBig12= 9.64D-15 3.18D-09.
      4 vectors produced by pass150 Test12= 8.81D-14 1.00D-09 XBig12= 1.91D-14 4.53D-09.
      4 vectors produced by pass151 Test12= 8.81D-14 1.00D-09 XBig12= 1.35D-14 3.42D-09.
      4 vectors produced by pass152 Test12= 8.81D-14 1.00D-09 XBig12= 6.17D-15 2.56D-09.
      3 vectors produced by pass153 Test12= 8.81D-14 1.00D-09 XBig12= 6.39D-15 2.67D-09.
      3 vectors produced by pass154 Test12= 8.81D-14 1.00D-09 XBig12= 1.31D-14 3.70D-09.
      3 vectors produced by pass155 Test12= 8.81D-14 1.00D-09 XBig12= 7.94D-15 2.59D-09.
      3 vectors produced by pass156 Test12= 8.81D-14 1.00D-09 XBig12= 1.19D-14 3.64D-09.
      3 vectors produced by pass157 Test12= 8.81D-14 1.00D-09 XBig12= 8.42D-15 2.86D-09.
      3 vectors produced by pass158 Test12= 8.81D-14 1.00D-09 XBig12= 4.93D-15 2.86D-09.
      3 vectors produced by pass159 Test12= 8.81D-14 1.00D-09 XBig12= 1.71D-14 4.14D-09.
      3 vectors produced by pass160 Test12= 8.81D-14 1.00D-09 XBig12= 1.18D-14 3.45D-09.
      3 vectors produced by pass161 Test12= 8.81D-14 1.00D-09 XBig12= 1.12D-14 3.15D-09.
      3 vectors produced by pass162 Test12= 8.81D-14 1.00D-09 XBig12= 1.05D-14 4.00D-09.
      3 vectors produced by pass163 Test12= 8.81D-14 1.00D-09 XBig12= 1.28D-14 3.60D-09.
      3 vectors produced by pass164 Test12= 8.81D-14 1.00D-09 XBig12= 5.25D-15 2.12D-09.
      3 vectors produced by pass165 Test12= 8.81D-14 1.00D-09 XBig12= 1.49D-14 3.42D-09.
      3 vectors produced by pass166 Test12= 8.81D-14 1.00D-09 XBig12= 9.29D-15 2.76D-09.
      3 vectors produced by pass167 Test12= 8.81D-14 1.00D-09 XBig12= 5.68D-15 2.61D-09.
      3 vectors produced by pass168 Test12= 8.81D-14 1.00D-09 XBig12= 1.32D-14 3.32D-09.
      3 vectors produced by pass169 Test12= 8.81D-14 1.00D-09 XBig12= 9.62D-15 2.98D-09.
      3 vectors produced by pass170 Test12= 8.81D-14 1.00D-09 XBig12= 1.08D-14 3.80D-09.
      3 vectors produced by pass171 Test12= 8.81D-14 1.00D-09 XBig12= 1.34D-14 3.11D-09.
      3 vectors produced by pass172 Test12= 8.81D-14 1.00D-09 XBig12= 6.99D-15 3.18D-09.
      3 vectors produced by pass173 Test12= 8.81D-14 1.00D-09 XBig12= 7.64D-15 2.68D-09.
      3 vectors produced by pass174 Test12= 8.81D-14 1.00D-09 XBig12= 1.51D-14 3.76D-09.
      3 vectors produced by pass175 Test12= 8.81D-14 1.00D-09 XBig12= 1.54D-14 3.92D-09.
      3 vectors produced by pass176 Test12= 8.81D-14 1.00D-09 XBig12= 7.99D-15 2.74D-09.
      3 vectors produced by pass177 Test12= 8.81D-14 1.00D-09 XBig12= 6.72D-15 2.88D-09.
      3 vectors produced by pass178 Test12= 8.81D-14 1.00D-09 XBig12= 1.61D-14 3.83D-09.
      3 vectors produced by pass179 Test12= 8.81D-14 1.00D-09 XBig12= 4.80D-15 2.08D-09.
      3 vectors produced by pass180 Test12= 8.81D-14 1.00D-09 XBig12= 1.13D-14 3.45D-09.
      3 vectors produced by pass181 Test12= 8.81D-14 1.00D-09 XBig12= 9.17D-15 2.96D-09.
      3 vectors produced by pass182 Test12= 8.81D-14 1.00D-09 XBig12= 1.52D-14 3.89D-09.
      3 vectors produced by pass183 Test12= 8.81D-14 1.00D-09 XBig12= 7.90D-15 2.76D-09.
      3 vectors produced by pass184 Test12= 8.81D-14 1.00D-09 XBig12= 6.89D-15 2.65D-09.
      3 vectors produced by pass185 Test12= 8.81D-14 1.00D-09 XBig12= 1.86D-14 4.12D-09.
      3 vectors produced by pass186 Test12= 8.81D-14 1.00D-09 XBig12= 7.48D-15 2.99D-09.
      3 vectors produced by pass187 Test12= 8.81D-14 1.00D-09 XBig12= 1.50D-14 3.92D-09.
      3 vectors produced by pass188 Test12= 8.81D-14 1.00D-09 XBig12= 5.93D-15 2.52D-09.
      3 vectors produced by pass189 Test12= 8.81D-14 1.00D-09 XBig12= 7.18D-15 2.58D-09.
      3 vectors produced by pass190 Test12= 8.81D-14 1.00D-09 XBig12= 9.51D-15 3.26D-09.
      3 vectors produced by pass191 Test12= 8.81D-14 1.00D-09 XBig12= 1.66D-14 4.06D-09.
      3 vectors produced by pass192 Test12= 8.81D-14 1.00D-09 XBig12= 9.59D-15 3.08D-09.
      3 vectors produced by pass193 Test12= 8.81D-14 1.00D-09 XBig12= 9.76D-15 3.13D-09.
      3 vectors produced by pass194 Test12= 8.81D-14 1.00D-09 XBig12= 9.64D-15 3.11D-09.
      3 vectors produced by pass195 Test12= 8.81D-14 1.00D-09 XBig12= 1.14D-14 3.53D-09.
      3 vectors produced by pass196 Test12= 8.81D-14 1.00D-09 XBig12= 1.02D-14 3.65D-09.
      3 vectors produced by pass197 Test12= 8.81D-14 1.00D-09 XBig12= 5.88D-15 2.53D-09.
      3 vectors produced by pass198 Test12= 8.81D-14 1.00D-09 XBig12= 9.45D-15 3.11D-09.
      3 vectors produced by pass199 Test12= 8.81D-14 1.00D-09 XBig12= 6.81D-15 2.52D-09.
      3 vectors produced by pass200 Test12= 8.81D-14 1.00D-09 XBig12= 8.19D-15 3.31D-09.
      3 vectors produced by pass201 Test12= 8.81D-14 1.00D-09 XBig12= 1.46D-14 3.51D-09.
      3 vectors produced by pass202 Test12= 8.81D-14 1.00D-09 XBig12= 8.94D-15 2.97D-09.
      3 vectors produced by pass203 Test12= 8.81D-14 1.00D-09 XBig12= 1.20D-14 3.17D-09.
      3 vectors produced by pass204 Test12= 8.81D-14 1.00D-09 XBig12= 4.96D-15 2.45D-09.
      3 vectors produced by pass205 Test12= 8.81D-14 1.00D-09 XBig12= 1.22D-14 3.55D-09.
      3 vectors produced by pass206 Test12= 8.81D-14 1.00D-09 XBig12= 3.89D-15 2.03D-09.
      3 vectors produced by pass207 Test12= 8.81D-14 1.00D-09 XBig12= 1.22D-14 3.33D-09.
      3 vectors produced by pass208 Test12= 8.81D-14 1.00D-09 XBig12= 8.16D-15 2.96D-09.
      3 vectors produced by pass209 Test12= 8.81D-14 1.00D-09 XBig12= 8.85D-15 3.19D-09.
      3 vectors produced by pass210 Test12= 8.81D-14 1.00D-09 XBig12= 7.31D-15 2.90D-09.
      3 vectors produced by pass211 Test12= 8.81D-14 1.00D-09 XBig12= 1.20D-14 4.11D-09.
      3 vectors produced by pass212 Test12= 8.81D-14 1.00D-09 XBig12= 1.25D-14 3.41D-09.
      3 vectors produced by pass213 Test12= 8.81D-14 1.00D-09 XBig12= 1.19D-14 3.53D-09.
      3 vectors produced by pass214 Test12= 8.81D-14 1.00D-09 XBig12= 5.98D-15 2.66D-09.
      3 vectors produced by pass215 Test12= 8.81D-14 1.00D-09 XBig12= 9.93D-15 2.93D-09.
      3 vectors produced by pass216 Test12= 8.81D-14 1.00D-09 XBig12= 1.38D-14 3.63D-09.
      3 vectors produced by pass217 Test12= 8.81D-14 1.00D-09 XBig12= 7.25D-15 3.23D-09.
      3 vectors produced by pass218 Test12= 8.81D-14 1.00D-09 XBig12= 6.96D-15 2.35D-09.
      3 vectors produced by pass219 Test12= 8.81D-14 1.00D-09 XBig12= 7.92D-15 2.88D-09.
      3 vectors produced by pass220 Test12= 8.81D-14 1.00D-09 XBig12= 9.26D-15 3.21D-09.
      3 vectors produced by pass221 Test12= 8.81D-14 1.00D-09 XBig12= 9.79D-15 3.00D-09.
      3 vectors produced by pass222 Test12= 8.81D-14 1.00D-09 XBig12= 9.24D-15 3.13D-09.
      3 vectors produced by pass223 Test12= 8.81D-14 1.00D-09 XBig12= 1.04D-14 3.40D-09.
      3 vectors produced by pass224 Test12= 8.81D-14 1.00D-09 XBig12= 1.25D-14 3.72D-09.
      3 vectors produced by pass225 Test12= 8.81D-14 1.00D-09 XBig12= 7.85D-15 2.78D-09.
      3 vectors produced by pass226 Test12= 8.81D-14 1.00D-09 XBig12= 1.15D-14 3.68D-09.
      3 vectors produced by pass227 Test12= 8.81D-14 1.00D-09 XBig12= 7.26D-15 2.61D-09.
      3 vectors produced by pass228 Test12= 8.81D-14 1.00D-09 XBig12= 6.58D-15 2.36D-09.
      3 vectors produced by pass229 Test12= 8.81D-14 1.00D-09 XBig12= 1.25D-14 3.38D-09.
      3 vectors produced by pass230 Test12= 8.81D-14 1.00D-09 XBig12= 7.84D-15 2.65D-09.
      3 vectors produced by pass231 Test12= 8.81D-14 1.00D-09 XBig12= 3.67D-15 1.96D-09.
      2 vectors produced by pass232 Test12= 8.81D-14 1.00D-09 XBig12= 3.82D-15 1.89D-09.
 InvSVY:  IOpt=1 It=  1 EMax= 1.22D-15
 Solved reduced A of dimension  3388 with   120 vectors.
 End of Minotr F.D. properties file   721 does not exist.
 End of Minotr F.D. properties file   722 does not exist.
 End of Minotr F.D. properties file   788 does not exist.

 **********************************************************************

            Population analysis using the SCF density.

 **********************************************************************

 Orbital symmetries:
 Alpha Orbitals:
       Occupied  (A) (A) (A) (A) (A) (A) (A) (A) (A) (A) (A) (A)
                 (A) (A) (A) (A) (A) (A) (A) (A) (A) (A) (A) (A)
                 (A) (A) (A) (A) (A) (A) (A) (A) (A) (A) (A) (A)
                 (A) (A) (A) (A) (A) (A) (A) (A) (A) (A) (A) (A)
                 (A) (A) (A) (A) (A) (A) (A) (A) (A) (A) (A) (A)
                 (A) (A) (A) (A) (A) (A) (A) (A) (A) (A) (A) (A)
                 (A) (A) (A) (A) (A) (A) (A) (A) (A) (A) (A)
       Virtual   (A) (A) (A) (A) (A) (A) (A) (A) (A) (A) (A) (A)
                 (A) (A) (A) (A) (A) (A) (A) (A) (A) (A) (A) (A)
                 (A) (A) (A) (A) (A) (A) (A) (A) (A) (A) (A) (A)
                 (A) (A) (A) (A) (A) (A) (A) (A) (A) (A) (A) (A)
                 (A) (A) (A) (A) (A) (A) (A) (A) (A) (A) (A) (A)
                 (A) (A) (A) (A) (A) (A) (A) (A) (A) (A) (A) (A)
                 (A) (A) (A) (A) (A) (A) (A) (A) (A) (A) (A) (A)
                 (A) (A) (A) (A) (A) (A) (A) (A) (A) (A) (A) (A)
                 (A) (A) (A) (A) (A) (A) (A) (A) (A) (A) (A) (A)
                 (A) (A) (A) (A) (A) (A) (A) (A) (A) (A) (A) (A)
                 (A) (A) (A) (A) (A) (A) (A) (A) (A) (A) (A) (A)
                 (A) (A) (A) (A) (A) (A) (A) (A) (A) (A) (A) (A)
                 (A) (A) (A) (A) (A) (A) (A) (A) (A) (A) (A) (A)
                 (A) (A) (A) (A) (A) (A) (A) (A) (A) (A) (A) (A)
                 (A) (A) (A) (A) (A) (A) (A) (A) (A) (A) (A) (A)
                 (A) (A) (A) (A) (A) (A) (A) (A) (A) (A) (A) (A)
                 (A) (A) (A) (A) (A) (A) (A) (A) (A) (A) (A) (A)
                 (A) (A) (A) (A) (A) (A) (A) (A) (A) (A) (A) (A)
                 (A) (A) (A) (A) (A) (A) (A) (A) (A) (A) (A) (A)
                 (A) (A) (A) (A) (A) (A) (A) (A) (A) (A) (A) (A)
                 (A) (A) (A) (A) (A) (A) (A) (A) (A) (A) (A) (A)
                 (A) (A) (A) (A) (A) (A) (A) (A) (A) (A) (A) (A)
                 (A) (A) (A) (A) (A) (A) (A) (A) (A) (A) (A) (A)
                 (A) (A) (A) (A) (A) (A) (A) (A) (A) (A) (A) (A)
                 (A) (A) (A) (A) (A) (A) (A) (A) (A) (A) (A) (A)
                 (A) (A) (A) (A) (A) (A) (A) (A) (A) (A) (A) (A)
                 (A) (A) (A) (A) (A) (A) (A) (A) (A) (A) (A) (A)
                 (A) (A) (A) (A) (A) (A) (A) (A) (A) (A) (A) (A)
                 (A) (A) (A) (A) (A) (A) (A) (A) (A) (A) (A) (A)
                 (A) (A) (A) (A) (A) (A) (A) (A) (A) (A) (A) (A)
                 (A) (A) (A) (A) (A) (A) (A) (A) (A) (A) (A) (A)
                 (A) (A) (A) (A) (A) (A) (A) (A) (A) (A) (A) (A)
                 (A) (A) (A) (A) (A) (A) (A) (A) (A) (A) (A) (A)
                 (A) (A) (A) (A) (A) (A) (A) (A) (A) (A) (A) (A)
                 (A) (A) (A) (A) (A) (A) (A) (A) (A) (A) (A) (A)
                 (A) (A) (A) (A) (A) (A) (A) (A) (A) (A) (A) (A)
                 (A) (A) (A) (A) (A) (A) (A) (A) (A) (A) (A) (A)
                 (A) (A) (A) (A) (A) (A) (A) (A) (A) (A) (A) (A)
                 (A) (A) (A) (A) (A) (A) (A) (A) (A) (A) (A) (A)
                 (A) (A) (A) (A) (A) (A) (A) (A) (A) (A) (A) (A)
                 (A) (A) (A) (A) (A) (A) (A) (A) (A) (A) (A) (A)
                 (A) (A) (A) (A) (A) (A) (A) (A) (A) (A) (A) (A)
                 (A) (A) (A) (A) (A) (A) (A) (A) (A) (A) (A) (A)
                 (A) (A) (A) (A) (A) (A) (A) (A) (A) (A) (A) (A)
                 (A) (A) (A) (A) (A) (A) (A) (A)
 Beta  Orbitals:
       Occupied  (A) (A) (A) (A) (A) (A) (A) (A) (A) (A) (A) (A)
                 (A) (A) (A) (A) (A) (A) (A) (A) (A) (A) (A) (A)
                 (A) (A) (A) (A) (A) (A) (A) (A) (A) (A) (A) (A)
                 (A) (A) (A) (A) (A) (A) (A) (A) (A) (A) (A) (A)
                 (A) (A) (A) (A) (A) (A) (A) (A) (A) (A) (A) (A)
                 (A) (A) (A) (A) (A) (A) (A) (A) (A) (A) (A) (A)
                 (A) (A) (A) (A) (A) (A) (A) (A) (A)
       Virtual   (A) (A) (A) (A) (A) (A) (A) (A) (A) (A) (A) (A)
                 (A) (A) (A) (A) (A) (A) (A) (A) (A) (A) (A) (A)
                 (A) (A) (A) (A) (A) (A) (A) (A) (A) (A) (A) (A)
                 (A) (A) (A) (A) (A) (A) (A) (A) (A) (A) (A) (A)
                 (A) (A) (A) (A) (A) (A) (A) (A) (A) (A) (A) (A)
                 (A) (A) (A) (A) (A) (A) (A) (A) (A) (A) (A) (A)
                 (A) (A) (A) (A) (A) (A) (A) (A) (A) (A) (A) (A)
                 (A) (A) (A) (A) (A) (A) (A) (A) (A) (A) (A) (A)
                 (A) (A) (A) (A) (A) (A) (A) (A) (A) (A) (A) (A)
                 (A) (A) (A) (A) (A) (A) (A) (A) (A) (A) (A) (A)
                 (A) (A) (A) (A) (A) (A) (A) (A) (A) (A) (A) (A)
                 (A) (A) (A) (A) (A) (A) (A) (A) (A) (A) (A) (A)
                 (A) (A) (A) (A) (A) (A) (A) (A) (A) (A) (A) (A)
                 (A) (A) (A) (A) (A) (A) (A) (A) (A) (A) (A) (A)
                 (A) (A) (A) (A) (A) (A) (A) (A) (A) (A) (A) (A)
                 (A) (A) (A) (A) (A) (A) (A) (A) (A) (A) (A) (A)
                 (A) (A) (A) (A) (A) (A) (A) (A) (A) (A) (A) (A)
                 (A) (A) (A) (A) (A) (A) (A) (A) (A) (A) (A) (A)
                 (A) (A) (A) (A) (A) (A) (A) (A) (A) (A) (A) (A)
                 (A) (A) (A) (A) (A) (A) (A) (A) (A) (A) (A) (A)
                 (A) (A) (A) (A) (A) (A) (A) (A) (A) (A) (A) (A)
                 (A) (A) (A) (A) (A) (A) (A) (A) (A) (A) (A) (A)
                 (A) (A) (A) (A) (A) (A) (A) (A) (A) (A) (A) (A)
                 (A) (A) (A) (A) (A) (A) (A) (A) (A) (A) (A) (A)
                 (A) (A) (A) (A) (A) (A) (A) (A) (A) (A) (A) (A)
                 (A) (A) (A) (A) (A) (A) (A) (A) (A) (A) (A) (A)
                 (A) (A) (A) (A) (A) (A) (A) (A) (A) (A) (A) (A)
                 (A) (A) (A) (A) (A) (A) (A) (A) (A) (A) (A) (A)
                 (A) (A) (A) (A) (A) (A) (A) (A) (A) (A) (A) (A)
                 (A) (A) (A) (A) (A) (A) (A) (A) (A) (A) (A) (A)
                 (A) (A) (A) (A) (A) (A) (A) (A) (A) (A) (A) (A)
                 (A) (A) (A) (A) (A) (A) (A) (A) (A) (A) (A) (A)
                 (A) (A) (A) (A) (A) (A) (A) (A) (A) (A) (A) (A)
                 (A) (A) (A) (A) (A) (A) (A) (A) (A) (A) (A) (A)
                 (A) (A) (A) (A) (A) (A) (A) (A) (A) (A) (A) (A)
                 (A) (A) (A) (A) (A) (A) (A) (A) (A) (A) (A) (A)
                 (A) (A) (A) (A) (A) (A) (A) (A) (A) (A) (A) (A)
                 (A) (A) (A) (A) (A) (A) (A) (A) (A) (A) (A) (A)
                 (A) (A) (A) (A) (A) (A) (A) (A) (A) (A) (A) (A)
                 (A) (A) (A) (A) (A) (A) (A) (A) (A) (A) (A) (A)
                 (A) (A) (A) (A) (A) (A) (A) (A) (A) (A) (A) (A)
                 (A) (A) (A) (A) (A) (A) (A) (A) (A) (A) (A) (A)
                 (A) (A) (A) (A) (A) (A) (A) (A) (A) (A) (A) (A)
                 (A) (A) (A) (A) (A) (A) (A) (A) (A) (A) (A) (A)
                 (A) (A) (A) (A) (A) (A) (A) (A) (A) (A)
 The electronic state is 3-A.
 Alpha  occ. eigenvalues --  -10.21038 -10.20865 -10.20644 -10.20350 -10.19623
 Alpha  occ. eigenvalues --  -10.19471 -10.19110 -10.19098 -10.19087 -10.19077
 Alpha  occ. eigenvalues --  -10.19066 -10.18974 -10.18948 -10.18921 -10.18850
 Alpha  occ. eigenvalues --  -10.18742 -10.18618 -10.18278 -10.18242 -10.18113
 Alpha  occ. eigenvalues --  -10.18100 -10.18026 -10.17872 -10.17429 -10.17022
 Alpha  occ. eigenvalues --   -0.91677  -0.88769  -0.85916  -0.84046  -0.83256
 Alpha  occ. eigenvalues --   -0.80831  -0.79003  -0.77615  -0.75462  -0.74446
 Alpha  occ. eigenvalues --   -0.73501  -0.71436  -0.69594  -0.65461  -0.64459
 Alpha  occ. eigenvalues --   -0.62587  -0.61931  -0.59416  -0.58830  -0.57514
 Alpha  occ. eigenvalues --   -0.55863  -0.52490  -0.52372  -0.51455  -0.50812
 Alpha  occ. eigenvalues --   -0.48455  -0.48166  -0.47713  -0.46621  -0.45523
 Alpha  occ. eigenvalues --   -0.44811  -0.44218  -0.43639  -0.42869  -0.42567
 Alpha  occ. eigenvalues --   -0.41836  -0.41584  -0.40547  -0.39998  -0.39686
 Alpha  occ. eigenvalues --   -0.38544  -0.37405  -0.36815  -0.35971  -0.35028
 Alpha  occ. eigenvalues --   -0.34897  -0.33734  -0.33648  -0.33341  -0.30382
 Alpha  occ. eigenvalues --   -0.29455  -0.28491  -0.25886  -0.25000  -0.24490
 Alpha  occ. eigenvalues --   -0.22270  -0.20836  -0.18521
 Alpha virt. eigenvalues --   -0.06961  -0.05920  -0.02934  -0.02482  -0.00260
 Alpha virt. eigenvalues --    0.00219   0.00563   0.00675   0.01279   0.01770
 Alpha virt. eigenvalues --    0.01936   0.02757   0.02875   0.03175   0.03403
 Alpha virt. eigenvalues --    0.03588   0.04117   0.04552   0.05205   0.05588
 Alpha virt. eigenvalues --    0.05654   0.06461   0.06536   0.07023   0.07267
 Alpha virt. eigenvalues --    0.07589   0.07861   0.08203   0.08568   0.09003
 Alpha virt. eigenvalues --    0.09419   0.09889   0.10101   0.10664   0.11063
 Alpha virt. eigenvalues --    0.11330   0.11647   0.11951   0.12557   0.12678
 Alpha virt. eigenvalues --    0.13230   0.13417   0.13871   0.14346   0.14516
 Alpha virt. eigenvalues --    0.14972   0.15149   0.15211   0.15532   0.15947
 Alpha virt. eigenvalues --    0.16357   0.16712   0.16780   0.17134   0.17530
 Alpha virt. eigenvalues --    0.17643   0.17774   0.18140   0.18339   0.18586
 Alpha virt. eigenvalues --    0.18800   0.19065   0.19335   0.19600   0.19758
 Alpha virt. eigenvalues --    0.19973   0.20210   0.20367   0.20697   0.20879
 Alpha virt. eigenvalues --    0.21409   0.21458   0.21715   0.22139   0.22297
 Alpha virt. eigenvalues --    0.22518   0.22901   0.23088   0.23483   0.23843
 Alpha virt. eigenvalues --    0.23975   0.24246   0.24623   0.24762   0.24961
 Alpha virt. eigenvalues --    0.25106   0.25485   0.25736   0.25897   0.26107
 Alpha virt. eigenvalues --    0.26535   0.26639   0.27210   0.27486   0.27643
 Alpha virt. eigenvalues --    0.27967   0.28255   0.28622   0.28933   0.29468
 Alpha virt. eigenvalues --    0.29658   0.29872   0.30083   0.30453   0.30855
 Alpha virt. eigenvalues --    0.31086   0.31372   0.31507   0.31915   0.32072
 Alpha virt. eigenvalues --    0.32365   0.33378   0.33858   0.34044   0.34216
 Alpha virt. eigenvalues --    0.34471   0.35178   0.35942   0.36832   0.37312
 Alpha virt. eigenvalues --    0.38209   0.38953   0.39364   0.39674   0.40661
 Alpha virt. eigenvalues --    0.40877   0.41916   0.42719   0.43799   0.44223
 Alpha virt. eigenvalues --    0.44607   0.44855   0.46219   0.47301   0.47720
 Alpha virt. eigenvalues --    0.48520   0.49340   0.50651   0.51071   0.51671
 Alpha virt. eigenvalues --    0.52013   0.52726   0.52854   0.53828   0.54430
 Alpha virt. eigenvalues --    0.54817   0.55107   0.55505   0.55812   0.56049
 Alpha virt. eigenvalues --    0.56574   0.56818   0.57101   0.57678   0.57942
 Alpha virt. eigenvalues --    0.58465   0.58758   0.59091   0.59526   0.59937
 Alpha virt. eigenvalues --    0.60156   0.61156   0.61623   0.61780   0.62542
 Alpha virt. eigenvalues --    0.63683   0.63770   0.64069   0.64892   0.65159
 Alpha virt. eigenvalues --    0.65734   0.65833   0.66682   0.66864   0.67022
 Alpha virt. eigenvalues --    0.67415   0.68265   0.68647   0.68956   0.69790
 Alpha virt. eigenvalues --    0.70294   0.70641   0.70802   0.70897   0.71133
 Alpha virt. eigenvalues --    0.71591   0.72431   0.72773   0.73065   0.73482
 Alpha virt. eigenvalues --    0.73644   0.74243   0.74754   0.75175   0.75768
[...]
 231,0.00092175,-0.00079620,0.00033587,-0.00027775,0.00050529,0.0013449
 7,0.00135781,-0.00396366,0.00086345,-0.00188966,0.00091611,0.00037648,
 -0.00032801,0.00035841,0.00001041,0.00044692,-0.00047759,-0.00018844,-
 0.01471408,-0.00774657,0.00241748,0.00050809,0.00059120,-0.00090512,0.
 00020113,-0.00003387,-0.00008899,0.00054779,-0.00016052,0.00002488,-0.
 00028395,-0.00048143,-0.00026762,0.00023327,-0.00004467,0.00011954,0.0
 0008762,0.00005063,0.00001371,-0.00017709,0.00001281,0.00000308,0.0022
 6187,-0.00152702,-0.00003393,-0.00040169,0.00035910,-0.00019315,0.0000
 8789,-0.00020716,0.00004898,0.00001955,0.00008254,0.00000770,-0.000212
 55,0.00064043,0.00015128,-0.00055521,-0.00046567,-0.00007432,0.0008172
 5,0.00041291,-0.00053457,0.00155341,-0.00198424,-0.00143333,0.02510400
 ,0.00058209,-0.01172066,-0.00003199,-0.00009592,0.00000885,-0.00003904
 ,-0.00000942,-0.00000007,-0.00004146,0.00000839,0.00001912,-0.00000404
 ,-0.00002837,-0.00007067,-0.00011763,-0.00003728,-0.00004290,0.0000462
 2,-0.00004373,0.00001548,0.00001435,-0.00001521,-0.00001363,0.00000490
 ,0.00002435,0.00002256,-0.00000122,0.00001282,-0.00000498,-0.00000785,
 -0.00001010,0.00006222,-0.00001539,0.00001949,-0.00002370,-0.05364898,
 0.00604773,-0.00130153,0.00091573,0.00029119,0.00103729,0.00076563,0.0
 0028244,0.00144433,0.00143596,0.00051158,0.00136536,-0.00139487,-0.000
 13381,0.00042478,-0.00046351,-0.00007875,-0.00049824,0.00033006,0.0000
 1073,0.00453232,-0.00517969,-0.00011900,-0.00128245,0.00064981,-0.0001
 1634,-0.00084669,-0.00067472,-0.00019582,-0.00023402,0.00067886,0.0001
 0894,0.00158671,-0.00039374,0.00068098,-0.00032999,0.00039314,0.000299
 14,-0.00030634,-0.00032606,-0.00012451,0.00047414,-0.00007966,0.000087
 61,-0.00376848,-0.00284533,-0.00257667,0.00011978,0.00039127,-0.000104
 53,-0.00038622,0.00018096,0.00002577,-0.00018448,-0.00017826,-0.000080
 07,0.00059187,-0.00040486,-0.00012345,0.00014460,-0.00005852,0.0000179
 4,0.00003822,-0.00033775,-0.00023250,-0.00351422,0.00473944,0.00133232
 ,-0.02918023,-0.03992557,-0.00067632,0.00009421,-0.00015207,-0.0000471
 9,0.00004846,-0.00000173,0.00001036,0.00003438,-0.00001942,-0.00001732
 ,0.00001358,0.00006323,0.00002116,0.00004437,0.00003014,0.00000371,-0.
 00002638,0.00004103,0.00001929,-0.00002117,0.00002724,0.00001122,-0.00
 000452,-0.00003416,-0.00004613,0.00000669,-0.00001423,-0.00001801,-0.0
 0009762,-0.00009573,-0.00006550,-0.00004519,0.00002986,-0.00000394,0.0
 2324682,0.03848270,0.02672266,0.00051573,-0.00024810,-0.00013228,-0.00
 114263,-0.00002956,0.00001468,-0.00012889,-0.00072054,-0.00032459,-0.0
 0028208,0.00035968,0.00013675,-0.00010513,-0.00018139,-0.00006295,-0.0
 0019224,0.00002190,0.00004325,-0.00079756,-0.00015355,0.00017789,-0.00
 167529,-0.00088450,0.00097195,0.00016943,0.00105573,0.00015319,-0.0001
 0591,-0.00003702,-0.00007222,0.01306654,0.00303780,-0.00053978,0.00112
 433,-0.00351784,-0.00150369,0.00082440,-0.00037559,-0.00013359,0.00028
 491,-0.00020611,0.00012525,-0.10718567,0.02540984,-0.02178855,-0.03617
 861,0.02692734,-0.02305026,-0.00303797,-0.00457998,-0.00272024,-0.0006
 2248,0.00031762,0.00042913,-0.00006627,0.00033814,0.00008344,-0.000321
 40,-0.00017130,0.00000773,0.00037507,-0.00012689,-0.00012685,0.0001989
 4,-0.00148166,0.00003318,0.00375477,0.00749799,0.00101283,-0.00002234,
 0.00006126,0.00002909,-0.00004007,-0.00000180,0.00000527,-0.00002571,0
 .00000745,0.00000855,-0.00000874,-0.00002889,0.00001939,-0.00002290,-0
 .00001794,0.00000027,0.00000081,-0.00002300,-0.00003145,-0.00002674,-0
 .00002788,-0.00000731,-0.00000291,-0.00033103,-0.00004504,0.00001231,0
 .00018160,0.00025920,-0.00103771,0.00248310,-0.00045676,-0.00085008,0.
 00076731,-0.00056248,-0.01943336,-0.00630631,0.01195496,0.71583424,-0.
 00035537,0.00014532,-0.00023801,-0.00030049,0.00004879,0.00020431,0.00
 018366,-0.00013713,-0.00003089,0.00041772,-0.00050956,-0.00024858,0.00
 013793,-0.00002672,-0.00000507,-0.00008051,-0.00010014,-0.00003399,-0.
 00106588,-0.00126651,0.00064905,0.00061790,0.00167080,-0.00076446,0.00
 029977,-0.00061231,-0.00038273,-0.00029718,0.00004653,0.00005058,0.011
 77232,-0.01763972,0.01480550,-0.00292697,-0.00191075,0.00149661,0.0009
 7860,-0.00017198,0.00023589,-0.00025682,0.00041950,0.00000316,0.041963
 25,-0.13495609,0.05423167,0.01079625,0.00562410,0.00345866,-0.00490197
 ,0.00347289,0.00047475,-0.00028922,-0.00215614,-0.00021640,0.00003313,
 -0.00047775,-0.00005612,0.00039162,0.00033682,-0.00002456,-0.00035514,
 0.00009616,-0.00001495,0.00109185,-0.00186935,0.00050790,0.00097734,0.
 00548601,-0.00177292,-0.00000974,0.00003207,0.00009518,-0.00003811,0.0
 0001287,0.00000733,-0.00001102,-0.00001542,0.00000435,-0.00001337,-0.0
 0004176,0.00002065,-0.00000184,-0.00001368,0.00000416,0.00003093,0.000
 01613,0.00004390,-0.00000737,0.00000977,0.00001318,-0.00003742,-0.0001
 6352,-0.00002484,0.00011408,0.00004507,-0.00039502,-0.00097556,-0.0004
 8845,-0.00199861,-0.00060637,0.00050142,-0.00017284,-0.00800048,0.0023
 2526,0.00614102,-0.21238632,0.38711221,0.00009985,0.00003678,0.0002682
 8,0.00126734,0.00007346,0.00007243,-0.00004149,0.00093359,0.00051324,-
 0.00030196,0.00039429,0.00026561,-0.00012983,0.00011703,0.00004429,0.0
 0022646,0.00022840,-0.00001052,0.00271278,0.00095808,-0.00066485,0.001
 87756,-0.00045697,-0.00168587,-0.00041003,-0.00033188,0.00031364,0.000
 53043,0.00010990,0.00012418,-0.00059652,0.00215056,-0.00281684,-0.0018
 4189,0.00044498,0.00485743,-0.00049839,0.00044886,0.00022958,-0.000063
 90,-0.00038677,-0.00015860,-0.03525836,0.05935136,-0.10373436,-0.02171
 556,0.00991991,-0.00521984,0.00064808,-0.00333254,0.00526186,0.0022328
 2,0.00182554,-0.00042087,0.00004808,0.00047736,0.00007781,-0.00041091,
 -0.00036721,-0.00001051,0.00039953,-0.00022350,-0.00001563,-0.00215920
 ,0.00381385,-0.00032481,-0.00286567,-0.00938632,-0.00154355,-0.0000211
 7,-0.00005560,-0.00012457,0.00007326,-0.00001217,-0.00000876,0.0000292
 0,0.00002066,-0.00001078,0.00002517,0.00008525,-0.00002329,0.00002510,
 0.00003555,-0.00001494,-0.00003960,-0.00000373,-0.00005200,-0.00003147
 ,-0.00001377,-0.00002454,0.00005649,0.00000972,0.00003498,0.00017532,0
 .00000696,-0.00042229,0.00134326,0.00074854,-0.00177838,0.00017946,-0.
 00006733,0.00009210,0.02000481,0.00346967,-0.00648779,-0.13761918,-0.1
 3046247,0.36924944,-0.00066344,0.00072073,-0.00009428,0.00258976,-0.00
 050826,-0.00057749,-0.00093159,0.00244923,-0.00009972,0.00101784,-0.00
 072642,-0.00042414,0.00023114,0.00015083,-0.00000548,0.00012502,0.0002
 1934,0.00008249,0.00529221,0.00002251,0.00058891,0.00111178,0.00017084
 ,0.00052674,-0.00027308,-0.00029489,-0.00014695,-0.00022552,0.00002302
 ,0.00000138,-0.00132623,-0.00367925,0.00394443,-0.00084082,-0.00008788
 ,-0.00066226,-0.00002661,0.00000252,-0.00011317,0.00004176,0.00007942,
 0.00004972,-0.01983285,0.01629755,-0.00849767,0.00506727,0.00076615,-0
 .00091749,-0.00045593,0.00079683,-0.00083654,0.00009036,-0.00048959,0.
 00021546,0.00003531,-0.00045984,-0.00002453,0.00054091,0.00036013,-0.0
 0005268,-0.00113278,0.00061759,0.00030032,0.00092942,0.00586027,0.0009
 6599,-0.04551486,-0.06963809,0.02134404,-0.00009584,-0.00018745,0.0000
 8525,0.00011941,0.00000345,-0.00002246,0.00006117,-0.00000688,0.000007
 88,0.00002814,0.00009450,0.00002088,0.00007985,0.00005817,-0.00002174,
 -0.00003245,0.00006431,0.00001907,-0.00002531,0.00003804,-0.00000998,-
 0.00002930,-0.00000905,-0.00001940,-0.00004218,-0.00000699,0.00005954,
 -0.00033381,-0.00010658,0.00042993,-0.00006719,0.00005084,0.00005707,0
 .00866329,0.05339375,-0.01711261,-0.42841343,0.19528642,0.07718655,0.5
 7692988,-0.00019498,-0.00000749,-0.00012600,0.00058723,-0.00083748,-0.
 00104899,-0.00070822,0.00048291,0.00004025,-0.00024049,0.00027604,-0.0
 0008501,-0.00006138,0.00015384,0.00007727,0.00022421,0.00006293,0.0000
 0668,0.00028062,0.00095258,0.00015468,0.00154323,0.00009471,-0.0002060
 9,-0.00050166,-0.00053771,-0.00010262,0.00050783,0.00011803,0.00006638
 ,0.00055693,0.00046175,-0.00002076,0.00017551,-0.00007014,0.00082035,-
 0.00010970,0.00010182,0.00000249,0.00012340,-0.00010575,-0.00000218,0.
 02049181,-0.00782038,-0.00414809,-0.00180436,-0.00267577,0.00163791,0.
 00048944,0.00033434,0.00054074,0.00029602,-0.00013417,0.00006357,-0.00
 010670,-0.00008932,-0.00002812,0.00016121,0.00016955,0.00001557,-0.000
 45353,-0.00002596,0.00032403,-0.00072006,0.00105753,0.00010188,-0.0388
 6678,-0.04386625,0.02154357,-0.00012798,0.00008928,0.00003968,0.000027
 13,0.00000714,0.00000666,0.00001757,0.00000869,-0.00000199,-0.00000723
 ,0.00002425,-0.00000891,0.00001136,0.00000387,0.00000130,-0.00000546,0
 .00000015,0.00000323,-0.00003526,-0.00000478,-0.00000160,0.00001566,-0
 .00004072,-0.00001218,0.00001322,-0.00002436,-0.00002621,0.00020372,0.
 00043386,-0.00054094,0.00029372,-0.00024449,0.00005982,0.02890720,0.00
 464979,-0.00802356,0.21552746,-0.16785164,-0.02265337,-0.31181474,0.39
 715962,0.00050494,-0.00041403,-0.00014428,-0.00202175,-0.00044948,0.00
 053475,-0.00043247,-0.00242324,0.00003303,-0.00052630,0.00052976,0.000
 03766,-0.00015354,-0.00003670,-0.00006241,-0.00009585,-0.00030648,-0.0
 0006065,-0.00558314,0.00115828,0.00154988,-0.00014268,-0.00037209,0.00
 002613,0.00087580,0.00061352,-0.00011286,-0.00034595,-0.00056426,-0.00
 012070,-0.00216407,-0.00030562,-0.00018049,0.00035576,0.00015582,-0.00
 087703,0.00029365,-0.00007485,0.00007011,-0.00046501,0.00035081,0.0000
 0347,-0.01311833,0.00422464,0.00706733,-0.00116241,0.00276229,-0.00041
 417,-0.00054999,-0.00001477,-0.00017573,-0.00024871,0.00040274,-0.0001
 2393,-0.00023445,-0.00023433,0.00000628,0.00008192,0.00029933,-0.00007
 100,0.00010632,-0.00011029,-0.00037186,0.00317322,-0.00606969,0.000121
 17,0.04384753,0.05979040,-0.01129926,0.00000954,0.00017835,0.00027351,
 -0.00014936,0.00001825,0.00001835,-0.00006762,-0.00000976,0.00002941,-
 0.00004660,-0.00010724,-0.00004071,-0.00007029,-0.00006557,-0.00002878
 ,0.00003620,-0.00005341,0.00003721,0.00005165,-0.00002753,0.00000724,0
 .00003923,0.00006574,0.00000982,0.00000709,0.00004863,0.00002314,0.000
 05209,-0.00015819,-0.00024753,-0.00024323,0.00013661,-0.00020596,-0.02
 992827,-0.03925995,-0.01979934,0.05788529,-0.00841185,-0.07205743,-0.0
 1237687,-0.12914610,0.22661756,0.00003291,-0.00007971,-0.00007549,-0.0
 0082877,-0.00002181,-0.00006426,0.00038684,-0.00068488,-0.00007862,-0.
 00006382,-0.00007649,-0.00005893,0.00000609,-0.00010420,-0.00000748,-0
 .00010540,-0.00009689,-0.00002040,-0.00196923,-0.00052567,0.00026512,-
 0.00053754,0.00000388,0.00007667,0.00016002,0.00009081,-0.00004613,-0.
 00017425,-0.00002819,-0.00001810,-0.00103368,0.00057928,-0.00055205,0.
 00029605,0.00022738,-0.00032183,-0.00002421,-0.00006638,0.00000135,-0.
 00006265,0.00009229,0.00000870,0.00080875,0.00281130,0.00492960,0.0003
 1449,0.00007760,-0.00006608,0.00009390,0.00009651,-0.00024283,-0.00020
 734,0.00010043,-0.00003825,-0.00000142,-0.00010897,-0.00002905,0.00002
 632,0.00011814,-0.00000052,0.00000464,-0.00010955,0.00000758,0.0002111
 4,-0.00201896,-0.00017989,0.00394019,0.00642596,-0.00113452,-0.0000299
 3,0.00009497,0.00010595,-0.00004166,0.00000219,0.00001544,-0.00001535,
 0.00000092,0.00000368,-0.00001251,-0.00003905,0.00000213,-0.00002809,-
 0.00002162,0.00001254,0.00001086,-0.00001176,0.00000731,0.00001864,-0.
 00000209,0.00000797,0.00000419,0.00003993,0.00000262,-0.00000769,0.000
 01407,0.00001678,0.00001647,-0.00002653,0.00011626,-0.00004497,0.00002
 845,-0.00002200,-0.00016616,-0.01079262,0.00880103,-0.00657177,0.01899
 246,-0.01616970,-0.08592744,0.08961632,-0.06225127,0.09158431,0.000078
 73,-0.00004401,-0.00004280,-0.00021006,-0.00006996,-0.00000139,0.00017
 096,-0.00010160,0.00006047,-0.00004303,-0.00006301,-0.00005247,-0.0000
 1785,-0.00002053,-0.00002028,-0.00000079,-0.00002573,0.00000278,-0.000
 57332,-0.00035626,0.00028286,-0.00021628,-0.00004570,-0.00000563,0.000
 03372,0.00009870,0.00000133,-0.00008764,-0.00000422,-0.00000208,-0.000
 50091,0.00071351,-0.00035404,0.00007387,0.00003025,-0.00023776,-0.0000
 2411,0.00000500,-0.00000551,0.00001662,-0.00003279,-0.00000584,0.00414
 665,0.00645609,0.00239800,0.00107933,-0.00169592,0.00044254,0.00039433
 ,0.00049687,0.00008261,-0.00013281,0.00002248,-0.00002132,-0.00003114,
 0.00003801,0.00002231,-0.00004553,0.00000893,-0.00004287,-0.00002449,0
 .00010205,-0.00001213,0.00002639,-0.00046045,0.00007684,0.00004238,0.0
 0063640,-0.00136048,-0.00001154,0.00002220,0.00007118,0.00000050,-0.00
 000116,0.00000643,-0.00000145,0.00000157,0.00000929,-0.00000121,-0.000
 00605,0.00000275,-0.00000901,-0.00000336,0.00000096,-0.00000315,-0.000
 00587,0.00000330,0.00000074,-0.00000352,0.00000173,-0.00000079,0.00000
 013,0.00000465,0.00000791,-0.00001712,-0.00001055,0.00008459,0.0000269
 4,-0.00003629,0.00008698,-0.00008326,0.00008210,0.00314989,-0.00134223
 ,0.00251082,-0.00010558,-0.00491320,0.00950155,0.09639296,-0.19093303,
 0.12414296,-0.10221093,0.19436415,-0.00000060,0.00009496,0.00003913,0.
 00068791,0.00004305,0.00011473,-0.00011394,0.00030462,0.00007156,0.000
 06598,-0.00003509,-0.00005973,0.00005535,0.00005860,-0.00001126,0.0000
 4414,0.00001074,0.00001413,0.00080986,-0.00012443,0.00027179,0.0000018
 6,-0.00013639,0.00012080,0.00012219,0.00015513,0.00001965,-0.00010467,
 -0.00001678,0.00001692,-0.00033303,0.00039769,-0.00029990,-0.00010041,
 -0.00010165,-0.00027768,0.00001849,0.00007469,0.00002917,-0.00003154,-
 0.00004168,-0.00002399,0.00250446,0.00479095,0.00260291,0.00103709,-0.
 00106958,0.00066696,0.00029900,0.00026351,-0.00012116,-0.00000286,0.00
 006460,-0.00000306,-0.00003912,0.00010167,0.00002838,0.00000883,-0.000
 15872,-0.00003049,-0.00002516,0.00020324,0.00006929,-0.00014527,0.0017
 4155,0.00028833,0.00007756,-0.00348179,-0.00128458,0.00009604,-0.00013
 265,-0.00010306,0.00004119,-0.00000256,-0.00000781,0.00001526,-0.00000
 901,-0.00000111,0.00001373,0.00003042,-0.00000343,0.00001684,0.0000180
 7,-0.00000747,-0.00000720,0.00001111,-0.00000064,0.00000088,0.00001042
 ,-0.00000617,-0.00001265,-0.00000049,0.00000566,-0.00001274,-0.0000099
 4,0.00001969,-0.00004553,-0.00002256,0.00007727,0.00005926,-0.00006593
 ,0.00004105,-0.00341759,0.00873935,-0.00498502,0.00969972,-0.01112570,
 0.00598867,-0.07822655,0.13536402,-0.12816991,0.06978504,-0.13381362,0
 .12582094,0.00002871,0.00001960,0.00001614,-0.00042949,0.00016535,0.00
 004735,0.00031967,-0.00021136,-0.00006282,0.00014152,-0.00012790,-0.00
 005860,0.00001931,-0.00012879,0.00002573,-0.00013287,-0.00001693,-0.00
 003108,-0.00059305,-0.00011392,-0.00011353,-0.00017101,-0.00009494,-0.
 00004204,0.00027689,-0.00000834,0.00003021,-0.00030461,-0.00001601,0.0
 0003030,-0.00056238,-0.00041770,-0.00106868,-0.00095639,0.00038774,0.0
 0003406,-0.00005915,0.00014132,0.00020399,-0.00020375,0.00005974,-0.00
 008090,0.00719129,0.00867090,-0.00881139,-0.00200406,0.00221690,-0.002
 51408,0.00128256,-0.00176000,0.00009823,0.00069617,0.00137890,-0.00016
 959,0.00005044,-0.00003748,-0.00004485,-0.00000248,0.00001971,-0.00000
 536,0.00009928,-0.00005198,0.00004231,0.00001915,-0.00066095,-0.000255
 28,0.00169005,0.00181578,-0.00011856,0.00001822,0.00000751,-0.00001305
 ,-0.00001811,0.00000240,0.00000210,-0.00000728,-0.00000477,0.00000056,
 -0.00000556,-0.00001817,-0.00000751,-0.00001115,-0.00001362,0.00001117
 ,0.00000312,-0.00001253,0.00000417,0.00001539,-0.00000364,0.00000009,0
 .00001632,0.00004189,0.00000897,-0.00002859,0.00000173,0.00015127,-0.0
 0034038,0.00024699,0.00026274,0.00001618,-0.00005614,0.00000827,-0.001
 99491,0.00223896,0.00313649,-0.12786359,-0.05116809,0.11103333,-0.0167
 6383,-0.00431229,0.02505793,-0.00006191,-0.00153491,-0.00284185,0.1406
 3028,0.00005294,0.00000319,0.00011415,0.00028748,0.00014030,0.00000321
 ,0.00011889,0.00041015,0.00014545,0.00001424,0.00000228,0.00005822,-0.
 00003339,-0.00000645,0.00003541,0.00003351,0.00009393,-0.00001091,0.00
 114952,-0.00018756,-0.00040648,-0.00036452,-0.00000296,0.00005308,-0.0
 0021914,0.00012411,-0.00001321,0.00006731,0.00009783,0.00006815,0.0025
 4471,0.00127295,0.00121381,0.00025887,-0.00071506,-0.00043923,0.000192
 72,-0.00002219,-0.00002440,0.00013949,-0.00013700,-0.00000948,-0.00703
 323,-0.01133189,0.02154197,-0.00206819,0.00009131,-0.00084767,0.000476
 95,-0.00092446,-0.00057528,0.00005972,-0.00001125,0.00017457,0.0000362
 4,0.00016135,0.00000063,-0.00012360,-0.00010308,0.00000253,0.00010833,
 -0.00004274,0.00002105,-0.00061486,0.00111686,-0.00025481,-0.00005626,
 -0.00034439,-0.00054490,0.00000732,-0.00001857,-0.00005442,0.00002179,
 -0.00000462,-0.00000103,0.00000990,0.00000522,-0.00000324,0.00000863,0
 .00002475,-0.00000408,0.00000977,0.00000903,0.00000533,-0.00001336,-0.
 00000795,-0.00000851,-0.00001511,-0.00001179,0.00000764,-0.00000832,-0
 .00009805,-0.00001036,-0.00000893,0.00001807,0.00010862,-0.00015252,0.
 00083373,0.00027631,0.00002693,0.00000486,0.00007010,0.00207269,0.0018
 7148,0.00279656,-0.05205145,-0.07207991,0.07259176,0.01409649,0.008626
 74,-0.00626268,-0.00238660,-0.00279428,-0.00212983,0.04335503,0.073936
 05,0.00008188,-0.00003650,0.00004678,-0.00014879,0.00021747,-0.0000166
 9,0.00017700,0.00007455,-0.00002827,-0.00002301,0.00009045,0.00013538,
 0.00000388,-0.00003137,-0.00002154,-0.00005171,0.00001347,0.00001701,0
 .00045453,-0.00009229,-0.00039209,-0.00024949,0.00004806,-0.00003412,0
 .00001818,-0.00005430,0.00010542,0.00011677,0.00005233,-0.00005095,-0.
 00171382,0.00006510,-0.00180716,0.00045556,0.00043943,0.00041506,-0.00
 029426,0.00005175,-0.00005419,0.00004249,-0.00009702,-0.00000162,0.008
 79751,0.01030859,-0.00832964,0.00012517,0.00103403,0.00163988,-0.00008
 727,-0.00020721,0.00008021,-0.00009262,-0.00003830,-0.00016727,0.00004
 320,0.00011580,0.00001950,-0.00011040,-0.00011301,0.00003354,0.0002048
 3,-0.00004989,-0.00006122,-0.00058735,-0.00002013,-0.00015358,0.000934
 90,0.00256661,-0.00020068,0.00001789,-0.00000952,-0.00004527,0.0000122
 8,-0.00000728,-0.00000302,0.00000246,0.00000510,-0.00000687,0.00000843
 ,0.00000100,0.00001267,0.00000375,0.00001098,0.00000229,0.00000578,0.0
 0001605,-0.00000582,0.00000195,0.00001381,-0.00000505,0.00000136,0.000
 07378,0.00003028,-0.00002329,-0.00006476,-0.00002586,-0.00059589,-0.00
 057654,-0.00033296,-0.00000423,0.00000714,-0.00005395,-0.00125557,-0.0
 0168175,0.00559501,0.10612616,0.07393216,-0.18978249,0.01435635,0.0053
 1265,-0.00190201,-0.00278835,-0.00368240,-0.00091055,-0.12396626,-0.08
 768804,0.19625985\\-0.00000020,-0.00000017,-0.00000111,0.00000060,-0.0
 0000045,-0.00000045,0.00000019,-0.00000036,-0.00000042,0.00000115,0.00
 000048,-0.00000161,-0.00000181,0.00000032,-0.00000183,0.00000178,-0.00
 000200,-0.00000295,0.00000244,-0.00000195,0.00000008,-0.00000192,-0.00
 000062,-0.00000011,0.00000099,0.00000093,-0.00000189,0.00000028,-0.000
 00006,-0.00000162,0.00000094,0.00000103,0.00000140,0.00000039,0.000001
 11,0.00000035,0.00000233,0.00000048,-0.00000017,-0.00000139,-0.0000012
 6,-0.00000133,-0.00000061,0.00000074,-0.00000061,-0.00000070,0.0000014
 3,0.00000225,0.00000070,0.00000172,0.00000183,-0.00000053,-0.00000180,
 0.00000076,-0.00000055,-0.00000228,-0.00000065,-0.00000137,0.00000015,
 0.00000038,0.00000053,-0.00000038,0.00000097,-0.00000180,0.00000186,0.
 00000098,0.00000644,0.00000751,-0.00000452,-0.00000058,-0.00000103,0.0
 0000140,-0.00000061,-0.00000128,0.00000059,-0.00000001,-0.00000108,-0.
 00000103,0.00000048,-0.00000055,-0.00000240,0.00000069,-0.00000025,-0.
 00000293,0.00000064,0.00000017,-0.00000245,0.00000071,0.00000027,-0.00
 000236,0.00000017,0.00000019,-0.00000117,-0.00000002,0.00000034,0.0000
 0034,-0.00000007,0.00000070,0.00000255,-0.00000027,0.00000044,0.000002
 08,0.00000577,0.00000298,-0.00000850,0.00000466,0.00000063,0.00000230,
 -0.00001968,-0.00001139,0.00001626,0.00000035,0.00000169,0.00000306,-0
 .00000012,0.00000175,0.00000251\\\@


 HE THAT RISETH LATE MUST TROT ALL DAY.

                  -- BENJAMIN FRANKLIN
 Job cpu time:       4 days  5 hours 18 minutes 40.0 seconds.
 File lengths (MBytes):  RWF=   9000 Int=      0 D2E=      0 Chk=     42 Scr=      1
 Normal termination of Gaussian 09 at Mon Feb  3 05:11:23 2020.
