 Entering Gaussian System, Link 0=/share/apps/gaussian16/g16/g16
 Initial command:
 /share/apps/gaussian16/g16/l1.exe "/home/amen01//scratch/631/Gau-22064.inp" -scrdir="/home/amen01//scratch/631/"
 Entering Link 1 = /share/apps/gaussian16/g16/l1.exe PID=     22065.
  
 Copyright (c) 1988-2017, Gaussian, Inc.  All Rights Reserved.
  
 This is part of the Gaussian(R) 16 program.  It is based on
 the Gaussian(R) 09 system (copyright 2009, Gaussian, Inc.),
 the Gaussian(R) 03 system (copyright 2003, Gaussian, Inc.),
 the Gaussian(R) 98 system (copyright 1998, Gaussian, Inc.),
 the Gaussian(R) 94 system (copyright 1995, Gaussian, Inc.),
 the Gaussian 92(TM) system (copyright 1992, Gaussian, Inc.),
 the Gaussian 90(TM) system (copyright 1990, Gaussian, Inc.),
 the Gaussian 88(TM) system (copyright 1988, Gaussian, Inc.),
 the Gaussian 86(TM) system (copyright 1986, Carnegie Mellon
 University), and the Gaussian 82(TM) system (copyright 1983,
 Carnegie Mellon University). Gaussian is a federally registered
 trademark of Gaussian, Inc.
  
 This software contains proprietary and confidential information,
 including trade secrets, belonging to Gaussian, Inc.
  
 This software is provided under written license and may be
 used, copied, transmitted, or stored only in accord with that
 written license.
  
 The following legend is applicable only to US Government
 contracts under FAR:
  
                    RESTRICTED RIGHTS LEGEND
  
 Use, reproduction and disclosure by the US Government is
 subject to restrictions as set forth in subparagraphs (a)
 and (c) of the Commercial Computer Software - Restricted
 Rights clause in FAR 52.227-19.
  
 Gaussian, Inc.
 340 Quinnipiac St., Bldg. 40, Wallingford CT 06492
  
  
 ---------------------------------------------------------------
 Warning -- This program may not be used in any manner that
 competes with the business of Gaussian, Inc. or will provide
 assistance to any competitor of Gaussian, Inc.  The licensee
 of this program is prohibited from giving any competitor of
 Gaussian, Inc. access to this program.  By using this program,
 the user acknowledges that Gaussian, Inc. is engaged in the
 business of creating and licensing software in the field of
 computational chemistry and represents and warrants to the
 licensee that it is not a competitor of Gaussian, Inc. and that
 it will not use this program in any manner prohibited above.
 ---------------------------------------------------------------
  

 Cite this work as:
 Gaussian 16, Revision B.01,
 M. J. Frisch, G. W. Trucks, H. B. Schlegel, G. E. Scuseria, 
 M. A. Robb, J. R. Cheeseman, G. Scalmani, V. Barone, 
 G. A. Petersson, H. Nakatsuji, X. Li, M. Caricato, A. V. Marenich, 
 J. Bloino, B. G. Janesko, R. Gomperts, B. Mennucci, H. P. Hratchian, 
 J. V. Ortiz, A. F. Izmaylov, J. L. Sonnenberg, D. Williams-Young, 
 F. Ding, F. Lipparini, F. Egidi, J. Goings, B. Peng, A. Petrone, 
 T. Henderson, D. Ranasinghe, V. G. Zakrzewski, J. Gao, N. Rega, 
 G. Zheng, W. Liang, M. Hada, M. Ehara, K. Toyota, R. Fukuda, 
 J. Hasegawa, M. Ishida, T. Nakajima, Y. Honda, O. Kitao, H. Nakai, 
 T. Vreven, K. Throssell, J. A. Montgomery, Jr., J. E. Peralta, 
 F. Ogliaro, M. J. Bearpark, J. J. Heyd, E. N. Brothers, K. N. Kudin, 
 V. N. Staroverov, T. A. Keith, R. Kobayashi, J. Normand, 
 K. Raghavachari, A. P. Rendell, J. C. Burant, S. S. Iyengar, 
 J. Tomasi, M. Cossi, J. M. Millam, M. Klene, C. Adamo, R. Cammi, 
 J. W. Ochterski, R. L. Martin, K. Morokuma, O. Farkas, 
 J. B. Foresman, and D. J. Fox, Gaussian, Inc., Wallingford CT, 2016.
 
 ******************************************
 Gaussian 16:  ES64L-G16RevB.01 20-Dec-2017
                27-Jun-2019 
 ******************************************
 %nprocshared=20
 Will use up to   20 processors via shared memory.
 %mem=100GB
 %chk=7-HACAsite2TSguess-2a.chk
 ---------------------------------------------------------------
 # opt=(ts,calcfc,noeigen) freq b3lyp/6-311+g(d,p) int=grid=fine
 ---------------------------------------------------------------
 1/5=1,10=4,11=1,18=20,26=3,38=1/1,3;
 2/9=110,12=2,17=6,18=5,40=1/2;
 3/5=4,6=6,7=111,11=2,25=1,30=1,71=2,74=-5,75=-4,140=1/1,2,3;
 4//1;
 5/5=2,38=5/2;
 8/6=4,10=90,11=11/1;
 11/6=1,8=1,9=11,15=111,16=1/1,2,10;
 10/6=1,13=1/2;
 6/7=2,8=2,9=2,10=2,28=1/1;
 7/10=1,18=20,25=1/1,2,3,16;
 1/5=1,10=4,11=1,18=20,26=3/3(2);
 2/9=110/2;
 99//99;
 2/9=110/2;
 3/5=4,6=6,7=111,11=2,25=1,30=1,71=1,74=-5,75=-4/1,2,3;
 4/5=5,16=3,69=1/1;
 5/5=2,38=5/2;
 7//1,2,3,16;
 1/5=1,11=1,18=20,26=3/3(-5);
 2/9=110/2;
 6/7=2,8=2,9=2,10=2,19=2,28=1/1;
 99/9=1/99;
 ---------------------
 7-HACAsite2TSguess-2a
 ---------------------
 Symbolic Z-matrix:
 Charge =  0 Multiplicity = 3
 C                     3.72439  -0.62378  -0.10752 
 C                     2.45071  -0.0705   -0.10418 
 C                     1.27625  -0.83446  -0.04966 
 C                     1.30607  -2.22528   0.02273 
 C                     3.76872  -2.06874  -0.05227 
 C                     2.62345  -2.82536   0.01246 
 C                     0.1303    0.0136   -0.04429 
 C                    -1.14164  -0.62586  -0.01436 
 C                    -1.13776  -2.06931   0.11085 
 C                     0.0461   -2.83864   0.12184 
 C                    -2.41849   0.05772  -0.11552 
 C                    -3.63087  -0.67982   0.02964 
 C                    -3.57925  -2.09971   0.22122 
 C                    -2.39465  -2.75757   0.23625 
 C                    -2.51601   1.44089  -0.38705 
 C                    -3.74045   2.07629  -0.46485 
 C                    -4.92962   1.35129  -0.28192 
 C                    -4.86904  -0.00739  -0.04591 
 C                     4.7881    0.31603  -0.14679 
 C                     4.50438   1.68063  -0.16172 
 C                     3.18847   2.20345  -0.13774 
 C                     2.12166   1.30975  -0.11457 
 C                     0.67261   1.35059  -0.06326 
 H                     3.03624   3.27612  -0.12994 
 H                     5.33228   2.38072  -0.1857 
 H                     5.82011  -0.01819  -0.15811 
 H                     4.73283  -2.56703  -0.05434 
 H                     2.70487  -3.90643   0.06155 
 H                    -0.0406   -3.91683   0.21156 
 H                    -2.37107  -3.83609   0.35134 
 H                    -4.51241  -2.64203   0.33081 
 H                    -5.781    -0.58274   0.07574 
 H                    -1.61457   2.01248  -0.55241 
 H                    -3.78067   3.13895  -0.6759 
 H                    -5.88859   1.8537   -0.34046 
 C                    -0.0192    3.21839   1.04553 
 C                     0.15907   4.23794   0.40455 
 H                    -0.30358   2.60566   1.87059 
 H                     0.36635   5.02093  -0.28542 
 
 Add virtual bond connecting atoms C36        and C23        Dist= 4.31D+00.

 GradGradGradGradGradGradGradGradGradGradGradGradGradGradGradGradGradGrad
 Berny optimization.
 Initialization pass.
                           ----------------------------
                           !    Initial Parameters    !
                           ! (Angstroms and Degrees)  !
 --------------------------                            --------------------------
 ! Name  Definition              Value          Derivative Info.                !
 --------------------------------------------------------------------------------
 ! R1    R(1,2)                  1.3887         calculate D2E/DX2 analytically  !
 ! R2    R(1,5)                  1.4467         calculate D2E/DX2 analytically  !
 ! R3    R(1,19)                 1.42           calculate D2E/DX2 analytically  !
 ! R4    R(2,3)                  1.4021         calculate D2E/DX2 analytically  !
 ! R5    R(2,22)                 1.419          calculate D2E/DX2 analytically  !
 ! R6    R(3,4)                  1.393          calculate D2E/DX2 analytically  !
 ! R7    R(3,7)                  1.4256         calculate D2E/DX2 analytically  !
 ! R8    R(4,6)                  1.4476         calculate D2E/DX2 analytically  !
 ! R9    R(4,10)                 1.4048         calculate D2E/DX2 analytically  !
 ! R10   R(5,6)                  1.3742         calculate D2E/DX2 analytically  !
 ! R11   R(5,27)                 1.0853         calculate D2E/DX2 analytically  !
 ! R12   R(6,28)                 1.0852         calculate D2E/DX2 analytically  !
 ! R13   R(7,8)                  1.424          calculate D2E/DX2 analytically  !
 ! R14   R(7,23)                 1.4429         calculate D2E/DX2 analytically  !
 ! R15   R(8,9)                  1.4489         calculate D2E/DX2 analytically  !
 ! R16   R(8,11)                 1.4518         calculate D2E/DX2 analytically  !
 ! R17   R(9,10)                 1.4119         calculate D2E/DX2 analytically  !
 ! R18   R(9,14)                 1.4385         calculate D2E/DX2 analytically  !
 ! R19   R(10,29)                1.0854         calculate D2E/DX2 analytically  !
 ! R20   R(11,12)                1.4265         calculate D2E/DX2 analytically  !
 ! R21   R(11,15)                1.4129         calculate D2E/DX2 analytically  !
 ! R22   R(12,13)                1.4337         calculate D2E/DX2 analytically  !
 ! R23   R(12,18)                1.411          calculate D2E/DX2 analytically  !
 ! R24   R(13,14)                1.3551         calculate D2E/DX2 analytically  !
 ! R25   R(13,31)                1.0849         calculate D2E/DX2 analytically  !
 ! R26   R(14,30)                1.0849         calculate D2E/DX2 analytically  !
 ! R27   R(15,16)                1.3817         calculate D2E/DX2 analytically  !
 ! R28   R(15,33)                1.0801         calculate D2E/DX2 analytically  !
 ! R29   R(16,17)                1.4047         calculate D2E/DX2 analytically  !
 ! R30   R(16,34)                1.0842         calculate D2E/DX2 analytically  !
 ! R31   R(17,18)                1.3804         calculate D2E/DX2 analytically  !
 ! R32   R(17,35)                1.0842         calculate D2E/DX2 analytically  !
 ! R33   R(18,32)                1.0851         calculate D2E/DX2 analytically  !
 ! R34   R(19,20)                1.3939         calculate D2E/DX2 analytically  !
 ! R35   R(19,26)                1.0848         calculate D2E/DX2 analytically  !
 ! R36   R(20,21)                1.4162         calculate D2E/DX2 analytically  !
 ! R37   R(20,25)                1.0845         calculate D2E/DX2 analytically  !
 ! R38   R(21,22)                1.3919         calculate D2E/DX2 analytically  !
 ! R39   R(21,24)                1.0834         calculate D2E/DX2 analytically  !
 ! R40   R(22,23)                1.4505         calculate D2E/DX2 analytically  !
 ! R41   R(23,36)                2.2796         calculate D2E/DX2 analytically  !
 ! R42   R(36,37)                1.2174         calculate D2E/DX2 analytically  !
 ! R43   R(36,38)                1.0663         calculate D2E/DX2 analytically  !
 ! R44   R(37,39)                1.064          calculate D2E/DX2 analytically  !
 ! A1    A(2,1,5)              115.2117         calculate D2E/DX2 analytically  !
 ! A2    A(2,1,19)             115.0525         calculate D2E/DX2 analytically  !
 ! A3    A(5,1,19)             129.7298         calculate D2E/DX2 analytically  !
 ! A4    A(1,2,3)              123.4541         calculate D2E/DX2 analytically  !
 ! A5    A(1,2,22)             126.8864         calculate D2E/DX2 analytically  !
 ! A6    A(3,2,22)             109.6359         calculate D2E/DX2 analytically  !
 ! A7    A(2,3,4)              121.8768         calculate D2E/DX2 analytically  !
 ! A8    A(2,3,7)              110.4459         calculate D2E/DX2 analytically  !
 ! A9    A(4,3,7)              127.657          calculate D2E/DX2 analytically  !
 ! A10   A(3,4,6)              115.6565         calculate D2E/DX2 analytically  !
 ! A11   A(3,4,10)             114.8589         calculate D2E/DX2 analytically  !
 ! A12   A(6,4,10)             129.4714         calculate D2E/DX2 analytically  !
 ! A13   A(1,5,6)              121.7496         calculate D2E/DX2 analytically  !
 ! A14   A(1,5,27)             119.0611         calculate D2E/DX2 analytically  !
 ! A15   A(6,5,27)             119.1876         calculate D2E/DX2 analytically  !
 ! A16   A(4,6,5)              122.0412         calculate D2E/DX2 analytically  !
 ! A17   A(4,6,28)             118.7434         calculate D2E/DX2 analytically  !
 ! A18   A(5,6,28)             119.2149         calculate D2E/DX2 analytically  !
 ! A19   A(3,7,8)              116.8048         calculate D2E/DX2 analytically  !
 ! A20   A(3,7,23)             104.4206         calculate D2E/DX2 analytically  !
 ! A21   A(8,7,23)             138.7727         calculate D2E/DX2 analytically  !
 ! A22   A(7,8,9)              116.5393         calculate D2E/DX2 analytically  !
 ! A23   A(7,8,11)             124.9374         calculate D2E/DX2 analytically  !
 ! A24   A(9,8,11)             118.5188         calculate D2E/DX2 analytically  !
 ! A25   A(8,9,10)             123.0765         calculate D2E/DX2 analytically  !
 ! A26   A(8,9,14)             118.8073         calculate D2E/DX2 analytically  !
 ! A27   A(10,9,14)            118.1156         calculate D2E/DX2 analytically  !
 ! A28   A(4,10,9)             120.9019         calculate D2E/DX2 analytically  !
 ! A29   A(4,10,29)            120.7425         calculate D2E/DX2 analytically  !
 ! A30   A(9,10,29)            118.3554         calculate D2E/DX2 analytically  !
 ! A31   A(8,11,12)            119.7976         calculate D2E/DX2 analytically  !
 ! A32   A(8,11,15)            122.3441         calculate D2E/DX2 analytically  !
 ! A33   A(12,11,15)           117.8414         calculate D2E/DX2 analytically  !
 ! A34   A(11,12,13)           119.6726         calculate D2E/DX2 analytically  !
 ! A35   A(11,12,18)           119.6011         calculate D2E/DX2 analytically  !
 ! A36   A(13,12,18)           120.712          calculate D2E/DX2 analytically  !
 ! A37   A(12,13,14)           120.9143         calculate D2E/DX2 analytically  !
 ! A38   A(12,13,31)           118.5299         calculate D2E/DX2 analytically  !
 ! A39   A(14,13,31)           120.5401         calculate D2E/DX2 analytically  !
 ! A40   A(9,14,13)            122.0454         calculate D2E/DX2 analytically  !
 ! A41   A(9,14,30)            117.7689         calculate D2E/DX2 analytically  !
 ! A42   A(13,14,30)           120.1847         calculate D2E/DX2 analytically  !
 ! A43   A(11,15,16)           121.4779         calculate D2E/DX2 analytically  !
 ! A44   A(11,15,33)           119.3317         calculate D2E/DX2 analytically  !
 ! A45   A(16,15,33)           119.1839         calculate D2E/DX2 analytically  !
 ! A46   A(15,16,17)           120.3668         calculate D2E/DX2 analytically  !
 ! A47   A(15,16,34)           119.6426         calculate D2E/DX2 analytically  !
 ! A48   A(17,16,34)           119.989          calculate D2E/DX2 analytically  !
 ! A49   A(16,17,18)           119.5466         calculate D2E/DX2 analytically  !
 ! A50   A(16,17,35)           120.1711         calculate D2E/DX2 analytically  !
 ! A51   A(18,17,35)           120.2762         calculate D2E/DX2 analytically  !
 ! A52   A(12,18,17)           121.1137         calculate D2E/DX2 analytically  !
 ! A53   A(12,18,32)           118.6066         calculate D2E/DX2 analytically  !
 ! A54   A(17,18,32)           120.2769         calculate D2E/DX2 analytically  !
 ! A55   A(1,19,20)            119.7208         calculate D2E/DX2 analytically  !
 ! A56   A(1,19,26)            120.5985         calculate D2E/DX2 analytically  !
 ! A57   A(20,19,26)           119.6792         calculate D2E/DX2 analytically  !
 ! A58   A(19,20,21)           123.3943         calculate D2E/DX2 analytically  !
 ! A59   A(19,20,25)           118.479          calculate D2E/DX2 analytically  !
 ! A60   A(21,20,25)           118.1252         calculate D2E/DX2 analytically  !
 ! A61   A(20,21,22)           118.3868         calculate D2E/DX2 analytically  !
 ! A62   A(20,21,24)           119.7486         calculate D2E/DX2 analytically  !
 ! A63   A(22,21,24)           121.8628         calculate D2E/DX2 analytically  !
 ! A64   A(2,22,21)            116.5484         calculate D2E/DX2 analytically  !
 ! A65   A(2,22,23)            104.9978         calculate D2E/DX2 analytically  !
 ! A66   A(21,22,23)           138.433          calculate D2E/DX2 analytically  !
 ! A67   A(7,23,22)            110.4772         calculate D2E/DX2 analytically  !
 ! A68   A(7,23,36)            129.6984         calculate D2E/DX2 analytically  !
 ! A69   A(22,23,36)           110.0865         calculate D2E/DX2 analytically  !
 ! A70   A(23,36,37)           112.6843         calculate D2E/DX2 analytically  !
 ! A71   A(23,36,38)            89.2246         calculate D2E/DX2 analytically  !
 ! A72   A(37,36,38)           158.0726         calculate D2E/DX2 analytically  !
 ! A73   L(36,37,39,19,-1)     173.1407         calculate D2E/DX2 analytically  !
 ! A74   L(36,37,39,19,-2)     173.0181         calculate D2E/DX2 analytically  !
 ! D1    D(5,1,2,3)              0.0952         calculate D2E/DX2 analytically  !
 ! D2    D(5,1,2,22)           178.1436         calculate D2E/DX2 analytically  !
 ! D3    D(19,1,2,3)          -179.1052         calculate D2E/DX2 analytically  !
 ! D4    D(19,1,2,22)           -1.0569         calculate D2E/DX2 analytically  !
 ! D5    D(2,1,5,6)             -0.6374         calculate D2E/DX2 analytically  !
 ! D6    D(2,1,5,27)           179.8413         calculate D2E/DX2 analytically  !
 ! D7    D(19,1,5,6)           178.4208         calculate D2E/DX2 analytically  !
 ! D8    D(19,1,5,27)           -1.1005         calculate D2E/DX2 analytically  !
 ! D9    D(2,1,19,20)            0.7869         calculate D2E/DX2 analytically  !
 ! D10   D(2,1,19,26)         -179.6543         calculate D2E/DX2 analytically  !
 ! D11   D(5,1,19,20)         -178.2724         calculate D2E/DX2 analytically  !
 ! D12   D(5,1,19,26)            1.2863         calculate D2E/DX2 analytically  !
 ! D13   D(1,2,3,4)              0.8151         calculate D2E/DX2 analytically  !
 ! D14   D(1,2,3,7)            179.2929         calculate D2E/DX2 analytically  !
 ! D15   D(22,2,3,4)          -177.5276         calculate D2E/DX2 analytically  !
 ! D16   D(22,2,3,7)             0.9501         calculate D2E/DX2 analytically  !
 ! D17   D(1,2,22,21)            0.3693         calculate D2E/DX2 analytically  !
 ! D18   D(1,2,22,23)         -178.2761         calculate D2E/DX2 analytically  !
 ! D19   D(3,2,22,21)          178.6405         calculate D2E/DX2 analytically  !
 ! D20   D(3,2,22,23)           -0.0049         calculate D2E/DX2 analytically  !
 ! D21   D(2,3,4,6)             -1.1107         calculate D2E/DX2 analytically  !
 ! D22   D(2,3,4,10)           177.6914         calculate D2E/DX2 analytically  !
 ! D23   D(7,3,4,6)           -179.309          calculate D2E/DX2 analytically  !
 ! D24   D(7,3,4,10)            -0.5068         calculate D2E/DX2 analytically  !
 ! D25   D(2,3,7,8)            178.9424         calculate D2E/DX2 analytically  !
 ! D26   D(2,3,7,23)            -1.4643         calculate D2E/DX2 analytically  !
 ! D27   D(4,3,7,8)             -2.6904         calculate D2E/DX2 analytically  !
 ! D28   D(4,3,7,23)           176.9028         calculate D2E/DX2 analytically  !
 ! D29   D(3,4,6,5)              0.5694         calculate D2E/DX2 analytically  !
 ! D30   D(3,4,6,28)          -179.6801         calculate D2E/DX2 analytically  !
 ! D31   D(10,4,6,5)          -178.0226         calculate D2E/DX2 analytically  !
 ! D32   D(10,4,6,28)            1.7279         calculate D2E/DX2 analytically  !
 ! D33   D(3,4,10,9)             1.5361         calculate D2E/DX2 analytically  !
 ! D34   D(3,4,10,29)         -178.2965         calculate D2E/DX2 analytically  !
 ! D35   D(6,4,10,9)          -179.8626         calculate D2E/DX2 analytically  !
 ! D36   D(6,4,10,29)            0.3047         calculate D2E/DX2 analytically  !
 ! D37   D(1,5,6,4)              0.3068         calculate D2E/DX2 analytically  !
 ! D38   D(1,5,6,28)          -179.4426         calculate D2E/DX2 analytically  !
 ! D39   D(27,5,6,4)           179.8276         calculate D2E/DX2 analytically  !
 ! D40   D(27,5,6,28)            0.0782         calculate D2E/DX2 analytically  !
 ! D41   D(3,7,8,9)              4.5738         calculate D2E/DX2 analytically  !
 ! D42   D(3,7,8,11)          -174.6451         calculate D2E/DX2 analytically  !
 ! D43   D(23,7,8,9)          -174.8284         calculate D2E/DX2 analytically  !
 ! D44   D(23,7,8,11)            5.9526         calculate D2E/DX2 analytically  !
 ! D45   D(3,7,23,22)            1.466          calculate D2E/DX2 analytically  !
 ! D46   D(3,7,23,36)         -140.3918         calculate D2E/DX2 analytically  !
 ! D47   D(8,7,23,22)         -179.0849         calculate D2E/DX2 analytically  !
 ! D48   D(8,7,23,36)           39.0573         calculate D2E/DX2 analytically  !
 ! D49   D(7,8,9,10)            -3.8347         calculate D2E/DX2 analytically  !
 ! D50   D(7,8,9,14)           175.8787         calculate D2E/DX2 analytically  !
 ! D51   D(11,8,9,10)          175.4366         calculate D2E/DX2 analytically  !
 ! D52   D(11,8,9,14)           -4.85           calculate D2E/DX2 analytically  !
 ! D53   D(7,8,11,12)         -175.2078         calculate D2E/DX2 analytically  !
 ! D54   D(7,8,11,15)            6.3189         calculate D2E/DX2 analytically  !
 ! D55   D(9,8,11,12)            5.5875         calculate D2E/DX2 analytically  !
 ! D56   D(9,8,11,15)         -172.8858         calculate D2E/DX2 analytically  !
 ! D57   D(8,9,10,4)             0.6428         calculate D2E/DX2 analytically  !
 ! D58   D(8,9,10,29)         -179.5207         calculate D2E/DX2 analytically  !
 ! D59   D(14,9,10,4)         -179.0725         calculate D2E/DX2 analytically  !
 ! D60   D(14,9,10,29)           0.764          calculate D2E/DX2 analytically  !
 ! D61   D(8,9,14,13)            0.9779         calculate D2E/DX2 analytically  !
 ! D62   D(8,9,14,30)         -178.6565         calculate D2E/DX2 analytically  !
 ! D63   D(10,9,14,13)        -179.2944         calculate D2E/DX2 analytically  !
 ! D64   D(10,9,14,30)           1.0713         calculate D2E/DX2 analytically  !
 ! D65   D(8,11,12,13)          -2.479          calculate D2E/DX2 analytically  !
 ! D66   D(8,11,12,18)         178.8866         calculate D2E/DX2 analytically  !
 ! D67   D(15,11,12,13)        176.0624         calculate D2E/DX2 analytically  !
 ! D68   D(15,11,12,18)         -2.572          calculate D2E/DX2 analytically  !
 ! D69   D(8,11,15,16)        -179.2751         calculate D2E/DX2 analytically  !
 ! D70   D(8,11,15,33)           1.6605         calculate D2E/DX2 analytically  !
 ! D71   D(12,11,15,16)          2.2231         calculate D2E/DX2 analytically  !
 ! D72   D(12,11,15,33)       -176.8413         calculate D2E/DX2 analytically  !
 ! D73   D(11,12,13,14)         -1.5121         calculate D2E/DX2 analytically  !
 ! D74   D(11,12,13,31)        179.9211         calculate D2E/DX2 analytically  !
 ! D75   D(18,12,13,14)        177.1068         calculate D2E/DX2 analytically  !
 ! D76   D(18,12,13,31)         -1.4599         calculate D2E/DX2 analytically  !
 ! D77   D(11,12,18,17)          1.1588         calculate D2E/DX2 analytically  !
 ! D78   D(11,12,18,32)       -179.4515         calculate D2E/DX2 analytically  !
 ! D79   D(13,12,18,17)       -177.4611         calculate D2E/DX2 analytically  !
 ! D80   D(13,12,18,32)          1.9286         calculate D2E/DX2 analytically  !
 ! D81   D(12,13,14,9)           2.2724         calculate D2E/DX2 analytically  !
 ! D82   D(12,13,14,30)       -178.1019         calculate D2E/DX2 analytically  !
 ! D83   D(31,13,14,9)        -179.1896         calculate D2E/DX2 analytically  !
 ! D84   D(31,13,14,30)          0.4361         calculate D2E/DX2 analytically  !
 ! D85   D(11,15,16,17)         -0.4045         calculate D2E/DX2 analytically  !
 ! D86   D(11,15,16,34)       -179.9369         calculate D2E/DX2 analytically  !
 ! D87   D(33,15,16,17)        178.6612         calculate D2E/DX2 analytically  !
 ! D88   D(33,15,16,34)         -0.8712         calculate D2E/DX2 analytically  !
 ! D89   D(15,16,17,18)         -1.0993         calculate D2E/DX2 analytically  !
 ! D90   D(15,16,17,35)        179.8008         calculate D2E/DX2 analytically  !
 ! D91   D(34,16,17,18)        178.4314         calculate D2E/DX2 analytically  !
 ! D92   D(34,16,17,35)         -0.6684         calculate D2E/DX2 analytically  !
 ! D93   D(16,17,18,12)          0.7056         calculate D2E/DX2 analytically  !
 ! D94   D(16,17,18,32)       -178.674          calculate D2E/DX2 analytically  !
 ! D95   D(35,17,18,12)        179.8045         calculate D2E/DX2 analytically  !
 ! D96   D(35,17,18,32)          0.4249         calculate D2E/DX2 analytically  !
 ! D97   D(1,19,20,21)           0.092          calculate D2E/DX2 analytically  !
 ! D98   D(1,19,20,25)         179.634          calculate D2E/DX2 analytically  !
 ! D99   D(26,19,20,21)       -179.4708         calculate D2E/DX2 analytically  !
 ! D100  D(26,19,20,25)          0.0712         calculate D2E/DX2 analytically  !
 ! D101  D(19,20,21,22)         -0.8147         calculate D2E/DX2 analytically  !
 ! D102  D(19,20,21,24)        178.7047         calculate D2E/DX2 analytically  !
 ! D103  D(25,20,21,22)        179.6418         calculate D2E/DX2 analytically  !
 ! D104  D(25,20,21,24)         -0.8388         calculate D2E/DX2 analytically  !
 ! D105  D(20,21,22,2)           0.5798         calculate D2E/DX2 analytically  !
 ! D106  D(20,21,22,23)        178.6076         calculate D2E/DX2 analytically  !
 ! D107  D(24,21,22,2)        -178.9289         calculate D2E/DX2 analytically  !
 ! D108  D(24,21,22,23)         -0.9011         calculate D2E/DX2 analytically  !
 ! D109  D(2,22,23,7)           -0.9308         calculate D2E/DX2 analytically  !
 ! D110  D(2,22,23,36)         148.6727         calculate D2E/DX2 analytically  !
 ! D111  D(21,22,23,7)        -179.1044         calculate D2E/DX2 analytically  !
 ! D112  D(21,22,23,36)        -29.5009         calculate D2E/DX2 analytically  !
 ! D113  D(7,23,36,37)        -146.4474         calculate D2E/DX2 analytically  !
 ! D114  D(7,23,36,38)          34.4792         calculate D2E/DX2 analytically  !
 ! D115  D(22,23,36,37)         71.5816         calculate D2E/DX2 analytically  !
 ! D116  D(22,23,36,38)       -107.4918         calculate D2E/DX2 analytically  !
 --------------------------------------------------------------------------------
 Trust Radius=3.00D-01 FncErr=1.00D-07 GrdErr=1.00D-06 EigMax=2.50D+02 EigMin=1.00D-04
 Number of steps in this run=    234 maximum allowed number of steps=    234.
 Search for a saddle point of order  1.
 GradGradGradGradGradGradGradGradGradGradGradGradGradGradGradGradGradGrad

                          Input orientation:                          
 ---------------------------------------------------------------------
 Center     Atomic      Atomic             Coordinates (Angstroms)
 Number     Number       Type             X           Y           Z
 ---------------------------------------------------------------------
      1          6           0        3.724392   -0.623783   -0.107521
      2          6           0        2.450709   -0.070496   -0.104177
      3          6           0        1.276254   -0.834464   -0.049661
      4          6           0        1.306068   -2.225282    0.022725
      5          6           0        3.768722   -2.068735   -0.052265
      6          6           0        2.623445   -2.825363    0.012462
      7          6           0        0.130303    0.013597   -0.044288
      8          6           0       -1.141644   -0.625858   -0.014363
      9          6           0       -1.137763   -2.069314    0.110845
     10          6           0        0.046095   -2.838638    0.121841
     11          6           0       -2.418488    0.057718   -0.115515
     12          6           0       -3.630871   -0.679815    0.029638
     13          6           0       -3.579247   -2.099713    0.221217
     14          6           0       -2.394647   -2.757565    0.236245
     15          6           0       -2.516007    1.440888   -0.387045
     16          6           0       -3.740452    2.076287   -0.464854
     17          6           0       -4.929620    1.351287   -0.281923
     18          6           0       -4.869044   -0.007391   -0.045913
     19          6           0        4.788103    0.316029   -0.146794
     20          6           0        4.504375    1.680626   -0.161719
     21          6           0        3.188473    2.203454   -0.137740
     22          6           0        2.121663    1.309747   -0.114568
     23          6           0        0.672609    1.350585   -0.063257
     24          1           0        3.036241    3.276125   -0.129941
     25          1           0        5.332281    2.380722   -0.185701
     26          1           0        5.820113   -0.018189   -0.158108
     27          1           0        4.732829   -2.567029   -0.054339
     28          1           0        2.704874   -3.906430    0.061551
     29          1           0       -0.040600   -3.916827    0.211561
     30          1           0       -2.371067   -3.836086    0.351342
     31          1           0       -4.512405   -2.642033    0.330810
     32          1           0       -5.780996   -0.582741    0.075736
     33          1           0       -1.614566    2.012482   -0.552406
     34          1           0       -3.780668    3.138949   -0.675904
     35          1           0       -5.888594    1.853700   -0.340461
     36          6           0       -0.019202    3.218388    1.045526
     37          6           0        0.159073    4.237940    0.404553
     38          1           0       -0.303581    2.605664    1.870589
     39          1           0        0.366345    5.020926   -0.285418
 ---------------------------------------------------------------------
                    Distance matrix (angstroms):
                    1          2          3          4          5
     1  C    0.000000
     2  C    1.388671   0.000000
     3  C    2.457868   1.402128   0.000000
     4  C    2.903456   2.443238   1.393019   0.000000
     5  C    1.446687   2.394329   2.781336   2.468764   0.000000
     6  C    2.464434   2.762740   2.404675   1.447648   1.374167
     7  C    3.650716   2.322702   1.425637   2.529722   4.192167
     8  C    4.866928   3.636137   2.427137   2.924180   5.118108
     9  C    5.077184   4.113227   2.716265   2.450388   4.909195
    10  C    4.299774   3.673672   2.357842   1.404835   3.805393
    11  C    6.180573   4.870898   3.801505   4.370757   6.542734
    12  C    7.356755   6.113493   4.910202   5.173189   7.529262
    13  C    7.458524   6.370555   5.024950   4.890958   7.353122
    14  C    6.489518   5.551009   4.153983   3.744891   6.208449
    15  C    6.579026   5.199285   4.435346   5.311965   7.206063
    16  C    7.946192   6.562716   5.814826   6.648954   8.587149
    17  C    8.878245   7.518133   6.583641   7.195030   9.349355
    18  C    8.615734   7.320257   6.200706   6.561689   8.880325
    19  C    1.419954   2.369521   3.696776   4.314112   2.595221
    20  C    2.433436   2.699497   4.093776   5.051664   3.822417
    21  C    2.877741   2.390872   3.590722   4.814862   4.312261
    22  C    2.511439   1.418961   2.305769   3.630492   3.759099
    23  C    3.635033   2.276573   2.266939   3.632559   4.612785
    24  H    3.960219   3.397556   4.472241   5.769080   5.395377
    25  H    3.408588   3.783989   5.177575   6.121201   4.718071
    26  H    2.182052   3.370242   4.617870   5.027978   2.902438
    27  H    2.189972   3.382785   3.866486   3.444622   1.085267
    28  H    3.441478   3.847916   3.389734   2.187333   2.126464
    29  H    5.012097   4.593536   3.362039   2.170368   4.242167
    30  H    6.905365   6.134875   4.740621   4.027903   6.401831
    31  H    8.491778   7.435521   6.076235   5.841509   8.309782
    32  H    9.507243   8.249590   7.062851   7.275110   9.665489
    33  H    5.970954   4.589789   4.088361   5.178757   6.773940
    34  H    8.414698   7.032600   6.461629   7.425493   9.192507
    35  H    9.929838   8.561678   7.658057   8.278476  10.427478
    36  C    5.486920   4.270718   4.393546   5.695262   6.595997
    37  C    6.050626   4.906427   5.213798   6.575304   7.280961
    38  H    5.528726   4.318292   4.244728   5.416974   6.490842
    39  H    6.570454   5.504544   5.930355   7.313382   7.867263
                    6          7          8          9         10
     6  C    0.000000
     7  C    3.778713   0.000000
     8  C    4.360555   1.423955   0.000000
     9  C    3.837704   2.443476   1.448881   0.000000
    10  C    2.579704   2.858310   2.515089   1.411914   0.000000
    11  C    5.809443   2.550168   1.451840   2.493143   3.810431
    12  C    6.612121   3.825273   2.490200   2.855327   4.264868
    13  C    6.248483   4.277538   2.858261   2.444167   3.701215
    14  C    5.023537   3.759443   2.485356   1.438462   2.444766
    15  C    6.691373   3.026152   2.509822   3.803810   5.013749
    16  C    8.046937   4.406167   3.776021   4.928633   6.232065
    17  C    8.635963   5.239151   4.281291   5.121812   6.517380
    18  C    8.005109   4.999391   3.778493   4.265977   5.674742
    19  C    3.818305   4.668734   6.005546   6.393131   5.701818
    20  C    4.885916   4.682444   6.100747   6.780123   6.354559
    21  C    5.062689   3.762527   5.173987   6.085611   5.946815
    22  C    4.167380   2.377069   3.795495   4.700290   4.644671
    23  C    4.609776   1.442911   2.683325   3.873431   4.239855
    24  H    6.117094   4.369886   5.717828   6.786310   6.811365
    25  H    5.872000   5.716979   7.140069   7.858259   7.435056
    26  H    4.257700   5.691037   6.989706   7.258890   6.432153
    27  H    2.126194   5.276644   6.187017   5.893968   4.697902
    28  H    1.085240   4.691080   5.056047   4.259493   2.865819
    29  H    2.885840   3.942448   3.477616   2.151096   1.085383
    30  H    5.107010   4.607975   3.456991   2.168032   2.624928
    31  H    7.145300   5.361698   3.942859   3.429956   4.567521
    32  H    8.698735   5.942515   4.640427   4.875525   6.248695
    33  H    6.456358   2.701535   2.733859   4.162728   5.171631
    34  H    8.778356   5.046034   4.644982   5.893210   7.142273
    35  H    9.719722   6.300859   5.365453   6.177711   7.579729
    36  C    6.676656   3.388323   4.142640   5.484943   6.127399
    37  C    7.491136   4.248218   5.052117   6.445890   7.083124
    38  H    6.443304   3.251741   3.833814   5.064383   5.728946
    39  H    8.169913   5.018685   5.850955   7.258848   7.876621
                   11         12         13         14         15
    11  C    0.000000
    12  C    1.426498   0.000000
    13  C    2.472905   1.433694   0.000000
    14  C    2.837274   2.426516   1.355091   0.000000
    15  C    1.412939   2.431857   3.746507   4.246201   0.000000
    16  C    2.438083   2.802254   4.235051   5.066444   1.381684
    17  C    2.829628   2.430883   3.739794   4.855641   2.417562
    18  C    2.452409   1.411005   2.472397   3.710217   2.784002
    19  C    7.211287   8.479502   8.716868   7.822122   7.394123
    20  C    7.110696   8.472929   8.932108   8.212942   7.028087
    21  C    6.003556   7.405721   8.027959   7.478155   5.760621
    22  C    4.709623   6.088579   6.651131   6.087951   4.647518
    23  C    3.350987   4.759317   5.483043   5.135626   3.206285
    24  H    6.333437   7.754051   8.531567   8.126134   5.853346
    25  H    8.091705   9.473719   9.982746   9.288996   7.906924
    26  H    8.239061   9.475975   9.634552   8.668447   8.465944
    27  H    7.618030   8.574387   8.329761   7.135941   8.289736
    28  H    6.480329   7.110114   6.540634   5.230251   7.486832
    29  H    4.643096   4.837498   3.977942   2.624126   5.932207
    30  H    3.921978   3.413597   2.119345   1.084901   5.330354
    31  H    3.445628   2.172120   1.084853   2.123014   4.601213
    32  H    3.428298   2.152809   2.677698   4.027776   3.869030
    33  H    2.158302   3.413609   4.622620   4.897330   1.080120
    34  H    3.415195   3.886282   5.318738   6.125516   2.136871
    35  H    3.913795   3.413647   4.612813   5.814122   3.398077
    36  C    4.134540   5.410376   6.452566   6.481488   3.383164
    37  C    4.938476   6.220012   7.360332   7.448953   3.950466
    38  H    3.861278   5.025369   5.965818   5.983967   3.368745
    39  H    5.693645   6.969609   8.156462   8.270437   4.597277
                   16         17         18         19         20
    16  C    0.000000
    17  C    1.404710   0.000000
    18  C    2.406438   1.380354   0.000000
    19  C    8.714122   9.773646   9.663088   0.000000
    20  C    8.259880   9.440507   9.524904   1.393861   0.000000
    21  C    6.937808   8.163970   8.355827   2.474120   1.416165
    22  C    5.922388   7.053391   7.114039   2.845772   2.411865
    23  C    4.490326   5.606495   5.705639   4.244358   3.847214
    24  H    6.890236   8.196526   8.560495   3.439691   2.168420
    25  H    9.082130  10.313855  10.478056   2.135556   1.084499
    26  H    9.792105  10.837322  10.689751   1.084838   2.148756
    27  H    9.670853  10.429186   9.937192   2.885070   4.255149
    28  H    8.809780   9.276156   8.519289   4.713004   5.873947
    29  H    7.075582   7.204101   6.218027   6.431319   7.219946
    30  H    6.123524   5.818596   4.588748   8.291074   8.830008
    31  H    4.846807   4.061541   2.685228   9.771268  10.011508
    32  H    3.395068   2.143181   1.085119  10.609579  10.534138
    33  H    2.128645   3.391154   3.863683   6.636011   6.140375
    34  H    1.084163   2.161261   3.388349   9.037293   8.428109
    35  H    2.163223   1.084194   2.142405  10.788596  10.395947
    36  C    4.175326   5.418523   5.926032   5.740688   4.927971
    37  C    4.542566   5.890570   6.596038   6.092068   5.073674
    38  H    4.188868   5.254237   5.598615   5.936119   5.301171
    39  H    5.056568   6.443098   7.262963   6.458112   5.319417
                   21         22         23         24         25
    21  C    0.000000
    22  C    1.391881   0.000000
    23  C    2.657537   1.450537   0.000000
    24  H    1.083447   2.168717   3.049411   0.000000
    25  H    2.151659   3.385279   4.773753   2.465087   0.000000
    26  H    3.444073   3.929865   5.327226   4.313148   2.448166
    27  H    5.014928   4.674528   5.642089   6.084947   4.985663
    28  H    6.132232   5.251634   5.637542   7.192744   6.818554
    29  H    6.928691   5.665582   5.322577   7.830845   8.287629
    30  H    8.223365   6.846991   6.028052   8.947299   9.913561
    31  H    9.110533   7.734713   6.555964   9.603069  11.064027
    32  H    9.394670   8.128330   6.738404   9.626880  11.504581
    33  H    4.824687   3.826872   2.430750   4.837900   6.966258
    34  H    7.052212   6.204723   4.837898   6.840113   9.157568
    35  H    9.086065   8.031882   6.586300   9.039928  11.234311
    36  C    3.566425   3.093870   2.279625   3.274261   5.554815
    37  C    3.689238   3.563083   2.969745   3.080401   5.528086
    38  H    4.048407   3.391468   2.503584   3.950449   6.003488
    39  H    3.990534   4.108915   3.689791   3.193250   5.625046
                   26         27         28         29         30
    26  H    0.000000
    27  H    2.773002   0.000000
    28  H    4.987122   2.433111   0.000000
    29  H    7.048687   4.967724   2.749589   0.000000
    30  H    9.051591   7.227754   5.084693   2.336051   0.000000
    31  H   10.671669   9.253557   7.332143   4.651490   2.451839
    32  H   11.617191  10.700226   9.113567   6.639783   4.720999
    33  H    7.717094   7.842794   7.353096   6.182048   5.966138
    34  H   10.119814  10.267627   9.604346   8.034904   7.189807
    35  H   11.858796  11.508229  10.353183   8.234242   6.724972
    36  C    6.783934   7.567202   7.691023   7.183819   7.468518
    37  C    7.104829   8.212030   8.539878   8.159494   8.461344
    38  H    6.964183   7.471782   7.398026   6.735312   6.933884
    39  H    7.426471   8.757662   9.235085   8.960805   9.292231
                   31         32         33         34         35
    31  H    0.000000
    32  H    2.432092   0.000000
    33  H    5.553562   4.948624   0.000000
    34  H    5.913431   4.291533   2.444622   0.000000
    35  H    4.749328   2.474074   4.282225   2.491533   0.000000
    36  C    7.419180   6.970462   2.559840   4.137422   6.183292
    37  C    8.316380   7.657121   3.002371   4.230452   6.543235
    38  H    6.900974   6.587071   2.818058   4.342713   6.053640
    39  H    9.105102   8.325942   3.611928   4.570780   7.011320
                   36         37         38         39
    36  C    0.000000
    37  C    1.217421   0.000000
    38  H    1.066317   2.242239   0.000000
    39  H    2.273588   1.063997   3.306154   0.000000
 Stoichiometry    C25H14(3)
 Framework group  C1[X(C25H14)]
 Deg. of freedom   111
 Full point group                 C1      NOp   1
 Largest Abelian subgroup         C1      NOp   1
 Largest concise Abelian subgroup C1      NOp   1
                         Standard orientation:                         
 ---------------------------------------------------------------------
 Center     Atomic      Atomic             Coordinates (Angstroms)
 Number     Number       Type             X           Y           Z
 ---------------------------------------------------------------------
      1          6           0        3.724392   -0.623783   -0.107521
      2          6           0        2.450709   -0.070496   -0.104177
      3          6           0        1.276254   -0.834464   -0.049661
      4          6           0        1.306068   -2.225282    0.022725
      5          6           0        3.768722   -2.068735   -0.052265
      6          6           0        2.623445   -2.825363    0.012462
      7          6           0        0.130303    0.013597   -0.044288
      8          6           0       -1.141644   -0.625858   -0.014363
      9          6           0       -1.137763   -2.069314    0.110845
     10          6           0        0.046095   -2.838638    0.121841
     11          6           0       -2.418488    0.057718   -0.115515
     12          6           0       -3.630871   -0.679815    0.029638
     13          6           0       -3.579247   -2.099713    0.221217
     14          6           0       -2.394647   -2.757565    0.236245
     15          6           0       -2.516007    1.440888   -0.387045
     16          6           0       -3.740452    2.076287   -0.464854
     17          6           0       -4.929620    1.351287   -0.281923
     18          6           0       -4.869044   -0.007391   -0.045913
     19          6           0        4.788103    0.316029   -0.146794
     20          6           0        4.504375    1.680626   -0.161719
     21          6           0        3.188473    2.203454   -0.137740
     22          6           0        2.121663    1.309747   -0.114568
     23          6           0        0.672609    1.350585   -0.063257
     24          1           0        3.036241    3.276125   -0.129941
     25          1           0        5.332281    2.380722   -0.185701
     26          1           0        5.820113   -0.018189   -0.158108
     27          1           0        4.732829   -2.567029   -0.054339
     28          1           0        2.704874   -3.906430    0.061551
     29          1           0       -0.040600   -3.916827    0.211561
     30          1           0       -2.371067   -3.836086    0.351342
     31          1           0       -4.512405   -2.642033    0.330810
     32          1           0       -5.780996   -0.582741    0.075736
     33          1           0       -1.614566    2.012482   -0.552406
     34          1           0       -3.780668    3.138949   -0.675904
     35          1           0       -5.888594    1.853700   -0.340461
     36          6           0       -0.019202    3.218388    1.045526
     37          6           0        0.159073    4.237940    0.404553
     38          1           0       -0.303581    2.605664    1.870589
     39          1           0        0.366345    5.020926   -0.285418
 ---------------------------------------------------------------------
 Rotational constants (GHZ):           0.4040640           0.1820060           0.1272798
 Standard basis: 6-311+G(d,p) (5D, 7F)
 There are   659 symmetry adapted cartesian basis functions of A   symmetry.
 There are   634 symmetry adapted basis functions of A   symmetry.
   634 basis functions,  1012 primitive gaussians,   659 cartesian basis functions
    83 alpha electrons       81 beta electrons
       nuclear repulsion energy      1891.9571465960 Hartrees.
 NAtoms=   39 NActive=   39 NUniq=   39 SFac= 1.00D+00 NAtFMM=   60 NAOKFM=F Big=F
 Integral buffers will be    131072 words long.
 Raffenetti 2 integral format.
 Two-electron integral symmetry is turned on.
 One-electron integrals computed using PRISM.
 NBasis=   634 RedAO= T EigKep=  1.07D-06  NBF=   634
 NBsUse=   619 1.00D-06 EigRej=  8.93D-07 NBFU=   619
 ExpMin= 4.38D-02 ExpMax= 4.56D+03 ExpMxC= 6.82D+02 IAcc=2 IRadAn=         4 AccDes= 0.00D+00
 Harris functional with IExCor=  402 and IRadAn=       4 diagonalized for initial guess.
 HarFok:  IExCor=  402 AccDes= 0.00D+00 IRadAn=         4 IDoV= 1 UseB2=F ITyADJ=14
 ICtDFT=  3500011 ScaDFX=  1.000000  1.000000  1.000000  1.000000
 FoFCou: FMM=F IPFlag=           0 FMFlag=      100000 FMFlg1=           0
         NFxFlg=           0 DoJE=T BraDBF=F KetDBF=T FulRan=T
         wScrn=  0.000000 ICntrl=       500 IOpCl=  0 I1Cent=   200000004 NGrid=           0
         NMat0=    1 NMatS0=      1 NMatT0=    0 NMatD0=    1 NMtDS0=    0 NMtDT0=    0
 Petite list used in FoFCou.
 Initial guess <Sx>= 0.0000 <Sy>= 0.0000 <Sz>= 1.0000 <S**2>= 2.0000 S= 1.0000
 Requested convergence on RMS density matrix=1.00D-08 within 128 cycles.
 Requested convergence on MAX density matrix=1.00D-06.
 Requested convergence on             energy=1.00D-06.
 No special actions if energy rises.
 Restarting incremental Fock formation.
 SCF Done:  E(UB3LYP) =  -961.150665408     A.U. after   23 cycles
            NFock= 23  Conv=0.90D-08     -V/T= 2.0045
 <Sx>= 0.0000 <Sy>= 0.0000 <Sz>= 1.0000 <S**2>= 2.0521 S= 1.0173
 <L.S>=  0.00000000000    
 Annihilation of the first spin contaminant:
 S**2 before annihilation     2.0521,   after     2.0016
 DoSCS=F DFT=T ScalE2(SS,OS)=  1.000000  1.000000
 Range of M.O.s used for correlation:     1   619
 NBasis=   634 NAE=    83 NBE=    81 NFC=     0 NFV=     0
 NROrb=    619 NOA=    83 NOB=    81 NVA=   536 NVB=   538

 **** Warning!!: The largest alpha MO coefficient is  0.13333358D+03


 **** Warning!!: The largest beta MO coefficient is  0.12368016D+03


 **** Warning!!: The smallest beta delta epsilon is  0.91851132D-01

 Symmetrizing basis deriv contribution to polar:
 IMax=3 JMax=2 DiffMx= 0.00D+00
 G2DrvN: will do    40 centers at a time, making    1 passes.
 Calling FoFCou, ICntrl=  3107 FMM=F I1Cent=   0 AccDes= 0.00D+00.
 End of G2Drv F.D. properties file   721 does not exist.
 End of G2Drv F.D. properties file   722 does not exist.
 End of G2Drv F.D. properties file   788 does not exist.
          IDoAtm=111111111111111111111111111111111111111
          Differentiating once with respect to nuclear coordinates.
 CalDSu exits because no D1Ps are significant.
          There are   120 degrees of freedom in the 1st order CPHF.  IDoFFX=6 NUNeed=     0.
    114 vectors produced by pass  0 Test12= 8.81D-14 1.00D-09 XBig12= 6.11D-01 2.16D-01.
 AX will form   114 AO Fock derivatives at one time.
    114 vectors produced by pass  1 Test12= 8.81D-14 1.00D-09 XBig12= 1.73D-01 6.80D-02.
    114 vectors produced by pass  2 Test12= 8.81D-14 1.00D-09 XBig12= 2.84D-03 1.13D-02.
    114 vectors produced by pass  3 Test12= 8.81D-14 1.00D-09 XBig12= 5.03D-05 1.02D-03.
    114 vectors produced by pass  4 Test12= 8.81D-14 1.00D-09 XBig12= 4.90D-07 6.85D-05.
    114 vectors produced by pass  5 Test12= 8.81D-14 1.00D-09 XBig12= 3.10D-09 4.35D-06.
    112 vectors produced by pass  6 Test12= 8.81D-14 1.00D-09 XBig12= 9.12D-11 6.24D-07.
     97 vectors produced by pass  7 Test12= 8.81D-14 1.00D-09 XBig12= 2.59D-11 2.79D-07.
     69 vectors produced by pass  8 Test12= 8.81D-14 1.00D-09 XBig12= 3.38D-12 1.00D-07.
     32 vectors produced by pass  9 Test12= 8.81D-14 1.00D-09 XBig12= 8.60D-14 1.66D-08.
      1 vectors produced by pass 10 Test12= 8.81D-14 1.00D-09 XBig12= 5.89D-16 1.17D-09.
 InvSVY:  IOpt=1 It=  1 EMax= 9.99D-16
 Solved reduced A of dimension   995 with   120 vectors.
 End of Minotr F.D. properties file   721 does not exist.
 End of Minotr F.D. properties file   722 does not exist.
 End of Minotr F.D. properties file   788 does not exist.

 **********************************************************************

            Population analysis using the SCF Density.

 **********************************************************************

 Orbital symmetries:
 Alpha Orbitals:
       Occupied  (A) (A) (A) (A) (A) (A) (A) (A) (A) (A) (A) (A)
                 (A) (A) (A) (A) (A) (A) (A) (A) (A) (A) (A) (A)
                 (A) (A) (A) (A) (A) (A) (A) (A) (A) (A) (A) (A)
                 (A) (A) (A) (A) (A) (A) (A) (A) (A) (A) (A) (A)
                 (A) (A) (A) (A) (A) (A) (A) (A) (A) (A) (A) (A)
                 (A) (A) (A) (A) (A) (A) (A) (A) (A) (A) (A) (A)
                 (A) (A) (A) (A) (A) (A) (A) (A) (A) (A) (A)
       Virtual   (A) (A) (A) (A) (A) (A) (A) (A) (A) (A) (A) (A)
                 (A) (A) (A) (A) (A) (A) (A) (A) (A) (A) (A) (A)
                 (A) (A) (A) (A) (A) (A) (A) (A) (A) (A) (A) (A)
                 (A) (A) (A) (A) (A) (A) (A) (A) (A) (A) (A) (A)
                 (A) (A) (A) (A) (A) (A) (A) (A) (A) (A) (A) (A)
                 (A) (A) (A) (A) (A) (A) (A) (A) (A) (A) (A) (A)
                 (A) (A) (A) (A) (A) (A) (A) (A) (A) (A) (A) (A)
                 (A) (A) (A) (A) (A) (A) (A) (A) (A) (A) (A) (A)
                 (A) (A) (A) (A) (A) (A) (A) (A) (A) (A) (A) (A)
                 (A) (A) (A) (A) (A) (A) (A) (A) (A) (A) (A) (A)
                 (A) (A) (A) (A) (A) (A) (A) (A) (A) (A) (A) (A)
                 (A) (A) (A) (A) (A) (A) (A) (A) (A) (A) (A) (A)
                 (A) (A) (A) (A) (A) (A) (A) (A) (A) (A) (A) (A)
                 (A) (A) (A) (A) (A) (A) (A) (A) (A) (A) (A) (A)
                 (A) (A) (A) (A) (A) (A) (A) (A) (A) (A) (A) (A)
                 (A) (A) (A) (A) (A) (A) (A) (A) (A) (A) (A) (A)
                 (A) (A) (A) (A) (A) (A) (A) (A) (A) (A) (A) (A)
                 (A) (A) (A) (A) (A) (A) (A) (A) (A) (A) (A) (A)
                 (A) (A) (A) (A) (A) (A) (A) (A) (A) (A) (A) (A)
                 (A) (A) (A) (A) (A) (A) (A) (A) (A) (A) (A) (A)
                 (A) (A) (A) (A) (A) (A) (A) (A) (A) (A) (A) (A)
                 (A) (A) (A) (A) (A) (A) (A) (A) (A) (A) (A) (A)
                 (A) (A) (A) (A) (A) (A) (A) (A) (A) (A) (A) (A)
                 (A) (A) (A) (A) (A) (A) (A) (A) (A) (A) (A) (A)
                 (A) (A) (A) (A) (A) (A) (A) (A) (A) (A) (A) (A)
                 (A) (A) (A) (A) (A) (A) (A) (A) (A) (A) (A) (A)
                 (A) (A) (A) (A) (A) (A) (A) (A) (A) (A) (A) (A)
                 (A) (A) (A) (A) (A) (A) (A) (A) (A) (A) (A) (A)
                 (A) (A) (A) (A) (A) (A) (A) (A) (A) (A) (A) (A)
                 (A) (A) (A) (A) (A) (A) (A) (A) (A) (A) (A) (A)
                 (A) (A) (A) (A) (A) (A) (A) (A) (A) (A) (A) (A)
                 (A) (A) (A) (A) (A) (A) (A) (A) (A) (A) (A) (A)
                 (A) (A) (A) (A) (A) (A) (A) (A) (A) (A) (A) (A)
                 (A) (A) (A) (A) (A) (A) (A) (A) (A) (A) (A) (A)
                 (A) (A) (A) (A) (A) (A) (A) (A) (A) (A) (A) (A)
                 (A) (A) (A) (A) (A) (A) (A) (A) (A) (A) (A) (A)
                 (A) (A) (A) (A) (A) (A) (A) (A) (A) (A) (A) (A)
                 (A) (A) (A) (A) (A) (A) (A) (A) (A) (A) (A) (A)
                 (A) (A) (A) (A) (A) (A) (A) (A) (A) (A) (A) (A)
                 (A) (A) (A) (A) (A) (A) (A) (A) (A) (A) (A) (A)
                 (A) (A) (A) (A) (A) (A) (A) (A) (A) (A) (A) (A)
                 (A) (A) (A) (A) (A) (A) (A) (A) (A) (A) (A) (A)
                 (A) (A) (A) (A) (A) (A) (A) (A) (A) (A) (A) (A)
                 (A) (A) (A) (A) (A) (A) (A) (A) (A) (A) (A) (A)
                 (A) (A) (A) (A) (A) (A) (A) (A)
 Beta  Orbitals:
       Occupied  (A) (A) (A) (A) (A) (A) (A) (A) (A) (A) (A) (A)
                 (A) (A) (A) (A) (A) (A) (A) (A) (A) (A) (A) (A)
                 (A) (A) (A) (A) (A) (A) (A) (A) (A) (A) (A) (A)
                 (A) (A) (A) (A) (A) (A) (A) (A) (A) (A) (A) (A)
                 (A) (A) (A) (A) (A) (A) (A) (A) (A) (A) (A) (A)
                 (A) (A) (A) (A) (A) (A) (A) (A) (A) (A) (A) (A)
                 (A) (A) (A) (A) (A) (A) (A) (A) (A)
       Virtual   (A) (A) (A) (A) (A) (A) (A) (A) (A) (A) (A) (A)
                 (A) (A) (A) (A) (A) (A) (A) (A) (A) (A) (A) (A)
                 (A) (A) (A) (A) (A) (A) (A) (A) (A) (A) (A) (A)
                 (A) (A) (A) (A) (A) (A) (A) (A) (A) (A) (A) (A)
                 (A) (A) (A) (A) (A) (A) (A) (A) (A) (A) (A) (A)
                 (A) (A) (A) (A) (A) (A) (A) (A) (A) (A) (A) (A)
                 (A) (A) (A) (A) (A) (A) (A) (A) (A) (A) (A) (A)
                 (A) (A) (A) (A) (A) (A) (A) (A) (A) (A) (A) (A)
                 (A) (A) (A) (A) (A) (A) (A) (A) (A) (A) (A) (A)
                 (A) (A) (A) (A) (A) (A) (A) (A) (A) (A) (A) (A)
                 (A) (A) (A) (A) (A) (A) (A) (A) (A) (A) (A) (A)
                 (A) (A) (A) (A) (A) (A) (A) (A) (A) (A) (A) (A)
                 (A) (A) (A) (A) (A) (A) (A) (A) (A) (A) (A) (A)
                 (A) (A) (A) (A) (A) (A) (A) (A) (A) (A) (A) (A)
                 (A) (A) (A) (A) (A) (A) (A) (A) (A) (A) (A) (A)
                 (A) (A) (A) (A) (A) (A) (A) (A) (A) (A) (A) (A)
                 (A) (A) (A) (A) (A) (A) (A) (A) (A) (A) (A) (A)
                 (A) (A) (A) (A) (A) (A) (A) (A) (A) (A) (A) (A)
                 (A) (A) (A) (A) (A) (A) (A) (A) (A) (A) (A) (A)
                 (A) (A) (A) (A) (A) (A) (A) (A) (A) (A) (A) (A)
                 (A) (A) (A) (A) (A) (A) (A) (A) (A) (A) (A) (A)
                 (A) (A) (A) (A) (A) (A) (A) (A) (A) (A) (A) (A)
                 (A) (A) (A) (A) (A) (A) (A) (A) (A) (A) (A) (A)
                 (A) (A) (A) (A) (A) (A) (A) (A) (A) (A) (A) (A)
                 (A) (A) (A) (A) (A) (A) (A) (A) (A) (A) (A) (A)
                 (A) (A) (A) (A) (A) (A) (A) (A) (A) (A) (A) (A)
                 (A) (A) (A) (A) (A) (A) (A) (A) (A) (A) (A) (A)
                 (A) (A) (A) (A) (A) (A) (A) (A) (A) (A) (A) (A)
                 (A) (A) (A) (A) (A) (A) (A) (A) (A) (A) (A) (A)
                 (A) (A) (A) (A) (A) (A) (A) (A) (A) (A) (A) (A)
                 (A) (A) (A) (A) (A) (A) (A) (A) (A) (A) (A) (A)
                 (A) (A) (A) (A) (A) (A) (A) (A) (A) (A) (A) (A)
                 (A) (A) (A) (A) (A) (A) (A) (A) (A) (A) (A) (A)
                 (A) (A) (A) (A) (A) (A) (A) (A) (A) (A) (A) (A)
                 (A) (A) (A) (A) (A) (A) (A) (A) (A) (A) (A) (A)
                 (A) (A) (A) (A) (A) (A) (A) (A) (A) (A) (A) (A)
                 (A) (A) (A) (A) (A) (A) (A) (A) (A) (A) (A) (A)
                 (A) (A) (A) (A) (A) (A) (A) (A) (A) (A) (A) (A)
                 (A) (A) (A) (A) (A) (A) (A) (A) (A) (A) (A) (A)
                 (A) (A) (A) (A) (A) (A) (A) (A) (A) (A) (A) (A)
                 (A) (A) (A) (A) (A) (A) (A) (A) (A) (A) (A) (A)
                 (A) (A) (A) (A) (A) (A) (A) (A) (A) (A) (A) (A)
                 (A) (A) (A) (A) (A) (A) (A) (A) (A) (A) (A) (A)
                 (A) (A) (A) (A) (A) (A) (A) (A) (A) (A) (A) (A)
                 (A) (A) (A) (A) (A) (A) (A) (A) (A) (A)
 The electronic state is 3-A.
 Alpha  occ. eigenvalues --  -10.21925 -10.20447 -10.19920 -10.19491 -10.19365
 Alpha  occ. eigenvalues --  -10.19177 -10.19141 -10.19120 -10.19111 -10.19051
 Alpha  occ. eigenvalues --  -10.19011 -10.18989 -10.18904 -10.18841 -10.18759
 Alpha  occ. eigenvalues --  -10.18674 -10.18294 -10.18131 -10.17997 -10.17885
 Alpha  occ. eigenvalues --  -10.17865 -10.17732 -10.17676 -10.17534 -10.17117
 Alpha  occ. eigenvalues --   -0.91671  -0.88401  -0.85507  -0.83907  -0.82679
 Alpha  occ. eigenvalues --   -0.79254  -0.78324  -0.77670  -0.75239  -0.74708
 Alpha  occ. eigenvalues --   -0.72837  -0.71475  -0.69472  -0.64694  -0.64059
 Alpha  occ. eigenvalues --   -0.61999  -0.60608  -0.59341  -0.58867  -0.57140
 Alpha  occ. eigenvalues --   -0.56546  -0.52779  -0.51816  -0.51617  -0.50936
 Alpha  occ. eigenvalues --   -0.50613  -0.47982  -0.46971  -0.46526  -0.45509
 Alpha  occ. eigenvalues --   -0.44224  -0.43820  -0.43232  -0.42949  -0.42338
 Alpha  occ. eigenvalues --   -0.41463  -0.41277  -0.40095  -0.39826  -0.39459
 Alpha  occ. eigenvalues --   -0.37409  -0.36768  -0.36189  -0.35223  -0.34671
 Alpha  occ. eigenvalues --   -0.34314  -0.33567  -0.33374  -0.32712  -0.30858
 Alpha  occ. eigenvalues --   -0.29682  -0.29361  -0.25783  -0.25099  -0.24256
 Alpha  occ. eigenvalues --   -0.23008  -0.21331  -0.19105
 Alpha virt. eigenvalues --   -0.06893  -0.05319  -0.02250  -0.01132  -0.00147
 Alpha virt. eigenvalues --    0.00072   0.00386   0.00628   0.00851   0.01195
 Alpha virt. eigenvalues --    0.01774   0.02021   0.02283   0.03182   0.03330
 Alpha virt. eigenvalues --    0.03631   0.03862   0.04000   0.04990   0.05161
 Alpha virt. eigenvalues --    0.05674   0.05874   0.06246   0.06716   0.07180
 Alpha virt. eigenvalues --    0.07526   0.07779   0.07893   0.08084   0.08597
 Alpha virt. eigenvalues --    0.08640   0.09454   0.09850   0.10521   0.10842
 Alpha virt. eigenvalues --    0.10861   0.11242   0.11757   0.12219   0.12464
 Alpha virt. eigenvalues --    0.12827   0.13012   0.13427   0.13716   0.14248
 Alpha virt. eigenvalues --    0.14330   0.14838   0.14982   0.15388   0.15537
 Alpha virt. eigenvalues --    0.15975   0.16208   0.16295   0.16563   0.16852
 Alpha virt. eigenvalues --    0.17220   0.17454   0.17975   0.18010   0.18061
 Alpha virt. eigenvalues --    0.18242   0.18682   0.18842   0.19294   0.19459
 Alpha virt. eigenvalues --    0.19655   0.20077   0.20356   0.20498   0.20600
 Alpha virt. eigenvalues --    0.20835   0.21289   0.21417   0.21727   0.21949
 Alpha virt. eigenvalues --    0.22283   0.22429   0.22615   0.22961   0.23055
 Alpha virt. eigenvalues --    0.23276   0.23612   0.23945   0.24232   0.24421
 Alpha virt. eigenvalues --    0.24748   0.24824   0.25347   0.25442   0.25786
 Alpha virt. eigenvalues --    0.26005   0.26229   0.26544   0.27019   0.27600
 Alpha virt. eigenvalues --    0.27756   0.28439   0.28656   0.29024   0.29165
 Alpha virt. eigenvalues --    0.29368   0.29627   0.30073   0.30399   0.30747
 Alpha virt. eigenvalues --    0.30920   0.31391   0.31509   0.32164   0.32397
 Alpha virt. eigenvalues --    0.32676   0.33187   0.33605   0.34329   0.34638
 Alpha virt. eigenvalues --    0.35556   0.35901   0.36439   0.36950   0.37717
 Alpha virt. eigenvalues --    0.38805   0.39286   0.40134   0.40700   0.41437
 Alpha virt. eigenvalues --    0.41773   0.42280   0.43583   0.43977   0.44415
 Alpha virt. eigenvalues --    0.44678   0.46209   0.46604   0.47776   0.48238
 Alpha virt. eigenvalues --    0.48598   0.50163   0.51304   0.52403   0.52901
 Alpha virt. eigenvalues --    0.53220   0.53338   0.53857   0.54172   0.54423
 Alpha virt. eigenvalues --    0.54788   0.54925   0.55170   0.55356   0.56072
 Alpha virt. eigenvalues --    0.56578   0.57336   0.57775   0.57910   0.58106
 Alpha virt. eigenvalues --    0.58406   0.58776   0.59270   0.59894   0.60670
 Alpha virt. eigenvalues --    0.60945   0.61179   0.61482   0.61880   0.62615
 Alpha virt. eigenvalues --    0.62977   0.63435   0.64078   0.64327   0.64669
 Alpha virt. eigenvalues --    0.65035   0.65724   0.65938   0.66247   0.66629
 Alpha virt. eigenvalues --    0.67184   0.67461   0.67626   0.68100   0.68961
 Alpha virt. eigenvalues --    0.69528   0.69941   0.70265   0.70547   0.71159
 Alpha virt. eigenvalues --    0.71729   0.72076   0.73001   0.73132   0.73615
 Alpha virt. eigenvalues --    0.73916   0.74516   0.74845   0.75239   0.75548
 Alpha virt. eigenvalues --    0.76373   0.76511   0.77016   0.77856   0.79439
 Alpha virt. eigenvalues --    0.79716   0.80403   0.80688   0.81469   0.82029
 Alpha virt. eigenvalues --    0.83384   0.84351   0.85013   0.85478   0.86356
 Alpha virt. eigenvalues --    0.87204   0.88335   0.88777   0.89170   0.89678
 Alpha virt. eigenvalues --    0.90269   0.91320   0.91669   0.92276   0.93048
 Alpha virt. eigenvalues --    0.93082   0.93911   0.94132   0.94498   0.94860
 Alpha virt. eigenvalues --    0.95369   0.96062   0.96394   0.97308   0.97840
 Alpha virt. eigenvalues --    0.98262   0.98950   0.99463   0.99711   1.00475
 Alpha virt. eigenvalues --    1.00627   1.01534   1.02420   1.02687   1.03028
 Alpha virt. eigenvalues --    1.03693   1.03852   1.04851   1.05366   1.06133
 Alpha virt. eigenvalues --    1.07303   1.07614   1.08470   1.08934   1.09644
 Alpha virt. eigenvalues --    1.10153   1.10633   1.11324   1.12736   1.12911
 Alpha virt. eigenvalues --    1.13750   1.14406   1.15168   1.16355   1.17080
 Alpha virt. eigenvalues --    1.17772   1.18668   1.18875   1.19732   1.22410
 Alpha virt. eigenvalues --    1.24190   1.26968   1.28223   1.28864   1.32574
 Alpha virt. eigenvalues --    1.33957   1.34615   1.35364   1.37112   1.39015
 Alpha virt. eigenvalues --    1.40775   1.42051   1.42265   1.43375   1.45093
 Alpha virt. eigenvalues --    1.46213   1.47313   1.47575   1.48564   1.49012
 Alpha virt. eigenvalues --    1.49330   1.49680   1.50029   1.50984   1.51294
 Alpha virt. eigenvalues --    1.51484   1.52401   1.53939   1.54397   1.55413
 Alpha virt. eigenvalues --    1.56037   1.56436   1.57331   1.57470   1.57885
 Alpha virt. eigenvalues --    1.59535   1.59712   1.60262   1.60763   1.62160
 Alpha virt. eigenvalues --    1.63718   1.65222   1.66466   1.67382   1.67911
 Alpha virt. eigenvalues --    1.68220   1.69475   1.71803   1.71987   1.72661
 Alpha virt. eigenvalues --    1.73205   1.74037   1.74363   1.74704   1.75351
 Alpha virt. eigenvalues --    1.75849   1.77246   1.77564   1.78693   1.79218
 Alpha virt. eigenvalues --    1.81449   1.81768   1.82741   1.83653   1.84146
 Alpha virt. eigenvalues --    1.85689   1.85969   1.86697   1.87194   1.87344
 Alpha virt. eigenvalues --    1.88468   1.89005   1.89273   1.90315   1.91181
 Alpha virt. eigenvalues --    1.91522   1.91738   1.92220   1.92818   1.93916
 Alpha virt. eigenvalues --    1.94146   1.94942   1.95180   1.96868   1.97531
 Alpha virt. eigenvalues --    1.99057   1.99614   2.00164   2.00795   2.02259
 Alpha virt. eigenvalues --    2.02876   2.04383   2.05179   2.05306   2.06219
 Alpha virt. eigenvalues --    2.07240   2.08356   2.09461   2.11892   2.12920
 Alpha virt. eigenvalues --    2.13357   2.13864   2.14324   2.15729   2.18743
 Alpha virt. eigenvalues --    2.19668   2.20995   2.21718   2.22726   2.23424
 Alpha virt. eigenvalues --    2.24033   2.24946   2.27929   2.29735   2.32016
 Alpha virt. eigenvalues --    2.35526   2.35948   2.36950   2.37410   2.37943
 Alpha virt. eigenvalues --    2.39226   2.40927   2.42783   2.43062   2.44036
 Alpha virt. eigenvalues --    2.44681   2.45607   2.46034   2.47245   2.47798
 Alpha virt. eigenvalues --    2.53533   2.54507   2.55906   2.57905   2.59907
 Alpha virt. eigenvalues --    2.60860   2.62547   2.63052   2.64635   2.65385
 Alpha virt. eigenvalues --    2.67381   2.68331   2.69487   2.69562   2.70594
 Alpha virt. eigenvalues --    2.70765   2.71378   2.72017   2.72754   2.72805
 Alpha virt. eigenvalues --    2.73589   2.74425   2.74656   2.75266   2.76293
 Alpha virt. eigenvalues --    2.76795   2.76986   2.77889   2.78308   2.78731
 Alpha virt. eigenvalues --    2.79095   2.79649   2.81214   2.81452   2.81799
 Alpha virt. eigenvalues --    2.82750   2.83155   2.83536   2.84778   2.85318
 Alpha virt. eigenvalues --    2.86105   2.87359   2.88102   2.88652   2.89800
 Alpha virt. eigenvalues --    2.90882   2.91519   2.92270   2.92778   2.93886
 Alpha virt. eigenvalues --    2.98024   2.99891   3.00013   3.01208   3.02837
 Alpha virt. eigenvalues --    3.03428   3.05282   3.07812   3.10958   3.12943
 Alpha virt. eigenvalues --    3.13018   3.16167   3.17068   3.18906   3.20276
 Alpha virt. eigenvalues --    3.20761   3.21906   3.24031   3.24800   3.26994
 Alpha virt. eigenvalues --    3.29877   3.32559   3.36027   3.37035   3.37691
 Alpha virt. eigenvalues --    3.38687   3.39127   3.40206   3.42439   3.44470
 Alpha virt. eigenvalues --    3.45783   3.47140   3.48194   3.49248   3.52015
 Alpha virt. eigenvalues --    3.53797   3.56089   3.57890   3.58602   3.62114
 Alpha virt. eigenvalues --    3.63811   3.66900   3.70813   3.71707   3.74621
 Alpha virt. eigenvalues --    3.79165   3.82713   3.88809   4.02181   4.04340
 Alpha virt. eigenvalues --    4.06443   4.07082   4.08930   4.10476   4.13816
 Alpha virt. eigenvalues --    4.21374   4.24073   4.30040   4.37867   4.62021
 Alpha virt. eigenvalues --    4.69301   4.77980   4.80982   4.81550   4.84790
 Alpha virt. eigenvalues --    4.87381  23.40482  23.59333  23.61939  23.76837
 Alpha virt. eigenvalues --   23.78195  23.82580  23.86810  23.90362  23.94569
 Alpha virt. eigenvalues --   23.95255  23.95451  23.97035  23.99531  24.02633
 Alpha virt. eigenvalues --   24.03488  24.05588  24.08642  24.10094  24.11299
 Alpha virt. eigenvalues --   24.13814  24.15761  24.17338  24.19523  24.22298
 Alpha virt. eigenvalues --   24.99104
  Beta  occ. eigenvalues --  -10.20224 -10.20121 -10.19764 -10.19589 -10.19250
  Beta  occ. eigenvalues --  -10.19238 -10.19174 -10.19122 -10.18949 -10.18914
  Beta  occ. eigenvalues --  -10.18843 -10.18800 -10.18789 -10.18734 -10.18733
  Beta  occ. eigenvalues --  -10.18564 -10.18360 -10.18080 -10.17960 -10.17920
  Beta  occ. eigenvalues --  -10.17900 -10.17762 -10.17465 -10.17424 -10.16970
  Beta  occ. eigenvalues --   -0.91062  -0.88265  -0.85299  -0.83228  -0.82498
  Beta  occ. eigenvalues --   -0.79001  -0.78108  -0.76917  -0.75110  -0.74537
  Beta  occ. eigenvalues --   -0.72447  -0.71292  -0.67921  -0.64544  -0.63873
  Beta  occ. eigenvalues --   -0.61895  -0.60357  -0.59003  -0.58102  -0.56654
  Beta  occ. eigenvalues --   -0.55793  -0.52406  -0.51651  -0.51382  -0.50677
  Beta  occ. eigenvalues --   -0.50321  -0.47838  -0.46750  -0.46291  -0.45142
  Beta  occ. eigenvalues --   -0.43806  -0.43533  -0.42861  -0.42411  -0.42080
  Beta  occ. eigenvalues --   -0.41236  -0.41120  -0.39796  -0.39660  -0.38963
  Beta  occ. eigenvalues --   -0.37265  -0.36261  -0.35799  -0.34395  -0.34020
  Beta  occ. eigenvalues --   -0.33788  -0.33253  -0.32964  -0.31083  -0.30569
  Beta  occ. eigenvalues --   -0.29110  -0.28628  -0.25386  -0.24737  -0.22737
  Beta  occ. eigenvalues --   -0.21035
  Beta virt. eigenvalues --   -0.11850  -0.09564  -0.06049  -0.04909  -0.02047
  Beta virt. eigenvalues --   -0.00623   0.00093   0.00498   0.00628   0.00762
  Beta virt. eigenvalues --    0.01121   0.01632   0.01824   0.02056   0.02597
  Beta virt. eigenvalues --    0.03336   0.03484   0.03675   0.04033   0.04564
  Beta virt. eigenvalues --    0.05044   0.05180   0.05798   0.05929   0.06673
  Beta virt. eigenvalues --    0.06994   0.07308   0.07689   0.07845   0.07976
  Beta virt. eigenvalues --    0.08124   0.08894   0.09183   0.09601   0.09937
  Beta virt. eigenvalues --    0.10674   0.10983   0.11148   0.11484   0.12009
  Beta virt. eigenvalues --    0.12266   0.12514   0.12896   0.13136   0.13495
  Beta virt. eigenvalues --    0.13806   0.14301   0.14696   0.15006   0.15132
  Beta virt. eigenvalues --    0.15437   0.15643   0.16054   0.16296   0.16528
  Beta virt. eigenvalues --    0.16728   0.16974   0.17312   0.17665   0.18050
  Beta virt. eigenvalues --    0.18135   0.18189   0.18280   0.18773   0.19090
  Beta virt. eigenvalues --    0.19426   0.19611   0.19794   0.20223   0.20460
  Beta virt. eigenvalues --    0.20649   0.20866   0.20920   0.21354   0.21602
  Beta virt. eigenvalues --    0.21957   0.22039   0.22405   0.22551   0.22780
  Beta virt. eigenvalues --    0.23163   0.23359   0.23427   0.23773   0.24054
  Beta virt. eigenvalues --    0.24376   0.24534   0.24816   0.24880   0.25475
  Beta virt. eigenvalues --    0.25639   0.25868   0.26100   0.26298   0.26710
  Beta virt. eigenvalues --    0.27150   0.27683   0.27949   0.28542   0.28799
  Beta virt. eigenvalues --    0.29078   0.29248   0.29500   0.29685   0.30175
  Beta virt. eigenvalues --    0.30473   0.30986   0.31067   0.31505   0.31693
  Beta virt. eigenvalues --    0.32277   0.32501   0.32779   0.33321   0.33718
  Beta virt. eigenvalues --    0.34492   0.34865   0.35705   0.36115   0.36569
  Beta virt. eigenvalues --    0.37245   0.38059   0.38961   0.39488   0.40303
  Beta virt. eigenvalues --    0.40946   0.41895   0.42037   0.42502   0.43820
  Beta virt. eigenvalues --    0.44109   0.44604   0.44797   0.46443   0.46776
  Beta virt. eigenvalues --    0.47898   0.48435   0.48694   0.50367   0.51766
  Beta virt. eigenvalues --    0.52540   0.53177   0.53354   0.53507   0.54081
  Beta virt. eigenvalues --    0.54339   0.54660   0.54943   0.55160   0.55378
  Beta virt. eigenvalues --    0.55574   0.56178   0.56795   0.57541   0.57853
  Beta virt. eigenvalues --    0.58300   0.58419   0.58699   0.59027   0.59545
  Beta virt. eigenvalues --    0.60140   0.60958   0.61187   0.61483   0.61776
  Beta virt. eigenvalues --    0.62032   0.62738   0.63227   0.63646   0.64191
  Beta virt. eigenvalues --    0.64865   0.64885   0.65198   0.66010   0.66258
  Beta virt. eigenvalues --    0.66367   0.66991   0.67302   0.67622   0.68097
  Beta virt. eigenvalues --    0.68235   0.69522   0.69891   0.70214   0.70649
  Beta virt. eigenvalues --    0.70905   0.71580   0.71847   0.72224   0.73160
  Beta virt. eigenvalues --    0.73284   0.73652   0.74234   0.74880   0.75005
  Beta virt. eigenvalues --    0.75429   0.75792   0.76816   0.77072   0.77661
  Beta virt. eigenvalues --    0.77985   0.79736   0.80122   0.80583   0.81066
  Beta virt. eigenvalues --    0.81794   0.82058   0.83559   0.84664   0.85162
  Beta virt. eigenvalues --    0.85695   0.86491   0.87450   0.88618   0.88968
  Beta virt. eigenvalues --    0.89334   0.89844   0.90543   0.91470   0.91958
  Beta virt. eigenvalues --    0.92438   0.93284   0.93430   0.94079   0.94267
  Beta virt. eigenvalues --    0.94951   0.94954   0.95508   0.96216   0.96585
  Beta virt. eigenvalues --    0.97391   0.98234   0.98456   0.99377   0.99666
  Beta virt. eigenvalues --    1.00212   1.00710   1.01013   1.01827   1.02701
  Beta virt. eigenvalues --    1.02875   1.03278   1.04012   1.04110   1.05121
  Beta virt. eigenvalues --    1.05516   1.06323   1.07608   1.07900   1.08750
  Beta virt. eigenvalues --    1.09307   1.09932   1.10288   1.11057   1.11553
  Beta virt. eigenvalues --    1.12866   1.13263   1.14075   1.14831   1.15502
  Beta virt. eigenvalues --    1.16605   1.17571   1.18097   1.18873   1.19386
  Beta virt. eigenvalues --    1.20741   1.22753   1.25055   1.27438   1.28819
  Beta virt. eigenvalues --    1.30047   1.32932   1.34362   1.35158   1.36067
  Beta virt. eigenvalues --    1.37827   1.39419   1.41044   1.42354   1.42715
  Beta virt. eigenvalues --    1.43873   1.45383   1.46594   1.47480   1.47889
  Beta virt. eigenvalues --    1.48695   1.49283   1.49880   1.49966   1.50330
  Beta virt. eigenvalues --    1.51240   1.51583   1.51758   1.52803   1.54092
  Beta virt. eigenvalues --    1.54626   1.55679   1.56223   1.56594   1.57406
  Beta virt. eigenvalues --    1.58124   1.58165   1.59875   1.59999   1.60435
  Beta virt. eigenvalues --    1.60947   1.62564   1.64047   1.65399   1.66638
  Beta virt. eigenvalues --    1.67459   1.68142   1.68522   1.69767   1.71901
  Beta virt. eigenvalues --    1.72149   1.73070   1.73365   1.74226   1.74522
  Beta virt. eigenvalues --    1.75024   1.75851   1.75975   1.77742   1.77882
  Beta virt. eigenvalues --    1.79762   1.79912   1.81819   1.82238   1.83079
  Beta virt. eigenvalues --    1.84015   1.84608   1.85932   1.86562   1.86917
  Beta virt. eigenvalues --    1.87448   1.87679   1.88688   1.89241   1.89407
  Beta virt. eigenvalues --    1.90588   1.91360   1.91814   1.92069   1.92469
  Beta virt. eigenvalues --    1.92985   1.94094   1.94379   1.95233   1.95366
  Beta virt. eigenvalues --    1.97150   1.97697   1.99415   2.00150   2.00539
  Beta virt. eigenvalues --    2.01193   2.03021   2.03785   2.04647   2.05424
  Beta virt. eigenvalues --    2.05625   2.06705   2.07490   2.08685   2.09974
  Beta virt. eigenvalues --    2.12090   2.13148   2.13852   2.14051   2.14737
  Beta virt. eigenvalues --    2.16018   2.19006   2.20159   2.21339   2.22006
  Beta virt. eigenvalues --    2.23112   2.23833   2.24255   2.25234   2.28050
  Beta virt. eigenvalues --    2.30243   2.32455   2.35886   2.36227   2.37161
  Beta virt. eigenvalues --    2.37910   2.38209   2.39425   2.41530   2.42995
  Beta virt. eigenvalues --    2.43184   2.44199   2.44926   2.45911   2.46226
  Beta virt. eigenvalues --    2.47614   2.48117   2.53793   2.54925   2.56020
  Beta virt. eigenvalues --    2.58145   2.60084   2.61069   2.63043   2.63498
  Beta virt. eigenvalues --    2.64805   2.65662   2.67704   2.68805   2.69618
  Beta virt. eigenvalues --    2.69978   2.70849   2.71016   2.71565   2.72283
  Beta virt. eigenvalues --    2.72822   2.72919   2.73731   2.74552   2.74819
  Beta virt. eigenvalues --    2.75347   2.76338   2.77044   2.77388   2.78019
  Beta virt. eigenvalues --    2.78555   2.78944   2.79279   2.80052   2.81810
  Beta virt. eigenvalues --    2.82020   2.82298   2.82823   2.83509   2.83866
  Beta virt. eigenvalues --    2.85005   2.85673   2.86366   2.87584   2.88241
  Beta virt. eigenvalues --    2.89210   2.90315   2.91098   2.91615   2.92516
  Beta virt. eigenvalues --    2.92874   2.93972   2.98332   2.99929   3.00302
  Beta virt. eigenvalues --    3.01674   3.03208   3.04450   3.06063   3.08267
  Beta virt. eigenvalues --    3.11316   3.13152   3.13394   3.16589   3.17378
  Beta virt. eigenvalues --    3.19496   3.20451   3.21069   3.22055   3.24096
  Beta virt. eigenvalues --    3.24929   3.27484   3.30695   3.33158   3.36273
  Beta virt. eigenvalues --    3.37223   3.38115   3.38752   3.39461   3.40359
  Beta virt. eigenvalues --    3.43064   3.44658   3.46091   3.47376   3.48275
  Beta virt. eigenvalues --    3.49507   3.52080   3.53949   3.56118   3.58370
  Beta virt. eigenvalues --    3.58701   3.62176   3.63902   3.67391   3.71038
  Beta virt. eigenvalues --    3.71940   3.74922   3.79586   3.83047   3.88990
  Beta virt. eigenvalues --    4.02343   4.04374   4.06488   4.07121   4.09051
  Beta virt. eigenvalues --    4.10660   4.14108   4.21456   4.24220   4.30151
  Beta virt. eigenvalues --    4.38108   4.62463   4.70054   4.78148   4.81198
  Beta virt. eigenvalues --    4.81667   4.84827   4.87555  23.40733  23.59520
  Beta virt. eigenvalues --   23.62027  23.76925  23.79349  23.82819  23.87176
  Beta virt. eigenvalues --   23.90549  23.94664  23.95294  23.95641  23.97061
  Beta virt. eigenvalues --   23.99518  24.02668  24.03670  24.05787  24.08776
  Beta virt. eigenvalues --   24.10220  24.11318  24.13931  24.15800  24.17449
  Beta virt. eigenvalues --   24.19542  24.22296  24.99341
          Condensed to atoms (all electrons):
               1          2          3          4          5          6
     1  C    9.455630   1.697021   0.002855   0.667976  -0.619561  -1.204029
     2  C    1.697021   7.088575   0.742616  -0.334262  -0.096827   0.439143
     3  C    0.002855   0.742616   7.488145   0.781486   0.113364   0.486113
     4  C    0.667976  -0.334262   0.781486  12.304331  -1.500516  -1.505558
     5  C   -0.619561  -0.096827   0.113364  -1.500516   8.241336   1.621418
     6  C   -1.204029   0.439143   0.486113  -1.505558   1.621418  10.202971
     7  C   -0.588903  -1.202959   1.476489   1.027514  -0.626529  -0.968056
     8  C   -0.706360  -0.456686   0.504596  -1.331834  -0.019781  -0.719813
     9  C   -0.358512  -0.449651  -0.631090   1.357232  -0.048644  -0.834045
    10  C   -0.569031  -0.506432   0.293587   1.638195  -0.160656  -1.134235
    11  C   -0.164230  -0.202508  -0.041794  -0.763631   0.024134  -0.206690
    12  C   -0.074385  -0.031387  -0.460463  -0.027670   0.016914   0.015108
    13  C    0.033432  -0.092848  -0.128212   0.242891  -0.046609  -0.141631
    14  C   -0.093842  -0.047038  -1.368841  -1.111454  -0.161671  -0.362369
    15  C   -0.193908  -0.518597  -0.673644  -0.934598  -0.006526  -0.095059
    16  C   -0.018015  -0.177230   0.001746  -0.134662  -0.002510  -0.011994
    17  C    0.004093   0.024853  -0.006631  -0.015746  -0.001059  -0.003195
    18  C   -0.010452  -0.021503  -0.238244  -0.022821   0.003855   0.009539
    19  C   -1.594120  -1.647291  -0.538093  -0.265290  -0.227004   0.455162
    20  C    0.169650   0.476892  -0.244342  -0.139130  -0.336652  -0.142129
    21  C    0.216748   0.110860  -0.231118  -0.555326   0.241746   0.221093
    22  C    0.405651   1.182705  -0.866937  -1.814052  -0.273723  -0.025704
    23  C   -0.543338  -0.166049  -0.153737  -1.988877  -0.164578  -0.041155
    24  H   -0.022632   0.038305  -0.001371   0.003389  -0.006636  -0.002264
    25  H   -0.004317   0.005059   0.001840   0.004703   0.002787  -0.001105
    26  H   -0.088562   0.026816  -0.014414   0.006332   0.018229   0.009791
    27  H   -0.121861   0.008885   0.006570   0.004854   0.391436  -0.007722
    28  H   -0.029680  -0.008137  -0.000497  -0.075237  -0.043735   0.361990
    29  H    0.007037  -0.004023   0.012164  -0.028041   0.010107   0.028200
    30  H    0.000954   0.001052   0.013377   0.064377   0.000723   0.010257
    31  H    0.000009   0.000150   0.001041   0.003063   0.000009   0.000316
    32  H   -0.000009  -0.000027  -0.000381   0.000230   0.000003   0.000024
    33  H   -0.000933  -0.000876   0.008729   0.003995  -0.000109  -0.000319
    34  H    0.000033   0.000372  -0.000074  -0.000244  -0.000004  -0.000014
    35  H    0.000001   0.000017   0.000031   0.000077   0.000000   0.000003
    36  C   -0.039605   0.005685   0.080182   0.077774  -0.005428  -0.007697
    37  C    0.007331  -0.029563  -0.102539  -0.039845   0.004608   0.006930
    38  H   -0.000636  -0.001763   0.000611  -0.000660  -0.000164  -0.000173
    39  H    0.000060  -0.000478  -0.000708  -0.000078   0.000013  -0.000008
               7          8          9         10         11         12
     1  C   -0.588903  -0.706360  -0.358512  -0.569031  -0.164230  -0.074385
     2  C   -1.202959  -0.456686  -0.449651  -0.506432  -0.202508  -0.031387
     3  C    1.476489   0.504596  -0.631090   0.293587  -0.041794  -0.460463
     4  C    1.027514  -1.331834   1.357232   1.638195  -0.763631  -0.027670
     5  C   -0.626529  -0.019781  -0.048644  -0.160656   0.024134   0.016914
     6  C   -0.968056  -0.719813  -0.834045  -1.134235  -0.206690   0.015108
     7  C   11.831055   1.685773   0.091304   0.129691   0.915074   0.344106
     8  C    1.685773   8.558549  -0.065168   0.433322   2.574048  -0.526443
     9  C    0.091304  -0.065168  16.950365   1.577368   0.326533   1.048067
    10  C    0.129691   0.433322   1.577368   8.786414  -0.627364  -1.199885
    11  C    0.915074   2.574048   0.326533  -0.627364  10.820844   1.176021
    12  C    0.344106  -0.526443   1.048067  -1.199885   1.176021  12.367278
    13  C   -1.006888  -0.889559  -0.624110   0.074875  -2.053404  -1.533413
    14  C   -0.455249   0.024057  -0.980970  -2.178921   0.243451  -1.359825
[...]
 ,0.00000909,0.00006438,-0.00001685,-0.00004457,-0.00003589,0.00000017,
 -0.00000155,-0.00000748,0.00000084,0.00000846,0.00001176,0.00000116,0.
 00010940,0.00006489,0.00000850,-0.00019752,0.00015538,-0.00019966,-0.0
 0026374,-0.00005634,0.00005699,0.00009794,0.00000429,0.00000270,-0.000
 40892,-0.00086864,0.00004212,-0.00132303,-0.00507759,0.00231861,0.0014
 1201,0.00023325,0.00000756,0.00007757,-0.00057748,-0.00002979,-0.00323
 113,-0.00085839,0.00150564,-0.01553563,0.01142836,-0.00107407,0.112815
 02,-0.11759108,0.01092923,0.02923287,-0.00942932,0.00143722,0.00000462
 ,0.00000907,-0.00000096,0.00001430,-0.00000491,-0.00000078,-0.00001123
 ,-0.00000953,-0.00000176,0.00002718,0.00002070,0.00001045,-0.00000987,
 -0.00005123,-0.00000468,0.00000021,0.00000275,0.00000081,0.00000213,0.
 00000174,0.00000014,0.00000289,-0.00000042,0.00000010,0.00000363,-0.00
 000050,-0.00000031,-0.00000095,-0.00000280,0.00000083,-0.00000604,0.00
 000206,-0.00000070,0.00014218,-0.00008431,-0.00001457,-0.00004274,-0.0
 0003002,0.00002631,-0.00041519,0.00084903,-0.00091927,-0.00073635,0.00
 039233,-0.00002357,0.00058981,0.00059387,-0.00077680,-0.12232091,0.120
 86360,0.00002250,-0.00000073,-0.00000915,-0.00002537,-0.00001089,0.000
 00762,0.00001922,-0.00002022,-0.00001109,0.00000367,0.00000208,-0.0000
 2324,-0.00000448,0.00001345,-0.00000157,-0.00000830,-0.00000632,0.0000
 1354,-0.00002814,0.00005587,0.00007773,-0.00007517,-0.00015696,-0.0008
 7971,0.00004969,-0.00003625,0.00013247,-0.00003702,-0.00000041,0.00003
 636,0.00017493,0.00009904,-0.00086115,0.00023839,0.00223546,0.00783642
 ,-0.00030365,0.00006324,0.00019213,0.00000062,0.00003025,-0.00045667,0
 .00092035,0.00153939,0.00577293,0.00380412,-0.00200513,0.00334429,-0.0
 1241920,0.01103001,-0.03834599,-0.00521100,0.00217318,0.00334003,0.000
 00153,-0.00002053,-0.00000015,-0.00001848,0.00001247,-0.00000614,0.000
 02445,0.00000444,-0.00000581,-0.00004942,-0.00001388,0.00003573,-0.000
 00079,0.00007888,-0.00005184,-0.00000056,-0.00000020,0.00000847,0.0000
 0043,0.00000020,0.00000158,-0.00000027,-0.00000052,0.00000205,0.000000
 14,-0.00000068,-0.00000166,-0.00000023,0.00000006,0.00000183,-0.000000
 48,-0.00000170,-0.00000171,-0.00002303,0.00001119,-0.00000988,0.000016
 45,0.00001274,0.00008131,-0.00006000,-0.00094078,-0.00435607,0.0002164
 5,-0.00007652,0.00005005,-0.00027079,-0.00078116,-0.00307653,0.0130479
 5,-0.01327423,0.02715890,0.00001259,0.00023952,-0.00007132,-0.00103146
 ,-0.00043935,0.00032576,-0.00015137,-0.00094533,0.00028012,0.00029217,
 0.00022302,0.00024181,-0.00002852,-0.00000665,-0.00001444,-0.00007951,
 0.00000561,-0.00003961,0.00189603,0.00019603,-0.00146575,-0.00033812,-
 0.00012845,-0.00023108,0.00001536,0.00000837,0.00006825,-0.00011891,-0
 .00012729,0.00003455,-0.00001504,-0.00019346,0.00003011,-0.00005122,-0
 .00001319,0.00008405,0.00001029,0.00002213,0.00000690,-0.00000393,-0.0
 0004979,0.00000558,-0.00037050,-0.00056752,-0.00110851,-0.00018651,-0.
 00005480,0.00004397,0.00011957,0.00011218,-0.00004043,-0.00001947,-0.0
 0012445,0.00003993,0.00000560,0.00008052,0.00001914,0.00018292,0.00017
 933,0.00009574,-0.00011979,-0.00009005,0.00001796,-0.00148290,0.005505
 29,0.00262323,-0.00830503,-0.01195598,-0.00344653,0.00000902,0.0002856
 6,-0.00007707,0.00001763,-0.00001214,0.00000967,-0.00000457,0.00001792
 ,-0.00002385,0.00000792,0.00003493,-0.00001933,0.00002698,-0.00001563,
 -0.00003039,0.00000163,-0.00000884,-0.00001372,-0.00000117,-0.00001258
 ,-0.00000009,-0.00000834,-0.00001378,-0.00000070,-0.00000729,-0.000014
 51,0.00000414,-0.00151538,-0.00101398,-0.00076709,0.00006873,0.0000038
 3,0.00005179,-0.00002604,-0.00000167,-0.00000608,0.11737194,-0.0005240
 5,-0.00099489,-0.00025346,0.00272467,0.00189441,-0.00175445,-0.0018173
 9,0.00055854,-0.00156673,0.00050626,-0.00022449,-0.00079662,0.00034847
 ,0.00015690,0.00007212,-0.00017906,-0.00017897,0.00012528,0.00207609,-
 0.00430397,0.00202728,0.00049577,0.00153526,0.00053018,0.00037952,-0.0
 0061681,0.00001635,-0.00039711,0.00055114,-0.00002398,-0.00044174,-0.0
 0027991,0.00023575,-0.00000939,0.00001447,0.00002993,0.00004139,-0.000
 08673,0.00003498,-0.00012978,-0.00010171,0.00000969,0.00020337,0.00062
 689,-0.00164917,-0.00048213,-0.00057028,0.00023365,0.00009798,0.000307
 33,0.00005191,-0.00003942,-0.00026311,0.00003507,0.00002038,0.00033710
 ,-0.00006803,0.00024388,-0.00035159,-0.00005412,-0.00128585,-0.0006469
 5,0.00051472,0.00277698,-0.01114886,-0.00240175,-0.02276096,0.07519143
 ,0.04390873,-0.00005323,0.00022110,0.00021312,0.00003843,-0.00000322,-
 0.00000972,0.00002940,0.00001335,0.00001645,-0.00000718,-0.00009965,0.
 00009466,0.00002469,-0.00000514,0.00008880,-0.00001527,-0.00002595,0.0
 0000428,0.00000604,-0.00000313,-0.00000227,0.00000224,-0.00002739,0.00
 000782,-0.00000748,-0.00001472,-0.00000933,-0.00227635,-0.00136512,-0.
 00031923,0.00002917,0.00004484,-0.00002250,-0.00008242,-0.00004428,-0.
 00001760,0.21303703,0.66803074,-0.00014073,0.00005738,0.00001567,-0.00
 013898,-0.00040506,0.00002167,0.00066181,0.00070068,-0.00019527,-0.000
 21414,0.00016335,-0.00012814,-0.00001642,-0.00003439,-0.00000463,0.000
 04823,0.00008327,0.00002739,-0.00143734,0.00187343,0.00051221,-0.00035
 929,-0.00001738,0.00026802,0.00004565,0.00002826,-0.00001933,0.0000187
 0,-0.00008890,0.00001091,0.00002037,-0.00004154,0.00005592,-0.00003344
 ,-0.00003914,-0.00004968,0.00001635,0.00003766,-0.00000759,-0.00000347
 ,0.00003015,0.00000310,-0.00046204,-0.00017715,-0.00045691,0.00017802,
 -0.00004578,-0.00003096,0.00000637,-0.00003504,0.00003559,-0.00000388,
 0.00001124,0.00003508,0.00002758,-0.00009355,-0.00003124,-0.00012545,0
 .00010386,0.00014476,0.00007981,0.00036218,0.00019027,-0.00087982,-0.0
 0102785,-0.00033329,0.00239490,0.00810943,-0.00313144,-0.00003366,0.00
 006903,-0.00021481,-0.00003084,0.00001001,-0.00001102,-0.00000760,0.00
 000408,-0.00002007,-0.00000618,0.00000648,0.00000199,-0.00002207,0.000
 01784,0.00002005,0.00000423,0.00001156,-0.00001444,0.00001092,0.000008
 90,0.00000265,0.00000284,0.00000082,0.00000239,0.00000438,-0.00000263,
 -0.00000683,-0.00156581,-0.00068288,-0.00069525,0.00001286,0.00000728,
 -0.00003510,0.00000025,-0.00000261,-0.00000742,-0.16517644,-0.63149916
 ,0.57395213,-0.00005504,0.00006575,0.00002133,-0.00019344,-0.00035976,
 0.00013933,0.00024962,0.00039325,0.00005166,-0.00005876,0.00002571,-0.
 00002558,0.00003115,-0.00001642,-0.00001284,-0.00003043,0.00010614,0.0
 0000313,-0.00081586,0.00083354,0.00025578,-0.00026588,0.00000486,-0.00
 008444,0.00007502,0.00001496,0.00001718,-0.00004493,0.00002515,-0.0000
 0839,-0.00028588,0.00015828,-0.00006236,-0.00002616,-0.00005264,0.0000
 6444,0.00005644,0.00004019,-0.00000883,-0.00006919,-0.00008778,0.00000
 784,0.00049349,-0.00027529,-0.00042295,0.00008408,-0.00008915,-0.00007
 510,0.00012309,-0.00002516,-0.00000007,-0.00003741,-0.00012022,0.00001
 558,-0.00003195,0.00006803,0.00000992,0.00009223,0.00022214,0.00011433
 ,-0.00036517,0.00019376,0.00020644,-0.00015247,0.00073842,-0.00002415,
 0.00370521,-0.00194505,-0.00199294,-0.00003433,0.00031711,-0.00021727,
 -0.00001160,-0.00001053,-0.00000901,-0.00001982,0.00003089,-0.00001848
 ,-0.00000648,0.00002250,-0.00001042,-0.00000862,0.00001653,0.00000025,
 0.00000941,0.00000880,-0.00000041,0.00001060,0.00000364,0.00000011,0.0
 0000527,-0.00001571,0.00000513,0.00000135,-0.00001406,0.00000473,-0.00
 084293,-0.00037512,0.00018236,0.00010077,-0.00001066,0.00008312,-0.000
 01112,-0.00000257,0.00000927,-0.05815873,-0.12552145,0.08997282,0.0929
 8324,0.00022998,0.00037253,0.00011304,-0.00016841,-0.00059847,0.000500
 47,-0.00033565,-0.00128587,0.00071971,-0.00009833,-0.00014148,0.000510
 99,-0.00011695,-0.00025315,0.00000180,0.00019267,-0.00000839,-0.000057
 01,0.00259130,-0.00091592,-0.00217630,0.00054811,-0.00020241,-0.000126
 47,-0.00005584,0.00010861,0.00005822,0.00030570,-0.00017304,-0.0000185
 1,-0.00000801,0.00001964,-0.00020357,0.00002394,0.00015794,-0.00000403
 ,-0.00005188,-0.00002788,-0.00000463,0.00008748,0.00011973,-0.00002132
 ,0.00013231,-0.00009937,0.00020783,0.00012627,-0.00003636,-0.00003343,
 -0.00015983,0.00002305,0.00004710,0.00004220,0.00014247,-0.00002928,-0
 .00010493,-0.00028010,-0.00000526,-0.00004774,0.00037977,0.00012556,0.
 00034175,-0.00001145,-0.00004230,-0.00127053,0.00210363,0.00055017,0.0
 0835750,-0.04441847,-0.02059304,0.00040372,0.00005483,-0.00026795,0.00
 007073,0.00000952,0.00000159,0.00002419,0.00000485,-0.00002734,0.00003
 345,-0.00000768,-0.00002236,0.00004936,-0.00005354,-0.00003168,-0.0000
 0617,-0.00002702,-0.00001373,-0.00001264,-0.00003060,0.00001035,-0.000
 03129,0.00000459,0.00000128,-0.00002519,0.00000547,-0.00000595,-0.0000
 4224,-0.00041623,-0.00004978,-0.00012854,0.00006338,-0.00009332,-0.000
 01211,0.00001112,0.00000031,-0.14262806,-0.59633221,0.45401810,0.18759
 888,0.88558898,-0.00019753,-0.00043015,-0.00010802,0.00118662,0.000389
 67,-0.00016145,-0.00066841,-0.00049898,-0.00023122,0.00033572,-0.00014
 802,-0.00016677,0.00015966,0.00006556,0.00001992,-0.00009574,-0.000123
 55,0.00002423,0.00193645,-0.00184514,0.00059421,0.00022194,0.00033367,
 -0.00005211,0.00005233,-0.00017326,0.00000143,-0.00007930,0.00012757,0
 .00000848,-0.00044422,-0.00017714,0.00012513,0.00004309,-0.00003199,0.
 00003611,-0.00003945,-0.00004715,0.00002833,-0.00002054,-0.00003557,0.
 00000130,0.00061092,0.00019350,-0.00038705,-0.00029183,-0.00021228,0.0
 0013386,-0.00001899,0.00013442,0.00000361,-0.00003543,-0.00008973,0.00
 000030,0.00006679,0.00011309,0.00000654,0.00012462,-0.00015409,-0.0000
 6098,-0.00005183,-0.00011316,0.00009007,0.00014995,-0.00325244,-0.0000
 9194,-0.00582532,0.01371953,0.00927220,-0.00003549,-0.00003051,0.00003
 491,0.00004921,0.00000107,-0.00001706,0.00002965,-0.00000944,0.0000079
 7,0.00001184,-0.00005244,0.00000381,0.00003019,-0.00002939,-0.00000133
 ,-0.00000924,-0.00002579,0.00000796,-0.00000502,-0.00001909,-0.0000065
 1,-0.00001278,-0.00002280,-0.00000235,-0.00001771,-0.00001524,-0.00000
 491,-0.00064622,-0.00048363,0.00003583,0.00006933,0.00002879,-0.000032
 04,-0.00005354,-0.00001834,-0.00000466,0.09297592,0.41187782,-0.332209
 42,-0.13667642,-0.61524330,0.50083144,0.00008436,0.00003977,0.00000190
 ,0.00014947,0.00040414,-0.00017885,-0.00022716,0.00021588,-0.00010294,
 -0.00015468,-0.00011404,-0.00004681,-0.00006596,-0.00000787,0.00000138
 ,0.00007233,-0.00003742,0.00000543,-0.00024255,-0.00053957,0.00025537,
 0.00044672,0.00000286,0.00008895,-0.00000036,-0.00006669,-0.00002262,0
 .00008551,0.00005074,-0.00001288,-0.00004279,-0.00005296,0.00004971,-0
 .00000175,-0.00003096,-0.00001512,-0.00005481,-0.00004731,0.00002117,0
 .00004013,0.00008001,-0.00001275,-0.00011845,0.00001155,0.00006161,-0.
 00004269,0.00009037,0.00002118,-0.00011515,-0.00000591,0.00004544,0.00
 002256,0.00007735,-0.00001812,-0.00004451,-0.00007892,-0.00000668,-0.0
 0011021,0.00001231,-0.00002663,-0.00020258,-0.00016017,-0.00000283,0.0
 0031717,-0.00072668,-0.00028708,0.00036840,0.00551804,0.00498997,0.000
 04462,-0.00002028,0.00007406,0.00000280,0.00000032,0.00001291,0.000001
 44,-0.00000502,0.00000507,-0.00000002,-0.00001089,0.00001227,-0.000006
 48,0.00000091,0.00000896,-0.00000441,0.00000178,0.00000476,-0.00000479
 ,0.00000497,-0.00000043,0.,0.00000946,-0.00000616,0.00000252,0.0000067
 2,-0.00000746,0.00011792,0.00004382,-0.00026710,-0.00000253,0.00001731
 ,-0.00004582,0.00000829,0.00000082,-0.00000730,-0.05210510,-0.07268674
 ,0.07908904,0.00350716,0.00831607,-0.00365427,0.04325443,0.00015990,0.
 00010191,0.00002833,-0.00022970,-0.00035796,0.00031040,0.00060825,-0.0
 0029637,0.00014458,-0.00008366,0.00003768,0.00009568,-0.00006921,-0.00
 005514,-0.00000115,0.00009588,-0.00002080,-0.00000865,0.00011312,0.000
 67008,-0.00039794,-0.00029177,-0.00041790,0.00003083,-0.00009544,0.000
 01884,0.00006933,0.00011384,-0.00007963,-0.00001588,-0.00008002,0.0000
 3701,-0.00003318,-0.00012782,-0.00009656,0.00000091,-0.00002299,0.0000
 4039,0.00000727,0.00002993,0.00001743,-0.00001162,-0.00016501,-0.00009
 788,0.00001055,0.00002510,0.00009908,-0.00003658,0.00004302,-0.0000142
 8,-0.00002536,0.00002539,-0.00000552,0.00000679,-0.00003313,-0.0001832
 1,0.00000171,-0.00016740,0.00007598,0.00000965,0.00025161,0.00024045,-
 0.00000509,-0.00057515,0.00042678,-0.00013763,0.00574773,-0.00902471,-
 0.01038812,-0.00007531,-0.00005430,-0.00003699,-0.00001734,0.00000316,
 -0.00000285,-0.00000698,-0.00000932,-0.00000342,-0.00000376,0.00000346
 ,-0.00000889,-0.00000674,0.00000513,-0.00000729,-0.00000339,0.00000897
 ,-0.00001286,0.00000327,0.00000770,-0.00000633,0.00000480,0.00000753,-
 0.00000387,0.00000945,-0.00000120,0.00000151,0.00007904,0.00024901,-0.
 00022997,0.00004204,-0.00003891,0.00004587,0.00002354,0.00000466,0.000
 00124,-0.06004550,-0.12962055,0.16357191,-0.00435228,-0.01407669,0.013
 70072,0.05984237,0.15061384,-0.00005880,-0.00001240,0.00004821,-0.0001
 6592,-0.00023246,0.00019320,0.00041285,-0.00017963,0.00017412,0.000081
 14,0.00013298,0.00006919,0.00000011,0.00003380,-0.00001626,-0.00003034
 ,-0.00001114,-0.00001837,0.00010935,0.00036472,-0.00028096,-0.00021195
 ,-0.00038954,-0.00006495,-0.00015139,0.00017104,-0.00001077,0.00001536
 ,-0.00008900,0.00000655,0.00014489,-0.00010320,-0.00002239,0.00003616,
 -0.00005544,-0.00002969,-0.00003069,0.00002764,-0.00000784,0.00005461,
 0.00003162,-0.00002491,-0.00030959,-0.00021410,0.00047495,0.00010313,0
 .00017575,-0.00000711,-0.00005447,-0.00008636,-0.00003525,0.00003761,0
 .00011253,-0.00003815,0.00000949,0.00004857,0.00000329,0.00002581,0.00
 000481,-0.00004336,0.00004263,-0.00001869,-0.00005386,-0.00006795,0.00
 024505,-0.00005080,0.00453931,-0.00869205,-0.00692962,0.00003730,0.000
 01375,0.00000882,-0.00001306,-0.00000710,0.00000864,-0.00000949,0.0000
 0843,0.00000761,-0.00000856,0.00000715,-0.00000623,-0.00000371,0.00000
 984,-0.00000837,-0.00000150,0.00001351,0.00000939,-0.00000337,0.000014
 51,0.00000383,0.00001302,0.00001797,0.00000523,0.00001437,0.00001823,0
 .00001188,0.00023642,0.00015680,-0.00047703,-0.00002286,0.00000079,0.0
 0001030,0.00003976,0.00000776,0.00001001,0.07642124,0.19396079,-0.2458
 4763,-0.00135299,-0.01747582,0.00909276,-0.08114014,-0.16915889,0.2415
 3979,0.00002042,-0.00001646,0.00000287,-0.00008202,0.00002810,-0.00000
 437,0.00001806,-0.00005810,0.00001777,-0.00000918,-0.00001559,-0.00001
 091,-0.00003396,0.00003212,-0.00000021,0.00000358,-0.00004390,0.000005
 42,-0.00000580,-0.00007198,-0.00002875,0.00009601,-0.00003283,0.000017
 79,-0.00003988,0.00001416,-0.00000618,0.00002700,-0.00002302,0.0000031
 6,0.00008381,-0.00004415,0.00001074,0.00001216,0.00000876,-0.00001198,
 -0.00004194,-0.00001290,0.00000188,0.00003884,0.00005253,-0.00000867,-
 0.00012720,0.00002986,0.00004699,0.00002829,-0.00007784,0.00003657,-0.
 00007740,0.00004258,-0.00000518,0.00002153,0.00005539,-0.00000916,0.00
 002044,0.00000374,-0.00001125,-0.00004713,-0.00017181,-0.00000876,0.00
 005123,0.00030409,0.00001032,0.00008974,0.00001383,0.00001870,-0.00004
 644,-0.00033673,-0.00029635,-0.00026937,0.00005690,-0.00003232,-0.0000
 2276,0.00001261,-0.00000043,0.00000746,-0.00002213,0.00000235,0.000003
 01,-0.00000468,0.00000125,-0.00000273,-0.00000397,0.00000208,-0.000003
 52,-0.00000202,0.00000174,-0.00000397,0.00000008,0.00000102,-0.0000012
 9,0.00000684,-0.00000082,0.00000046,0.00001219,-0.00000164,0.00016780,
 -0.00003866,0.00001519,-0.00008944,0.00002607,-0.00002349,-0.00000131,
 -0.00000337,-0.00000039,0.00409054,0.00563525,-0.00193755,-0.04000192,
 -0.06417126,0.05082506,0.00502114,-0.00076572,0.00126222,0.03110574,-0
 .00008881,-0.00002622,-0.00000689,-0.00016742,-0.00000573,-0.00001248,
 0.00011889,0.00022110,-0.00003517,0.00005044,0.00005873,-0.00001826,0.
 00002192,0.00003946,-0.00000379,-0.00004951,0.00001699,-0.00000154,-0.
 00048391,0.00019713,0.00013318,-0.00014318,-0.00002277,-0.00001799,-0.
 00000944,0.00000715,0.00000783,-0.00007397,0.00001508,-0.00000150,0.00
 010353,0.00000892,0.00001139,0.00000675,-0.00002004,-0.00000817,0.0000
 2097,0.00000942,0.00000115,-0.00001675,-0.00003384,0.00000202,-0.00013
 333,-0.00006251,0.00004037,0.00005271,0.00008843,-0.00001322,0.0000140
 8,-0.00004323,-0.00000634,-0.00000010,0.00000751,0.00000417,-0.0000101
 8,0.00011333,0.00000761,0.00010383,0.00003033,-0.00003034,-0.00009591,
 -0.00009746,0.00000297,0.00019988,0.00023593,0.00005953,0.00011131,0.0
 0059955,0.00047725,0.00019852,0.00006301,0.00004601,-0.00004007,-0.000
 00829,-0.00000056,-0.00001967,0.00002087,0.00000406,-0.00001650,0.0000
 1673,0.00000002,-0.00000852,0.00002047,-0.00000085,0.00000365,0.000015
 17,0.00000030,0.00000019,0.00001518,-0.00000295,0.00001561,0.00000721,
 -0.00000110,0.00001331,0.00000934,-0.00000061,-0.00001104,-0.00001249,
 -0.00000433,-0.00001813,-0.00001251,0.00001082,0.00002797,0.00000173,0
 .00000121,-0.00148836,-0.00217389,0.00490615,-0.05761466,-0.22977379,0
 .18259723,-0.00015613,0.00178184,0.00114779,0.05958203,0.22869217,0.00
 000225,-0.00001887,0.00000206,-0.00003315,0.00002943,-0.00003457,0.000
 05473,0.00001806,-0.00001155,0.00000675,0.00001875,0.00000900,0.000004
 32,0.00001443,-0.00000059,-0.00000913,-0.00000064,-0.00000741,-0.00010
 705,0.00010789,0.00003608,-0.00004520,-0.00002912,-0.00002693,-0.00001
 291,0.00001617,0.00000084,-0.00000902,-0.00001176,-0.00000685,0.000038
 83,-0.00000376,0.00000632,-0.00000672,-0.00000310,0.00000816,-0.000002
 02,0.00000490,-0.00000717,0.00000488,0.00000022,0.00000178,-0.00005985
 ,-0.00002326,-0.00006725,0.00000356,-0.00000435,-0.00002584,0.00000033
 ,-0.00000162,-0.00000959,0.00000125,0.00000222,-0.00000155,0.00001221,
 0.00001464,0.00000003,-0.00000200,-0.00006502,-0.00003963,0.00001429,0
 .00009399,-0.00007043,0.00007116,-0.00007127,-0.00000391,-0.00014563,0
 .00068834,0.00023498,-0.00003181,-0.00004605,0.00015839,-0.00000347,0.
 00000244,0.00001547,-0.00000013,-0.00000496,0.00000921,-0.00000071,0.0
 0000001,0.00000506,-0.00000224,0.00000158,0.00000361,0.,0.00000118,0.0
 0000260,0.00000011,0.00000142,0.00000228,0.00000124,0.00000165,0.00000
 187,0.00000167,0.00000203,0.00000311,0.00004397,0.00002275,0.00011233,
 -0.00001204,0.00000141,0.00004173,0.00000292,0.00000135,0.00000697,-0.
 00084741,-0.01364126,0.00815068,0.04983793,0.19967986,-0.18682261,0.00
 111277,0.00249531,0.00229578,-0.04988469,-0.18929498,0.17602751\\0.000
 00012,0.00000005,0.00000002,0.00000011,-0.00000004,-0.00000076,0.00000
 008,-0.00000006,0.00000008,-0.00000010,-0.00000022,0.00000041,-0.00000
 015,-0.00000004,-0.00000057,0.00000009,0.00000008,-0.00000023,0.000000
 02,-0.00000030,-0.00000015,-0.00000010,-0.00000014,0.00000020,0.000000
 20,-0.00000004,0.00000039,0.00000005,0.00000016,0.00000024,-0.00000007
 ,-0.00000010,0.00000008,-0.00000012,0.00000024,0.00000057,0.00000020,-
 0.00000012,0.00000032,0.00000009,0.,0.00000081,0.00000018,0.00000020,0
 .00000054,-0.00000025,-0.00000013,0.00000048,-0.00000006,0.00000018,0.
 00000045,0.00000011,0.,0.00000090,0.,-0.00000014,-0.00000076,-0.000000
 32,0.00000005,-0.00000080,0.00000013,-0.00000024,-0.00000101,0.0000001
 6,-0.00000027,0.00000019,0.00000385,-0.00000973,-0.00000795,-0.0000001
 1,0.00000003,-0.00000064,0.,-0.00000001,-0.00000099,-0.00000003,0.,-0.
 00000085,0.00000002,-0.00000004,-0.00000046,0.00000003,0.,-0.00000006,
 -0.00000002,-0.00000003,0.00000036,0.00000006,0.00000001,0.00000068,0.
 00000001,0.,0.00000091,-0.00000002,-0.00000010,0.00000091,-0.00000011,
 -0.00000024,0.00000024,-0.00000006,-0.00000010,0.00000023,-0.00000010,
 -0.00000008,0.00000069,-0.00000336,0.00002921,0.00000073,-0.00000051,-
 0.00001825,0.00000733,0.00000115,-0.00000007,-0.00000269,-0.00000117,0
 .00000029,0.00000017\\\@


 A MAN THINKING OR WORKING IS ALWAYS ALONE, 
 LET HIM BE WHERE HE WILL.

                                    -- THOREAU
 Job cpu time:       0 days 23 hours 51 minutes 30.4 seconds.
 Elapsed time:       0 days  1 hours 11 minutes 46.7 seconds.
 File lengths (MBytes):  RWF=   2736 Int=      0 D2E=      0 Chk=     45 Scr=      1
 Normal termination of Gaussian 16 at Thu Jun 27 21:38:31 2019.
