 Entering Gaussian System, Link 0=g09
 Initial command:
 /usr/local/Cluster-Apps/gaussian/g09/l1.exe "/rds/user/am2145/hpc-work/scratch/19190025/Gau-64211.inp" -scrdir="/rds/user/am2145/hpc-work/scratch/19190025/"
 Entering Link 1 = /usr/local/Cluster-Apps/gaussian/g09/l1.exe PID=     64212.
  
 Copyright (c) 1988,1990,1992,1993,1995,1998,2003,2009,2013,
            Gaussian, Inc.  All Rights Reserved.
  
 This is part of the Gaussian(R) 09 program.  It is based on
 the Gaussian(R) 03 system (copyright 2003, Gaussian, Inc.),
 the Gaussian(R) 98 system (copyright 1998, Gaussian, Inc.),
 the Gaussian(R) 94 system (copyright 1995, Gaussian, Inc.),
 the Gaussian 92(TM) system (copyright 1992, Gaussian, Inc.),
 the Gaussian 90(TM) system (copyright 1990, Gaussian, Inc.),
 the Gaussian 88(TM) system (copyright 1988, Gaussian, Inc.),
 the Gaussian 86(TM) system (copyright 1986, Carnegie Mellon
 University), and the Gaussian 82(TM) system (copyright 1983,
 Carnegie Mellon University). Gaussian is a federally registered
 trademark of Gaussian, Inc.
  
 This software contains proprietary and confidential information,
 including trade secrets, belonging to Gaussian, Inc.
  
 This software is provided under written license and may be
 used, copied, transmitted, or stored only in accord with that
 written license.
  
 The following legend is applicable only to US Government
 contracts under FAR:
  
                    RESTRICTED RIGHTS LEGEND
  
 Use, reproduction and disclosure by the US Government is
 subject to restrictions as set forth in subparagraphs (a)
 and (c) of the Commercial Computer Software - Restricted
 Rights clause in FAR 52.227-19.
  
 Gaussian, Inc.
 340 Quinnipiac St., Bldg. 40, Wallingford CT 06492
  
  
 ---------------------------------------------------------------
 Warning -- This program may not be used in any manner that
 competes with the business of Gaussian, Inc. or will provide
 assistance to any competitor of Gaussian, Inc.  The licensee
 of this program is prohibited from giving any competitor of
 Gaussian, Inc. access to this program.  By using this program,
 the user acknowledges that Gaussian, Inc. is engaged in the
 business of creating and licensing software in the field of
 computational chemistry and represents and warrants to the
 licensee that it is not a competitor of Gaussian, Inc. and that
 it will not use this program in any manner prohibited above.
 ---------------------------------------------------------------
  

 Cite this work as:
 Gaussian 09, Revision D.01,
 M. J. Frisch, G. W. Trucks, H. B. Schlegel, G. E. Scuseria, 
 M. A. Robb, J. R. Cheeseman, G. Scalmani, V. Barone, B. Mennucci, 
 G. A. Petersson, H. Nakatsuji, M. Caricato, X. Li, H. P. Hratchian, 
 A. F. Izmaylov, J. Bloino, G. Zheng, J. L. Sonnenberg, M. Hada, 
 M. Ehara, K. Toyota, R. Fukuda, J. Hasegawa, M. Ishida, T. Nakajima, 
 Y. Honda, O. Kitao, H. Nakai, T. Vreven, J. A. Montgomery, Jr., 
 J. E. Peralta, F. Ogliaro, M. Bearpark, J. J. Heyd, E. Brothers, 
 K. N. Kudin, V. N. Staroverov, T. Keith, R. Kobayashi, J. Normand, 
 K. Raghavachari, A. Rendell, J. C. Burant, S. S. Iyengar, J. Tomasi, 
 M. Cossi, N. Rega, J. M. Millam, M. Klene, J. E. Knox, J. B. Cross, 
 V. Bakken, C. Adamo, J. Jaramillo, R. Gomperts, R. E. Stratmann, 
 O. Yazyev, A. J. Austin, R. Cammi, C. Pomelli, J. W. Ochterski, 
 R. L. Martin, K. Morokuma, V. G. Zakrzewski, G. A. Voth, 
 P. Salvador, J. J. Dannenberg, S. Dapprich, A. D. Daniels, 
 O. Farkas, J. B. Foresman, J. V. Ortiz, J. Cioslowski, 
 and D. J. Fox, Gaussian, Inc., Wallingford CT, 2013.
 
 ******************************************
 Gaussian 09:  ES64L-G09RevD.01 24-Apr-2013
                 2-Feb-2020 
 ******************************************
 %NProcShared=20
 Will use up to   20 processors via shared memory.
 %mem=64GB
 %Chk=BS2a_Hmig_guess.chk
 --------------------------------------------------
 #n opt=(ts,calcfc,noeigen) freq b3lyp/6-311+g(d,p)
 --------------------------------------------------
 1/5=1,10=4,11=1,14=-1,18=20,26=3,38=1/1,3;
 2/9=110,12=2,17=6,18=5,40=1/2;
 3/5=4,6=6,7=111,11=2,16=1,25=1,30=1,71=2,74=-5,140=1/1,2,3;
 4//1;
 5/5=2,38=5/2;
 8/6=4,10=90,11=11/1;
 11/6=1,8=1,9=11,15=111,16=1/1,2,10;
 10/6=1,13=1/2;
 6/7=2,8=2,9=2,10=2,28=1/1;
 7/10=1,18=20,25=1/1,2,3,16;
 1/5=1,10=4,11=1,14=-1,18=20,26=3/3(2);
 2/9=110/2;
 99//99;
 2/9=110/2;
 3/5=4,6=6,7=111,11=2,16=1,25=1,30=1,71=1,74=-5/1,2,3;
 4/5=5,16=3,69=1/1;
 5/5=2,38=5/2;
 7//1,2,3,16;
 1/5=1,11=1,14=-1,18=20,26=3/3(-5);
 2/9=110/2;
 6/7=2,8=2,9=2,10=2,19=2,28=1/1;
 99/9=1/99;
 ---------------
 BS2a_Hmig_guess
 ---------------
 Symbolic Z-matrix:
 Charge =  0 Multiplicity = 3
 C                    -3.80314  -0.53873   0. 
 C                    -2.53374   0.03499   0. 
 C                    -1.3323   -0.69186   0.00001 
 C                    -1.37853  -2.08888   0.00001 
 C                    -3.83819  -1.98071   0. 
 C                    -2.68201  -2.71259   0.00001 
 C                    -0.19117   0.1674    0.00001 
 C                     1.09087  -0.50218   0.00001 
 C                     1.04764  -1.96225   0.00001 
 C                    -0.13718  -2.71579   0.00001 
 C                     2.4388    0.08755   0. 
 C                     3.60863  -0.75244  -0.00001 
 C                     3.47873  -2.17449  -0.00001 
 C                     2.25608  -2.73976   0. 
 C                     2.73733   1.45754   0. 
 C                     3.99379   2.01054  -0.00001 
 C                     5.11334   1.1667   -0.00002 
 C                     4.90512  -0.19479  -0.00002 
 C                    -4.88404   0.37456  -0.00001 
 C                    -4.63028   1.74364  -0.00001 
 C                    -3.32506   2.28138  -0.00001 
 C                    -2.24288   1.40357   0. 
 C                    -0.77788   1.5462    0. 
 H                    -3.20214   3.35857  -0.00002 
 H                    -5.4699    2.42993  -0.00002 
 H                    -5.90743   0.0149   -0.00001 
 H                    -4.79697  -2.48869   0. 
 H                    -2.73273  -3.7965    0.00001 
 H                    -0.06108  -3.798     0.00001 
 H                     2.15159  -3.81908   0.00001 
 H                     4.37785  -2.78082  -0.00001 
 H                     5.74946  -0.87572  -0.00003 
 H                     1.83884   2.4043    0.00002 
 H                     4.11312   3.08922   0. 
 H                     6.11706   1.57688  -0.00003 
 C                    -0.28655   2.88214   0.00001 
 C                     0.97385   3.34387   0.00003 
 H                    -1.07745   3.63259   0. 
 H                     1.29223   4.37869   0.00003 
 

 GradGradGradGradGradGradGradGradGradGradGradGradGradGradGradGradGradGrad
 Berny optimization.
 Initialization pass.
                           ----------------------------
                           !    Initial Parameters    !
                           ! (Angstroms and Degrees)  !
 --------------------------                            --------------------------
 ! Name  Definition              Value          Derivative Info.                !
 --------------------------------------------------------------------------------
 ! R1    R(1,2)                  1.393          calculate D2E/DX2 analytically  !
 ! R2    R(1,5)                  1.4424         calculate D2E/DX2 analytically  !
 ! R3    R(1,19)                 1.4151         calculate D2E/DX2 analytically  !
 ! R4    R(2,3)                  1.4042         calculate D2E/DX2 analytically  !
 ! R5    R(2,22)                 1.3991         calculate D2E/DX2 analytically  !
 ! R6    R(3,4)                  1.3978         calculate D2E/DX2 analytically  !
 ! R7    R(3,7)                  1.4285         calculate D2E/DX2 analytically  !
 ! R8    R(4,6)                  1.445          calculate D2E/DX2 analytically  !
 ! R9    R(4,10)                 1.3907         calculate D2E/DX2 analytically  !
 ! R10   R(5,6)                  1.3684         calculate D2E/DX2 analytically  !
 ! R11   R(5,27)                 1.085          calculate D2E/DX2 analytically  !
 ! R12   R(6,28)                 1.0851         calculate D2E/DX2 analytically  !
 ! R13   R(7,8)                  1.4464         calculate D2E/DX2 analytically  !
 ! R14   R(7,23)                 1.4984         calculate D2E/DX2 analytically  !
 ! R15   R(8,9)                  1.4607         calculate D2E/DX2 analytically  !
 ! R16   R(8,11)                 1.4713         calculate D2E/DX2 analytically  !
 ! R17   R(9,10)                 1.4041         calculate D2E/DX2 analytically  !
 ! R18   R(9,14)                 1.437          calculate D2E/DX2 analytically  !
 ! R19   R(10,29)                1.0849         calculate D2E/DX2 analytically  !
 ! R20   R(11,12)                1.4402         calculate D2E/DX2 analytically  !
 ! R21   R(11,15)                1.4021         calculate D2E/DX2 analytically  !
 ! R22   R(12,13)                1.428          calculate D2E/DX2 analytically  !
 ! R23   R(12,18)                1.4113         calculate D2E/DX2 analytically  !
 ! R24   R(13,14)                1.347          calculate D2E/DX2 analytically  !
 ! R25   R(13,31)                1.0845         calculate D2E/DX2 analytically  !
 ! R26   R(14,30)                1.0844         calculate D2E/DX2 analytically  !
 ! R27   R(15,16)                1.3728         calculate D2E/DX2 analytically  !
 ! R28   R(16,17)                1.4019         calculate D2E/DX2 analytically  !
 ! R29   R(16,34)                1.0853         calculate D2E/DX2 analytically  !
 ! R30   R(17,18)                1.3773         calculate D2E/DX2 analytically  !
 ! R31   R(17,35)                1.0843         calculate D2E/DX2 analytically  !
 ! R32   R(18,32)                1.0847         calculate D2E/DX2 analytically  !
 ! R33   R(19,20)                1.3924         calculate D2E/DX2 analytically  !
 ! R34   R(19,26)                1.0847         calculate D2E/DX2 analytically  !
 ! R35   R(20,21)                1.4117         calculate D2E/DX2 analytically  !
 ! R36   R(20,25)                1.0844         calculate D2E/DX2 analytically  !
 ! R37   R(21,22)                1.3934         calculate D2E/DX2 analytically  !
 ! R38   R(21,24)                1.0842         calculate D2E/DX2 analytically  !
 ! R39   R(22,23)                1.4719         calculate D2E/DX2 analytically  !
 ! R40   R(23,36)                1.4234         calculate D2E/DX2 analytically  !
 ! R41   R(33,37)                1.2771         calculate D2E/DX2 analytically  !
 ! R42   R(36,37)                1.3423         calculate D2E/DX2 analytically  !
 ! R43   R(36,38)                1.0903         calculate D2E/DX2 analytically  !
 ! R44   R(37,39)                1.0827         calculate D2E/DX2 analytically  !
 ! A1    A(2,1,5)              115.7135         calculate D2E/DX2 analytically  !
 ! A2    A(2,1,19)             115.4832         calculate D2E/DX2 analytically  !
 ! A3    A(5,1,19)             128.8032         calculate D2E/DX2 analytically  !
 ! A4    A(1,2,3)              124.5057         calculate D2E/DX2 analytically  !
 ! A5    A(1,2,22)             126.3195         calculate D2E/DX2 analytically  !
 ! A6    A(3,2,22)             109.1748         calculate D2E/DX2 analytically  !
 ! A7    A(2,3,4)              119.2779         calculate D2E/DX2 analytically  !
 ! A8    A(2,3,7)              111.8474         calculate D2E/DX2 analytically  !
 ! A9    A(4,3,7)              128.8747         calculate D2E/DX2 analytically  !
 ! A10   A(3,4,6)              117.4663         calculate D2E/DX2 analytically  !
 ! A11   A(3,4,10)             114.8995         calculate D2E/DX2 analytically  !
 ! A12   A(6,4,10)             127.6343         calculate D2E/DX2 analytically  !
 ! A13   A(1,5,6)              120.942          calculate D2E/DX2 analytically  !
 ! A14   A(1,5,27)             119.3079         calculate D2E/DX2 analytically  !
 ! A15   A(6,5,27)             119.7501         calculate D2E/DX2 analytically  !
 ! A16   A(4,6,5)              122.0946         calculate D2E/DX2 analytically  !
 ! A17   A(4,6,28)             118.25           calculate D2E/DX2 analytically  !
 ! A18   A(5,6,28)             119.6553         calculate D2E/DX2 analytically  !
 ! A19   A(3,7,8)              115.4436         calculate D2E/DX2 analytically  !
 ! A20   A(3,7,23)             103.9286         calculate D2E/DX2 analytically  !
 ! A21   A(8,7,23)             140.6279         calculate D2E/DX2 analytically  !
 ! A22   A(7,8,9)              115.8811         calculate D2E/DX2 analytically  !
 ! A23   A(7,8,11)             128.7932         calculate D2E/DX2 analytically  !
 ! A24   A(9,8,11)             115.3257         calculate D2E/DX2 analytically  !
 ! A25   A(8,9,10)             124.1521         calculate D2E/DX2 analytically  !
 ! A26   A(8,9,14)             121.0613         calculate D2E/DX2 analytically  !
 ! A27   A(10,9,14)            114.7866         calculate D2E/DX2 analytically  !
 ! A28   A(4,10,9)             120.749          calculate D2E/DX2 analytically  !
 ! A29   A(4,10,29)            120.8172         calculate D2E/DX2 analytically  !
 ! A30   A(9,10,29)            118.4338         calculate D2E/DX2 analytically  !
 ! A31   A(8,11,12)            120.6902         calculate D2E/DX2 analytically  !
 ! A32   A(8,11,15)            125.9227         calculate D2E/DX2 analytically  !
 ! A33   A(12,11,15)           113.3871         calculate D2E/DX2 analytically  !
 ! A34   A(11,12,13)           120.4607         calculate D2E/DX2 analytically  !
 ! A35   A(11,12,18)           121.0463         calculate D2E/DX2 analytically  !
 ! A36   A(13,12,18)           118.493          calculate D2E/DX2 analytically  !
 ! A37   A(12,13,14)           120.0319         calculate D2E/DX2 analytically  !
 ! A38   A(12,13,31)           118.7748         calculate D2E/DX2 analytically  !
 ! A39   A(14,13,31)           121.1933         calculate D2E/DX2 analytically  !
 ! A40   A(9,14,13)            122.4302         calculate D2E/DX2 analytically  !
 ! A41   A(9,14,30)            117.2276         calculate D2E/DX2 analytically  !
 ! A42   A(13,14,30)           120.3422         calculate D2E/DX2 analytically  !
 ! A43   A(11,15,16)           126.0485         calculate D2E/DX2 analytically  !
 ! A44   A(15,16,17)           119.238          calculate D2E/DX2 analytically  !
 ! A45   A(15,16,34)           120.0682         calculate D2E/DX2 analytically  !
 ! A46   A(17,16,34)           120.6937         calculate D2E/DX2 analytically  !
 ! A47   A(16,17,18)           118.3113         calculate D2E/DX2 analytically  !
 ! A48   A(16,17,35)           120.7657         calculate D2E/DX2 analytically  !
 ! A49   A(18,17,35)           120.923          calculate D2E/DX2 analytically  !
 ! A50   A(12,18,17)           121.9688         calculate D2E/DX2 analytically  !
 ! A51   A(12,18,32)           117.8414         calculate D2E/DX2 analytically  !
 ! A52   A(17,18,32)           120.1898         calculate D2E/DX2 analytically  !
 ! A53   A(1,19,20)            119.695          calculate D2E/DX2 analytically  !
 ! A54   A(1,19,26)            120.4409         calculate D2E/DX2 analytically  !
 ! A55   A(20,19,26)           119.8642         calculate D2E/DX2 analytically  !
 ! A56   A(19,20,21)           122.8919         calculate D2E/DX2 analytically  !
 ! A57   A(19,20,25)           118.7613         calculate D2E/DX2 analytically  !
 ! A58   A(21,20,25)           118.3468         calculate D2E/DX2 analytically  !
 ! A59   A(20,21,22)           118.5615         calculate D2E/DX2 analytically  !
 ! A60   A(20,21,24)           118.9012         calculate D2E/DX2 analytically  !
 ! A61   A(22,21,24)           122.5373         calculate D2E/DX2 analytically  !
 ! A62   A(2,22,21)            117.0489         calculate D2E/DX2 analytically  !
 ! A63   A(2,22,23)            107.5591         calculate D2E/DX2 analytically  !
 ! A64   A(21,22,23)           135.3921         calculate D2E/DX2 analytically  !
 ! A65   A(7,23,22)            107.4901         calculate D2E/DX2 analytically  !
 ! A66   A(7,23,36)            136.7567         calculate D2E/DX2 analytically  !
 ! A67   A(22,23,36)           115.7531         calculate D2E/DX2 analytically  !
 ! A68   A(23,36,37)           130.312          calculate D2E/DX2 analytically  !
 ! A69   A(23,36,38)           113.3043         calculate D2E/DX2 analytically  !
 ! A70   A(37,36,38)           116.3837         calculate D2E/DX2 analytically  !
 ! A71   A(33,37,36)           112.5138         calculate D2E/DX2 analytically  !
 ! A72   A(33,37,39)           120.2652         calculate D2E/DX2 analytically  !
 ! A73   A(36,37,39)           127.221          calculate D2E/DX2 analytically  !
 ! D1    D(5,1,2,3)             -0.0005         calculate D2E/DX2 analytically  !
 ! D2    D(5,1,2,22)           180.0            calculate D2E/DX2 analytically  !
 ! D3    D(19,1,2,3)           180.0            calculate D2E/DX2 analytically  !
 ! D4    D(19,1,2,22)            0.0004         calculate D2E/DX2 analytically  !
 ! D5    D(2,1,5,6)              0.0005         calculate D2E/DX2 analytically  !
 ! D6    D(2,1,5,27)           180.0            calculate D2E/DX2 analytically  !
 ! D7    D(19,1,5,6)           180.0            calculate D2E/DX2 analytically  !
 ! D8    D(19,1,5,27)           -0.0005         calculate D2E/DX2 analytically  !
 ! D9    D(2,1,19,20)           -0.0004         calculate D2E/DX2 analytically  !
 ! D10   D(2,1,19,26)         -180.0            calculate D2E/DX2 analytically  !
 ! D11   D(5,1,19,20)         -179.9999         calculate D2E/DX2 analytically  !
 ! D12   D(5,1,19,26)            0.0006         calculate D2E/DX2 analytically  !
 ! D13   D(1,2,3,4)              0.0005         calculate D2E/DX2 analytically  !
 ! D14   D(1,2,3,7)           -179.9999         calculate D2E/DX2 analytically  !
 ! D15   D(22,2,3,4)          -179.9999         calculate D2E/DX2 analytically  !
 ! D16   D(22,2,3,7)            -0.0003         calculate D2E/DX2 analytically  !
 ! D17   D(1,2,22,21)           -0.0005         calculate D2E/DX2 analytically  !
 ! D18   D(1,2,22,23)          180.0            calculate D2E/DX2 analytically  !
 ! D19   D(3,2,22,21)          180.0            calculate D2E/DX2 analytically  !
 ! D20   D(3,2,22,23)            0.0004         calculate D2E/DX2 analytically  !
 ! D21   D(2,3,4,6)             -0.0005         calculate D2E/DX2 analytically  !
 ! D22   D(2,3,4,10)           179.9995         calculate D2E/DX2 analytically  !
 ! D23   D(7,3,4,6)            180.0            calculate D2E/DX2 analytically  !
 ! D24   D(7,3,4,10)             0.0            calculate D2E/DX2 analytically  !
 ! D25   D(2,3,7,8)           -179.9996         calculate D2E/DX2 analytically  !
 ! D26   D(2,3,7,23)             0.0            calculate D2E/DX2 analytically  !
 ! D27   D(4,3,7,8)              0.0            calculate D2E/DX2 analytically  !
 ! D28   D(4,3,7,23)           179.9996         calculate D2E/DX2 analytically  !
 ! D29   D(3,4,6,5)              0.0005         calculate D2E/DX2 analytically  !
 ! D30   D(3,4,6,28)           180.0            calculate D2E/DX2 analytically  !
 ! D31   D(10,4,6,5)          -179.9995         calculate D2E/DX2 analytically  !
 ! D32   D(10,4,6,28)            0.0            calculate D2E/DX2 analytically  !
 ! D33   D(3,4,10,9)             0.0            calculate D2E/DX2 analytically  !
 ! D34   D(3,4,10,29)          180.0            calculate D2E/DX2 analytically  !
 ! D35   D(6,4,10,9)           180.0            calculate D2E/DX2 analytically  !
 ! D36   D(6,4,10,29)            0.0            calculate D2E/DX2 analytically  !
 ! D37   D(1,5,6,4)             -0.0005         calculate D2E/DX2 analytically  !
 ! D38   D(1,5,6,28)           180.0            calculate D2E/DX2 analytically  !
 ! D39   D(27,5,6,4)           180.0            calculate D2E/DX2 analytically  !
 ! D40   D(27,5,6,28)            0.0005         calculate D2E/DX2 analytically  !
 ! D41   D(3,7,8,9)              0.0            calculate D2E/DX2 analytically  !
 ! D42   D(3,7,8,11)           179.9995         calculate D2E/DX2 analytically  !
 ! D43   D(23,7,8,9)          -179.9994         calculate D2E/DX2 analytically  !
 ! D44   D(23,7,8,11)            0.0001         calculate D2E/DX2 analytically  !
 ! D45   D(3,7,23,22)            0.0002         calculate D2E/DX2 analytically  !
 ! D46   D(3,7,23,36)          179.9991         calculate D2E/DX2 analytically  !
 ! D47   D(8,7,23,22)          179.9997         calculate D2E/DX2 analytically  !
 ! D48   D(8,7,23,36)           -0.0015         calculate D2E/DX2 analytically  !
 ! D49   D(7,8,9,10)             0.0            calculate D2E/DX2 analytically  !
 ! D50   D(7,8,9,14)           179.9995         calculate D2E/DX2 analytically  !
 ! D51   D(11,8,9,10)         -179.9996         calculate D2E/DX2 analytically  !
 ! D52   D(11,8,9,14)            0.0            calculate D2E/DX2 analytically  !
 ! D53   D(7,8,11,12)         -179.9995         calculate D2E/DX2 analytically  !
 ! D54   D(7,8,11,15)            0.0006         calculate D2E/DX2 analytically  !
 ! D55   D(9,8,11,12)            0.0            calculate D2E/DX2 analytically  !
 ! D56   D(9,8,11,15)         -179.9999         calculate D2E/DX2 analytically  !
 ! D57   D(8,9,10,4)             0.0            calculate D2E/DX2 analytically  !
 ! D58   D(8,9,10,29)          180.0            calculate D2E/DX2 analytically  !
 ! D59   D(14,9,10,4)         -179.9996         calculate D2E/DX2 analytically  !
 ! D60   D(14,9,10,29)           0.0004         calculate D2E/DX2 analytically  !
 ! D61   D(8,9,14,13)            0.0            calculate D2E/DX2 analytically  !
 ! D62   D(8,9,14,30)          179.9994         calculate D2E/DX2 analytically  !
 ! D63   D(10,9,14,13)         179.9996         calculate D2E/DX2 analytically  !
 ! D64   D(10,9,14,30)          -0.001          calculate D2E/DX2 analytically  !
 ! D65   D(8,11,12,13)           0.0            calculate D2E/DX2 analytically  !
 ! D66   D(8,11,12,18)         180.0            calculate D2E/DX2 analytically  !
 ! D67   D(15,11,12,13)        179.9999         calculate D2E/DX2 analytically  !
 ! D68   D(15,11,12,18)         -0.0001         calculate D2E/DX2 analytically  !
 ! D69   D(8,11,15,16)        -180.0            calculate D2E/DX2 analytically  !
 ! D70   D(12,11,15,16)          0.0001         calculate D2E/DX2 analytically  !
 ! D71   D(11,12,13,14)          0.0            calculate D2E/DX2 analytically  !
 ! D72   D(11,12,13,31)       -179.9995         calculate D2E/DX2 analytically  !
 ! D73   D(18,12,13,14)        180.0            calculate D2E/DX2 analytically  !
 ! D74   D(18,12,13,31)          0.0005         calculate D2E/DX2 analytically  !
 ! D75   D(11,12,18,17)          0.0            calculate D2E/DX2 analytically  !
 ! D76   D(11,12,18,32)       -179.9998         calculate D2E/DX2 analytically  !
 ! D77   D(13,12,18,17)       -180.0            calculate D2E/DX2 analytically  !
 ! D78   D(13,12,18,32)          0.0002         calculate D2E/DX2 analytically  !
 ! D79   D(12,13,14,9)           0.0            calculate D2E/DX2 analytically  !
 ! D80   D(12,13,14,30)       -179.9994         calculate D2E/DX2 analytically  !
 ! D81   D(31,13,14,9)         179.9995         calculate D2E/DX2 analytically  !
 ! D82   D(31,13,14,30)          0.0001         calculate D2E/DX2 analytically  !
 ! D83   D(11,15,16,17)         -0.0001         calculate D2E/DX2 analytically  !
 ! D84   D(11,15,16,34)       -179.9995         calculate D2E/DX2 analytically  !
 ! D85   D(15,16,17,18)          0.0            calculate D2E/DX2 analytically  !
 ! D86   D(15,16,17,35)        179.9999         calculate D2E/DX2 analytically  !
 ! D87   D(34,16,17,18)        179.9994         calculate D2E/DX2 analytically  !
 ! D88   D(34,16,17,35)         -0.0007         calculate D2E/DX2 analytically  !
 ! D89   D(16,17,18,12)          0.0            calculate D2E/DX2 analytically  !
 ! D90   D(16,17,18,32)        179.9999         calculate D2E/DX2 analytically  !
 ! D91   D(35,17,18,12)       -179.9999         calculate D2E/DX2 analytically  !
 ! D92   D(35,17,18,32)          0.0            calculate D2E/DX2 analytically  !
 ! D93   D(1,19,20,21)           0.0005         calculate D2E/DX2 analytically  !
 ! D94   D(1,19,20,25)         179.9999         calculate D2E/DX2 analytically  !
 ! D95   D(26,19,20,21)        180.0            calculate D2E/DX2 analytically  !
 ! D96   D(26,19,20,25)         -0.0006         calculate D2E/DX2 analytically  !
 ! D97   D(19,20,21,22)         -0.0005         calculate D2E/DX2 analytically  !
 ! D98   D(19,20,21,24)        179.9994         calculate D2E/DX2 analytically  !
 ! D99   D(25,20,21,22)       -179.9999         calculate D2E/DX2 analytically  !
 ! D100  D(25,20,21,24)          0.0            calculate D2E/DX2 analytically  !
 ! D101  D(20,21,22,2)           0.0004         calculate D2E/DX2 analytically  !
 ! D102  D(20,21,22,23)        179.9998         calculate D2E/DX2 analytically  !
 ! D103  D(24,21,22,2)        -179.9994         calculate D2E/DX2 analytically  !
 ! D104  D(24,21,22,23)         -0.0001         calculate D2E/DX2 analytically  !
 ! D105  D(2,22,23,7)           -0.0004         calculate D2E/DX2 analytically  !
 ! D106  D(2,22,23,36)        -179.9996         calculate D2E/DX2 analytically  !
 ! D107  D(21,22,23,7)        -179.9998         calculate D2E/DX2 analytically  !
 ! D108  D(21,22,23,36)          0.001          calculate D2E/DX2 analytically  !
 ! D109  D(7,23,36,37)           0.0002         calculate D2E/DX2 analytically  !
 ! D110  D(7,23,36,38)        -179.9998         calculate D2E/DX2 analytically  !
 ! D111  D(22,23,36,37)        179.999          calculate D2E/DX2 analytically  !
 ! D112  D(22,23,36,38)         -0.0009         calculate D2E/DX2 analytically  !
 ! D113  D(23,36,37,33)          0.001          calculate D2E/DX2 analytically  !
 ! D114  D(23,36,37,39)        179.9995         calculate D2E/DX2 analytically  !
 ! D115  D(38,36,37,33)       -179.999          calculate D2E/DX2 analytically  !
 ! D116  D(38,36,37,39)         -0.0005         calculate D2E/DX2 analytically  !
 --------------------------------------------------------------------------------
 Trust Radius=3.00D-01 FncErr=1.00D-07 GrdErr=1.00D-06
 Number of steps in this run=    234 maximum allowed number of steps=    234.
 Search for a saddle point of order  1.
 GradGradGradGradGradGradGradGradGradGradGradGradGradGradGradGradGradGrad

                          Input orientation:                          
 ---------------------------------------------------------------------
 Center     Atomic      Atomic             Coordinates (Angstroms)
 Number     Number       Type             X           Y           Z
 ---------------------------------------------------------------------
      1          6           0       -3.803140   -0.538730    0.000000
      2          6           0       -2.533740    0.034990    0.000000
      3          6           0       -1.332300   -0.691860    0.000010
      4          6           0       -1.378530   -2.088880    0.000010
      5          6           0       -3.838190   -1.980710    0.000000
      6          6           0       -2.682010   -2.712590    0.000010
      7          6           0       -0.191170    0.167400    0.000010
      8          6           0        1.090870   -0.502180    0.000010
      9          6           0        1.047640   -1.962250    0.000010
     10          6           0       -0.137180   -2.715790    0.000010
     11          6           0        2.438800    0.087550    0.000000
     12          6           0        3.608630   -0.752440   -0.000010
     13          6           0        3.478730   -2.174490   -0.000010
     14          6           0        2.256080   -2.739760    0.000000
     15          6           0        2.737330    1.457540    0.000000
     16          6           0        3.993790    2.010540   -0.000010
     17          6           0        5.113340    1.166700   -0.000020
     18          6           0        4.905120   -0.194790   -0.000020
     19          6           0       -4.884040    0.374560   -0.000010
     20          6           0       -4.630280    1.743640   -0.000010
     21          6           0       -3.325060    2.281380   -0.000010
     22          6           0       -2.242880    1.403570    0.000000
     23          6           0       -0.777880    1.546200    0.000000
     24          1           0       -3.202140    3.358570   -0.000020
     25          1           0       -5.469900    2.429930   -0.000020
     26          1           0       -5.907430    0.014900   -0.000010
     27          1           0       -4.796970   -2.488690    0.000000
     28          1           0       -2.732730   -3.796500    0.000010
     29          1           0       -0.061080   -3.798000    0.000010
     30          1           0        2.151590   -3.819080    0.000010
     31          1           0        4.377850   -2.780820   -0.000010
     32          1           0        5.749460   -0.875720   -0.000030
     33          1           0        1.838840    2.404300    0.000020
     34          1           0        4.113120    3.089220    0.000000
     35          1           0        6.117060    1.576880   -0.000030
     36          6           0       -0.286550    2.882140    0.000010
     37          6           0        0.973850    3.343870    0.000030
     38          1           0       -1.077450    3.632590    0.000000
     39          1           0        1.292230    4.378690    0.000030
 ---------------------------------------------------------------------
                    Distance matrix (angstroms):
                    1          2          3          4          5
     1  C    0.000000
     2  C    1.393029   0.000000
     3  C    2.475581   1.404197   0.000000
     4  C    2.877794   2.417713   1.397785   0.000000
     5  C    1.442406   2.400966   2.817910   2.462037   0.000000
     6  C    2.445935   2.751578   2.430034   1.445017   1.368357
     7  C    3.680346   2.346309   1.428463   2.549632   4.232627
     8  C    4.894146   3.664198   2.430583   2.935226   5.146036
     9  C    5.055341   4.100640   2.697778   2.429472   4.885865
    10  C    4.263667   3.648327   2.350448   1.390671   3.773303
    11  C    6.273280   4.972818   3.850802   4.394184   6.608956
    12  C    7.414850   6.192637   4.941301   5.163123   7.547435
    13  C    7.463333   6.405591   5.034302   4.858014   7.319486
    14  C    6.446602   5.535487   4.131630   3.692429   6.141358
    15  C    6.838336   5.459655   4.602370   5.432992   7.420177
    16  C    8.203103   6.819930   5.972453   6.757741   8.790335
    17  C    9.078111   7.730369   6.708243   7.262450   9.488734
    18  C    8.715049   7.442408   6.257195   6.562914   8.923843
    19  C    1.415077   2.374704   3.708384   4.284523   2.577033
    20  C    2.427627   2.704619   4.099797   5.026140   3.807649
    21  C    2.860346   2.381692   3.579280   4.784156   4.292868
    22  C    2.491373   1.399146   2.284728   3.597820   3.741439
    23  C    3.674116   2.316635   2.305709   3.684371   4.669539
    24  H    3.943368   3.390124   4.461198   5.744586   5.377032
    25  H    3.404560   3.789033   5.183175   6.095814   4.702789
    26  H    2.175900   3.373750   4.629398   4.993679   2.874755
    27  H    2.188616   3.389863   3.902888   3.441741   1.085036
    28  H    3.429117   3.836654   3.405876   2.179409   2.125826
    29  H    4.962444   4.561344   3.356204   2.157954   4.191551
    30  H    6.798493   6.066809   4.681559   3.931328   6.265546
    31  H    8.482663   7.463167   6.080260   5.797818   8.254907
    32  H    9.558542   8.333114   7.084146   7.230491   9.651116
    33  H    6.363440   4.973237   4.431967   5.526313   7.173352
    34  H    8.707996   7.314989   6.629417   7.547910   9.430139
    35  H   10.143282   8.787136   7.787178   8.343960  10.571823
    36  C    4.905992   3.627137   3.723851   5.089544   6.021749
    37  C    6.155828   4.822020   4.648166   5.920174   7.176829
    38  H    4.982900   3.881173   4.331953   5.729386   6.255463
    39  H    7.081230   5.788417   5.709521   6.997315   8.170874
                    6          7          8          9         10
     6  C    0.000000
     7  C    3.807706   0.000000
     8  C    4.372703   1.446362   0.000000
     9  C    3.804379   2.463749   1.460710   0.000000
    10  C    2.544832   2.883695   2.531438   1.404144   0.000000
    11  C    5.836393   2.631182   1.471291   2.477298   3.807150
    12  C    6.588956   3.909551   2.530167   2.832368   4.229165
    13  C    6.184195   4.353460   2.915218   2.440337   3.656202
    14  C    4.938165   3.800081   2.522792   1.436958   2.393380
    15  C    6.838072   3.200090   2.559557   3.814448   5.067494
    16  C    8.177669   4.572861   3.839363   4.945994   6.277190
    17  C    8.707260   5.397817   4.354931   5.130326   6.530060
    18  C    7.993989   5.109144   3.826616   4.243120   5.637396
    19  C    3.792022   4.697440   6.038892   6.375383   5.664181
    20  C    4.863511   4.710651   6.146159   6.780295   6.330439
    21  C    5.035201   3.780235   5.220023   6.093349   5.927418
    22  C    4.139518   2.395335   3.840022   4.707044   4.626348
    23  C    4.665083   1.498439   2.772740   3.954965   4.309879
    24  H    6.093400   4.387426   5.773675   6.809681   6.803810
    25  H    5.849602   5.743173   7.186165   7.859362   7.410556
    26  H    4.224043   5.718294   7.017377   7.230638   6.383765
    27  H    2.126779   5.316785   6.213926   5.868271   4.665321
    28  H    1.085096   4.708719   5.047025   4.201865   2.811550
    29  H    2.836792   3.967533   3.491335   2.144583   1.084882
    30  H    4.958630   4.623910   3.482377   2.160214   2.540810
    31  H    7.060190   5.437641   3.999555   3.429337   4.515498
    32  H    8.629240   6.031516   4.673542   4.825729   6.167527
    33  H    6.827931   3.020706   3.001181   4.437652   5.488167
    34  H    8.935032   5.202302   4.693842   5.908851   7.194664
    35  H    9.788932   6.463776   5.439217   6.182593   7.585680
    36  C    6.085987   2.716415   3.653889   5.024756   5.599922
    37  C    7.074321   3.383376   3.847830   5.306633   6.160671
    38  H    6.544916   3.576735   4.668826   5.984834   6.417635
    39  H    8.129012   4.464912   4.885022   6.345656   7.237048
                   11         12         13         14         15
    11  C    0.000000
    12  C    1.440169   0.000000
    13  C    2.489634   1.427971   0.000000
    14  C    2.833208   2.403920   1.346998   0.000000
    15  C    1.402139   2.375537   3.706928   4.224799   0.000000
    16  C    2.473031   2.789697   4.216606   5.058160   1.372771
    17  C    2.884047   2.438699   3.719610   4.839872   2.393744
    18  C    2.482428   1.411333   2.440041   3.673457   2.725712
    19  C    7.328462   8.567122   8.742630   7.789756   7.697930
    20  C    7.260477   8.608720   9.005986   8.217228   7.373163
    21  C    6.167250   7.568363   8.133040   7.507394   6.118111
    22  C    4.863130   6.236068   6.748284   6.116194   4.980502
    23  C    3.531953   4.952294   5.653518   5.251130   3.516328
    24  H    6.520719   7.955312   8.674605   8.184241   6.236282
    25  H    8.248290   9.620145  10.063730   9.296045   8.264633
    26  H    8.346546   9.546948   9.638124   8.615744   8.764307
    27  H    7.680715   8.583046   8.281662   7.057517   8.505199
    28  H    6.467655   7.034142   6.419747   5.099502   7.584622
    29  H    4.620270   4.768879   3.894360   2.547372   5.954141
    30  H    3.917173   3.395180   2.113286   1.084366   5.309031
    31  H    3.462291   2.169337   1.084460   2.122167   4.544777
    32  H    3.447950   2.144377   2.615916   3.959589   3.810122
    33  H    2.393174   3.619000   4.863595   5.160954   1.305235
    34  H    3.437058   3.874643   5.301801   6.117647   2.134286
    35  H    3.968337   3.423150   4.586236   5.791420   3.381836
    36  C    3.903494   5.327532   6.304510   6.170148   3.342654
    37  C    3.570672   4.870505   6.060257   6.217288   2.582267
    38  H    4.993128   6.417775   7.381121   7.191611   4.391286
    39  H    4.441678   5.629761   6.908325   7.183407   3.259054
                   16         17         18         19         20
    16  C    0.000000
    17  C    1.401948   0.000000
    18  C    2.386211   1.377320   0.000000
    19  C    9.027308  10.028713   9.805703   0.000000
    20  C    8.628199   9.760686   9.730435   1.392399   0.000000
    21  C    7.323860   8.511704   8.594608   2.463002   1.411653
    22  C    6.266136   7.360033   7.324524   2.834535   2.411499
    23  C    4.794210   5.903431   5.943697   4.270046   3.857456
    24  H    7.321106   8.599506   8.851781   3.425362   2.155825
    25  H    9.472978  10.658364  10.701878   2.137236   1.084415
    26  H   10.100333  11.080795  10.814583   1.084750   2.149338
    27  H    9.875248  10.562960   9.969580   2.864574   4.235611
    28  H    8.886382   9.284081   8.444470   4.693173   5.856095
    29  H    7.083862   7.170974   6.135655   6.377398   7.182434
    30  H    6.113769   5.799135   4.551638   8.190647   8.771409
    31  H    4.806728   4.015453   2.639236   9.784632  10.080533
    32  H    3.378295   2.139189   1.084701  10.706751  10.705141
    33  H    2.190629   3.500572   4.019620   7.022604   6.502768
    34  H    1.085260   2.167146   3.378163   9.397780   8.846334
    35  H    2.167103   1.084298   2.146535  11.066606  10.748634
    36  C    4.368180   5.665823   6.034976   5.236876   4.490453
    37  C    3.301183   4.677119   5.289329   6.567471   5.828122
    38  H    5.324333   6.663820   7.102111   5.010478   4.023771
    39  H    3.592570   4.991769   5.828353   7.360664   6.482254
                   21         22         23         24         25
    21  C    0.000000
    22  C    1.393436   0.000000
    23  C    2.651154   1.471927   0.000000
    24  H    1.084181   2.177660   3.026834   0.000000
    25  H    2.149978   3.386307   4.774519   2.450532   0.000000
    26  H    3.435923   3.918843   5.353239   4.301014   2.454344
    27  H    4.992002   4.655434   5.695035   6.060852   4.964439
    28  H    6.106675   5.223091   5.689102   7.170451   6.801509
    29  H    6.900176   5.640619   5.392057   7.815546   8.248785
    30  H    8.198128   6.825499   6.112939   8.954389   9.855822
    31  H    9.217412   7.832189   6.730873   9.754402  11.141369
    32  H    9.608028   8.310996   6.962174   9.902543  11.696211
    33  H    5.165363   4.202606   2.753826   5.130508   7.308785
    34  H    7.481920   6.575724   5.128625   7.320217   9.605672
    35  H    9.468366   8.361736   6.895008   9.487988  11.618319
    36  C    3.097330   2.452223   1.423426   2.954260   5.203039
    37  C    4.428263   3.756610   2.510015   4.176016   6.508241
    38  H    2.622502   2.515305   2.107787   2.142287   4.554120
    39  H    5.071299   4.620427   3.508327   4.608688   7.037334
                   26         27         28         29         30
    26  H    0.000000
    27  H    2.738811   0.000000
    28  H    4.960392   2.443656   0.000000
    29  H    6.979829   4.913547   2.671650   0.000000
    30  H    8.924528   7.074774   4.884372   2.212770   0.000000
    31  H   10.658472   9.179470   7.182754   4.553982   2.456464
    32  H   11.690863  10.669061   8.970981   6.504006   4.648445
    33  H    8.106413   8.244715   7.703841   6.486773   6.231234
    34  H   10.481549  10.512030   9.709727   8.053431   7.181379
    35  H   12.125516  11.646669  10.353357   8.188941   6.696367
    36  C    6.309941   7.013537   7.112526   6.683944   7.130980
    37  C    7.644217   8.204945   8.045099   7.216466   7.259127
    38  H    6.034599   7.162744   7.611263   7.499778   8.121212
    39  H    8.418893   9.178195   9.112301   8.287925   8.242690
                   31         32         33         34         35
    31  H    0.000000
    32  H    2.347492   0.000000
    33  H    5.773391   5.104065   0.000000
    34  H    5.876006   4.289331   2.375177   0.000000
    35  H    4.691951   2.479995   4.357498   2.510567   0.000000
    36  C    7.336603   7.110199   2.178443   4.404541   6.535283
    37  C    7.007071   6.372707   1.277106   3.149581   5.438278
    38  H    8.419746   8.181171   3.164403   5.218934   7.482441
    39  H    7.796129   6.890263   2.048658   3.101637   5.579348
                   36         37         38         39
    36  C    0.000000
    37  C    1.342312   0.000000
    38  H    1.090274   2.071519   0.000000
    39  H    2.175364   1.082690   2.484361   0.000000
 Stoichiometry    C25H14(3)
 Framework group  C1[X(C25H14)]
 Deg. of freedom   111
 Full point group                 C1      NOp   1
 Largest Abelian subgroup         C1      NOp   1
 Largest concise Abelian subgroup C1      NOp   1
                         Standard orientation:                         
 ---------------------------------------------------------------------
 Center     Atomic      Atomic             Coordinates (Angstroms)
 Number     Number       Type             X           Y           Z
 ---------------------------------------------------------------------
      1          6           0        3.803139   -0.538730    0.000000
      2          6           0        2.533739    0.034990    0.000000
      3          6           0        1.332299   -0.691860   -0.000010
      4          6           0        1.378529   -2.088880   -0.000010
      5          6           0        3.838189   -1.980710    0.000000
      6          6           0        2.682009   -2.712590   -0.000010
      7          6           0        0.191169    0.167400   -0.000010
      8          6           0       -1.090871   -0.502180   -0.000010
      9          6           0       -1.047641   -1.962250   -0.000010
     10          6           0        0.137179   -2.715790   -0.000010
     11          6           0       -2.438801    0.087550    0.000000
     12          6           0       -3.608631   -0.752440    0.000010
     13          6           0       -3.478731   -2.174490    0.000010
     14          6           0       -2.256081   -2.739760    0.000000
     15          6           0       -2.737331    1.457540    0.000000
     16          6           0       -3.993791    2.010540    0.000010
     17          6           0       -5.113341    1.166700    0.000020
     18          6           0       -4.905121   -0.194790    0.000020
     19          6           0        4.884039    0.374560    0.000010
     20          6           0        4.630279    1.743640    0.000010
     21          6           0        3.325059    2.281380    0.000010
     22          6           0        2.242879    1.403570    0.000000
     23          6           0        0.777879    1.546200    0.000000
     24          1           0        3.202139    3.358570    0.000020
     25          1           0        5.469899    2.429931    0.000020
     26          1           0        5.907429    0.014901    0.000010
     27          1           0        4.796969   -2.488690    0.000000
     28          1           0        2.732729   -3.796500   -0.000010
     29          1           0        0.061079   -3.798000   -0.000010
     30          1           0       -2.151591   -3.819080   -0.000010
     31          1           0       -4.377851   -2.780820    0.000010
     32          1           0       -5.749461   -0.875720    0.000030
     33          1           0       -1.838841    2.404300   -0.000020
     34          1           0       -4.113121    3.089220    0.000000
     35          1           0       -6.117061    1.576880    0.000030
     36          6           0        0.286549    2.882140   -0.000010
     37          6           0       -0.973851    3.343870   -0.000030
     38          1           0        1.077449    3.632590    0.000000
     39          1           0       -1.292231    4.378690   -0.000030
 ---------------------------------------------------------------------
 Rotational constants (GHZ):      0.4624700      0.1752036      0.1270657
 Standard basis: 6-311+G(d,p) (5D, 7F)
 There are   659 symmetry adapted cartesian basis functions of A   symmetry.
 There are   634 symmetry adapted basis functions of A   symmetry.
   634 basis functions,  1012 primitive gaussians,   659 cartesian basis functions
    83 alpha electrons       81 beta electrons
       nuclear repulsion energy      1910.8168378123 Hartrees.
 NAtoms=   39 NActive=   39 NUniq=   39 SFac= 1.00D+00 NAtFMM=   60 NAOKFM=F Big=F
 Integral buffers will be    131072 words long.
 Raffenetti 2 integral format.
 Two-electron integral symmetry is turned on.
 One-electron integrals computed using PRISM.
 NBasis=   634 RedAO= T EigKep=  1.12D-06  NBF=   634
 NBsUse=   616 1.00D-06 EigRej=  9.03D-07 NBFU=   616
 ExpMin= 4.38D-02 ExpMax= 4.56D+03 ExpMxC= 6.82D+02 IAcc=2 IRadAn=         4 AccDes= 0.00D+00
 Harris functional with IExCor=  402 and IRadAn=       4 diagonalized for initial guess.
 HarFok:  IExCor=  402 AccDes= 0.00D+00 IRadAn=         4 IDoV= 1 UseB2=F ITyADJ=14
 ICtDFT=  3500011 ScaDFX=  1.000000  1.000000  1.000000  1.000000
 FoFCou: FMM=F IPFlag=           0 FMFlag=      100000 FMFlg1=           0
         NFxFlg=           0 DoJE=T BraDBF=F KetDBF=T FulRan=T
         wScrn=  0.000000 ICntrl=     500 IOpCl=  0 I1Cent=   200000004 NGrid=           0
         NMat0=    1 NMatS0=      1 NMatT0=    0 NMatD0=    1 NMtDS0=    0 NMtDT0=    0
 Petite list used in FoFCou.
 Initial guess <Sx>= 0.0000 <Sy>= 0.0000 <Sz>= 1.0000 <S**2>= 2.0000 S= 1.0000
 Requested convergence on RMS density matrix=1.00D-08 within 128 cycles.
 Requested convergence on MAX density matrix=1.00D-06.
 Requested convergence on             energy=1.00D-06.
 No special actions if energy rises.
 Restarting incremental Fock formation.
 SCF Done:  E(UB3LYP) =  -961.203523127     A.U. after   23 cycles
            NFock= 23  Conv=0.74D-08     -V/T= 2.0044
 <Sx>= 0.0000 <Sy>= 0.0000 <Sz>= 1.0000 <S**2>= 2.0513 S= 1.0170
 <L.S>= 0.000000000000E+00
 Annihilation of the first spin contaminant:
 S**2 before annihilation     2.0513,   after     2.0015
 DoSCS=F DFT=T ScalE2(SS,OS)=  1.000000  1.000000
 Range of M.O.s used for correlation:     1   616
 NBasis=   634 NAE=    83 NBE=    81 NFC=     0 NFV=     0
 NROrb=    616 NOA=    83 NOB=    81 NVA=   533 NVB=   535

 **** Warning!!: The largest alpha MO coefficient is  0.14188591D+03


 **** Warning!!: The largest beta MO coefficient is  0.13375505D+03


 **** Warning!!: The smallest beta delta epsilon is  0.90495287D-01

 Symmetrizing basis deriv contribution to polar:
 IMax=3 JMax=2 DiffMx= 0.00D+00
 G2DrvN: will do    40 centers at a time, making    1 passes.
 Calling FoFCou, ICntrl=  3107 FMM=F I1Cent=   0 AccDes= 0.00D+00.
 End of G2Drv F.D. properties file   721 does not exist.
 End of G2Drv F.D. properties file   722 does not exist.
 End of G2Drv F.D. properties file   788 does not exist.
          IDoAtm=111111111111111111111111111111111111111
          Differentiating once with respect to nuclear coordinates.
          There are   120 degrees of freedom in the 1st order CPHF.  IDoFFX=6 NUNeed=     0.
    114 vectors produced by pass  0 Test12= 8.76D-14 1.00D-09 XBig12= 5.27D-01 1.99D-01.
 AX will form   114 AO Fock derivatives at one time.
    114 vectors produced by pass  1 Test12= 8.76D-14 1.00D-09 XBig12= 1.72D-01 5.72D-02.
    114 vectors produced by pass  2 Test12= 8.76D-14 1.00D-09 XBig12= 2.51D-03 9.80D-03.
    114 vectors produced by pass  3 Test12= 8.76D-14 1.00D-09 XBig12= 4.08D-05 9.57D-04.
    114 vectors produced by pass  4 Test12= 8.76D-14 1.00D-09 XBig12= 4.28D-07 6.68D-05.
    114 vectors produced by pass  5 Test12= 8.76D-14 1.00D-09 XBig12= 2.52D-09 4.67D-06.
    114 vectors produced by pass  6 Test12= 8.76D-14 1.00D-09 XBig12= 6.57D-11 6.11D-07.
    114 vectors produced by pass  7 Test12= 8.76D-14 1.00D-09 XBig12= 1.10D-11 2.42D-07.
    108 vectors produced by pass  8 Test12= 8.76D-14 1.00D-09 XBig12= 1.25D-12 7.91D-08.
     52 vectors produced by pass  9 Test12= 8.76D-14 1.00D-09 XBig12= 1.03D-14 5.13D-09.
     22 vectors produced by pass 10 Test12= 8.76D-14 1.00D-09 XBig12= 5.71D-16 1.38D-09.
     22 vectors produced by pass 11 Test12= 8.76D-14 1.00D-09 XBig12= 5.47D-14 1.42D-08.
     22 vectors produced by pass 12 Test12= 8.76D-14 1.00D-09 XBig12= 4.00D-13 3.17D-08.
     22 vectors produced by pass 13 Test12= 8.76D-14 1.00D-09 XBig12= 4.65D-13 3.13D-08.
     22 vectors produced by pass 14 Test12= 8.76D-14 1.00D-09 XBig12= 1.19D-13 1.79D-08.
     22 vectors produced by pass 15 Test12= 8.76D-14 1.00D-09 XBig12= 2.18D-13 2.42D-08.
     22 vectors produced by pass 16 Test12= 8.76D-14 1.00D-09 XBig12= 9.05D-14 1.42D-08.
     22 vectors produced by pass 17 Test12= 8.76D-14 1.00D-09 XBig12= 1.34D-13 1.58D-08.
     22 vectors produced by pass 18 Test12= 8.76D-14 1.00D-09 XBig12= 6.67D-14 1.17D-08.
     22 vectors produced by pass 19 Test12= 8.76D-14 1.00D-09 XBig12= 1.92D-13 2.09D-08.
     22 vectors produced by pass 20 Test12= 8.76D-14 1.00D-09 XBig12= 8.46D-14 1.61D-08.
     22 vectors produced by pass 21 Test12= 8.76D-14 1.00D-09 XBig12= 7.95D-14 1.40D-08.
     22 vectors produced by pass 22 Test12= 8.76D-14 1.00D-09 XBig12= 1.43D-13 2.05D-08.
     22 vectors produced by pass 23 Test12= 8.76D-14 1.00D-09 XBig12= 9.05D-14 1.64D-08.
     22 vectors produced by pass 24 Test12= 8.76D-14 1.00D-09 XBig12= 1.04D-13 1.74D-08.
     22 vectors produced by pass 25 Test12= 8.76D-14 1.00D-09 XBig12= 1.45D-13 1.75D-08.
     22 vectors produced by pass 26 Test12= 8.76D-14 1.00D-09 XBig12= 9.21D-14 1.66D-08.
     22 vectors produced by pass 27 Test12= 8.76D-14 1.00D-09 XBig12= 8.20D-14 1.43D-08.
     22 vectors produced by pass 28 Test12= 8.76D-14 1.00D-09 XBig12= 1.28D-13 1.56D-08.
     22 vectors produced by pass 29 Test12= 8.76D-14 1.00D-09 XBig12= 8.32D-14 1.43D-08.
     22 vectors produced by pass 30 Test12= 8.76D-14 1.00D-09 XBig12= 9.36D-14 1.42D-08.
     15 vectors produced by pass 31 Test12= 8.76D-14 1.00D-09 XBig12= 3.33D-14 8.58D-09.
     15 vectors produced by pass 32 Test12= 8.76D-14 1.00D-09 XBig12= 1.34D-13 1.53D-08.
     15 vectors produced by pass 33 Test12= 8.76D-14 1.00D-09 XBig12= 9.11D-14 1.15D-08.
     15 vectors produced by pass 34 Test12= 8.76D-14 1.00D-09 XBig12= 7.73D-14 1.48D-08.
     15 vectors produced by pass 35 Test12= 8.76D-14 1.00D-09 XBig12= 7.25D-14 1.05D-08.
     15 vectors produced by pass 36 Test12= 8.76D-14 1.00D-09 XBig12= 6.93D-14 1.48D-08.
     15 vectors produced by pass 37 Test12= 8.76D-14 1.00D-09 XBig12= 7.18D-14 1.28D-08.
     15 vectors produced by pass 38 Test12= 8.76D-14 1.00D-09 XBig12= 8.43D-14 1.33D-08.
     15 vectors produced by pass 39 Test12= 8.76D-14 1.00D-09 XBig12= 7.55D-14 1.11D-08.
     15 vectors produced by pass 40 Test12= 8.76D-14 1.00D-09 XBig12= 6.81D-14 1.03D-08.
     12 vectors produced by pass 41 Test12= 8.76D-14 1.00D-09 XBig12= 2.45D-14 6.88D-09.
     12 vectors produced by pass 42 Test12= 8.76D-14 1.00D-09 XBig12= 5.39D-14 8.35D-09.
     12 vectors produced by pass 43 Test12= 8.76D-14 1.00D-09 XBig12= 7.88D-14 1.21D-08.
     12 vectors produced by pass 44 Test12= 8.76D-14 1.00D-09 XBig12= 5.56D-14 9.28D-09.
     12 vectors produced by pass 45 Test12= 8.76D-14 1.00D-09 XBig12= 8.47D-14 1.19D-08.
     10 vectors produced by pass 46 Test12= 8.76D-14 1.00D-09 XBig12= 2.29D-14 5.14D-09.
     10 vectors produced by pass 47 Test12= 8.76D-14 1.00D-09 XBig12= 5.10D-14 8.50D-09.
     10 vectors produced by pass 48 Test12= 8.76D-14 1.00D-09 XBig12= 2.83D-14 7.04D-09.
     10 vectors produced by pass 49 Test12= 8.76D-14 1.00D-09 XBig12= 5.44D-14 9.02D-09.
     10 vectors produced by pass 50 Test12= 8.76D-14 1.00D-09 XBig12= 4.86D-14 9.42D-09.
     10 vectors produced by pass 51 Test12= 8.76D-14 1.00D-09 XBig12= 5.46D-14 8.71D-09.
     10 vectors produced by pass 52 Test12= 8.76D-14 1.00D-09 XBig12= 4.81D-14 7.89D-09.
     10 vectors produced by pass 53 Test12= 8.76D-14 1.00D-09 XBig12= 4.97D-14 8.25D-09.
     10 vectors produced by pass 54 Test12= 8.76D-14 1.00D-09 XBig12= 3.45D-14 8.07D-09.
     10 vectors produced by pass 55 Test12= 8.76D-14 1.00D-09 XBig12= 3.52D-14 7.28D-09.
     10 vectors produced by pass 56 Test12= 8.76D-14 1.00D-09 XBig12= 3.75D-14 9.39D-09.
     10 vectors produced by pass 57 Test12= 8.76D-14 1.00D-09 XBig12= 4.00D-14 7.65D-09.
     10 vectors produced by pass 58 Test12= 8.76D-14 1.00D-09 XBig12= 2.73D-14 6.82D-09.
     10 vectors produced by pass 59 Test12= 8.76D-14 1.00D-09 XBig12= 2.78D-14 6.79D-09.
     10 vectors produced by pass 60 Test12= 8.76D-14 1.00D-09 XBig12= 5.09D-14 8.05D-09.
     10 vectors produced by pass 61 Test12= 8.76D-14 1.00D-09 XBig12= 3.87D-14 8.35D-09.
     10 vectors produced by pass 62 Test12= 8.76D-14 1.00D-09 XBig12= 3.70D-14 6.47D-09.
      9 vectors produced by pass 63 Test12= 8.76D-14 1.00D-09 XBig12= 2.83D-14 5.52D-09.
      9 vectors produced by pass 64 Test12= 8.76D-14 1.00D-09 XBig12= 4.03D-14 7.43D-09.
      8 vectors produced by pass 65 Test12= 8.76D-14 1.00D-09 XBig12= 2.37D-14 5.64D-09.
      8 vectors produced by pass 66 Test12= 8.76D-14 1.00D-09 XBig12= 3.54D-14 6.98D-09.
      8 vectors produced by pass 67 Test12= 8.76D-14 1.00D-09 XBig12= 2.17D-14 5.91D-09.
      8 vectors produced by pass 68 Test12= 8.76D-14 1.00D-09 XBig12= 5.62D-14 8.46D-09.
      8 vectors produced by pass 69 Test12= 8.76D-14 1.00D-09 XBig12= 3.19D-14 9.12D-09.
      8 vectors produced by pass 70 Test12= 8.76D-14 1.00D-09 XBig12= 6.19D-14 9.43D-09.
      7 vectors produced by pass 71 Test12= 8.76D-14 1.00D-09 XBig12= 1.40D-14 5.51D-09.
      7 vectors produced by pass 72 Test12= 8.76D-14 1.00D-09 XBig12= 3.87D-14 8.89D-09.
      7 vectors produced by pass 73 Test12= 8.76D-14 1.00D-09 XBig12= 2.40D-14 7.14D-09.
      7 vectors produced by pass 74 Test12= 8.76D-14 1.00D-09 XBig12= 2.97D-14 6.71D-09.
      7 vectors produced by pass 75 Test12= 8.76D-14 1.00D-09 XBig12= 3.67D-14 8.40D-09.
      7 vectors produced by pass 76 Test12= 8.76D-14 1.00D-09 XBig12= 1.68D-14 4.72D-09.
      7 vectors produced by pass 77 Test12= 8.76D-14 1.00D-09 XBig12= 1.63D-14 4.87D-09.
      7 vectors produced by pass 78 Test12= 8.76D-14 1.00D-09 XBig12= 3.57D-14 7.52D-09.
      7 vectors produced by pass 79 Test12= 8.76D-14 1.00D-09 XBig12= 2.49D-14 4.80D-09.
      7 vectors produced by pass 80 Test12= 8.76D-14 1.00D-09 XBig12= 1.69D-14 4.87D-09.
      7 vectors produced by pass 81 Test12= 8.76D-14 1.00D-09 XBig12= 4.09D-14 8.18D-09.
      7 vectors produced by pass 82 Test12= 8.76D-14 1.00D-09 XBig12= 2.04D-14 5.42D-09.
      7 vectors produced by pass 83 Test12= 8.76D-14 1.00D-09 XBig12= 3.17D-14 7.46D-09.
      6 vectors produced by pass 84 Test12= 8.76D-14 1.00D-09 XBig12= 1.28D-14 4.34D-09.
      6 vectors produced by pass 85 Test12= 8.76D-14 1.00D-09 XBig12= 1.77D-14 5.01D-09.
      6 vectors produced by pass 86 Test12= 8.76D-14 1.00D-09 XBig12= 2.77D-14 5.63D-09.
      6 vectors produced by pass 87 Test12= 8.76D-14 1.00D-09 XBig12= 1.76D-14 5.19D-09.
      6 vectors produced by pass 88 Test12= 8.76D-14 1.00D-09 XBig12= 1.72D-14 5.11D-09.
      6 vectors produced by pass 89 Test12= 8.76D-14 1.00D-09 XBig12= 2.64D-14 6.44D-09.
      6 vectors produced by pass 90 Test12= 8.76D-14 1.00D-09 XBig12= 3.46D-14 7.13D-09.
      6 vectors produced by pass 91 Test12= 8.76D-14 1.00D-09 XBig12= 1.17D-14 3.93D-09.
      6 vectors produced by pass 92 Test12= 8.76D-14 1.00D-09 XBig12= 2.53D-14 6.42D-09.
      6 vectors produced by pass 93 Test12= 8.76D-14 1.00D-09 XBig12= 1.39D-14 5.02D-09.
      6 vectors produced by pass 94 Test12= 8.76D-14 1.00D-09 XBig12= 1.47D-14 5.61D-09.
      6 vectors produced by pass 95 Test12= 8.76D-14 1.00D-09 XBig12= 1.88D-14 4.88D-09.
      6 vectors produced by pass 96 Test12= 8.76D-14 1.00D-09 XBig12= 2.11D-14 5.39D-09.
      6 vectors produced by pass 97 Test12= 8.76D-14 1.00D-09 XBig12= 2.64D-14 5.33D-09.
      6 vectors produced by pass 98 Test12= 8.76D-14 1.00D-09 XBig12= 1.97D-14 5.32D-09.
      6 vectors produced by pass 99 Test12= 8.76D-14 1.00D-09 XBig12= 2.15D-14 5.34D-09.
      6 vectors produced by pass100 Test12= 8.76D-14 1.00D-09 XBig12= 2.25D-14 5.54D-09.
      6 vectors produced by pass101 Test12= 8.76D-14 1.00D-09 XBig12= 2.20D-14 5.53D-09.
      5 vectors produced by pass102 Test12= 8.76D-14 1.00D-09 XBig12= 6.04D-15 2.92D-09.
      5 vectors produced by pass103 Test12= 8.76D-14 1.00D-09 XBig12= 1.34D-14 5.10D-09.
      5 vectors produced by pass104 Test12= 8.76D-14 1.00D-09 XBig12= 1.81D-14 5.11D-09.
      5 vectors produced by pass105 Test12= 8.76D-14 1.00D-09 XBig12= 1.53D-14 6.51D-09.
      5 vectors produced by pass106 Test12= 8.76D-14 1.00D-09 XBig12= 1.68D-14 5.03D-09.
      5 vectors produced by pass107 Test12= 8.76D-14 1.00D-09 XBig12= 2.34D-14 4.87D-09.
      5 vectors produced by pass108 Test12= 8.76D-14 1.00D-09 XBig12= 1.40D-14 4.22D-09.
      5 vectors produced by pass109 Test12= 8.76D-14 1.00D-09 XBig12= 1.88D-14 4.63D-09.
      5 vectors produced by pass110 Test12= 8.76D-14 1.00D-09 XBig12= 1.04D-14 4.51D-09.
      5 vectors produced by pass111 Test12= 8.76D-14 1.00D-09 XBig12= 1.09D-14 3.65D-09.
      5 vectors produced by pass112 Test12= 8.76D-14 1.00D-09 XBig12= 7.83D-15 3.10D-09.
      5 vectors produced by pass113 Test12= 8.76D-14 1.00D-09 XBig12= 1.81D-14 7.21D-09.
      5 vectors produced by pass114 Test12= 8.76D-14 1.00D-09 XBig12= 9.24D-15 4.15D-09.
      5 vectors produced by pass115 Test12= 8.76D-14 1.00D-09 XBig12= 2.25D-14 5.69D-09.
      4 vectors produced by pass116 Test12= 8.76D-14 1.00D-09 XBig12= 1.26D-14 4.03D-09.
      4 vectors produced by pass117 Test12= 8.76D-14 1.00D-09 XBig12= 9.34D-15 3.44D-09.
      4 vectors produced by pass118 Test12= 8.76D-14 1.00D-09 XBig12= 1.72D-14 5.54D-09.
      4 vectors produced by pass119 Test12= 8.76D-14 1.00D-09 XBig12= 1.37D-14 6.29D-09.
      4 vectors produced by pass120 Test12= 8.76D-14 1.00D-09 XBig12= 1.33D-14 4.18D-09.
      4 vectors produced by pass121 Test12= 8.76D-14 1.00D-09 XBig12= 1.07D-14 3.63D-09.
      4 vectors produced by pass122 Test12= 8.76D-14 1.00D-09 XBig12= 9.42D-15 3.78D-09.
      4 vectors produced by pass123 Test12= 8.76D-14 1.00D-09 XBig12= 1.56D-14 4.82D-09.
      4 vectors produced by pass124 Test12= 8.76D-14 1.00D-09 XBig12= 1.43D-14 4.64D-09.
      4 vectors produced by pass125 Test12= 8.76D-14 1.00D-09 XBig12= 1.85D-14 4.95D-09.
      4 vectors produced by pass126 Test12= 8.76D-14 1.00D-09 XBig12= 2.07D-14 4.69D-09.
      4 vectors produced by pass127 Test12= 8.76D-14 1.00D-09 XBig12= 1.02D-14 3.88D-09.
      4 vectors produced by pass128 Test12= 8.76D-14 1.00D-09 XBig12= 1.58D-14 4.82D-09.
      4 vectors produced by pass129 Test12= 8.76D-14 1.00D-09 XBig12= 2.31D-14 5.89D-09.
      4 vectors produced by pass130 Test12= 8.76D-14 1.00D-09 XBig12= 1.64D-14 4.91D-09.
      4 vectors produced by pass131 Test12= 8.76D-14 1.00D-09 XBig12= 1.12D-14 5.16D-09.
      4 vectors produced by pass132 Test12= 8.76D-14 1.00D-09 XBig12= 7.36D-15 3.08D-09.
      4 vectors produced by pass133 Test12= 8.76D-14 1.00D-09 XBig12= 1.46D-14 4.47D-09.
      4 vectors produced by pass134 Test12= 8.76D-14 1.00D-09 XBig12= 1.34D-14 3.81D-09.
      4 vectors produced by pass135 Test12= 8.76D-14 1.00D-09 XBig12= 1.27D-14 4.32D-09.
      4 vectors produced by pass136 Test12= 8.76D-14 1.00D-09 XBig12= 1.59D-14 4.62D-09.
      4 vectors produced by pass137 Test12= 8.76D-14 1.00D-09 XBig12= 1.26D-14 4.91D-09.
      4 vectors produced by pass138 Test12= 8.76D-14 1.00D-09 XBig12= 1.45D-14 5.04D-09.
      4 vectors produced by pass139 Test12= 8.76D-14 1.00D-09 XBig12= 6.59D-15 3.57D-09.
      4 vectors produced by pass140 Test12= 8.76D-14 1.00D-09 XBig12= 1.92D-14 5.54D-09.
      4 vectors produced by pass141 Test12= 8.76D-14 1.00D-09 XBig12= 1.34D-14 4.98D-09.
      4 vectors produced by pass142 Test12= 8.76D-14 1.00D-09 XBig12= 1.24D-14 4.13D-09.
      4 vectors produced by pass143 Test12= 8.76D-14 1.00D-09 XBig12= 1.15D-14 4.07D-09.
      4 vectors produced by pass144 Test12= 8.76D-14 1.00D-09 XBig12= 1.47D-14 5.55D-09.
      3 vectors produced by pass145 Test12= 8.76D-14 1.00D-09 XBig12= 9.63D-15 3.40D-09.
      3 vectors produced by pass146 Test12= 8.76D-14 1.00D-09 XBig12= 1.55D-14 4.30D-09.
      3 vectors produced by pass147 Test12= 8.76D-14 1.00D-09 XBig12= 1.12D-14 3.68D-09.
      3 vectors produced by pass148 Test12= 8.76D-14 1.00D-09 XBig12= 1.44D-14 5.44D-09.
      3 vectors produced by pass149 Test12= 8.76D-14 1.00D-09 XBig12= 1.74D-14 4.87D-09.
      3 vectors produced by pass150 Test12= 8.76D-14 1.00D-09 XBig12= 9.54D-15 3.59D-09.
      3 vectors produced by pass151 Test12= 8.76D-14 1.00D-09 XBig12= 6.91D-15 3.17D-09.
      3 vectors produced by pass152 Test12= 8.76D-14 1.00D-09 XBig12= 1.17D-14 3.96D-09.
      3 vectors produced by pass153 Test12= 8.76D-14 1.00D-09 XBig12= 1.87D-14 4.77D-09.
      2 vectors produced by pass154 Test12= 8.76D-14 1.00D-09 XBig12= 1.02D-14 3.76D-09.
 InvSVY:  IOpt=1 It=  1 EMax= 9.99D-16
 Solved reduced A of dimension  2394 with   120 vectors.
 End of Minotr F.D. properties file   721 does not exist.
 End of Minotr F.D. properties file   722 does not exist.
 End of Minotr F.D. properties file   788 does not exist.

 **********************************************************************

            Population analysis using the SCF density.

 **********************************************************************

 Orbital symmetries:
 Alpha Orbitals:
       Occupied  (A) (A) (A) (A) (A) (A) (A) (A) (A) (A) (A) (A)
                 (A) (A) (A) (A) (A) (A) (A) (A) (A) (A) (A) (A)
                 (A) (A) (A) (A) (A) (A) (A) (A) (A) (A) (A) (A)
                 (A) (A) (A) (A) (A) (A) (A) (A) (A) (A) (A) (A)
                 (A) (A) (A) (A) (A) (A) (A) (A) (A) (A) (A) (A)
                 (A) (A) (A) (A) (A) (A) (A) (A) (A) (A) (A) (A)
                 (A) (A) (A) (A) (A) (A) (A) (A) (A) (A) (A)
       Virtual   (A) (A) (A) (A) (A) (A) (A) (A) (A) (A) (A) (A)
                 (A) (A) (A) (A) (A) (A) (A) (A) (A) (A) (A) (A)
                 (A) (A) (A) (A) (A) (A) (A) (A) (A) (A) (A) (A)
                 (A) (A) (A) (A) (A) (A) (A) (A) (A) (A) (A) (A)
                 (A) (A) (A) (A) (A) (A) (A) (A) (A) (A) (A) (A)
                 (A) (A) (A) (A) (A) (A) (A) (A) (A) (A) (A) (A)
                 (A) (A) (A) (A) (A) (A) (A) (A) (A) (A) (A) (A)
                 (A) (A) (A) (A) (A) (A) (A) (A) (A) (A) (A) (A)
                 (A) (A) (A) (A) (A) (A) (A) (A) (A) (A) (A) (A)
                 (A) (A) (A) (A) (A) (A) (A) (A) (A) (A) (A) (A)
                 (A) (A) (A) (A) (A) (A) (A) (A) (A) (A) (A) (A)
                 (A) (A) (A) (A) (A) (A) (A) (A) (A) (A) (A) (A)
                 (A) (A) (A) (A) (A) (A) (A) (A) (A) (A) (A) (A)
                 (A) (A) (A) (A) (A) (A) (A) (A) (A) (A) (A) (A)
                 (A) (A) (A) (A) (A) (A) (A) (A) (A) (A) (A) (A)
                 (A) (A) (A) (A) (A) (A) (A) (A) (A) (A) (A) (A)
                 (A) (A) (A) (A) (A) (A) (A) (A) (A) (A) (A) (A)
                 (A) (A) (A) (A) (A) (A) (A) (A) (A) (A) (A) (A)
                 (A) (A) (A) (A) (A) (A) (A) (A) (A) (A) (A) (A)
                 (A) (A) (A) (A) (A) (A) (A) (A) (A) (A) (A) (A)
                 (A) (A) (A) (A) (A) (A) (A) (A) (A) (A) (A) (A)
                 (A) (A) (A) (A) (A) (A) (A) (A) (A) (A) (A) (A)
                 (A) (A) (A) (A) (A) (A) (A) (A) (A) (A) (A) (A)
                 (A) (A) (A) (A) (A) (A) (A) (A) (A) (A) (A) (A)
                 (A) (A) (A) (A) (A) (A) (A) (A) (A) (A) (A) (A)
                 (A) (A) (A) (A) (A) (A) (A) (A) (A) (A) (A) (A)
                 (A) (A) (A) (A) (A) (A) (A) (A) (A) (A) (A) (A)
                 (A) (A) (A) (A) (A) (A) (A) (A) (A) (A) (A) (A)
                 (A) (A) (A) (A) (A) (A) (A) (A) (A) (A) (A) (A)
                 (A) (A) (A) (A) (A) (A) (A) (A) (A) (A) (A) (A)
                 (A) (A) (A) (A) (A) (A) (A) (A) (A) (A) (A) (A)
                 (A) (A) (A) (A) (A) (A) (A) (A) (A) (A) (A) (A)
                 (A) (A) (A) (A) (A) (A) (A) (A) (A) (A) (A) (A)
                 (A) (A) (A) (A) (A) (A) (A) (A) (A) (A) (A) (A)
                 (A) (A) (A) (A) (A) (A) (A) (A) (A) (A) (A) (A)
                 (A) (A) (A) (A) (A) (A) (A) (A) (A) (A) (A) (A)
                 (A) (A) (A) (A) (A) (A) (A) (A) (A) (A) (A) (A)
                 (A) (A) (A) (A) (A) (A) (A) (A) (A) (A) (A) (A)
                 (A) (A) (A) (A) (A) (A) (A) (A) (A) (A) (A) (A)
                 (A) (A) (A) (A) (A) (A) (A) (A) (A) (A) (A) (A)
                 (A) (A) (A) (A) (A) (A) (A) (A) (A) (A) (A) (A)
                 (A) (A) (A) (A) (A) (A) (A) (A) (A) (A) (A) (A)
                 (A) (A) (A) (A) (A) (A) (A) (A) (A) (A) (A) (A)
                 (A) (A) (A) (A) (A) (A) (A) (A) (A) (A) (A) (A)
                 (A) (A) (A) (A) (A)
 Beta  Orbitals:
       Occupied  (A) (A) (A) (A) (A) (A) (A) (A) (A) (A) (A) (A)
                 (A) (A) (A) (A) (A) (A) (A) (A) (A) (A) (A) (A)
                 (A) (A) (A) (A) (A) (A) (A) (A) (A) (A) (A) (A)
                 (A) (A) (A) (A) (A) (A) (A) (A) (A) (A) (A) (A)
                 (A) (A) (A) (A) (A) (A) (A) (A) (A) (A) (A) (A)
                 (A) (A) (A) (A) (A) (A) (A) (A) (A) (A) (A) (A)
                 (A) (A) (A) (A) (A) (A) (A) (A) (A)
       Virtual   (A) (A) (A) (A) (A) (A) (A) (A) (A) (A) (A) (A)
                 (A) (A) (A) (A) (A) (A) (A) (A) (A) (A) (A) (A)
                 (A) (A) (A) (A) (A) (A) (A) (A) (A) (A) (A) (A)
                 (A) (A) (A) (A) (A) (A) (A) (A) (A) (A) (A) (A)
                 (A) (A) (A) (A) (A) (A) (A) (A) (A) (A) (A) (A)
                 (A) (A) (A) (A) (A) (A) (A) (A) (A) (A) (A) (A)
                 (A) (A) (A) (A) (A) (A) (A) (A) (A) (A) (A) (A)
                 (A) (A) (A) (A) (A) (A) (A) (A) (A) (A) (A) (A)
                 (A) (A) (A) (A) (A) (A) (A) (A) (A) (A) (A) (A)
                 (A) (A) (A) (A) (A) (A) (A) (A) (A) (A) (A) (A)
                 (A) (A) (A) (A) (A) (A) (A) (A) (A) (A) (A) (A)
                 (A) (A) (A) (A) (A) (A) (A) (A) (A) (A) (A) (A)
                 (A) (A) (A) (A) (A) (A) (A) (A) (A) (A) (A) (A)
                 (A) (A) (A) (A) (A) (A) (A) (A) (A) (A) (A) (A)
                 (A) (A) (A) (A) (A) (A) (A) (A) (A) (A) (A) (A)
                 (A) (A) (A) (A) (A) (A) (A) (A) (A) (A) (A) (A)
                 (A) (A) (A) (A) (A) (A) (A) (A) (A) (A) (A) (A)
                 (A) (A) (A) (A) (A) (A) (A) (A) (A) (A) (A) (A)
                 (A) (A) (A) (A) (A) (A) (A) (A) (A) (A) (A) (A)
                 (A) (A) (A) (A) (A) (A) (A) (A) (A) (A) (A) (A)
                 (A) (A) (A) (A) (A) (A) (A) (A) (A) (A) (A) (A)
                 (A) (A) (A) (A) (A) (A) (A) (A) (A) (A) (A) (A)
                 (A) (A) (A) (A) (A) (A) (A) (A) (A) (A) (A) (A)
                 (A) (A) (A) (A) (A) (A) (A) (A) (A) (A) (A) (A)
                 (A) (A) (A) (A) (A) (A) (A) (A) (A) (A) (A) (A)
                 (A) (A) (A) (A) (A) (A) (A) (A) (A) (A) (A) (A)
                 (A) (A) (A) (A) (A) (A) (A) (A) (A) (A) (A) (A)
                 (A) (A) (A) (A) (A) (A) (A) (A) (A) (A) (A) (A)
                 (A) (A) (A) (A) (A) (A) (A) (A) (A) (A) (A) (A)
                 (A) (A) (A) (A) (A) (A) (A) (A) (A) (A) (A) (A)
                 (A) (A) (A) (A) (A) (A) (A) (A) (A) (A) (A) (A)
                 (A) (A) (A) (A) (A) (A) (A) (A) (A) (A) (A) (A)
                 (A) (A) (A) (A) (A) (A) (A) (A) (A) (A) (A) (A)
                 (A) (A) (A) (A) (A) (A) (A) (A) (A) (A) (A) (A)
                 (A) (A) (A) (A) (A) (A) (A) (A) (A) (A) (A) (A)
                 (A) (A) (A) (A) (A) (A) (A) (A) (A) (A) (A) (A)
                 (A) (A) (A) (A) (A) (A) (A) (A) (A) (A) (A) (A)
                 (A) (A) (A) (A) (A) (A) (A) (A) (A) (A) (A) (A)
                 (A) (A) (A) (A) (A) (A) (A) (A) (A) (A) (A) (A)
                 (A) (A) (A) (A) (A) (A) (A) (A) (A) (A) (A) (A)
                 (A) (A) (A) (A) (A) (A) (A) (A) (A) (A) (A) (A)
                 (A) (A) (A) (A) (A) (A) (A) (A) (A) (A) (A) (A)
                 (A) (A) (A) (A) (A) (A) (A) (A) (A) (A) (A) (A)
                 (A) (A) (A) (A) (A) (A) (A) (A) (A) (A) (A) (A)
                 (A) (A) (A) (A) (A) (A) (A)
 The electronic state is 3-A.
 Alpha  occ. eigenvalues --  -10.21544 -10.21385 -10.20357 -10.20308 -10.19655
 Alpha  occ. eigenvalues --  -10.19611 -10.19268 -10.19188 -10.19099 -10.19050
 Alpha  occ. eigenvalues --  -10.19036 -10.18946 -10.18837 -10.18763 -10.18748
 Alpha  occ. eigenvalues --  -10.18609 -10.18497 -10.18338 -10.18306 -10.18243
 Alpha  occ. eigenvalues --  -10.18172 -10.18110 -10.17879 -10.17875 -10.16949
 Alpha  occ. eigenvalues --   -0.91520  -0.88801  -0.85981  -0.84515  -0.83049
 Alpha  occ. eigenvalues --   -0.79790  -0.79575  -0.78519  -0.75524  -0.74838
 Alpha  occ. eigenvalues --   -0.73377  -0.71568  -0.69807  -0.65307  -0.64787
 Alpha  occ. eigenvalues --   -0.63085  -0.61914  -0.59955  -0.59145  -0.56945
 Alpha  occ. eigenvalues --   -0.55918  -0.52868  -0.52226  -0.51560  -0.51043
 Alpha  occ. eigenvalues --   -0.48699  -0.48315  -0.47749  -0.46794  -0.45746
 Alpha  occ. eigenvalues --   -0.44919  -0.43575  -0.43281  -0.42974  -0.42465
 Alpha  occ. eigenvalues --   -0.41887  -0.41197  -0.40635  -0.40412  -0.39679
 Alpha  occ. eigenvalues --   -0.38264  -0.37207  -0.37104  -0.36180  -0.35904
 Alpha  occ. eigenvalues --   -0.35412  -0.33967  -0.33678  -0.33600  -0.30969
 Alpha  occ. eigenvalues --   -0.30025  -0.29499  -0.25896  -0.25198  -0.23969
 Alpha  occ. eigenvalues --   -0.21323  -0.21058  -0.19027
 Alpha virt. eigenvalues --   -0.07168  -0.05472  -0.03494  -0.02284   0.00089
 Alpha virt. eigenvalues --    0.00137   0.00473   0.00663   0.00931   0.01732
 Alpha virt. eigenvalues --    0.01767   0.03123   0.03213   0.03286   0.03286
 Alpha virt. eigenvalues --    0.04002   0.04798   0.05085   0.05088   0.05421
 Alpha virt. eigenvalues --    0.05967   0.06618   0.06994   0.07417   0.07485
 Alpha virt. eigenvalues --    0.07615   0.08192   0.08466   0.08604   0.09577
 Alpha virt. eigenvalues --    0.09797   0.10107   0.10254   0.10589   0.11056
 Alpha virt. eigenvalues --    0.12128   0.12529   0.12718   0.12908   0.13012
 Alpha virt. eigenvalues --    0.13115   0.13475   0.13676   0.14543   0.14606
 Alpha virt. eigenvalues --    0.15064   0.15142   0.15427   0.15835   0.16071
 Alpha virt. eigenvalues --    0.16464   0.16951   0.17262   0.17372   0.17390
 Alpha virt. eigenvalues --    0.17510   0.17691   0.17873   0.18363   0.18814
 Alpha virt. eigenvalues --    0.19046   0.19104   0.19454   0.19708   0.19776
 Alpha virt. eigenvalues --    0.20212   0.20352   0.20455   0.21483   0.21505
 Alpha virt. eigenvalues --    0.21860   0.21988   0.22138   0.22351   0.22967
 Alpha virt. eigenvalues --    0.23286   0.23299   0.23396   0.23453   0.23875
 Alpha virt. eigenvalues --    0.24148   0.24558   0.24561   0.25107   0.25449
 Alpha virt. eigenvalues --    0.25939   0.26298   0.26318   0.26911   0.27288
 Alpha virt. eigenvalues --    0.27764   0.28203   0.28207   0.28691   0.28924
 Alpha virt. eigenvalues --    0.29069   0.29507   0.29614   0.29652   0.30175
 Alpha virt. eigenvalues --    0.30329   0.30502   0.30719   0.31655   0.31940
 Alpha virt. eigenvalues --    0.32368   0.32787   0.32991   0.33330   0.34070
 Alpha virt. eigenvalues --    0.34885   0.35367   0.36036   0.36566   0.37108
 Alpha virt. eigenvalues --    0.37680   0.38335   0.39166   0.39848   0.40838
 Alpha virt. eigenvalues --    0.41190   0.41864   0.42438   0.43169   0.44114
 Alpha virt. eigenvalues --    0.44210   0.44599   0.45269   0.46391   0.46882
 Alpha virt. eigenvalues --    0.47592   0.47994   0.48864   0.50053   0.50989
 Alpha virt. eigenvalues --    0.51687   0.52698   0.52862   0.53018   0.53509
 Alpha virt. eigenvalues --    0.53982   0.54246   0.54728   0.54818   0.55357
 Alpha virt. eigenvalues --    0.55638   0.55676   0.56270   0.57102   0.57269
 Alpha virt. eigenvalues --    0.57293   0.57998   0.58293   0.58495   0.58689
 Alpha virt. eigenvalues --    0.60042   0.60319   0.60330   0.60993   0.61431
 Alpha virt. eigenvalues --    0.61998   0.62017   0.62256   0.63221   0.63586
 Alpha virt. eigenvalues --    0.63984   0.64080   0.64410   0.65400   0.65755
 Alpha virt. eigenvalues --    0.66082   0.66200   0.66679   0.67457   0.67546
 Alpha virt. eigenvalues --    0.69086   0.69607   0.70107   0.70226   0.70371
 Alpha virt. eigenvalues --    0.71096   0.71337   0.71372   0.71845   0.72627
 Alpha virt. eigenvalues --    0.72950   0.73422   0.73494   0.75008   0.75258
 Alpha virt. eigenvalues --    0.75666   0.75698   0.76235   0.77672   0.77853
 Alpha virt. eigenvalues --    0.79087   0.79707   0.80184   0.81363   0.81508
 Alpha virt. eigenvalues --    0.82146   0.83005   0.84479   0.84928   0.86373
 Alpha virt. eigenvalues --    0.87570   0.87889   0.88777   0.89434   0.90268
 Alpha virt. eigenvalues --    0.90562   0.91341   0.91865   0.92272   0.93057
 Alpha virt. eigenvalues --    0.93152   0.93609   0.94039   0.94759   0.95165
 Alpha virt. eigenvalues --    0.95410   0.95528   0.96283   0.96719   0.97318
 Alpha virt. eigenvalues --    0.98221   0.98872   0.99161   0.99231   0.99415
 Alpha virt. eigenvalues --    1.00687   1.01225   1.02064   1.02512   1.02705
 Alpha virt. eigenvalues --    1.03104   1.03206   1.04607   1.04971   1.06098
 Alpha virt. eigenvalues --    1.06180   1.06669   1.06860   1.07407   1.08704
 Alpha virt. eigenvalues --    1.08896   1.09000   1.10615   1.12263   1.12923
 Alpha virt. eigenvalues --    1.13872   1.13919   1.14103   1.14760   1.15870
 Alpha virt. eigenvalues --    1.15988   1.17599   1.18606   1.19608   1.22489
 Alpha virt. eigenvalues --    1.23883   1.23919   1.26480   1.29385   1.31145
 Alpha virt. eigenvalues --    1.32358   1.33634   1.34802   1.36905   1.37960
 Alpha virt. eigenvalues --    1.38229   1.39889   1.42598   1.44497   1.44801
 Alpha virt. eigenvalues --    1.45952   1.47306   1.47962   1.48123   1.48424
 Alpha virt. eigenvalues --    1.48698   1.49339   1.50529   1.50742   1.51123
 Alpha virt. eigenvalues --    1.51879   1.52542   1.53482   1.54821   1.54896
 Alpha virt. eigenvalues --    1.55305   1.56367   1.57293   1.57366   1.57469
 Alpha virt. eigenvalues --    1.58567   1.59283   1.60603   1.61424   1.62798
 Alpha virt. eigenvalues --    1.63569   1.64929   1.67118   1.67956   1.68498
 Alpha virt. eigenvalues --    1.68845   1.69503   1.70451   1.71362   1.72299
 Alpha virt. eigenvalues --    1.72905   1.72937   1.73404   1.74112   1.75503
 Alpha virt. eigenvalues --    1.75505   1.75951   1.76990   1.78587   1.79830
 Alpha virt. eigenvalues --    1.80119   1.81461   1.82269   1.82623   1.83186
 Alpha virt. eigenvalues --    1.85116   1.85298   1.86315   1.86851   1.87790
 Alpha virt. eigenvalues --    1.88237   1.89527   1.89554   1.90032   1.90321
 Alpha virt. eigenvalues --    1.90806   1.91614   1.92679   1.92969   1.93447
 Alpha virt. eigenvalues --    1.93470   1.95036   1.96032   1.96771   1.98228
 Alpha virt. eigenvalues --    1.99064   1.99400   2.00521   2.01068   2.02096
 Alpha virt. eigenvalues --    2.03050   2.04804   2.05149   2.05283   2.06306
 Alpha virt. eigenvalues --    2.06738   2.07875   2.09314   2.10620   2.10802
 Alpha virt. eigenvalues --    2.12057   2.12723   2.14674   2.15451   2.15750
 Alpha virt. eigenvalues --    2.16456   2.17825   2.17993   2.20193   2.21863
 Alpha virt. eigenvalues --    2.22518   2.23518   2.24367   2.25623   2.28847
 Alpha virt. eigenvalues --    2.31400   2.32493   2.34155   2.35424   2.35618
 Alpha virt. eigenvalues --    2.36941   2.38895   2.40512   2.41175   2.42391
 Alpha virt. eigenvalues --    2.44004   2.44166   2.45001   2.45628   2.46893
 Alpha virt. eigenvalues --    2.47360   2.47428   2.52800   2.55026   2.56256
 Alpha virt. eigenvalues --    2.57847   2.59389   2.61654   2.63105   2.64170
 Alpha virt. eigenvalues --    2.64220   2.65892   2.66952   2.68474   2.68891
 Alpha virt. eigenvalues --    2.69205   2.69999   2.70162   2.70917   2.71827
 Alpha virt. eigenvalues --    2.71995   2.72386   2.73707   2.74072   2.74817
 Alpha virt. eigenvalues --    2.75883   2.75996   2.76188   2.76287   2.76658
 Alpha virt. eigenvalues --    2.77411   2.78094   2.79145   2.79999   2.80290
 Alpha virt. eigenvalues --    2.81311   2.82178   2.82382   2.83563   2.84138
 Alpha virt. eigenvalues --    2.85001   2.86284   2.86500   2.87181   2.88202
 Alpha virt. eigenvalues --    2.88722   2.90195   2.90693   2.91225   2.91839
 Alpha virt. eigenvalues --    2.93085   2.94203   2.94641   2.97625   3.00405
 Alpha virt. eigenvalues --    3.00938   3.03673   3.04278   3.06909   3.09301
 Alpha virt. eigenvalues --    3.11532   3.12572   3.15981   3.18653   3.19641
 Alpha virt. eigenvalues --    3.20674   3.23357   3.24806   3.25484   3.27465
 Alpha virt. eigenvalues --    3.31359   3.32525   3.35530   3.35623   3.38853
 Alpha virt. eigenvalues --    3.39677   3.40546   3.41216   3.42352   3.45559
 Alpha virt. eigenvalues --    3.46285   3.47927   3.49278   3.50010   3.53049
 Alpha virt. eigenvalues --    3.54911   3.57310   3.58307   3.59643   3.60084
 Alpha virt. eigenvalues --    3.62433   3.66818   3.68587   3.70776   3.74656
 Alpha virt. eigenvalues --    3.80381   3.83049   3.91063   3.98774   4.04492
 Alpha virt. eigenvalues --    4.05700   4.06290   4.08116   4.10751   4.13463
 Alpha virt. eigenvalues --    4.14180   4.23881   4.28253   4.32482   4.39428
 Alpha virt. eigenvalues --    4.53364   4.69620   4.74390   4.79338   4.80995
 Alpha virt. eigenvalues --    4.82463   4.83267   4.87365  23.42460  23.58866
 Alpha virt. eigenvalues --   23.72461  23.75386  23.82361  23.82737  23.88394
 Alpha virt. eigenvalues --   23.89250  23.92053  23.95155  23.96771  23.97229
 Alpha virt. eigenvalues --   23.98620  24.00391  24.01457  24.05600  24.08084
 Alpha virt. eigenvalues --   24.11684  24.11843  24.14908  24.17117  24.18408
 Alpha virt. eigenvalues --   24.19450  24.24091  24.24898
  Beta  occ. eigenvalues --  -10.21347 -10.20667 -10.20460 -10.20393 -10.19727
  Beta  occ. eigenvalues --  -10.19500 -10.19382 -10.19089 -10.19075 -10.18851
  Beta  occ. eigenvalues --  -10.18765 -10.18764 -10.18532 -10.18457 -10.18448
  Beta  occ. eigenvalues --  -10.18397 -10.18358 -10.18307 -10.18164 -10.18132
  Beta  occ. eigenvalues --  -10.18042 -10.17904 -10.17757 -10.17730 -10.16874
  Beta  occ. eigenvalues --   -0.91258  -0.88473  -0.85684  -0.84102  -0.82806
  Beta  occ. eigenvalues --   -0.79328  -0.78737  -0.78205  -0.75380  -0.74396
  Beta  occ. eigenvalues --   -0.72733  -0.71490  -0.68464  -0.64850  -0.64566
  Beta  occ. eigenvalues --   -0.62441  -0.61585  -0.59362  -0.58876  -0.56503
  Beta  occ. eigenvalues --   -0.54979  -0.52522  -0.51772  -0.51352  -0.50663
  Beta  occ. eigenvalues --   -0.48184  -0.48046  -0.47099  -0.46406  -0.45336
  Beta  occ. eigenvalues --   -0.44551  -0.43339  -0.42665  -0.42347  -0.42188
  Beta  occ. eigenvalues --   -0.41699  -0.40693  -0.40383  -0.40088  -0.39566
  Beta  occ. eigenvalues --   -0.37872  -0.36659  -0.36653  -0.35466  -0.35070
  Beta  occ. eigenvalues --   -0.34976  -0.33768  -0.33453  -0.33350  -0.30039
  Beta  occ. eigenvalues --   -0.29157  -0.28847  -0.25610  -0.24776  -0.22600
  Beta  occ. eigenvalues --   -0.21157
  Beta virt. eigenvalues --   -0.12107  -0.08527  -0.06520  -0.04968  -0.02630
  Beta virt. eigenvalues --   -0.01999   0.00121   0.00498   0.00712   0.00797
  Beta virt. eigenvalues --    0.01540   0.01773   0.01807   0.03130   0.03270
  Beta virt. eigenvalues --    0.03347   0.03462   0.04383   0.04812   0.05142
  Beta virt. eigenvalues --    0.05340   0.05449   0.06034   0.06950   0.07085
[...]
 .,-0.00001332,-0.00000002,0.00000003,-0.02412506,0.00000002,-0.0000000
 2,0.00335282,-0.00000002,0.00000002,0.00367027,0.00000001,0.,-0.000387
 95,0.,0.,-0.00000781,0.,0.,-0.00001457,0.,0.,0.00000876,0.,0.,0.000040
 28,-0.00000002,-0.00000002,-0.00269141,0.,0.,0.00003800,0.,0.,0.000006
 41,0.,0.,-0.00000668,0.,0.,-0.00000472,0.,0.,0.00000637,0.,0.,0.000008
 16,0.,0.,0.00002812,0.,0.,-0.00002473,0.,0.,-0.00046937,-0.00000002,-0
 .00000004,0.03147314,0.00007969,-0.00001338,0.,-0.00005345,0.00001146,
 0.,0.00007613,0.00010977,0.,-0.00001070,-0.00002560,0.,-0.00002109,-0.
 00000852,0.,0.00001079,0.00000842,0.,-0.00010331,-0.00003048,0.,0.0008
 3618,-0.00088125,0.,-0.00026508,-0.00016550,0.,0.00001477,-0.00011533,
 0.,-0.00472860,-0.00184804,0.00000001,-0.00122640,0.00011469,0.,0.0002
 2914,0.00020954,0.,-0.00020057,0.00002165,0.,-0.00206378,-0.02890436,0
 .00000001,-0.05944608,-0.02932915,0.00000003,0.00720473,0.02593454,-0.
 00000001,-0.00375854,0.00285040,0.,-0.00001260,0.00005560,0.,-0.000043
 88,-0.00000780,0.,0.00002399,-0.00000381,0.,-0.00004791,0.00002575,0.,
 0.00000815,-0.00012448,0.,-0.00001134,0.00001222,0.,0.00000225,-0.0000
 0211,0.,0.00000065,0.00000398,0.,0.00000157,0.00000237,0.,-0.00000075,
 0.00000164,0.,-0.00003408,-0.00002490,0.,0.00000958,-0.00000447,0.,0.0
 0001666,-0.00008105,0.,0.00019040,0.00126969,0.,0.00084968,-0.00198088
 ,0.,0.06137083,-0.00001318,-0.00001451,0.,0.00000264,-0.00002833,0.,-0
 .00002986,-0.00000632,0.,-0.00003903,0.00000777,0.,-0.00002383,0.00000
 712,0.,0.00002343,0.00002073,0.,-0.00000603,-0.00002957,0.,0.00032085,
 -0.00019200,0.,-0.00026505,-0.00004766,0.,0.00007594,-0.00002027,0.,-0
 .00084889,0.00071418,0.,0.00003498,0.00056322,0.,0.00001300,-0.0000417
 4,0.,0.00000088,0.00004288,0.,-0.00420438,-0.00920159,0.,-0.02707194,-
 0.32670007,0.00000013,-0.00476533,-0.01427280,0.,0.00384970,-0.0001361
 8,0.,-0.00000746,-0.00000152,0.,-0.00000103,0.00000078,0.,-0.00001251,
 -0.00000124,0.,0.00000069,0.00002735,0.,0.00008617,-0.00001232,0.,0.00
 000425,0.00000029,0.,-0.00000623,0.00000331,0.,-0.00000494,-0.00000206
 ,0.,-0.00000570,-0.00000048,0.,-0.00000075,-0.00000660,0.,-0.00001264,
 -0.00001586,0.,-0.00000855,-0.00002048,0.,0.00002254,0.00001937,0.,-0.
 00029755,-0.00078719,0.,0.00129882,-0.00116142,0.,0.03276101,0.3489011
 3,0.,0.,0.00000309,0.,0.,0.00002636,0.,0.00000001,-0.00002141,0.,0.,-0
 .00002722,0.,0.,-0.00000343,0.,0.,0.00001246,0.,0.,-0.00001072,0.,0.,0
 .00043725,0.,0.,-0.00034672,0.,0.,0.00001295,0.,0.,0.00717280,0.,0.,-0
 .00091731,0.,0.,-0.00080613,0.,0.,0.00011628,0.,0.00000003,0.00067206,
 0.00000003,0.00000014,-0.03426342,0.,-0.00000001,0.00395116,0.,0.,0.00
 575787,0.,0.,-0.00000298,0.,0.,-0.00000553,0.,0.,-0.00001633,0.,0.,-0.
 00000279,0.00000001,0.00000002,0.00001497,0.,0.,0.00000812,0.,0.,0.000
 00336,0.,0.,0.00000110,0.,0.,0.00000236,0.,0.,0.00000029,0.,0.,-0.0000
 3500,0.,0.,0.00003858,0.,0.,0.00012697,0.,0.,0.00019541,0.,0.,-0.00221
 773,-0.00000004,-0.00000015,0.02354296,-0.00004973,0.00001661,0.000000
 02,0.00000134,-0.00002083,0.,-0.00002254,-0.00000978,0.,0.00002188,-0.
 00000729,0.,0.00000376,0.00000484,-0.00000001,0.00000164,0.00000922,0.
 00000001,0.00000496,0.00002185,0.,-0.00006225,-0.00012070,0.,-0.000076
 40,0.00002073,0.,0.00001982,-0.00000387,-0.00000001,0.00052624,0.00068
 510,-0.00000001,0.00196041,-0.00013201,0.00000005,-0.00026434,0.000111
 75,-0.00000003,0.00013677,-0.00015442,0.00000002,-0.00243070,0.0030973
 4,0.,-0.01728499,-0.01177540,0.00000003,-0.29549573,-0.09732630,0.0000
 0022,-0.00031142,0.00088560,0.,0.00000229,-0.00003063,0.,0.00001635,0.
 00000541,0.,-0.00002115,-0.00000516,0.,0.00001779,0.00001853,0.,0.0000
 9629,0.00003541,0.00000001,0.00001106,-0.00000804,0.,-0.00000757,0.000
 00407,0.,-0.00000607,-0.00000413,0.,-0.00000716,-0.00000277,0.,0.00000
 031,-0.00000679,0.,0.00000016,-0.00000722,0.,-0.00002481,-0.00000790,0
 .,0.00001657,-0.00002800,0.,0.00072563,-0.00036915,0.,-0.00077564,0.00
 004293,0.,0.00088548,0.00011760,0.,0.31243736,0.00004191,0.00000399,0.
 ,-0.00003779,0.00000900,0.,0.00004557,0.00008342,0.,0.00003073,-0.0000
 3083,0.,-0.00000690,-0.00001828,0.,-0.00001064,0.00001602,0.,-0.000149
 23,-0.00001589,0.,0.00022953,0.00023038,0.,0.00024703,-0.00007774,0.,-
 0.00009315,0.00002126,0.,0.00013193,-0.00107008,0.,0.00063369,-0.00524
 200,0.,-0.00143653,0.00035046,0.,-0.00011049,-0.00057876,0.,0.00294389
 ,-0.00055864,0.,0.01877410,0.01061621,-0.00000002,-0.09617882,-0.09841
 452,0.00000010,-0.03022254,-0.00614667,0.00000003,-0.00000167,0.000034
 15,0.,-0.00003279,-0.00000420,0.,0.00002780,-0.00001085,0.,-0.00005424
 ,0.00001279,0.,-0.00002886,-0.00007685,0.,-0.00000582,0.00001100,0.,-0
 .00000020,0.00000060,0.,-0.00000202,0.00000145,0.,-0.00000222,0.000000
 78,0.,0.00000014,-0.00000156,0.,0.00000637,0.00000413,0.,-0.00014902,-
 0.00007487,0.,0.00005156,-0.00002657,0.,0.00042645,0.00093837,0.,0.000
 97645,-0.00062782,0.,-0.00078418,0.00078476,0.,0.10482525,0.09968829,0
 .,-0.00000001,0.00000476,0.,0.,-0.00000445,0.,0.00000001,0.00003131,0.
 ,0.,0.00000260,0.,0.,-0.00000180,0.,0.,0.00000756,0.,0.,-0.00002576,-0
 .00000001,0.,-0.00102447,0.,-0.00000003,0.00012930,0.,0.,0.00003306,0.
 ,0.00000001,-0.00066554,0.00000001,0.00000001,0.00815375,0.00000001,0.
 ,0.00016249,0.,0.,-0.00043332,0.,0.,0.00579353,0.00000001,0.00000001,0
 .00346959,0.00000026,0.00000008,-0.03667021,0.,0.00000002,0.00352645,0
 .,0.,-0.00000118,0.,0.,0.00000840,0.,0.,-0.00000481,0.00000001,0.,0.00
 000004,0.,0.,0.00002167,0.,0.,-0.00000612,0.,0.,0.00000160,0.,0.,-0.00
 000252,0.,0.,-0.00000100,0.,0.,0.00000059,0.,0.,-0.00000129,0.,0.,0.00
 000437,0.,0.,0.00006996,0.,0.,-0.00439016,0.,0.,0.00005005,0.,0.,-0.00
 317409,-0.00000026,-0.00000011,0.02483798,-0.00637186,0.00151115,0.000
 00032,-0.00612592,0.00876274,-0.00000018,0.00622668,0.01102790,-0.0000
 0013,0.00658896,-0.00638588,-0.00000002,0.00130649,-0.00167672,-0.0000
 0027,-0.00243200,0.00053666,0.00000021,0.01826359,-0.01208002,0.000000
 13,-0.00654789,0.00257406,0.00000005,-0.00101417,-0.00044973,-0.000000
 20,-0.00363270,0.00269330,-0.00000020,-0.00003531,0.00225511,-0.000000
 19,-0.00038720,0.00135067,0.00000078,-0.00051805,-0.00040152,-0.000000
 56,0.00036132,0.00035561,0.00000050,0.00693247,-0.00852706,-0.00000014
 ,-0.00069223,0.00277850,0.00000016,-0.00032828,-0.00077216,-0.00000028
 ,0.00002770,0.00056239,-0.00000008,0.00236125,-0.00304306,0.00000002,0
 .00174138,-0.00034512,-0.00000015,0.00255582,-0.00436113,0.00000006,-0
 .03525343,-0.03814324,0.00000012,-0.09529044,0.01138890,0.00000032,-0.
 00095395,0.00009273,0.00000001,-0.00012756,0.00009980,0.,0.00004855,-0
 .00007566,-0.00000001,0.00001097,-0.00016481,0.,0.00020524,0.00009296,
 0.00000001,-0.00006841,0.00006243,0.00000003,-0.00001960,0.00006861,-0
 .00000003,-0.00001323,0.00011923,-0.00000002,-0.00002965,0.00005404,0.
 ,-0.02313014,0.00816472,0.00000005,0.00014168,-0.00028184,-0.00000003,
 -0.00027472,0.00020355,0.,0.71680765,-0.00547445,0.00188261,0.00000027
 ,0.00141315,0.01096452,-0.00000016,0.01261856,0.00479827,-0.00000011,0
 .00320605,-0.00553835,0.,0.00112209,-0.00102903,-0.00000023,-0.0011299
 1,0.00019826,0.00000018,-0.00116979,-0.03950053,0.00000013,-0.00662751
 ,0.00427781,0.00000005,-0.00242005,-0.00231874,-0.00000019,-0.00146290
 ,0.00313285,-0.00000017,0.00609501,-0.00000808,-0.00000017,-0.00122757
 ,0.00035781,0.00000068,-0.00040313,-0.00076214,-0.00000050,0.00108265,
 -0.00031421,0.00000044,-0.01136745,0.00989256,-0.00000011,0.00387130,-
 0.00410458,0.00000014,-0.00038501,0.00204748,-0.00000024,-0.00019473,-
 0.00074185,-0.00000007,0.00222768,-0.00105007,0.00000002,0.00008416,-0
 .00212242,-0.00000013,0.00605329,-0.00367676,0.00000006,-0.03368770,-0
 .00909656,0.00000009,-0.05094072,-0.22540915,0.00000034,0.00154965,-0.
 00008758,0.,0.00009286,0.00007061,0.,0.00003804,-0.00008905,-0.0000000
 1,0.00003708,0.00009272,0.,-0.00000511,0.00003060,0.00000001,-0.000050
 14,0.00000491,0.00000003,-0.00005031,0.00000049,-0.00000002,-0.0000067
 1,-0.00019442,-0.00000001,0.00003169,-0.00009582,0.,0.02482669,-0.0087
 8717,0.,-0.00015803,0.00011773,-0.00000003,0.00035927,-0.00029647,0.00
 000001,0.01986527,0.55699696,-0.00000006,0.00000002,0.00067555,0.00000
 004,0.00000003,0.00233827,0.,0.00000009,0.00280791,0.00000008,-0.00000
 005,0.00081349,0.00000003,-0.00000002,-0.00020021,-0.00000005,0.,-0.00
 014288,-0.00000007,0.00000005,-0.00019753,0.00000007,-0.00000006,-0.00
 098838,0.00000002,0.,0.00022305,-0.00000006,0.00000003,-0.00021804,-0.
 00000004,0.,0.00009823,0.00000003,0.,0.00015209,0.,-0.00000004,0.00010
 861,0.00000002,0.,-0.00004809,-0.00000002,0.00000003,-0.00119217,0.000
 00002,0.00000002,0.00050090,0.00000005,0.,0.00009524,-0.00000003,0.,-0
 .00003557,0.00000001,0.00000002,-0.00004411,0.00000002,-0.00000005,-0.
 00011284,0.00000001,0.,-0.00042616,-0.00000006,-0.00000002,0.00497532,
 0.00000017,0.00000019,-0.05167131,0.,0.,-0.00000117,0.,0.,-0.00000059,
 0.,0.,0.00005730,0.,0.00000001,-0.00014156,0.,0.,-0.00010669,0.,0.,0.0
 0004909,0.,0.,-0.00000303,-0.00000001,0.,-0.00003760,0.,0.,0.00000667,
 0.00000003,-0.00000002,0.00407281,0.,0.,-0.00007272,-0.00000002,0.,-0.
 00011343,-0.00000070,-0.00000034,0.11735598,0.00479274,-0.00199527,-0.
 00000027,-0.00063391,-0.00691633,0.00000015,-0.00685395,-0.00421821,0.
 00000011,-0.00366950,0.00432965,0.,-0.00122958,0.00093133,0.00000022,0
 .00138717,-0.00007870,-0.00000017,-0.00350799,0.01662537,-0.00000012,0
 .00572389,-0.00096701,-0.00000005,0.00082371,0.00086532,0.00000017,0.0
 0206884,-0.00169104,0.00000016,0.00468910,-0.00251883,0.00000015,-0.00
 198172,-0.00138801,-0.00000063,0.00092975,0.00066622,0.00000046,-0.000
 20246,-0.00038710,-0.00000041,-0.05709306,0.06983710,0.00000014,0.0064
 8693,-0.00665497,-0.00000014,0.00185681,0.00123452,0.00000022,0.000407
 34,-0.00004762,0.00000006,-0.00176876,0.00202897,0.,-0.00105653,0.0000
 6878,0.00000012,-0.00175311,0.00241108,-0.00000005,0.01535324,0.001480
 25,-0.00000007,-0.03431062,-0.06860030,-0.00000021,0.00022050,-0.00001
 902,0.,0.00002561,-0.00004202,0.,-0.00005867,0.00005687,0.00000001,-0.
 00001487,-0.00001601,0.,-0.00004614,-0.00003604,-0.00000001,0.00002285
 ,-0.00005678,-0.00000003,-0.00004610,-0.00007052,0.00000002,-0.0000165
 5,-0.00023992,0.00000001,0.00009792,-0.00013466,0.,-0.00406675,-0.0393
 0514,-0.00000002,0.00049305,-0.00044906,0.00000002,0.00059817,-0.00056
 091,-0.00000001,-0.38815963,-0.07136940,0.00000047,0.54989695,0.000917
 41,-0.00033312,-0.00000017,-0.00136182,-0.00342560,0.00000009,-0.00325
 964,-0.00141599,0.00000007,-0.00009560,0.00084613,0.,-0.00011256,0.000
 10421,0.00000014,0.00003390,-0.00017591,-0.00000011,-0.00179699,0.0074
 9111,-0.00000008,-0.00010556,-0.00189245,-0.00000003,0.00080463,0.0004
 1337,0.00000011,-0.00021996,-0.00098350,0.00000010,-0.00415986,0.00257
 083,0.00000010,0.00126768,-0.00016005,-0.00000039,0.00007175,0.0000272
 6,0.00000029,-0.00059935,0.00049692,-0.00000026,0.07109226,-0.07313299
 ,0.00000003,-0.00886949,0.00683124,-0.00000008,0.00028042,-0.00208745,
 0.00000014,-0.00018150,0.00064357,0.00000004,-0.00042069,-0.00043720,0
 .,0.00034987,0.00103641,0.00000008,-0.00128245,0.00084808,-0.00000004,
 0.00774502,-0.00407254,-0.00000004,-0.04274945,-0.02719331,-0.00000013
 ,-0.00039716,0.00043401,0.,-0.00006341,-0.00000074,0.,-0.00002470,0.00
 002435,0.,-0.00002797,-0.00008241,0.,0.00000216,-0.00002511,0.,0.00003
 216,0.00000851,-0.00000002,0.00004103,0.00002400,0.00000001,0.00003541
 ,0.00012428,0.,-0.00004185,0.00018311,0.,-0.03647178,0.01375701,0.0000
 0001,0.00079200,0.00115593,0.00000001,-0.00031624,0.00051111,-0.000000
 01,-0.13018895,-0.11172975,0.00000023,0.20795079,0.50455977,0.,0.00000
 001,-0.00041879,0.,0.00000001,-0.00009390,0.,0.,-0.00007447,0.,0.,0.00
 017404,0.,0.,0.00005226,0.,0.,-0.00001647,0.,-0.00000002,-0.00201053,0
 .,0.,0.00072245,0.,0.00000002,0.00004317,0.,0.,0.00003587,0.,0.,-0.001
 64040,0.,0.,-0.00064903,-0.00000001,0.,-0.00014683,0.,0.,-0.00003945,0
 .00000004,-0.00000004,0.01162516,0.,0.,-0.00168019,-0.00000002,0.00000
 001,0.00024110,0.,-0.00000001,0.00004201,0.,0.,0.00005490,0.,0.,0.0000
 9390,0.,0.,-0.00006154,-0.00000001,0.,0.00384060,0.00000003,0.00000004
 ,0.00275468,0.,0.,-0.00017048,0.,0.,0.00001275,0.,0.,-0.00004779,0.,0.
 ,0.00000552,0.,0.,0.00000014,0.,0.,-0.00000874,0.,0.,0.00000637,0.,0.,
 0.00010889,0.,0.,-0.00013112,0.,0.00000002,-0.02160024,0.,0.,-0.000541
 10,0.,0.,0.00033999,0.00000027,0.00000007,-0.04124418,-0.00000038,-0.0
 0000023,0.06002981,-0.00018279,0.00010952,0.00000003,0.00002675,0.0003
 0567,-0.00000002,0.00037470,-0.00009006,-0.00000001,0.00006385,-0.0001
 9611,0.,0.00003937,-0.00003565,-0.00000002,-0.00003105,-0.00000732,0.0
 0000002,-0.00014904,-0.00211924,0.00000002,-0.00036547,-0.00012019,0.,
 0.00007883,-0.00000861,-0.00000002,-0.00010519,0.00001838,-0.00000002,
 -0.00111587,0.00013086,-0.00000002,0.00030429,0.00028763,0.00000007,-0
 .00012184,-0.00002165,-0.00000005,-0.00004077,0.00003986,0.00000005,0.
 00166788,-0.00040336,-0.00000001,-0.00034194,0.00083818,0.00000001,-0.
 00000003,-0.00029223,-0.00000002,-0.00006869,0.00011260,0.,0.00008265,
 -0.00010901,0.,-0.00010568,-0.00000197,-0.00000001,-0.00121364,-0.0022
 7561,0.,-0.00117089,-0.00140308,0.,0.00788890,-0.00599841,0.00000003,-
 0.00175045,-0.00025802,0.,0.00004360,0.00000232,0.,0.00000315,0.000028
 39,0.,0.00001217,0.00000734,0.,-0.00000975,0.00000149,0.,0.00000071,0.
 00000909,0.,0.00001678,0.00000778,0.,-0.00000546,0.00006068,0.,-0.0000
 1350,0.00002885,0.,-0.00241951,-0.00157925,0.,0.00008176,-0.00007836,0
 .,-0.00010105,0.00007367,0.,-0.18834601,0.13312442,0.00000005,-0.02700
 259,0.01883587,0.00000002,0.21186794,0.00004293,0.00013673,0.,-0.00020
 010,0.00013991,0.,0.00119252,-0.00119576,0.,-0.00019605,-0.00025390,0.
 ,-0.00000612,-0.00010703,0.,-0.00000309,-0.00003212,0.,-0.00302404,-0.
 00165460,0.,-0.00081585,-0.00020218,0.,0.00015565,-0.00001644,0.,-0.00
 013614,0.00001625,0.,-0.00064601,0.00019962,0.,0.00018623,0.00029802,0
 .,-0.00009143,-0.00003985,0.,-0.00005336,-0.00001504,0.,0.00158135,-0.
 00173564,0.,-0.00041619,0.00075341,0.,-0.00006030,-0.00021016,0.,-0.00
 002444,0.00007027,0.,0.00015144,0.00006357,0.,-0.00026974,0.00042160,0
 .,0.00027077,-0.00018984,0.,0.00107957,-0.00101356,0.,0.02137779,-0.02
 347136,0.,-0.00060575,0.00095123,0.,0.00002141,-0.00000238,0.,0.000009
 97,0.00006884,0.,-0.00000717,0.00000659,0.,-0.00005213,-0.00002758,0.,
 0.00000430,-0.00001543,0.,0.00002582,-0.00001761,0.,0.00000824,0.00003
 684,0.,0.00000212,0.00001555,0.,-0.00293350,0.00284078,0.,0.00000166,-
 0.00004389,0.,-0.00007427,0.00005849,0.,0.12547799,-0.17620438,-0.0000
 0007,-0.00430882,0.00762338,0.,-0.13768563,0.19201468,0.,0.,0.00007365
 ,0.,0.,0.00044327,0.,-0.00000001,-0.00007294,0.,0.,-0.00054717,0.,0.,0
 .00000726,0.,0.,0.00000243,0.,0.,0.00456262,0.,0.,-0.00020910,0.,0.000
 00001,-0.00035275,0.,0.,0.00009127,0.,0.,0.00038684,0.,0.,0.00033042,0
 .,0.,-0.00002792,0.,0.,0.00001610,0.,0.,-0.00080213,0.,0.,-0.00008658,
 -0.00000001,0.00000001,-0.00010534,0.,0.,-0.00002269,0.,0.,0.00008638,
 0.,0.,-0.00035294,0.,0.,0.00000583,0.,0.,-0.00260162,0.,0.,0.00456310,
 0.,0.,0.00072455,0.,0.,0.00000444,0.,0.,0.00004806,0.,0.,-0.00000637,0
 .,0.,0.00002520,0.,0.,0.00004912,0.,0.,-0.00000393,0.,0.,-0.00003325,0
 .,0.,0.00001110,0.,0.,0.00487943,0.,0.,0.00010585,0.,0.,0.00003469,0.0
 0000008,-0.00000006,-0.04073781,0.00000003,0.,0.01243334,-0.00000010,0
 .00000006,0.02228584,-0.00014443,0.00003565,0.00000001,-0.00036553,-0.
 00007969,0.,-0.00010662,-0.00025435,0.,0.00019320,-0.00008459,0.,0.000
 06971,-0.00004838,-0.00000001,-0.00011323,-0.00006469,0.,-0.00015491,0
 .00030118,0.,-0.00036279,-0.00046067,0.,0.00022616,0.00013507,0.,-0.00
 021044,-0.00010572,0.,-0.00282754,0.00035593,0.,0.00088958,0.00059576,
 0.00000003,-0.00029694,-0.00000263,-0.00000002,-0.00011820,0.00011555,
 0.00000002,0.00460291,-0.00443017,0.,-0.00098216,0.00252504,0.,-0.0005
 3528,-0.00081124,-0.00000001,-0.00006232,0.00014857,0.,0.00003049,-0.0
 0018948,0.,0.00011813,0.00010196,0.,-0.00005480,-0.00006984,0.,0.00027
 671,-0.00119772,0.,-0.00340616,0.00168868,0.00000002,-0.00002848,0.000
 02195,0.,-0.00002786,-0.00000071,0.,-0.00000385,-0.00000524,0.,-0.0000
 0398,-0.00002268,0.,0.00000028,-0.00000519,0.,0.00001127,0.00000765,0.
 ,0.00002331,0.00001611,0.,0.00000099,0.00014444,0.,-0.00003607,0.00001
 647,0.,0.00097041,0.01335211,0.,-0.00049902,-0.00017835,0.,-0.00026804
 ,0.00019839,0.,-0.00382739,-0.02956830,0.,-0.06240207,-0.07750539,0.00
 000004,0.00210788,0.00002037,0.,0.06731709,0.00011533,-0.00012585,0.00
 000005,-0.00031102,0.00008439,-0.00000003,0.00014174,0.00002794,-0.000
 00002,-0.00011542,0.00000956,0.,-0.00006474,0.00004161,-0.00000004,0.0
 0006487,0.00000185,0.00000003,0.00008886,-0.00014341,0.00000002,-0.000
 01493,0.00021822,0.00000001,-0.00007818,-0.00011287,-0.00000003,0.0001
 1505,0.00004748,-0.00000003,0.00110519,-0.00001631,-0.00000003,-0.0004
 5218,-0.00022874,0.00000011,0.00016643,-0.00001433,-0.00000009,0.00002
 431,-0.00002996,0.00000007,0.00044024,0.00079026,-0.00000002,0.0004220
 0,-0.00166161,0.00000002,0.00028943,0.00051343,-0.00000004,0.00004791,
 -0.00003182,0.,-0.00004243,0.00010338,0.,-0.00007296,-0.00006471,-0.00
 000002,-0.00004206,0.00002914,0.00000001,0.00002740,-0.00041229,0.,-0.
 00106515,0.00170536,0.00000005,0.00000411,-0.00005182,0.,-0.00001441,-
 0.00000179,0.,-0.00000863,-0.00000425,0.,-0.00000448,-0.00000763,0.,-0
 .00000246,-0.00000607,0.,-0.00000185,-0.00001119,0.,-0.00000616,-0.000
 01317,0.,0.00000364,-0.00006566,0.,0.00001986,-0.00000033,0.,-0.005584
 93,-0.00496650,0.,0.00030694,0.00037756,0.,0.00014940,-0.00010407,0.,0
 .00679857,-0.00170906,-0.00000003,-0.09641458,-0.32256647,0.00000012,-
 0.00133883,0.00073301,0.,0.09530413,0.32766672,0.,0.,-0.00007531,0.,0.
 ,-0.00032885,0.,-0.00000002,-0.00003705,-0.00000001,0.,-0.00012698,0.,
 0.,0.00002187,0.00000001,0.,0.00000425,0.,0.,0.00037413,0.,0.,-0.00004
 954,0.,0.00000002,0.00002271,0.,0.,0.00000059,0.,0.,0.00008374,0.,0.,-
 0.00018604,0.,0.,0.00014734,0.,0.,0.00000686,0.,0.,-0.00049139,0.,0.,0
 .00042269,-0.00000002,0.00000002,-0.00008815,0.00000001,-0.00000001,0.
 00000550,0.,0.,-0.00001733,0.,0.,-0.00000831,0.,0.,-0.00000375,0.,0.,-
 0.00004122,0.,-0.00000002,0.00759109,0.,0.,0.00003689,0.,0.,0.00000685
 ,0.,0.,0.00001267,0.,0.,0.00002694,0.,0.,0.00000381,0.,0.,-0.00000343,
 0.,0.,-0.00000803,0.,0.,-0.00000859,0.,0.,0.00003471,0.,-0.00000001,0.
 00072557,0.,0.,0.00026239,0.,0.,-0.00016359,0.00000003,0.00000003,0.00
 340558,0.00000004,0.00000011,-0.02204173,0.,0.,-0.00520827,-0.00000006
 ,-0.00000013,0.01569138\\-0.00000047,0.00000088,0.,0.00000014,0.000000
 51,0.,-0.00000024,0.00000048,0.,-0.00000034,-0.00000006,0.,0.00000140,
 -0.00000017,0.,-0.00000206,0.00000176,0.,0.00000006,-0.00000005,0.,-0.
 00000001,0.,0.,-0.00000056,-0.00000062,0.,-0.00000056,0.00000048,0.,-0
 .00000007,-0.00000032,0.,0.00000027,-0.00000073,0.,-0.00000200,-0.0000
 0118,0.,0.00000083,0.00000049,0.,0.00000104,-0.00000047,0.,0.00000024,
 -0.00000166,0.,-0.00000067,-0.00000172,0.,-0.00000035,0.00000009,0.,0.
 00000072,0.00000219,0.,0.00000113,-0.00000015,0.,-0.00000038,-0.000000
 22,0.,-0.00000004,0.00000077,0.,0.00000033,0.00000021,0.,0.00000068,0.
 00000058,0.,0.00000048,0.00000105,0.,0.00000004,0.00000112,0.,-0.00000
 048,0.00000098,0.,-0.00000070,0.00000057,0.,-0.00000074,0.00000004,0.,
 -0.00000079,-0.00000037,0.,-0.00000056,-0.00000077,0.,-0.00000022,-0.0
 0000109,0.,0.00000035,-0.00000025,0.,0.00000056,-0.00000081,0.,0.00000
 026,-0.00000118,0.,0.00000246,0.00000059,0.,-0.00000127,-0.00000089,0.
 ,0.00000070,0.00000017,0.,0.00000079,-0.00000027,0.\\\@


 BE NOT THE FIRST BY WHOM THE NEW ARE TRIED,
 NOR YET THE THE LAST TO LAY THE OLD ASIDE.

                          -- ALEXANDER POPE
 Job cpu time:       1 days 12 hours 57 minutes  2.8 seconds.
 File lengths (MBytes):  RWF=   4996 Int=      0 D2E=      0 Chk=     42 Scr=      1
 Normal termination of Gaussian 09 at Sun Feb  2 22:12:23 2020.
