 Entering Gaussian System, Link 0=/share/apps/gaussian16/g16/g16
 Initial command:
 /share/apps/gaussian16/g16/l1.exe "/home/amen01//scratch/634/Gau-44807.inp" -scrdir="/home/amen01//scratch/634/"
 Entering Link 1 = /share/apps/gaussian16/g16/l1.exe PID=     44808.
  
 Copyright (c) 1988-2017, Gaussian, Inc.  All Rights Reserved.
  
 This is part of the Gaussian(R) 16 program.  It is based on
 the Gaussian(R) 09 system (copyright 2009, Gaussian, Inc.),
 the Gaussian(R) 03 system (copyright 2003, Gaussian, Inc.),
 the Gaussian(R) 98 system (copyright 1998, Gaussian, Inc.),
 the Gaussian(R) 94 system (copyright 1995, Gaussian, Inc.),
 the Gaussian 92(TM) system (copyright 1992, Gaussian, Inc.),
 the Gaussian 90(TM) system (copyright 1990, Gaussian, Inc.),
 the Gaussian 88(TM) system (copyright 1988, Gaussian, Inc.),
 the Gaussian 86(TM) system (copyright 1986, Carnegie Mellon
 University), and the Gaussian 82(TM) system (copyright 1983,
 Carnegie Mellon University). Gaussian is a federally registered
 trademark of Gaussian, Inc.
  
 This software contains proprietary and confidential information,
 including trade secrets, belonging to Gaussian, Inc.
  
 This software is provided under written license and may be
 used, copied, transmitted, or stored only in accord with that
 written license.
  
 The following legend is applicable only to US Government
 contracts under FAR:
  
                    RESTRICTED RIGHTS LEGEND
  
 Use, reproduction and disclosure by the US Government is
 subject to restrictions as set forth in subparagraphs (a)
 and (c) of the Commercial Computer Software - Restricted
 Rights clause in FAR 52.227-19.
  
 Gaussian, Inc.
 340 Quinnipiac St., Bldg. 40, Wallingford CT 06492
  
  
 ---------------------------------------------------------------
 Warning -- This program may not be used in any manner that
 competes with the business of Gaussian, Inc. or will provide
 assistance to any competitor of Gaussian, Inc.  The licensee
 of this program is prohibited from giving any competitor of
 Gaussian, Inc. access to this program.  By using this program,
 the user acknowledges that Gaussian, Inc. is engaged in the
 business of creating and licensing software in the field of
 computational chemistry and represents and warrants to the
 licensee that it is not a competitor of Gaussian, Inc. and that
 it will not use this program in any manner prohibited above.
 ---------------------------------------------------------------
  

 Cite this work as:
 Gaussian 16, Revision B.01,
 M. J. Frisch, G. W. Trucks, H. B. Schlegel, G. E. Scuseria, 
 M. A. Robb, J. R. Cheeseman, G. Scalmani, V. Barone, 
 G. A. Petersson, H. Nakatsuji, X. Li, M. Caricato, A. V. Marenich, 
 J. Bloino, B. G. Janesko, R. Gomperts, B. Mennucci, H. P. Hratchian, 
 J. V. Ortiz, A. F. Izmaylov, J. L. Sonnenberg, D. Williams-Young, 
 F. Ding, F. Lipparini, F. Egidi, J. Goings, B. Peng, A. Petrone, 
 T. Henderson, D. Ranasinghe, V. G. Zakrzewski, J. Gao, N. Rega, 
 G. Zheng, W. Liang, M. Hada, M. Ehara, K. Toyota, R. Fukuda, 
 J. Hasegawa, M. Ishida, T. Nakajima, Y. Honda, O. Kitao, H. Nakai, 
 T. Vreven, K. Throssell, J. A. Montgomery, Jr., J. E. Peralta, 
 F. Ogliaro, M. J. Bearpark, J. J. Heyd, E. N. Brothers, K. N. Kudin, 
 V. N. Staroverov, T. A. Keith, R. Kobayashi, J. Normand, 
 K. Raghavachari, A. P. Rendell, J. C. Burant, S. S. Iyengar, 
 J. Tomasi, M. Cossi, J. M. Millam, M. Klene, C. Adamo, R. Cammi, 
 J. W. Ochterski, R. L. Martin, K. Morokuma, O. Farkas, 
 J. B. Foresman, and D. J. Fox, Gaussian, Inc., Wallingford CT, 2016.
 
 ******************************************
 Gaussian 16:  ES64L-G16RevB.01 20-Dec-2017
                27-Jun-2019 
 ******************************************
 %nprocshared=20
 Will use up to   20 processors via shared memory.
 %mem=100GB
 %chk=7-HACAsite2TSguess-3b.chk
 ---------------------------------------------------------------
 # opt=(ts,calcfc,noeigen) freq b3lyp/6-311+g(d,p) int=grid=fine
 ---------------------------------------------------------------
 1/5=1,10=4,11=1,18=20,26=3,38=1/1,3;
 2/9=110,12=2,17=6,18=5,40=1/2;
 3/5=4,6=6,7=111,11=2,25=1,30=1,71=2,74=-5,75=-4,140=1/1,2,3;
 4//1;
 5/5=2,38=5/2;
 8/6=4,10=90,11=11/1;
 11/6=1,8=1,9=11,15=111,16=1/1,2,10;
 10/6=1,13=1/2;
 6/7=2,8=2,9=2,10=2,28=1/1;
 7/10=1,18=20,25=1/1,2,3,16;
 1/5=1,10=4,11=1,18=20,26=3/3(2);
 2/9=110/2;
 99//99;
 2/9=110/2;
 3/5=4,6=6,7=111,11=2,25=1,30=1,71=1,74=-5,75=-4/1,2,3;
 4/5=5,16=3,69=1/1;
 5/5=2,38=5/2;
 7//1,2,3,16;
 1/5=1,11=1,18=20,26=3/3(-5);
 2/9=110/2;
 6/7=2,8=2,9=2,10=2,19=2,28=1/1;
 99/9=1/99;
 ---------------------
 7-HACAsite2TSguess-3b
 ---------------------
 Symbolic Z-matrix:
 Charge =  0 Multiplicity = 3
 C                     3.78493   0.35167   0.07646 
 C                     2.48932  -0.13929  -0.05315 
 C                     1.34832   0.67448   0.0599 
 C                     1.42606   2.05498   0.27115 
 C                     3.87973   1.77223   0.34818 
 C                     2.76864   2.57617   0.4318 
 C                     0.18948  -0.08448  -0.15347 
 C                    -1.04872   0.57325  -0.0355 
 C                    -1.00664   2.02063   0.02761 
 C                     0.19745   2.73214   0.20637 
 C                    -2.34122  -0.09038  -0.00826 
 C                    -3.50779   0.65712  -0.3294 
 C                    -3.40842   2.08863  -0.43301 
 C                    -2.24      2.73384  -0.18418 
 C                    -2.49624  -1.44558   0.40837 
 C                    -3.72738  -2.07283   0.2702 
 C                    -4.84381  -1.36468  -0.20125 
 C                    -4.74391  -0.0092   -0.45277 
 C                     4.81067  -0.60288  -0.12621 
 C                     4.47661  -1.91409  -0.4652 
 C                     3.1425   -2.36024  -0.62522 
 C                     2.11181  -1.4535   -0.40676 
 C                     0.63375  -1.46008  -0.50635 
 H                     2.95503  -3.38836  -0.91602 
 H                     5.27811  -2.62684  -0.62641 
 H                     5.85457  -0.3215   -0.03606 
 H                     4.86215   2.21821   0.46658 
 H                     2.89937   3.63862   0.61076 
 H                     0.1568    3.81573   0.25722 
 H                    -2.20612   3.81838  -0.18786 
 H                    -4.30916   2.65152  -0.65424 
 H                    -5.62411   0.56341  -0.72584 
 H                    -3.83371  -3.10352   0.58872 
 H                    -5.79709  -1.87045  -0.30442 
 H                     0.14906  -1.97183  -1.3315 
 C                    -1.39038  -2.07901   1.1741 
 C                    -0.42766  -2.87582   0.65302 
 H                     0.30502  -3.55606   1.06514 
 H                    -1.1526   -1.56583   2.11518 
 

 GradGradGradGradGradGradGradGradGradGradGradGradGradGradGradGradGradGrad
 Berny optimization.
 Initialization pass.
                           ----------------------------
                           !    Initial Parameters    !
                           ! (Angstroms and Degrees)  !
 --------------------------                            --------------------------
 ! Name  Definition              Value          Derivative Info.                !
 --------------------------------------------------------------------------------
 ! R1    R(1,2)                  1.3916         calculate D2E/DX2 analytically  !
 ! R2    R(1,5)                  1.4494         calculate D2E/DX2 analytically  !
 ! R3    R(1,19)                 1.4158         calculate D2E/DX2 analytically  !
 ! R4    R(2,3)                  1.406          calculate D2E/DX2 analytically  !
 ! R5    R(2,22)                 1.4123         calculate D2E/DX2 analytically  !
 ! R6    R(3,4)                  1.3987         calculate D2E/DX2 analytically  !
 ! R7    R(3,7)                  1.4016         calculate D2E/DX2 analytically  !
 ! R8    R(4,6)                  1.4491         calculate D2E/DX2 analytically  !
 ! R9    R(4,10)                 1.4044         calculate D2E/DX2 analytically  !
 ! R10   R(5,6)                  1.374          calculate D2E/DX2 analytically  !
 ! R11   R(5,27)                 1.0854         calculate D2E/DX2 analytically  !
 ! R12   R(6,28)                 1.0853         calculate D2E/DX2 analytically  !
 ! R13   R(7,8)                  1.407          calculate D2E/DX2 analytically  !
 ! R14   R(7,23)                 1.488          calculate D2E/DX2 analytically  !
 ! R15   R(8,9)                  1.4494         calculate D2E/DX2 analytically  !
 ! R16   R(8,11)                 1.4532         calculate D2E/DX2 analytically  !
 ! R17   R(9,10)                 1.41           calculate D2E/DX2 analytically  !
 ! R18   R(9,14)                 1.4404         calculate D2E/DX2 analytically  !
 ! R19   R(10,29)                1.0855         calculate D2E/DX2 analytically  !
 ! R20   R(11,12)                1.4222         calculate D2E/DX2 analytically  !
 ! R21   R(11,15)                1.4262         calculate D2E/DX2 analytically  !
 ! R22   R(12,13)                1.4387         calculate D2E/DX2 analytically  !
 ! R23   R(12,18)                1.4097         calculate D2E/DX2 analytically  !
 ! R24   R(13,14)                1.3577         calculate D2E/DX2 analytically  !
 ! R25   R(13,31)                1.085          calculate D2E/DX2 analytically  !
 ! R26   R(14,30)                1.0851         calculate D2E/DX2 analytically  !
 ! R27   R(15,16)                1.3886         calculate D2E/DX2 analytically  !
 ! R28   R(15,36)                1.4868         calculate D2E/DX2 analytically  !
 ! R29   R(16,17)                1.4036         calculate D2E/DX2 analytically  !
 ! R30   R(16,33)                1.084          calculate D2E/DX2 analytically  !
 ! R31   R(17,18)                1.3822         calculate D2E/DX2 analytically  !
 ! R32   R(17,34)                1.0841         calculate D2E/DX2 analytically  !
 ! R33   R(18,32)                1.085          calculate D2E/DX2 analytically  !
 ! R34   R(19,20)                1.3949         calculate D2E/DX2 analytically  !
 ! R35   R(19,26)                1.0849         calculate D2E/DX2 analytically  !
 ! R36   R(20,21)                1.4158         calculate D2E/DX2 analytically  !
 ! R37   R(20,25)                1.0846         calculate D2E/DX2 analytically  !
 ! R38   R(21,22)                1.39           calculate D2E/DX2 analytically  !
 ! R39   R(21,24)                1.0848         calculate D2E/DX2 analytically  !
 ! R40   R(22,23)                1.4814         calculate D2E/DX2 analytically  !
 ! R41   R(23,35)                1.0852         calculate D2E/DX2 analytically  !
 ! R42   R(36,37)                1.354          calculate D2E/DX2 analytically  !
 ! R43   R(36,39)                1.098          calculate D2E/DX2 analytically  !
 ! R44   R(37,38)                1.0814         calculate D2E/DX2 analytically  !
 ! A1    A(2,1,5)              115.0961         calculate D2E/DX2 analytically  !
 ! A2    A(2,1,19)             115.0464         calculate D2E/DX2 analytically  !
 ! A3    A(5,1,19)             129.811          calculate D2E/DX2 analytically  !
 ! A4    A(1,2,3)              122.9477         calculate D2E/DX2 analytically  !
 ! A5    A(1,2,22)             126.9037         calculate D2E/DX2 analytically  !
 ! A6    A(3,2,22)             109.9858         calculate D2E/DX2 analytically  !
 ! A7    A(2,3,4)              122.566          calculate D2E/DX2 analytically  !
 ! A8    A(2,3,7)              110.2006         calculate D2E/DX2 analytically  !
 ! A9    A(4,3,7)              127.1133         calculate D2E/DX2 analytically  !
 ! A10   A(3,4,6)              115.0374         calculate D2E/DX2 analytically  !
 ! A11   A(3,4,10)             114.8536         calculate D2E/DX2 analytically  !
 ! A12   A(6,4,10)             129.958          calculate D2E/DX2 analytically  !
 ! A13   A(1,5,6)              122.1395         calculate D2E/DX2 analytically  !
 ! A14   A(1,5,27)             118.8399         calculate D2E/DX2 analytically  !
 ! A15   A(6,5,27)             119.0054         calculate D2E/DX2 analytically  !
 ! A16   A(4,6,5)              122.142          calculate D2E/DX2 analytically  !
 ! A17   A(4,6,28)             118.8132         calculate D2E/DX2 analytically  !
 ! A18   A(5,6,28)             119.0397         calculate D2E/DX2 analytically  !
 ! A19   A(3,7,8)              117.4972         calculate D2E/DX2 analytically  !
 ! A20   A(3,7,23)             106.8487         calculate D2E/DX2 analytically  !
 ! A21   A(8,7,23)             135.6254         calculate D2E/DX2 analytically  !
 ! A22   A(7,8,9)              116.419          calculate D2E/DX2 analytically  !
 ! A23   A(7,8,11)             124.8069         calculate D2E/DX2 analytically  !
 ! A24   A(9,8,11)             118.7545         calculate D2E/DX2 analytically  !
 ! A25   A(8,9,10)             122.2925         calculate D2E/DX2 analytically  !
 ! A26   A(8,9,14)             117.5949         calculate D2E/DX2 analytically  !
 ! A27   A(10,9,14)            120.001          calculate D2E/DX2 analytically  !
 ! A28   A(4,10,9)             120.6399         calculate D2E/DX2 analytically  !
 ! A29   A(4,10,29)            120.7912         calculate D2E/DX2 analytically  !
 ! A30   A(9,10,29)            118.5337         calculate D2E/DX2 analytically  !
 ! A31   A(8,11,12)            119.0317         calculate D2E/DX2 analytically  !
 ! A32   A(8,11,15)            122.4173         calculate D2E/DX2 analytically  !
 ! A33   A(12,11,15)           118.4374         calculate D2E/DX2 analytically  !
 ! A34   A(11,12,13)           118.8527         calculate D2E/DX2 analytically  !
 ! A35   A(11,12,18)           119.3789         calculate D2E/DX2 analytically  !
 ! A36   A(13,12,18)           121.64           calculate D2E/DX2 analytically  !
 ! A37   A(12,13,14)           121.2709         calculate D2E/DX2 analytically  !
 ! A38   A(12,13,31)           118.2659         calculate D2E/DX2 analytically  !
 ! A39   A(14,13,31)           120.35           calculate D2E/DX2 analytically  !
 ! A40   A(9,14,13)            121.9059         calculate D2E/DX2 analytically  !
 ! A41   A(9,14,30)            117.9482         calculate D2E/DX2 analytically  !
 ! A42   A(13,14,30)           120.0813         calculate D2E/DX2 analytically  !
 ! A43   A(11,15,16)           119.7694         calculate D2E/DX2 analytically  !
 ! A44   A(11,15,36)           118.3216         calculate D2E/DX2 analytically  !
 ! A45   A(16,15,36)           121.2149         calculate D2E/DX2 analytically  !
 ! A46   A(15,16,17)           120.7117         calculate D2E/DX2 analytically  !
 ! A47   A(15,16,33)           119.158          calculate D2E/DX2 analytically  !
 ! A48   A(17,16,33)           120.0245         calculate D2E/DX2 analytically  !
 ! A49   A(16,17,18)           119.8933         calculate D2E/DX2 analytically  !
 ! A50   A(16,17,34)           119.7366         calculate D2E/DX2 analytically  !
 ! A51   A(18,17,34)           120.2491         calculate D2E/DX2 analytically  !
 ! A52   A(12,18,17)           120.7288         calculate D2E/DX2 analytically  !
 ! A53   A(12,18,32)           118.9433         calculate D2E/DX2 analytically  !
 ! A54   A(17,18,32)           120.3117         calculate D2E/DX2 analytically  !
 ! A55   A(1,19,20)            119.6734         calculate D2E/DX2 analytically  !
 ! A56   A(1,19,26)            120.688          calculate D2E/DX2 analytically  !
 ! A57   A(20,19,26)           119.6314         calculate D2E/DX2 analytically  !
 ! A58   A(19,20,21)           123.3218         calculate D2E/DX2 analytically  !
 ! A59   A(19,20,25)           118.4802         calculate D2E/DX2 analytically  !
 ! A60   A(21,20,25)           118.1939         calculate D2E/DX2 analytically  !
 ! A61   A(20,21,22)           118.3838         calculate D2E/DX2 analytically  !
 ! A62   A(20,21,24)           119.4596         calculate D2E/DX2 analytically  !
 ! A63   A(22,21,24)           122.1561         calculate D2E/DX2 analytically  !
 ! A64   A(2,22,21)            116.625          calculate D2E/DX2 analytically  !
 ! A65   A(2,22,23)            106.7171         calculate D2E/DX2 analytically  !
 ! A66   A(21,22,23)           136.5797         calculate D2E/DX2 analytically  !
 ! A67   A(7,23,22)            106.1312         calculate D2E/DX2 analytically  !
 ! A68   A(7,23,35)            118.8757         calculate D2E/DX2 analytically  !
 ! A69   A(22,23,35)           119.9225         calculate D2E/DX2 analytically  !
 ! A70   A(15,36,37)           125.5469         calculate D2E/DX2 analytically  !
 ! A71   A(15,36,39)           113.7903         calculate D2E/DX2 analytically  !
 ! A72   A(37,36,39)           116.8041         calculate D2E/DX2 analytically  !
 ! A73   A(36,37,38)           134.8511         calculate D2E/DX2 analytically  !
 ! D1    D(5,1,2,3)              0.4198         calculate D2E/DX2 analytically  !
 ! D2    D(5,1,2,22)           175.3091         calculate D2E/DX2 analytically  !
 ! D3    D(19,1,2,3)          -177.3468         calculate D2E/DX2 analytically  !
 ! D4    D(19,1,2,22)           -2.4575         calculate D2E/DX2 analytically  !
 ! D5    D(2,1,5,6)             -1.8005         calculate D2E/DX2 analytically  !
 ! D6    D(2,1,5,27)           179.6358         calculate D2E/DX2 analytically  !
 ! D7    D(19,1,5,6)           175.5652         calculate D2E/DX2 analytically  !
 ! D8    D(19,1,5,27)           -2.9985         calculate D2E/DX2 analytically  !
 ! D9    D(2,1,19,20)            1.6752         calculate D2E/DX2 analytically  !
 ! D10   D(2,1,19,26)         -179.3016         calculate D2E/DX2 analytically  !
 ! D11   D(5,1,19,20)         -175.6916         calculate D2E/DX2 analytically  !
 ! D12   D(5,1,19,26)            3.3316         calculate D2E/DX2 analytically  !
 ! D13   D(1,2,3,4)              2.0487         calculate D2E/DX2 analytically  !
 ! D14   D(1,2,3,7)            178.324          calculate D2E/DX2 analytically  !
 ! D15   D(22,2,3,4)          -173.6042         calculate D2E/DX2 analytically  !
 ! D16   D(22,2,3,7)             2.671          calculate D2E/DX2 analytically  !
 ! D17   D(1,2,22,21)            1.2597         calculate D2E/DX2 analytically  !
 ! D18   D(1,2,22,23)         -176.0593         calculate D2E/DX2 analytically  !
 ! D19   D(3,2,22,21)          176.6974         calculate D2E/DX2 analytically  !
 ! D20   D(3,2,22,23)           -0.6216         calculate D2E/DX2 analytically  !
 ! D21   D(2,3,4,6)             -2.9435         calculate D2E/DX2 analytically  !
 ! D22   D(2,3,4,10)           173.0421         calculate D2E/DX2 analytically  !
 ! D23   D(7,3,4,6)           -178.5588         calculate D2E/DX2 analytically  !
 ! D24   D(7,3,4,10)            -2.5731         calculate D2E/DX2 analytically  !
 ! D25   D(2,3,7,8)            178.1167         calculate D2E/DX2 analytically  !
 ! D26   D(2,3,7,23)            -3.5321         calculate D2E/DX2 analytically  !
 ! D27   D(4,3,7,8)             -5.8201         calculate D2E/DX2 analytically  !
 ! D28   D(4,3,7,23)           172.5311         calculate D2E/DX2 analytically  !
 ! D29   D(3,4,6,5)              1.5479         calculate D2E/DX2 analytically  !
 ! D30   D(3,4,6,28)          -179.2859         calculate D2E/DX2 analytically  !
 ! D31   D(10,4,6,5)          -173.6985         calculate D2E/DX2 analytically  !
 ! D32   D(10,4,6,28)            5.4677         calculate D2E/DX2 analytically  !
 ! D33   D(3,4,10,9)             3.9356         calculate D2E/DX2 analytically  !
 ! D34   D(3,4,10,29)         -173.8728         calculate D2E/DX2 analytically  !
 ! D35   D(6,4,10,9)           179.189          calculate D2E/DX2 analytically  !
 ! D36   D(6,4,10,29)            1.3807         calculate D2E/DX2 analytically  !
 ! D37   D(1,5,6,4)              0.8159         calculate D2E/DX2 analytically  !
 ! D38   D(1,5,6,28)          -178.3485         calculate D2E/DX2 analytically  !
 ! D39   D(27,5,6,4)           179.3773         calculate D2E/DX2 analytically  !
 ! D40   D(27,5,6,28)            0.2129         calculate D2E/DX2 analytically  !
 ! D41   D(3,7,8,9)             12.075          calculate D2E/DX2 analytically  !
 ! D42   D(3,7,8,11)          -169.5637         calculate D2E/DX2 analytically  !
 ! D43   D(23,7,8,9)          -165.6683         calculate D2E/DX2 analytically  !
 ! D44   D(23,7,8,11)           12.693          calculate D2E/DX2 analytically  !
 ! D45   D(3,7,23,22)            3.0482         calculate D2E/DX2 analytically  !
 ! D46   D(3,7,23,35)         -135.7594         calculate D2E/DX2 analytically  !
 ! D47   D(8,7,23,22)         -179.0433         calculate D2E/DX2 analytically  !
 ! D48   D(8,7,23,35)           42.1491         calculate D2E/DX2 analytically  !
 ! D49   D(7,8,9,10)           -11.1728         calculate D2E/DX2 analytically  !
 ! D50   D(7,8,9,14)           164.9823         calculate D2E/DX2 analytically  !
 ! D51   D(11,8,9,10)          170.3619         calculate D2E/DX2 analytically  !
 ! D52   D(11,8,9,14)          -13.483          calculate D2E/DX2 analytically  !
 ! D53   D(7,8,11,12)         -159.3017         calculate D2E/DX2 analytically  !
 ! D54   D(7,8,11,15)           24.6354         calculate D2E/DX2 analytically  !
 ! D55   D(9,8,11,12)           19.0243         calculate D2E/DX2 analytically  !
 ! D56   D(9,8,11,15)         -157.0386         calculate D2E/DX2 analytically  !
 ! D57   D(8,9,10,4)             2.894          calculate D2E/DX2 analytically  !
 ! D58   D(8,9,10,29)         -179.2489         calculate D2E/DX2 analytically  !
 ! D59   D(14,9,10,4)         -173.1712         calculate D2E/DX2 analytically  !
 ! D60   D(14,9,10,29)           4.6859         calculate D2E/DX2 analytically  !
 ! D61   D(8,9,14,13)            0.0959         calculate D2E/DX2 analytically  !
 ! D62   D(8,9,14,30)         -176.9823         calculate D2E/DX2 analytically  !
 ! D63   D(10,9,14,13)         176.343          calculate D2E/DX2 analytically  !
 ! D64   D(10,9,14,30)          -0.7352         calculate D2E/DX2 analytically  !
 ! D65   D(8,11,12,13)         -11.1462         calculate D2E/DX2 analytically  !
 ! D66   D(8,11,12,18)         172.9046         calculate D2E/DX2 analytically  !
 ! D67   D(15,11,12,13)        165.0745         calculate D2E/DX2 analytically  !
 ! D68   D(15,11,12,18)        -10.8747         calculate D2E/DX2 analytically  !
 ! D69   D(8,11,15,16)        -172.6997         calculate D2E/DX2 analytically  !
 ! D70   D(8,11,15,36)          16.7286         calculate D2E/DX2 analytically  !
 ! D71   D(12,11,15,16)         11.215          calculate D2E/DX2 analytically  !
 ! D72   D(12,11,15,36)       -159.3566         calculate D2E/DX2 analytically  !
 ! D73   D(11,12,13,14)         -2.3687         calculate D2E/DX2 analytically  !
 ! D74   D(11,12,13,31)       -178.5134         calculate D2E/DX2 analytically  !
 ! D75   D(18,12,13,14)        173.485          calculate D2E/DX2 analytically  !
 ! D76   D(18,12,13,31)         -2.6597         calculate D2E/DX2 analytically  !
 ! D77   D(11,12,18,17)          3.1904         calculate D2E/DX2 analytically  !
 ! D78   D(11,12,18,32)       -178.2674         calculate D2E/DX2 analytically  !
 ! D79   D(13,12,18,17)       -172.642          calculate D2E/DX2 analytically  !
 ! D80   D(13,12,18,32)          5.9002         calculate D2E/DX2 analytically  !
 ! D81   D(12,13,14,9)           8.0276         calculate D2E/DX2 analytically  !
 ! D82   D(12,13,14,30)       -174.9552         calculate D2E/DX2 analytically  !
 ! D83   D(31,13,14,9)        -175.9074         calculate D2E/DX2 analytically  !
 ! D84   D(31,13,14,30)          1.1098         calculate D2E/DX2 analytically  !
 ! D85   D(11,15,16,17)         -3.827          calculate D2E/DX2 analytically  !
 ! D86   D(11,15,16,33)        179.9093         calculate D2E/DX2 analytically  !
 ! D87   D(36,15,16,17)        166.4656         calculate D2E/DX2 analytically  !
 ! D88   D(36,15,16,33)         -9.798          calculate D2E/DX2 analytically  !
 ! D89   D(11,15,36,37)        -97.5137         calculate D2E/DX2 analytically  !
 ! D90   D(11,15,36,39)         59.5144         calculate D2E/DX2 analytically  !
 ! D91   D(16,15,36,37)         92.0571         calculate D2E/DX2 analytically  !
 ! D92   D(16,15,36,39)       -110.9148         calculate D2E/DX2 analytically  !
 ! D93   D(15,16,17,18)         -4.0812         calculate D2E/DX2 analytically  !
 ! D94   D(15,16,17,34)        179.907          calculate D2E/DX2 analytically  !
 ! D95   D(33,16,17,18)        172.1502         calculate D2E/DX2 analytically  !
 ! D96   D(33,16,17,34)         -3.8616         calculate D2E/DX2 analytically  !
 ! D97   D(16,17,18,12)          4.3849         calculate D2E/DX2 analytically  !
 ! D98   D(16,17,18,32)       -174.1374         calculate D2E/DX2 analytically  !
 ! D99   D(34,17,18,12)       -179.624          calculate D2E/DX2 analytically  !
 ! D100  D(34,17,18,32)          1.8538         calculate D2E/DX2 analytically  !
 ! D101  D(1,19,20,21)           0.1053         calculate D2E/DX2 analytically  !
 ! D102  D(1,19,20,25)         179.3524         calculate D2E/DX2 analytically  !
 ! D103  D(26,19,20,21)       -178.9283         calculate D2E/DX2 analytically  !
 ! D104  D(26,19,20,25)          0.3187         calculate D2E/DX2 analytically  !
 ! D105  D(19,20,21,22)         -1.3728         calculate D2E/DX2 analytically  !
 ! D106  D(19,20,21,24)        178.3688         calculate D2E/DX2 analytically  !
 ! D107  D(25,20,21,22)        179.3782         calculate D2E/DX2 analytically  !
 ! D108  D(25,20,21,24)         -0.8802         calculate D2E/DX2 analytically  !
 ! D109  D(20,21,22,2)           0.7179         calculate D2E/DX2 analytically  !
 ! D110  D(20,21,22,23)        176.9808         calculate D2E/DX2 analytically  !
 ! D111  D(24,21,22,2)        -179.0164         calculate D2E/DX2 analytically  !
 ! D112  D(24,21,22,23)         -2.7535         calculate D2E/DX2 analytically  !
 ! D113  D(2,22,23,7)           -1.4895         calculate D2E/DX2 analytically  !
 ! D114  D(2,22,23,35)         136.7971         calculate D2E/DX2 analytically  !
 ! D115  D(21,22,23,7)        -178.0016         calculate D2E/DX2 analytically  !
 ! D116  D(21,22,23,35)        -39.715          calculate D2E/DX2 analytically  !
 ! D117  D(15,36,37,38)       -165.4053         calculate D2E/DX2 analytically  !
 ! D118  D(39,36,37,38)         38.1796         calculate D2E/DX2 analytically  !
 --------------------------------------------------------------------------------
 Trust Radius=3.00D-01 FncErr=1.00D-07 GrdErr=1.00D-06 EigMax=2.50D+02 EigMin=1.00D-04
 Number of steps in this run=    234 maximum allowed number of steps=    234.
 Search for a saddle point of order  1.
 GradGradGradGradGradGradGradGradGradGradGradGradGradGradGradGradGradGrad

                          Input orientation:                          
 ---------------------------------------------------------------------
 Center     Atomic      Atomic             Coordinates (Angstroms)
 Number     Number       Type             X           Y           Z
 ---------------------------------------------------------------------
      1          6           0        3.784934    0.351666    0.076462
      2          6           0        2.489317   -0.139285   -0.053152
      3          6           0        1.348318    0.674484    0.059903
      4          6           0        1.426063    2.054981    0.271152
      5          6           0        3.879734    1.772233    0.348182
      6          6           0        2.768638    2.576171    0.431804
      7          6           0        0.189481   -0.084483   -0.153467
      8          6           0       -1.048718    0.573248   -0.035498
      9          6           0       -1.006643    2.020631    0.027613
     10          6           0        0.197449    2.732136    0.206371
     11          6           0       -2.341215   -0.090384   -0.008259
     12          6           0       -3.507793    0.657116   -0.329395
     13          6           0       -3.408419    2.088631   -0.433006
     14          6           0       -2.239999    2.733842   -0.184176
     15          6           0       -2.496239   -1.445578    0.408368
     16          6           0       -3.727378   -2.072826    0.270196
     17          6           0       -4.843805   -1.364676   -0.201252
     18          6           0       -4.743907   -0.009202   -0.452773
     19          6           0        4.810666   -0.602879   -0.126207
     20          6           0        4.476609   -1.914093   -0.465201
     21          6           0        3.142500   -2.360241   -0.625217
     22          6           0        2.111813   -1.453500   -0.406761
     23          6           0        0.633748   -1.460081   -0.506348
     24          1           0        2.955026   -3.388362   -0.916022
     25          1           0        5.278112   -2.626836   -0.626406
     26          1           0        5.854571   -0.321495   -0.036063
     27          1           0        4.862148    2.218209    0.466576
     28          1           0        2.899365    3.638615    0.610756
     29          1           0        0.156800    3.815731    0.257221
     30          1           0       -2.206118    3.818382   -0.187864
     31          1           0       -4.309161    2.651519   -0.654240
     32          1           0       -5.624108    0.563405   -0.725835
     33          1           0       -3.833713   -3.103515    0.588724
     34          1           0       -5.797086   -1.870452   -0.304422
     35          1           0        0.149055   -1.971829   -1.331497
     36          6           0       -1.390377   -2.079008    1.174104
     37          6           0       -0.427662   -2.875817    0.653016
     38          1           0        0.305015   -3.556059    1.065138
     39          1           0       -1.152600   -1.565832    2.115184
 ---------------------------------------------------------------------
                    Distance matrix (angstroms):
                    1          2          3          4          5
     1  C    0.000000
     2  C    1.391566   0.000000
     3  C    2.457963   1.406016   0.000000
     4  C    2.916069   2.459773   1.398729   0.000000
     5  C    1.449424   2.397547   2.774207   2.471109   0.000000
     6  C    2.471345   2.772527   2.402506   1.449122   1.373988
     7  C    3.629101   2.302675   1.401592   2.507338   4.161372
     8  C    4.840023   3.609114   2.401069   2.900708   5.086690
     9  C    5.074154   4.110170   2.712747   2.445107   4.903177
    10  C    4.307385   3.683079   2.362178   1.404360   3.807985
    11  C    6.142661   4.830988   3.768597   4.344312   6.503584
    12  C    7.310396   6.056063   4.871721   5.163102   7.501877
    13  C    7.417610   6.315947   4.986915   4.885610   7.336725
    14  C    6.484020   5.535202   4.144460   3.756087   6.217655
    15  C    6.541665   5.174473   4.404170   5.259011   7.142196
    16  C    7.896235   6.518468   5.775346   6.602783   8.524008
    17  C    8.802164   7.436276   6.524474   7.157406   9.286668
    18  C    8.552862   7.245423   6.151867   6.546255   8.842071
    19  C    1.415753   2.368315   3.695152   4.321765   2.594771
    20  C    2.430119   2.696119   4.094224   5.059802   3.821891
    21  C    2.873937   2.384649   3.591383   4.821184   4.309102
    22  C    2.508279   1.412342   2.308466   3.638579   3.755108
    23  C    3.681313   2.322289   2.321124   3.686181   4.659882
    24  H    3.957472   3.393808   4.476679   5.777291   5.393055
    25  H    3.405155   3.780728   5.178128   6.128891   4.717742
    26  H    2.179267   3.370227   4.616005   5.035246   2.903674
    27  H    2.190105   3.385000   3.859465   3.445506   1.085380
    28  H    3.445829   3.857647   3.390466   2.189485   2.124488
    29  H    5.019539   4.602078   3.365425   2.170591   4.247870
    30  H    6.926810   6.142344   4.751789   4.063621   6.442955
    31  H    8.446160   7.373547   6.035374   5.839949   8.296746
    32  H    9.445559   8.171532   7.017439   7.274867   9.640425
    33  H    8.381197   7.012801   6.434778   7.374020   9.128420
    34  H    9.843678   8.469035   7.593828   8.241007  10.360304
    35  H    4.538788   3.235616   3.221366   4.518233   5.545925
    36  C    5.822099   4.507850   4.040249   5.083062   6.579383
    37  C    5.338073   4.061533   4.013792   5.281561   6.344364
    38  H    5.325188   4.206672   4.471742   5.776758   6.456263
    39  H    5.675599   4.472167   3.936723   4.812509   6.292008
                    6          7          8          9         10
     6  C    0.000000
     7  C    3.751489   0.000000
     8  C    4.336159   1.407005   0.000000
     9  C    3.837283   2.427964   1.449369   0.000000
    10  C    2.585761   2.839523   2.504442   1.409976   0.000000
    11  C    5.780551   2.534865   1.453168   2.497750   3.802302
    12  C    6.607252   3.775017   2.477995   2.870954   4.280370
    13  C    6.256327   4.212535   2.832417   2.446492   3.718223
    14  C    5.048835   3.721058   2.471724   1.440379   2.468539
    15  C    6.625250   3.062896   2.523488   3.791896   4.974942
    16  C    7.989838   4.413024   3.777615   4.921142   6.204515
    17  C    8.595366   5.193760   4.264471   5.122157   6.508784
    18  C    7.994058   4.943032   3.764012   4.279969   5.689148
    19  C    3.819373   4.650250   5.976946   6.383381   5.702167
    20  C    4.887152   4.671629   6.074599   6.766903   6.352138
    21  C    5.062137   3.757917   5.149702   6.069070   5.941142
    22  C    4.168076   2.373547   3.772864   4.688607   4.643304
    23  C    4.661461   1.488008   2.680824   3.884759   4.274694
    24  H    6.117763   4.375539   5.700846   6.770707   6.806210
    25  H    5.872695   5.708012   7.114667   7.843777   7.431368
    26  H    4.258914   5.671261   6.961032   7.250232   6.433231
    27  H    2.124177   5.246014   6.155998   5.888500   4.700132
    28  H    1.085311   4.667865   5.039988   4.267883   2.878469
    29  H    2.896323   3.921913   3.471693   2.151442   1.085549
    30  H    5.164811   4.579567   3.448722   2.171884   2.666924
    31  H    7.161034   5.289070   3.915679   3.430680   4.588756
    32  H    8.708016   5.877515   4.627187   4.900222   6.281953
    33  H    8.710597   5.084436   4.654507   5.879119   7.102907
    34  H    9.679159   6.249117   5.347054   6.180544   7.574904
    35  H    5.536763   2.225189   3.097045   4.372934   4.949209
    36  C    6.286422   2.869935   2.935018   4.274194   5.157985
    37  C    6.323721   2.970324   3.571528   4.970065   5.660335
    38  H    6.638885   3.681058   4.482764   5.822059   6.347476
    39  H    5.946937   3.023633   3.035109   4.152345   4.892722
                   11         12         13         14         15
    11  C    0.000000
    12  C    1.422248   0.000000
    13  C    2.463218   1.438696   0.000000
    14  C    2.831509   2.437454   1.357726   0.000000
    15  C    1.426240   2.447214   3.745746   4.228986   0.000000
    16  C    2.434966   2.803624   4.232488   5.052010   1.388609
    17  C    2.814964   2.426724   3.746915   4.855713   2.426777
    18  C    2.444813   1.409674   2.486930   3.723706   2.802990
    19  C    7.171190   8.415797   8.654000   7.800573   7.374739
    20  C    7.072301   8.389293   8.842879   8.172827   7.042957
    21  C    5.966910   7.308786   7.921108   7.423981   5.805195
    22  C    4.674008   6.003387   6.558989   6.043314   4.679598
    23  C    3.312788   4.654696   5.379391   5.094233   3.260941
    24  H    6.304828   7.647094   8.409767   8.062584   5.936725
    25  H    8.054181   9.384278   9.885790   9.244156   7.931372
    26  H    8.199091   9.417939   9.579627   8.653270   8.437838
    27  H    7.579150   8.551403   8.320356   7.150514   8.220254
    28  H    6.461601   7.129158   6.578756   5.278598   7.416369
    29  H    4.644168   4.873419   4.021203   2.666451   5.894305
    30  H    3.915222   3.421694   2.120769   1.085075   5.305557
    31  H    3.436297   2.173789   1.084953   2.123480   4.604566
    32  H    3.423411   2.155165   2.705798   4.056647   3.886643
    33  H    3.415098   3.884780   5.308784   6.100167   2.137784
    34  H    3.898641   3.410291   4.625646   5.819523   3.403554
    35  H    3.390020   4.613903   5.472681   5.400673   3.209618
    36  C    2.501340   3.772312   4.901480   5.072505   1.486780
    37  C    3.443488   4.788941   5.891528   5.954303   2.526746
    38  H    4.490614   5.850903   6.920734   6.899329   3.568263
    39  H    2.845832   4.057635   4.993705   4.995667   2.175557
                   16         17         18         19         20
    16  C    0.000000
    17  C    1.403620   0.000000
    18  C    2.411340   1.382227   0.000000
    19  C    8.672720   9.684770   9.578568   0.000000
    20  C    8.238411   9.340324   9.415237   1.394917   0.000000
    21  C    6.933945   8.059278   8.231193   2.473886   1.415804
    22  C    5.910836   6.959220   7.006355   2.843602   2.409942
    23  C    4.471901   5.486873   5.570197   4.280882   3.869806
    24  H    6.913195   8.088756   8.420623   3.438913   2.166085
    25  H    9.066955  10.209163  10.359682   2.136611   1.084618
    26  H    9.745496  10.750384  10.611263   1.084915   2.149257
    27  H    9.603723  10.367670   9.903679   2.883154   4.253560
    28  H    8.755014   9.254672   8.535647   4.710250   5.871793
    29  H    7.054226   7.214767   6.257087   6.428810   7.212040
    30  H    6.101670   5.815639   4.600103   8.293769   8.808917
    31  H    4.848968   4.076869   2.703522   9.697483   9.903045
    32  H    3.396966   2.145124   1.084986  10.516857  10.403385
    33  H    1.084014   2.160534   3.389387   9.027159   8.460906
    34  H    2.157506   1.084066   2.143699  10.684704  10.275046
    35  H    4.195516   5.155069   5.344636   5.005733   4.413788
    36  C    2.505726   3.785240   4.263448   6.505590   6.093935
    37  C    3.417524   4.745065   5.298134   5.763117   5.121249
    38  H    4.369451   5.737269   6.354200   5.517379   4.737107
    39  H    3.207882   4.362492   4.681344   6.442954   6.202231
                   21         22         23         24         25
    21  C    0.000000
    22  C    1.390042   0.000000
    23  C    2.668006   1.481431   0.000000
    24  H    1.084780   2.171185   3.045395   0.000000
    25  H    2.152188   3.383846   4.790182   2.461814   0.000000
    26  H    3.443678   3.927733   5.364190   4.311306   2.448552
    27  H    5.011128   4.669958   5.688213   6.081310   4.984185
    28  H    6.129683   5.252163   5.690136   7.191144   6.815048
    29  H    6.916338   5.659306   5.352075   7.817002   8.277397
    30  H    8.183787   6.818004   6.002370   8.894087   9.886701
    31  H    8.980302   7.625046   6.431133   9.450773  10.944296
    32  H    9.241820   8.000887   6.580534   9.447443  11.359838
    33  H    7.119948   6.250026   4.884492   6.959337   9.204842
    34  H    8.958739   7.920543   6.447077   8.903795  11.105665
    35  H    3.100066   2.230744   1.085212   3.170593   5.218564
    36  C    4.885041   3.893036   2.702605   4.996555   6.928975
    37  C    3.826977   3.097587   2.115425   3.763929   5.852757
    38  H    3.512635   3.138751   2.640219   3.312956   5.334461
    39  H    5.156430   4.126647   3.174059   5.420555   7.070792
                   26         27         28         29         30
    26  H    0.000000
    27  H    2.772660   0.000000
    28  H    4.983381   2.427109   0.000000
    29  H    7.047499   4.973551   2.770924   0.000000
    30  H    9.062910   7.276622   5.170693   2.404473   0.000000
    31  H   10.607658   9.249697   7.384946   4.704355   2.449871
    32  H   11.533382  10.682780   9.159311   6.705440   4.750468
    33  H   10.099151  10.195767   9.528439   7.994376   7.152958
    34  H   11.757227  11.442502  10.335165   8.252083   6.728408
    35  H    6.079035   6.557647   6.543213   6.001661   6.354627
    36  C    7.552657   7.619760   7.170109   6.162985   6.107340
    37  C    6.816586   7.346152   7.314965   6.728675   6.977269
    38  H    6.517102   7.380238   7.661622   7.417411   7.890385
    39  H    7.434829   7.294797   6.765205   5.841898   5.950100
                   31         32         33         34         35
    31  H    0.000000
    32  H    2.468690   0.000000
    33  H    5.906897   4.287176   0.000000
    34  H    4.773313   2.476120   2.484550   0.000000
    35  H    6.458306   6.334323   4.564034   6.035044   0.000000
    36  C    5.851498   5.340093   2.713333   4.652808   2.942682
    37  C    6.879418   6.382204   3.414259   5.546004   2.255679
    38  H    7.923440   7.438553   4.190565   6.477083   2.877146
    39  H    5.951440   5.709590   3.447161   5.245811   3.706582
                   36         37         38         39
    36  C    0.000000
    37  C    1.353978   0.000000
    38  H    2.251201   1.081383   0.000000
    39  H    1.097961   2.092733   2.681090   0.000000
 Stoichiometry    C25H14(3)
 Framework group  C1[X(C25H14)]
 Deg. of freedom   111
 Full point group                 C1      NOp   1
 Largest Abelian subgroup         C1      NOp   1
 Largest concise Abelian subgroup C1      NOp   1
                         Standard orientation:                         
 ---------------------------------------------------------------------
 Center     Atomic      Atomic             Coordinates (Angstroms)
 Number     Number       Type             X           Y           Z
 ---------------------------------------------------------------------
      1          6           0        3.784934    0.351666    0.076462
      2          6           0        2.489317   -0.139285   -0.053152
      3          6           0        1.348318    0.674484    0.059903
      4          6           0        1.426063    2.054981    0.271152
      5          6           0        3.879734    1.772233    0.348182
      6          6           0        2.768638    2.576171    0.431804
      7          6           0        0.189481   -0.084483   -0.153467
      8          6           0       -1.048718    0.573248   -0.035498
      9          6           0       -1.006643    2.020631    0.027613
     10          6           0        0.197449    2.732136    0.206371
     11          6           0       -2.341215   -0.090384   -0.008259
     12          6           0       -3.507793    0.657116   -0.329395
     13          6           0       -3.408419    2.088631   -0.433006
     14          6           0       -2.239999    2.733842   -0.184176
     15          6           0       -2.496239   -1.445578    0.408368
     16          6           0       -3.727378   -2.072826    0.270196
     17          6           0       -4.843805   -1.364676   -0.201252
     18          6           0       -4.743907   -0.009202   -0.452773
     19          6           0        4.810666   -0.602879   -0.126207
     20          6           0        4.476609   -1.914093   -0.465201
     21          6           0        3.142500   -2.360241   -0.625217
     22          6           0        2.111813   -1.453500   -0.406761
     23          6           0        0.633748   -1.460081   -0.506348
     24          1           0        2.955026   -3.388362   -0.916022
     25          1           0        5.278112   -2.626836   -0.626406
     26          1           0        5.854571   -0.321495   -0.036063
     27          1           0        4.862148    2.218209    0.466576
     28          1           0        2.899365    3.638615    0.610756
     29          1           0        0.156800    3.815731    0.257221
     30          1           0       -2.206118    3.818382   -0.187864
     31          1           0       -4.309161    2.651519   -0.654240
     32          1           0       -5.624108    0.563405   -0.725835
     33          1           0       -3.833713   -3.103515    0.588724
     34          1           0       -5.797086   -1.870452   -0.304422
     35          1           0        0.149055   -1.971829   -1.331497
     36          6           0       -1.390377   -2.079008    1.174104
     37          6           0       -0.427662   -2.875817    0.653016
     38          1           0        0.305015   -3.556059    1.065138
     39          1           0       -1.152600   -1.565832    2.115184
 ---------------------------------------------------------------------
 Rotational constants (GHZ):           0.4823882           0.1812940           0.1360494
 Standard basis: 6-311+G(d,p) (5D, 7F)
 There are   659 symmetry adapted cartesian basis functions of A   symmetry.
 There are   634 symmetry adapted basis functions of A   symmetry.
   634 basis functions,  1012 primitive gaussians,   659 cartesian basis functions
    83 alpha electrons       81 beta electrons
       nuclear repulsion energy      1938.2426031206 Hartrees.
 NAtoms=   39 NActive=   39 NUniq=   39 SFac= 1.00D+00 NAtFMM=   60 NAOKFM=F Big=F
 Integral buffers will be    131072 words long.
 Raffenetti 2 integral format.
 Two-electron integral symmetry is turned on.
 One-electron integrals computed using PRISM.
 NBasis=   634 RedAO= T EigKep=  1.04D-06  NBF=   634
 NBsUse=   620 1.00D-06 EigRej=  8.41D-07 NBFU=   620
 ExpMin= 4.38D-02 ExpMax= 4.56D+03 ExpMxC= 6.82D+02 IAcc=2 IRadAn=         4 AccDes= 0.00D+00
 Harris functional with IExCor=  402 and IRadAn=       4 diagonalized for initial guess.
 HarFok:  IExCor=  402 AccDes= 0.00D+00 IRadAn=         4 IDoV= 1 UseB2=F ITyADJ=14
 ICtDFT=  3500011 ScaDFX=  1.000000  1.000000  1.000000  1.000000
 FoFCou: FMM=F IPFlag=           0 FMFlag=      100000 FMFlg1=           0
         NFxFlg=           0 DoJE=T BraDBF=F KetDBF=T FulRan=T
         wScrn=  0.000000 ICntrl=       500 IOpCl=  0 I1Cent=   200000004 NGrid=           0
         NMat0=    1 NMatS0=      1 NMatT0=    0 NMatD0=    1 NMtDS0=    0 NMtDT0=    0
 Petite list used in FoFCou.
 Initial guess <Sx>= 0.0000 <Sy>= 0.0000 <Sz>= 1.0000 <S**2>= 2.0000 S= 1.0000
 Requested convergence on RMS density matrix=1.00D-08 within 128 cycles.
 Requested convergence on MAX density matrix=1.00D-06.
 Requested convergence on             energy=1.00D-06.
 No special actions if energy rises.
 Restarting incremental Fock formation.
 SCF Done:  E(UB3LYP) =  -961.177841469     A.U. after   23 cycles
            NFock= 23  Conv=0.85D-08     -V/T= 2.0045
 <Sx>= 0.0000 <Sy>= 0.0000 <Sz>= 1.0000 <S**2>= 2.0168 S= 1.0056
 <L.S>=  0.00000000000    
 Annihilation of the first spin contaminant:
 S**2 before annihilation     2.0168,   after     2.0001
 DoSCS=F DFT=T ScalE2(SS,OS)=  1.000000  1.000000
 Range of M.O.s used for correlation:     1   620
 NBasis=   634 NAE=    83 NBE=    81 NFC=     0 NFV=     0
 NROrb=    620 NOA=    83 NOB=    81 NVA=   537 NVB=   539

 **** Warning!!: The largest alpha MO coefficient is  0.15009142D+03


 **** Warning!!: The largest beta MO coefficient is  0.15397828D+03


 **** Warning!!: The smallest beta delta epsilon is  0.85318441D-01

 Symmetrizing basis deriv contribution to polar:
 IMax=3 JMax=2 DiffMx= 0.00D+00
 G2DrvN: will do    40 centers at a time, making    1 passes.
 Calling FoFCou, ICntrl=  3107 FMM=F I1Cent=   0 AccDes= 0.00D+00.
 End of G2Drv F.D. properties file   721 does not exist.
 End of G2Drv F.D. properties file   722 does not exist.
 End of G2Drv F.D. properties file   788 does not exist.
          IDoAtm=111111111111111111111111111111111111111
          Differentiating once with respect to nuclear coordinates.
 CalDSu exits because no D1Ps are significant.
          There are   120 degrees of freedom in the 1st order CPHF.  IDoFFX=6 NUNeed=     0.
    114 vectors produced by pass  0 Test12= 8.82D-14 1.00D-09 XBig12= 5.64D-01 1.25D-01.
 AX will form   114 AO Fock derivatives at one time.
    114 vectors produced by pass  1 Test12= 8.82D-14 1.00D-09 XBig12= 1.29D-01 3.76D-02.
    114 vectors produced by pass  2 Test12= 8.82D-14 1.00D-09 XBig12= 1.97D-03 9.82D-03.
    114 vectors produced by pass  3 Test12= 8.82D-14 1.00D-09 XBig12= 3.35D-05 9.08D-04.
    114 vectors produced by pass  4 Test12= 8.82D-14 1.00D-09 XBig12= 3.94D-07 4.92D-05.
    114 vectors produced by pass  5 Test12= 8.82D-14 1.00D-09 XBig12= 2.88D-09 5.94D-06.
    114 vectors produced by pass  6 Test12= 8.82D-14 1.00D-09 XBig12= 7.81D-11 8.57D-07.
     99 vectors produced by pass  7 Test12= 8.82D-14 1.00D-09 XBig12= 2.31D-11 2.62D-07.
     71 vectors produced by pass  8 Test12= 8.82D-14 1.00D-09 XBig12= 2.32D-12 8.36D-08.
     28 vectors produced by pass  9 Test12= 8.82D-14 1.00D-09 XBig12= 4.63D-14 9.50D-09.
      2 vectors produced by pass 10 Test12= 8.82D-14 1.00D-09 XBig12= 5.19D-16 1.23D-09.
      2 vectors produced by pass 11 Test12= 8.82D-14 1.00D-09 XBig12= 9.60D-16 1.76D-09.
      2 vectors produced by pass 12 Test12= 8.82D-14 1.00D-09 XBig12= 7.30D-16 1.24D-09.
      2 vectors produced by pass 13 Test12= 8.82D-14 1.00D-09 XBig12= 1.14D-15 1.99D-09.
      2 vectors produced by pass 14 Test12= 8.82D-14 1.00D-09 XBig12= 9.27D-16 1.68D-09.
      2 vectors produced by pass 15 Test12= 8.82D-14 1.00D-09 XBig12= 7.14D-16 1.75D-09.
      1 vectors produced by pass 16 Test12= 8.82D-14 1.00D-09 XBig12= 5.79D-16 1.06D-09.
 InvSVY:  IOpt=1 It=  1 EMax= 9.99D-16
 Solved reduced A of dimension  1009 with   120 vectors.
 End of Minotr F.D. properties file   721 does not exist.
 End of Minotr F.D. properties file   722 does not exist.
 End of Minotr F.D. properties file   788 does not exist.

 **********************************************************************

            Population analysis using the SCF Density.

 **********************************************************************

 Orbital symmetries:
 Alpha Orbitals:
       Occupied  (A) (A) (A) (A) (A) (A) (A) (A) (A) (A) (A) (A)
                 (A) (A) (A) (A) (A) (A) (A) (A) (A) (A) (A) (A)
                 (A) (A) (A) (A) (A) (A) (A) (A) (A) (A) (A) (A)
                 (A) (A) (A) (A) (A) (A) (A) (A) (A) (A) (A) (A)
                 (A) (A) (A) (A) (A) (A) (A) (A) (A) (A) (A) (A)
                 (A) (A) (A) (A) (A) (A) (A) (A) (A) (A) (A) (A)
                 (A) (A) (A) (A) (A) (A) (A) (A) (A) (A) (A)
       Virtual   (A) (A) (A) (A) (A) (A) (A) (A) (A) (A) (A) (A)
                 (A) (A) (A) (A) (A) (A) (A) (A) (A) (A) (A) (A)
                 (A) (A) (A) (A) (A) (A) (A) (A) (A) (A) (A) (A)
                 (A) (A) (A) (A) (A) (A) (A) (A) (A) (A) (A) (A)
                 (A) (A) (A) (A) (A) (A) (A) (A) (A) (A) (A) (A)
                 (A) (A) (A) (A) (A) (A) (A) (A) (A) (A) (A) (A)
                 (A) (A) (A) (A) (A) (A) (A) (A) (A) (A) (A) (A)
                 (A) (A) (A) (A) (A) (A) (A) (A) (A) (A) (A) (A)
                 (A) (A) (A) (A) (A) (A) (A) (A) (A) (A) (A) (A)
                 (A) (A) (A) (A) (A) (A) (A) (A) (A) (A) (A) (A)
                 (A) (A) (A) (A) (A) (A) (A) (A) (A) (A) (A) (A)
                 (A) (A) (A) (A) (A) (A) (A) (A) (A) (A) (A) (A)
                 (A) (A) (A) (A) (A) (A) (A) (A) (A) (A) (A) (A)
                 (A) (A) (A) (A) (A) (A) (A) (A) (A) (A) (A) (A)
                 (A) (A) (A) (A) (A) (A) (A) (A) (A) (A) (A) (A)
                 (A) (A) (A) (A) (A) (A) (A) (A) (A) (A) (A) (A)
                 (A) (A) (A) (A) (A) (A) (A) (A) (A) (A) (A) (A)
                 (A) (A) (A) (A) (A) (A) (A) (A) (A) (A) (A) (A)
                 (A) (A) (A) (A) (A) (A) (A) (A) (A) (A) (A) (A)
                 (A) (A) (A) (A) (A) (A) (A) (A) (A) (A) (A) (A)
                 (A) (A) (A) (A) (A) (A) (A) (A) (A) (A) (A) (A)
                 (A) (A) (A) (A) (A) (A) (A) (A) (A) (A) (A) (A)
                 (A) (A) (A) (A) (A) (A) (A) (A) (A) (A) (A) (A)
                 (A) (A) (A) (A) (A) (A) (A) (A) (A) (A) (A) (A)
                 (A) (A) (A) (A) (A) (A) (A) (A) (A) (A) (A) (A)
                 (A) (A) (A) (A) (A) (A) (A) (A) (A) (A) (A) (A)
                 (A) (A) (A) (A) (A) (A) (A) (A) (A) (A) (A) (A)
                 (A) (A) (A) (A) (A) (A) (A) (A) (A) (A) (A) (A)
                 (A) (A) (A) (A) (A) (A) (A) (A) (A) (A) (A) (A)
                 (A) (A) (A) (A) (A) (A) (A) (A) (A) (A) (A) (A)
                 (A) (A) (A) (A) (A) (A) (A) (A) (A) (A) (A) (A)
                 (A) (A) (A) (A) (A) (A) (A) (A) (A) (A) (A) (A)
                 (A) (A) (A) (A) (A) (A) (A) (A) (A) (A) (A) (A)
                 (A) (A) (A) (A) (A) (A) (A) (A) (A) (A) (A) (A)
                 (A) (A) (A) (A) (A) (A) (A) (A) (A) (A) (A) (A)
                 (A) (A) (A) (A) (A) (A) (A) (A) (A) (A) (A) (A)
                 (A) (A) (A) (A) (A) (A) (A) (A) (A) (A) (A) (A)
                 (A) (A) (A) (A) (A) (A) (A) (A) (A) (A) (A) (A)
                 (A) (A) (A) (A) (A) (A) (A) (A) (A) (A) (A) (A)
                 (A) (A) (A) (A) (A) (A) (A) (A) (A) (A) (A) (A)
                 (A) (A) (A) (A) (A) (A) (A) (A) (A) (A) (A) (A)
                 (A) (A) (A) (A) (A) (A) (A) (A) (A) (A) (A) (A)
                 (A) (A) (A) (A) (A) (A) (A) (A) (A) (A) (A) (A)
                 (A) (A) (A) (A) (A) (A) (A) (A) (A) (A) (A) (A)
                 (A) (A) (A) (A) (A) (A) (A) (A) (A)
 Beta  Orbitals:
       Occupied  (A) (A) (A) (A) (A) (A) (A) (A) (A) (A) (A) (A)
                 (A) (A) (A) (A) (A) (A) (A) (A) (A) (A) (A) (A)
                 (A) (A) (A) (A) (A) (A) (A) (A) (A) (A) (A) (A)
                 (A) (A) (A) (A) (A) (A) (A) (A) (A) (A) (A) (A)
                 (A) (A) (A) (A) (A) (A) (A) (A) (A) (A) (A) (A)
                 (A) (A) (A) (A) (A) (A) (A) (A) (A) (A) (A) (A)
                 (A) (A) (A) (A) (A) (A) (A) (A) (A)
       Virtual   (A) (A) (A) (A) (A) (A) (A) (A) (A) (A) (A) (A)
                 (A) (A) (A) (A) (A) (A) (A) (A) (A) (A) (A) (A)
                 (A) (A) (A) (A) (A) (A) (A) (A) (A) (A) (A) (A)
                 (A) (A) (A) (A) (A) (A) (A) (A) (A) (A) (A) (A)
                 (A) (A) (A) (A) (A) (A) (A) (A) (A) (A) (A) (A)
                 (A) (A) (A) (A) (A) (A) (A) (A) (A) (A) (A) (A)
                 (A) (A) (A) (A) (A) (A) (A) (A) (A) (A) (A) (A)
                 (A) (A) (A) (A) (A) (A) (A) (A) (A) (A) (A) (A)
                 (A) (A) (A) (A) (A) (A) (A) (A) (A) (A) (A) (A)
                 (A) (A) (A) (A) (A) (A) (A) (A) (A) (A) (A) (A)
                 (A) (A) (A) (A) (A) (A) (A) (A) (A) (A) (A) (A)
                 (A) (A) (A) (A) (A) (A) (A) (A) (A) (A) (A) (A)
                 (A) (A) (A) (A) (A) (A) (A) (A) (A) (A) (A) (A)
                 (A) (A) (A) (A) (A) (A) (A) (A) (A) (A) (A) (A)
                 (A) (A) (A) (A) (A) (A) (A) (A) (A) (A) (A) (A)
                 (A) (A) (A) (A) (A) (A) (A) (A) (A) (A) (A) (A)
                 (A) (A) (A) (A) (A) (A) (A) (A) (A) (A) (A) (A)
                 (A) (A) (A) (A) (A) (A) (A) (A) (A) (A) (A) (A)
                 (A) (A) (A) (A) (A) (A) (A) (A) (A) (A) (A) (A)
                 (A) (A) (A) (A) (A) (A) (A) (A) (A) (A) (A) (A)
                 (A) (A) (A) (A) (A) (A) (A) (A) (A) (A) (A) (A)
                 (A) (A) (A) (A) (A) (A) (A) (A) (A) (A) (A) (A)
                 (A) (A) (A) (A) (A) (A) (A) (A) (A) (A) (A) (A)
                 (A) (A) (A) (A) (A) (A) (A) (A) (A) (A) (A) (A)
                 (A) (A) (A) (A) (A) (A) (A) (A) (A) (A) (A) (A)
                 (A) (A) (A) (A) (A) (A) (A) (A) (A) (A) (A) (A)
                 (A) (A) (A) (A) (A) (A) (A) (A) (A) (A) (A) (A)
                 (A) (A) (A) (A) (A) (A) (A) (A) (A) (A) (A) (A)
                 (A) (A) (A) (A) (A) (A) (A) (A) (A) (A) (A) (A)
                 (A) (A) (A) (A) (A) (A) (A) (A) (A) (A) (A) (A)
                 (A) (A) (A) (A) (A) (A) (A) (A) (A) (A) (A) (A)
                 (A) (A) (A) (A) (A) (A) (A) (A) (A) (A) (A) (A)
                 (A) (A) (A) (A) (A) (A) (A) (A) (A) (A) (A) (A)
                 (A) (A) (A) (A) (A) (A) (A) (A) (A) (A) (A) (A)
                 (A) (A) (A) (A) (A) (A) (A) (A) (A) (A) (A) (A)
                 (A) (A) (A) (A) (A) (A) (A) (A) (A) (A) (A) (A)
                 (A) (A) (A) (A) (A) (A) (A) (A) (A) (A) (A) (A)
                 (A) (A) (A) (A) (A) (A) (A) (A) (A) (A) (A) (A)
                 (A) (A) (A) (A) (A) (A) (A) (A) (A) (A) (A) (A)
                 (A) (A) (A) (A) (A) (A) (A) (A) (A) (A) (A) (A)
                 (A) (A) (A) (A) (A) (A) (A) (A) (A) (A) (A) (A)
                 (A) (A) (A) (A) (A) (A) (A) (A) (A) (A) (A) (A)
                 (A) (A) (A) (A) (A) (A) (A) (A) (A) (A) (A) (A)
                 (A) (A) (A) (A) (A) (A) (A) (A) (A) (A) (A) (A)
                 (A) (A) (A) (A) (A) (A) (A) (A) (A) (A) (A)
 The electronic state is 3-A.
 Alpha  occ. eigenvalues --  -10.21670 -10.21052 -10.20002 -10.19804 -10.19720
 Alpha  occ. eigenvalues --  -10.19425 -10.19416 -10.19186 -10.18954 -10.18834
 Alpha  occ. eigenvalues --  -10.18751 -10.18702 -10.18684 -10.18632 -10.18621
 Alpha  occ. eigenvalues --  -10.18399 -10.18376 -10.18253 -10.18235 -10.18183
 Alpha  occ. eigenvalues --  -10.18167 -10.18125 -10.18067 -10.17270 -10.17163
 Alpha  occ. eigenvalues --   -0.91400  -0.88795  -0.85658  -0.83769  -0.82999
 Alpha  occ. eigenvalues --   -0.80913  -0.78802  -0.77333  -0.75205  -0.74189
 Alpha  occ. eigenvalues --   -0.73228  -0.71253  -0.69240  -0.64839  -0.64386
 Alpha  occ. eigenvalues --   -0.62834  -0.61625  -0.59236  -0.58768  -0.57891
 Alpha  occ. eigenvalues --   -0.55466  -0.52639  -0.51883  -0.51527  -0.50409
 Alpha  occ. eigenvalues --   -0.48509  -0.47959  -0.47508  -0.46540  -0.45791
 Alpha  occ. eigenvalues --   -0.44515  -0.43898  -0.43571  -0.43067  -0.42602
 Alpha  occ. eigenvalues --   -0.41787  -0.41242  -0.40650  -0.39686  -0.39597
 Alpha  occ. eigenvalues --   -0.37790  -0.37436  -0.36883  -0.36436  -0.35585
 Alpha  occ. eigenvalues --   -0.34577  -0.33826  -0.33431  -0.32924  -0.30232
 Alpha  occ. eigenvalues --   -0.28860  -0.28619  -0.25676  -0.25445  -0.24559
 Alpha  occ. eigenvalues --   -0.22104  -0.21020  -0.18167
 Alpha virt. eigenvalues --   -0.06711  -0.05941  -0.02858  -0.02195  -0.00918
 Alpha virt. eigenvalues --    0.00173   0.00607   0.00847   0.01054   0.01880
 Alpha virt. eigenvalues --    0.01900   0.02396   0.02603   0.03246   0.03507
 Alpha virt. eigenvalues --    0.03720   0.04178   0.04592   0.05179   0.05354
 Alpha virt. eigenvalues --    0.05652   0.06302   0.06529   0.06989   0.07237
 Alpha virt. eigenvalues --    0.07535   0.07801   0.07960   0.08390   0.08952
 Alpha virt. eigenvalues --    0.09463   0.10073   0.10329   0.10695   0.10901
 Alpha virt. eigenvalues --    0.11136   0.11702   0.11995   0.12296   0.12579
 Alpha virt. eigenvalues --    0.13030   0.13465   0.13830   0.14246   0.14382
 Alpha virt. eigenvalues --    0.14679   0.15276   0.15521   0.15765   0.15870
 Alpha virt. eigenvalues --    0.16345   0.16503   0.16677   0.17056   0.17370
 Alpha virt. eigenvalues --    0.17497   0.17971   0.18251   0.18475   0.18710
 Alpha virt. eigenvalues --    0.18870   0.18898   0.19255   0.19406   0.19615
 Alpha virt. eigenvalues --    0.19848   0.20190   0.20444   0.20909   0.20976
 Alpha virt. eigenvalues --    0.21221   0.21351   0.21814   0.21914   0.22136
 Alpha virt. eigenvalues --    0.22521   0.22713   0.22829   0.23208   0.23433
 Alpha virt. eigenvalues --    0.23512   0.24094   0.24397   0.24577   0.24716
 Alpha virt. eigenvalues --    0.24978   0.25433   0.25495   0.25803   0.25889
 Alpha virt. eigenvalues --    0.26056   0.26707   0.27009   0.27104   0.27201
 Alpha virt. eigenvalues --    0.27697   0.27771   0.27929   0.28744   0.28958
 Alpha virt. eigenvalues --    0.29218   0.29428   0.29687   0.30085   0.30366
 Alpha virt. eigenvalues --    0.30500   0.30933   0.31304   0.31584   0.32223
 Alpha virt. eigenvalues --    0.32749   0.33220   0.33354   0.33930   0.34119
 Alpha virt. eigenvalues --    0.34471   0.34966   0.35694   0.36506   0.36880
 Alpha virt. eigenvalues --    0.37208   0.38044   0.38800   0.39222   0.39766
 Alpha virt. eigenvalues --    0.40038   0.41130   0.41710   0.42799   0.42910
 Alpha virt. eigenvalues --    0.43998   0.44644   0.45713   0.46426   0.47603
 Alpha virt. eigenvalues --    0.48373   0.49091   0.49430   0.50417   0.51878
 Alpha virt. eigenvalues --    0.52163   0.52671   0.53040   0.53598   0.53704
 Alpha virt. eigenvalues --    0.54413   0.54816   0.55148   0.55235   0.55726
 Alpha virt. eigenvalues --    0.56232   0.56349   0.56908   0.57604   0.57667
 Alpha virt. eigenvalues --    0.58357   0.58852   0.59002   0.59319   0.59755
 Alpha virt. eigenvalues --    0.60311   0.60819   0.61190   0.61906   0.62582
 Alpha virt. eigenvalues --    0.62859   0.63657   0.63927   0.64734   0.65134
 Alpha virt. eigenvalues --    0.65268   0.65818   0.66335   0.66999   0.67161
 Alpha virt. eigenvalues --    0.67411   0.68373   0.68581   0.69062   0.69784
 Alpha virt. eigenvalues --    0.69981   0.70459   0.70629   0.70804   0.71240
 Alpha virt. eigenvalues --    0.71849   0.72234   0.72247   0.72778   0.73274
 Alpha virt. eigenvalues --    0.73733   0.73832   0.74424   0.74912   0.75087
 Alpha virt. eigenvalues --    0.75736   0.76129   0.76725   0.77151   0.77521
 Alpha virt. eigenvalues --    0.77906   0.79660   0.80265   0.81070   0.81795
 Alpha virt. eigenvalues --    0.82353   0.83039   0.83935   0.84450   0.85130
 Alpha virt. eigenvalues --    0.85644   0.85927   0.86523   0.86995   0.88072
 Alpha virt. eigenvalues --    0.89075   0.89649   0.90172   0.90471   0.91451
 Alpha virt. eigenvalues --    0.92144   0.92471   0.93151   0.93487   0.94104
 Alpha virt. eigenvalues --    0.94206   0.94851   0.95291   0.95987   0.96763
 Alpha virt. eigenvalues --    0.96938   0.97170   0.97616   0.98217   0.99064
 Alpha virt. eigenvalues --    1.00032   1.00267   1.00692   1.02344   1.02930
 Alpha virt. eigenvalues --    1.03727   1.04120   1.05067   1.05788   1.06073
 Alpha virt. eigenvalues --    1.06732   1.07399   1.08341   1.09134   1.09792
 Alpha virt. eigenvalues --    1.10174   1.11233   1.12197   1.12360   1.13539
 Alpha virt. eigenvalues --    1.14564   1.15799   1.16297   1.17127   1.17673
 Alpha virt. eigenvalues --    1.19022   1.19989   1.21944   1.22782   1.25310
 Alpha virt. eigenvalues --    1.26960   1.28744   1.30310   1.30966   1.32232
 Alpha virt. eigenvalues --    1.33363   1.35444   1.36489   1.38630   1.40620
 Alpha virt. eigenvalues --    1.41026   1.42101   1.44525   1.45452   1.46219
 Alpha virt. eigenvalues --    1.47241   1.47497   1.47942   1.48445   1.50216
 Alpha virt. eigenvalues --    1.50464   1.51452   1.52062   1.52529   1.52869
 Alpha virt. eigenvalues --    1.53803   1.54588   1.55191   1.55816   1.56194
 Alpha virt. eigenvalues --    1.56472   1.57203   1.57925   1.59103   1.59178
 Alpha virt. eigenvalues --    1.60661   1.61125   1.62629   1.63392   1.64889
 Alpha virt. eigenvalues --    1.65271   1.65758   1.66364   1.67582   1.68851
 Alpha virt. eigenvalues --    1.69997   1.70326   1.71137   1.71932   1.72633
 Alpha virt. eigenvalues --    1.73336   1.74151   1.75107   1.75384   1.76163
 Alpha virt. eigenvalues --    1.76281   1.76972   1.78962   1.79301   1.80882
 Alpha virt. eigenvalues --    1.81499   1.82467   1.83960   1.84336   1.84751
 Alpha virt. eigenvalues --    1.85402   1.86468   1.87425   1.87980   1.89124
 Alpha virt. eigenvalues --    1.89170   1.89919   1.90248   1.91063   1.91324
 Alpha virt. eigenvalues --    1.92600   1.93219   1.93238   1.93598   1.94231
 Alpha virt. eigenvalues --    1.94513   1.95508   1.96060   1.97446   1.97947
 Alpha virt. eigenvalues --    2.00078   2.00642   2.01470   2.02015   2.03443
 Alpha virt. eigenvalues --    2.03795   2.04442   2.05251   2.06310   2.06835
 Alpha virt. eigenvalues --    2.07864   2.08275   2.09302   2.10528   2.11770
 Alpha virt. eigenvalues --    2.12594   2.14035   2.15094   2.15753   2.16745
 Alpha virt. eigenvalues --    2.18286   2.19293   2.19661   2.20786   2.22264
 Alpha virt. eigenvalues --    2.22915   2.23481   2.25067   2.27824   2.29019
 Alpha virt. eigenvalues --    2.29836   2.31802   2.33062   2.35741   2.36832
 Alpha virt. eigenvalues --    2.37072   2.38126   2.39809   2.42007   2.42587
 Alpha virt. eigenvalues --    2.42812   2.45375   2.46628   2.47329   2.48085
 Alpha virt. eigenvalues --    2.48524   2.52835   2.54046   2.56165   2.57286
 Alpha virt. eigenvalues --    2.57450   2.60288   2.62265   2.63780   2.64794
 Alpha virt. eigenvalues --    2.65451   2.65912   2.66474   2.68829   2.69954
 Alpha virt. eigenvalues --    2.70622   2.71189   2.71893   2.72298   2.72428
 Alpha virt. eigenvalues --    2.73097   2.73585   2.74410   2.74730   2.75048
 Alpha virt. eigenvalues --    2.75824   2.76416   2.77333   2.77607   2.77903
 Alpha virt. eigenvalues --    2.78186   2.78538   2.79489   2.79862   2.80971
 Alpha virt. eigenvalues --    2.82202   2.83158   2.83998   2.84576   2.84832
 Alpha virt. eigenvalues --    2.85260   2.86940   2.88441   2.88636   2.89333
 Alpha virt. eigenvalues --    2.90808   2.91582   2.92013   2.93563   2.94357
 Alpha virt. eigenvalues --    2.94784   2.98307   2.99558   3.02303   3.03529
 Alpha virt. eigenvalues --    3.05051   3.06771   3.09402   3.11635   3.12533
 Alpha virt. eigenvalues --    3.14682   3.15714   3.17160   3.19271   3.20433
 Alpha virt. eigenvalues --    3.21160   3.22895   3.24399   3.25604   3.27844
 Alpha virt. eigenvalues --    3.31759   3.32689   3.34253   3.35091   3.35970
 Alpha virt. eigenvalues --    3.37845   3.39731   3.41780   3.43205   3.44403
 Alpha virt. eigenvalues --    3.46494   3.47062   3.49710   3.51329   3.52675
 Alpha virt. eigenvalues --    3.54453   3.55210   3.58053   3.58905   3.62524
 Alpha virt. eigenvalues --    3.63587   3.68789   3.69563   3.72308   3.79317
 Alpha virt. eigenvalues --    3.83012   3.88296   3.96385   3.97698   4.03162
 Alpha virt. eigenvalues --    4.05233   4.06817   4.08635   4.11541   4.11680
 Alpha virt. eigenvalues --    4.19041   4.23414   4.24733   4.29622   4.36352
 Alpha virt. eigenvalues --    4.57035   4.66603   4.75813   4.78283   4.80867
 Alpha virt. eigenvalues --    4.82187   4.86875  23.44492  23.60886  23.71789
 Alpha virt. eigenvalues --   23.76918  23.81926  23.86189  23.89437  23.91128
 Alpha virt. eigenvalues --   23.93925  23.94229  23.95486  23.97044  23.99678
 Alpha virt. eigenvalues --   24.01414  24.03430  24.06536  24.07682  24.08625
 Alpha virt. eigenvalues --   24.09801  24.14258  24.15871  24.16237  24.17272
 Alpha virt. eigenvalues --   24.20442  24.21387
  Beta  occ. eigenvalues --  -10.20389 -10.20287 -10.19746 -10.19680 -10.19444
  Beta  occ. eigenvalues --  -10.19395 -10.19288 -10.19149 -10.18977 -10.18868
  Beta  occ. eigenvalues --  -10.18818 -10.18720 -10.18705 -10.18638 -10.18506
  Beta  occ. eigenvalues --  -10.18311 -10.18267 -10.18225 -10.18215 -10.18205
  Beta  occ. eigenvalues --  -10.18173 -10.18113 -10.18082 -10.17208 -10.17064
  Beta  occ. eigenvalues --   -0.91160  -0.88631  -0.85504  -0.83326  -0.82798
  Beta  occ. eigenvalues --   -0.80044  -0.78574  -0.76534  -0.75126  -0.73441
  Beta  occ. eigenvalues --   -0.72835  -0.71128  -0.68422  -0.64569  -0.64217
  Beta  occ. eigenvalues --   -0.62287  -0.61313  -0.59076  -0.58415  -0.57149
  Beta  occ. eigenvalues --   -0.54695  -0.52406  -0.51736  -0.51377  -0.50057
  Beta  occ. eigenvalues --   -0.47890  -0.47699  -0.46859  -0.46101  -0.45493
  Beta  occ. eigenvalues --   -0.44091  -0.43667  -0.43112  -0.42658  -0.42194
  Beta  occ. eigenvalues --   -0.41630  -0.41118  -0.40545  -0.39548  -0.39476
  Beta  occ. eigenvalues --   -0.37496  -0.37205  -0.36572  -0.35564  -0.35065
  Beta  occ. eigenvalues --   -0.34060  -0.33702  -0.33293  -0.32704  -0.29402
  Beta  occ. eigenvalues --   -0.28605  -0.27509  -0.25401  -0.24944  -0.21714
  Beta  occ. eigenvalues --   -0.20698
  Beta virt. eigenvalues --   -0.12166  -0.08111  -0.06062  -0.05702  -0.02041
  Beta virt. eigenvalues --   -0.01328  -0.00511   0.00268   0.00627   0.00993
  Beta virt. eigenvalues --    0.01272   0.01898   0.01996   0.02610   0.02793
  Beta virt. eigenvalues --    0.03298   0.03618   0.03779   0.04570   0.04995
  Beta virt. eigenvalues --    0.05286   0.05428   0.05761   0.06437   0.06797
  Beta virt. eigenvalues --    0.07079   0.07400   0.07577   0.08004   0.08196
  Beta virt. eigenvalues --    0.08544   0.09269   0.09547   0.10152   0.10473
  Beta virt. eigenvalues --    0.10771   0.11199   0.11414   0.11791   0.12137
  Beta virt. eigenvalues --    0.12413   0.12634   0.13073   0.13678   0.13948
  Beta virt. eigenvalues --    0.14337   0.14567   0.14960   0.15311   0.15650
  Beta virt. eigenvalues --    0.15860   0.16052   0.16404   0.16564   0.16797
  Beta virt. eigenvalues --    0.17189   0.17413   0.17567   0.18116   0.18386
  Beta virt. eigenvalues --    0.18583   0.18869   0.18930   0.19056   0.19324
  Beta virt. eigenvalues --    0.19465   0.19731   0.19891   0.20314   0.20552
  Beta virt. eigenvalues --    0.21037   0.21053   0.21312   0.21457   0.21992
  Beta virt. eigenvalues --    0.22091   0.22270   0.22644   0.22799   0.23073
  Beta virt. eigenvalues --    0.23323   0.23550   0.23703   0.24201   0.24523
  Beta virt. eigenvalues --    0.24693   0.24925   0.25107   0.25536   0.25584
  Beta virt. eigenvalues --    0.25934   0.25995   0.26170   0.26745   0.27190
  Beta virt. eigenvalues --    0.27198   0.27387   0.27859   0.27938   0.28032
  Beta virt. eigenvalues --    0.28803   0.29019   0.29334   0.29507   0.29790
  Beta virt. eigenvalues --    0.30269   0.30463   0.30626   0.31011   0.31512
  Beta virt. eigenvalues --    0.31678   0.32320   0.32866   0.33456   0.33519
  Beta virt. eigenvalues --    0.34019   0.34362   0.34710   0.35294   0.35840
  Beta virt. eigenvalues --    0.36815   0.37101   0.37409   0.38233   0.39254
  Beta virt. eigenvalues --    0.39597   0.39959   0.40271   0.41239   0.41999
  Beta virt. eigenvalues --    0.43142   0.43609   0.44138   0.44716   0.45865
  Beta virt. eigenvalues --    0.46482   0.47683   0.48452   0.49305   0.49786
  Beta virt. eigenvalues --    0.50999   0.52210   0.52234   0.52765   0.53350
  Beta virt. eigenvalues --    0.53776   0.53901   0.54564   0.54969   0.55270
  Beta virt. eigenvalues --    0.55514   0.55866   0.56465   0.56552   0.57049
  Beta virt. eigenvalues --    0.57740   0.57896   0.58561   0.59056   0.59136
  Beta virt. eigenvalues --    0.59721   0.60282   0.60420   0.60971   0.61713
  Beta virt. eigenvalues --    0.62082   0.62946   0.63678   0.64007   0.64387
  Beta virt. eigenvalues --    0.65016   0.65388   0.65635   0.66082   0.66579
  Beta virt. eigenvalues --    0.67278   0.67503   0.67729   0.68596   0.68781
  Beta virt. eigenvalues --    0.69417   0.70026   0.70177   0.70672   0.70846
  Beta virt. eigenvalues --    0.70978   0.71731   0.72239   0.72477   0.72676
  Beta virt. eigenvalues --    0.73017   0.73470   0.73813   0.74021   0.74911
  Beta virt. eigenvalues --    0.75141   0.75359   0.75838   0.76443   0.77120
  Beta virt. eigenvalues --    0.77481   0.77835   0.78398   0.80220   0.80614
  Beta virt. eigenvalues --    0.81391   0.81954   0.82567   0.83213   0.84063
  Beta virt. eigenvalues --    0.84681   0.85472   0.85776   0.86030   0.86856
  Beta virt. eigenvalues --    0.87307   0.88229   0.89274   0.89926   0.90328
  Beta virt. eigenvalues --    0.90628   0.91802   0.92274   0.92637   0.93367
  Beta virt. eigenvalues --    0.93656   0.94221   0.94369   0.95112   0.95377
  Beta virt. eigenvalues --    0.96143   0.96900   0.97168   0.97312   0.97801
  Beta virt. eigenvalues --    0.98363   0.99206   1.00209   1.00642   1.00840
  Beta virt. eigenvalues --    1.02628   1.03075   1.04002   1.04423   1.05267
  Beta virt. eigenvalues --    1.06012   1.06204   1.06833   1.07795   1.08473
  Beta virt. eigenvalues --    1.09376   1.09944   1.10322   1.11711   1.12425
  Beta virt. eigenvalues --    1.12582   1.13808   1.14931   1.16011   1.16553
  Beta virt. eigenvalues --    1.17282   1.18075   1.19333   1.20371   1.22240
  Beta virt. eigenvalues --    1.23933   1.25738   1.27366   1.29015   1.30664
  Beta virt. eigenvalues --    1.31520   1.32591   1.33639   1.35807   1.36889
  Beta virt. eigenvalues --    1.38747   1.41003   1.41332   1.42284   1.44946
  Beta virt. eigenvalues --    1.45830   1.46531   1.47567   1.47759   1.48360
  Beta virt. eigenvalues --    1.48808   1.50547   1.51192   1.51701   1.52537
  Beta virt. eigenvalues --    1.52968   1.53149   1.54168   1.55185   1.55681
  Beta virt. eigenvalues --    1.56219   1.56359   1.56804   1.57373   1.58268
  Beta virt. eigenvalues --    1.59361   1.59620   1.61035   1.61419   1.62966
  Beta virt. eigenvalues --    1.63736   1.65265   1.65607   1.66188   1.66699
  Beta virt. eigenvalues --    1.67785   1.69057   1.70382   1.70483   1.71433
  Beta virt. eigenvalues --    1.72449   1.73002   1.73848   1.74606   1.75230
  Beta virt. eigenvalues --    1.75530   1.76390   1.76621   1.77443   1.79707
  Beta virt. eigenvalues --    1.80188   1.81163   1.81777   1.82776   1.84149
  Beta virt. eigenvalues --    1.84785   1.85132   1.85664   1.87115   1.87553
  Beta virt. eigenvalues --    1.88225   1.89381   1.89510   1.90114   1.90669
  Beta virt. eigenvalues --    1.91322   1.91499   1.92782   1.93404   1.93477
  Beta virt. eigenvalues --    1.93995   1.94332   1.94788   1.95757   1.96409
  Beta virt. eigenvalues --    1.97725   1.98533   2.00342   2.01020   2.01778
  Beta virt. eigenvalues --    2.02746   2.03732   2.03952   2.04718   2.05520
  Beta virt. eigenvalues --    2.06935   2.07529   2.08316   2.08626   2.09904
  Beta virt. eigenvalues --    2.10955   2.11995   2.12935   2.14630   2.15444
  Beta virt. eigenvalues --    2.16044   2.17120   2.19065   2.19797   2.20104
  Beta virt. eigenvalues --    2.21420   2.22607   2.23160   2.23740   2.25468
  Beta virt. eigenvalues --    2.28269   2.29325   2.30087   2.32127   2.33297
  Beta virt. eigenvalues --    2.36040   2.36996   2.37266   2.38262   2.40196
  Beta virt. eigenvalues --    2.42166   2.42855   2.42871   2.45679   2.46968
  Beta virt. eigenvalues --    2.47732   2.48380   2.48946   2.53635   2.54124
  Beta virt. eigenvalues --    2.56264   2.57373   2.58079   2.60376   2.62390
  Beta virt. eigenvalues --    2.64125   2.64949   2.65957   2.66355   2.66625
  Beta virt. eigenvalues --    2.69007   2.70199   2.71139   2.71379   2.72025
  Beta virt. eigenvalues --    2.72492   2.72545   2.73327   2.73824   2.74546
  Beta virt. eigenvalues --    2.74841   2.75217   2.75934   2.76523   2.77465
  Beta virt. eigenvalues --    2.77740   2.77991   2.78479   2.78674   2.79745
  Beta virt. eigenvalues --    2.80345   2.81094   2.82419   2.83498   2.84219
  Beta virt. eigenvalues --    2.84752   2.85240   2.85537   2.87164   2.88677
  Beta virt. eigenvalues --    2.88910   2.89731   2.90952   2.91980   2.92266
  Beta virt. eigenvalues --    2.93826   2.94682   2.95562   2.98666   3.01118
  Beta virt. eigenvalues --    3.02898   3.04392   3.06422   3.07015   3.10095
  Beta virt. eigenvalues --    3.11789   3.13120   3.15142   3.15896   3.17683
  Beta virt. eigenvalues --    3.19709   3.20874   3.21368   3.23060   3.24978
  Beta virt. eigenvalues --    3.26547   3.28192   3.31962   3.32926   3.34357
  Beta virt. eigenvalues --    3.35443   3.36055   3.37925   3.39790   3.41961
  Beta virt. eigenvalues --    3.43306   3.44458   3.46556   3.47183   3.49777
  Beta virt. eigenvalues --    3.51423   3.52784   3.54550   3.55730   3.58313
  Beta virt. eigenvalues --    3.59192   3.62612   3.63750   3.69171   3.69645
  Beta virt. eigenvalues --    3.72462   3.79570   3.83185   3.88631   3.97558
  Beta virt. eigenvalues --    3.97936   4.03258   4.05284   4.06836   4.08671
  Beta virt. eigenvalues --    4.11702   4.11875   4.19393   4.23498   4.25472
  Beta virt. eigenvalues --    4.29684   4.36472   4.57386   4.66797   4.75853
  Beta virt. eigenvalues --    4.78348   4.80949   4.82251   4.86947  23.44547
  Beta virt. eigenvalues --   23.61038  23.72770  23.76970  23.81944  23.86248
  Beta virt. eigenvalues --   23.90107  23.91160  23.94000  23.94293  23.95529
  Beta virt. eigenvalues --   23.97140  23.99674  24.01465  24.03463  24.06707
  Beta virt. eigenvalues --   24.07735  24.08662  24.09859  24.14283  24.15890
  Beta virt. eigenvalues --   24.16387  24.17317  24.20539  24.22124
          Condensed to atoms (all electrons):
               1          2          3          4          5          6
     1  C   10.641945   1.503970  -1.636541   0.581962  -3.087474   0.811249
     2  C    1.503970   7.334896   0.717437   0.181751  -0.116032   0.330380
     3  C   -1.636541   0.717437   8.935146   0.552090   2.598285  -1.518472
     4  C    0.581962   0.181751   0.552090   9.482559  -1.878577  -0.208236
     5  C   -3.087474  -0.116032   2.598285  -1.878577  11.076781  -0.397045
     6  C    0.811249   0.330380  -1.518472  -0.208236  -0.397045   9.925707
     7  C   -0.619042  -1.386356   1.034513   0.215392   0.225560  -1.318230
     8  C   -0.946611  -0.541159  -0.337230  -1.126888   0.532229  -0.813136
     9  C    0.081607   0.111465  -0.721635  -0.130046  -0.622800   0.164975
    10  C   -0.191476  -0.265553  -0.370663   0.995553  -0.499892  -0.174357
    11  C    0.143884  -0.157985   0.358277  -0.706778  -0.079344  -0.091981
    12  C    0.010500   0.067163  -0.364749   0.089121  -0.020577   0.166022
    13  C   -0.053098  -0.079518  -0.205560  -0.132615   0.012947  -0.276981
    14  C    0.009573   0.051531  -1.029790  -1.283645  -0.279856  -0.205344
    15  C   -0.198860  -0.360568  -0.689705  -0.245111   0.126660  -0.022218
    16  C   -0.007958  -0.022243  -0.222966   0.200571   0.013411   0.047468
    17  C   -0.003532   0.001080   0.000232  -0.051452   0.000540  -0.011773
    18  C    0.005431   0.005679  -0.142287   0.034476  -0.003281   0.025506
    19  C   -0.988588  -1.792697  -1.105526   0.189514  -1.108247   0.471524
    20  C    0.082937   0.743730  -0.043455  -0.242041  -0.212293  -0.085485
    21  C    0.612248  -0.236796  -0.430887   0.408091  -0.561709   0.219104
    22  C    0.627617   0.938654  -0.542760   0.103488  -0.750929   0.009771
    23  C   -1.326052  -1.167001   0.864289  -1.123756   1.052526  -0.972751
    24  H   -0.011606   0.033263   0.000626   0.000445  -0.002143  -0.002064
    25  H    0.006150  -0.010062   0.003627   0.001579   0.011892  -0.000858
    26  H   -0.099180   0.034183  -0.003998  -0.001185   0.047595   0.013137
    27  H   -0.083578   0.001240  -0.013329   0.029618   0.364433  -0.035902
    28  H   -0.044293  -0.007206   0.036710  -0.085537   0.017504   0.337607
    29  H    0.008950   0.001065   0.012894  -0.049937   0.007069   0.045916
    30  H    0.000158   0.001016   0.010894   0.053260   0.001277   0.006438
    31  H    0.000013  -0.000065  -0.000230   0.000989  -0.000003   0.000141
    32  H   -0.000008  -0.000004  -0.000521   0.000184   0.000002   0.000014
    33  H   -0.000044  -0.000288  -0.000902  -0.000402   0.000006  -0.000032
    34  H    0.000000  -0.000017  -0.000131   0.000039   0.000000   0.000002
    35  H   -0.001086  -0.016812   0.006518   0.005621  -0.003308  -0.001303
    36  C    0.016994   0.161486  -0.035535  -0.008701  -0.025958  -0.008397
    37  C    0.032662   0.148000   0.170841   0.098198  -0.016279   0.050310
    38  H   -0.001449  -0.003745  -0.005981  -0.001005  -0.000086  -0.000475
    39  H   -0.001583  -0.004295  -0.013188  -0.005783   0.000983  -0.001837
               7          8          9         10         11         12
     1  C   -0.619042  -0.946611   0.081607  -0.191476   0.143884   0.010500
     2  C   -1.386356  -0.541159   0.111465  -0.265553  -0.157985   0.067163
     3  C    1.034513  -0.337230  -0.721635  -0.370663   0.358277  -0.364749
     4  C    0.215392  -1.126888  -0.130046   0.995553  -0.706778   0.089121
     5  C    0.225560   0.532229  -0.622800  -0.499892  -0.079344  -0.020577
     6  C   -1.318230  -0.813136   0.164975  -0.174357  -0.091981   0.166022
[...]
 ,0.00210022,-0.00053252,0.00354795,-0.00279776,-0.00078117,-0.00023850
 ,-0.00128461,0.00055344,0.00019364,-0.00010276,-0.00000478,0.00000328,
 -0.00022415,0.00000924,-0.01085157,-0.01481364,-0.01970601,-0.00296929
 ,0.00103774,0.00092984,-0.00043704,-0.00075504,0.00040018,-0.00014317,
 0.00037288,-0.00011207,0.00022908,0.00031401,-0.00047468,0.00026318,0.
 00042598,0.00005671,-0.00012592,-0.00014994,-0.00003087,-0.00001532,-0
 .00001427,-0.00000848,0.00160928,0.00106794,-0.00090678,0.00043554,-0.
 00004193,0.00018611,-0.00003592,0.00029666,-0.00002657,-0.00015749,-0.
 00004924,-0.00002235,0.00062246,0.00001148,0.00003613,-0.00058656,-0.0
 0067600,-0.00018653,0.00160872,-0.00075264,0.00008773,-0.00550099,0.00
 293603,0.00239472,-0.04704044,-0.09370078,-0.11753824,0.00002331,-0.00
 016798,-0.00017691,-0.00002842,-0.00000338,0.00000512,-0.00001612,-0.0
 0001180,-0.00003349,-0.00001702,0.00002595,0.00003828,-0.00009825,-0.0
 0004863,-0.00000541,0.00002627,-0.00002162,-0.00006696,0.00003243,-0.0
 0002133,-0.00000084,0.00001878,0.00002825,0.,0.00000578,0.00000685,-0.
 00000259,0.00010293,0.00001530,0.00003584,-0.00000920,0.00000267,-0.00
 002434,0.06748356,0.11543569,0.00175362,-0.00038113,0.00007653,-0.0001
 6994,-0.00267673,-0.00033828,-0.00229448,-0.00176714,-0.00033449,-0.00
 099881,0.00154064,0.00043295,-0.00020609,0.00014893,0.00001377,0.00019
 899,-0.00014538,-0.00001834,-0.00369852,0.00670124,0.00055673,0.001333
 67,-0.00077299,0.00014535,0.00042928,0.00016404,0.00023240,0.00049516,
 -0.00056613,-0.00008498,-0.00006701,-0.00044844,-0.00018582,-0.0000067
 9,-0.00036650,-0.00015775,0.00021195,0.00015924,0.00005014,-0.00022706
 ,0.00004371,-0.00005722,-0.00056645,-0.00121925,0.00111726,-0.00041843
 ,0.00024392,-0.00027637,0.00014550,-0.00025302,0.00007011,0.00007057,0
 .00016146,-0.00002328,-0.00060559,0.00031413,0.00004425,0.00007751,0.0
 0051552,0.00014942,-0.00169399,0.00123386,0.00015934,0.00956727,0.0009
 6768,0.00251923,-0.11899443,-0.13842088,-0.18226397,-0.00029695,0.0000
 3410,-0.00006386,0.00000595,-0.00001245,0.00001892,-0.00001719,0.00002
 824,-0.00000219,-0.00000022,-0.00000016,-0.00002570,-0.00002873,-0.000
 00809,-0.00002862,0.00002377,-0.00001252,0.00000128,0.00001080,-0.0000
 0852,0.00000181,-0.00000493,0.00000500,0.00002638,-0.00000223,0.000009
 01,0.00001034,-0.00003024,-0.00000799,-0.00003781,-0.00003302,0.000018
 20,0.00002395,0.10731217,0.12158447,0.19605507,0.00322922,-0.00074805,
 -0.00040316,-0.00163355,-0.00600406,-0.00361703,-0.00471826,-0.0019528
 3,-0.00196479,-0.00169108,0.00258041,0.00011514,-0.00036076,0.00025818
 ,0.00016742,0.00028888,-0.00028344,0.00005866,-0.00391963,0.00846627,0
 .00603010,0.00040690,-0.00296753,0.00118358,0.00002934,0.00042556,0.00
 022874,0.00125463,-0.00063051,0.00005029,-0.00188496,0.01287736,-0.004
 79119,0.00317548,-0.00136341,-0.00078087,-0.00021250,-0.00048973,-0.00
 004480,0.00048488,-0.00001747,0.00015283,-0.13836372,0.04562515,-0.055
 04679,-0.02896844,0.01166068,-0.02022687,-0.00138789,-0.00406342,-0.00
 183913,-0.00109398,-0.00034619,0.00055759,-0.00167298,-0.00017102,-0.0
 0004964,0.00128233,0.00167978,0.00045912,-0.00447062,0.00253710,0.0003
 9959,0.01658679,-0.00077020,0.00349704,-0.05253899,-0.05645793,0.04453
 761,-0.00014037,0.00006021,0.00008464,-0.00000967,0.00000590,0.0000544
 5,-0.00002164,0.00002276,-0.00002886,-0.00002786,-0.00004731,0.0000222
 1,-0.00001922,-0.00003796,0.00001311,0.00004890,-0.00003205,-0.0000778
 9,-0.00000966,-0.00001339,0.00004847,0.00003038,-0.00004177,-0.0001485
 1,-0.00007139,0.00012427,0.00033152,0.00084845,0.00151037,0.00172952,-
 0.00060643,0.00051364,-0.00026565,0.00470967,0.00838125,-0.00935715,0.
 43191977,-0.00370835,0.00167977,0.00039490,0.00130897,0.00235936,0.001
 64208,0.00353318,0.00283314,0.00220120,0.00267387,-0.00287873,-0.00013
 448,0.00057502,-0.00053287,-0.00018507,-0.00072199,0.00033507,-0.00011
 393,-0.00032401,-0.01131751,0.00045092,-0.00010186,0.00151595,-0.00027
 259,-0.00125317,-0.00091878,-0.00062263,-0.00091897,0.00079610,-0.0000
 0441,0.02590819,-0.02073961,0.01657643,-0.00242963,-0.00317720,0.00300
 433,0.00129759,-0.00097311,-0.00017016,0.00037618,0.00041226,0.0001498
 6,0.03261991,-0.09398522,0.02242983,-0.00234567,0.01267290,0.00034588,
 -0.00396509,0.00251765,0.00161643,-0.00154417,-0.00139320,-0.00029027,
 0.00106245,-0.00200083,-0.00045289,0.00100996,0.00013964,-0.00003006,0
 .00047015,-0.00104780,-0.00072795,-0.00619443,0.00006745,0.00036079,0.
 01533823,0.03562748,-0.01762482,0.00003225,0.00003446,0.00011800,-0.00
 006549,0.00005667,0.00005512,-0.00000057,-0.00006300,0.00000699,-0.000
 03421,0.00001286,-0.00003341,0.00003636,-0.00001580,-0.00004227,-0.000
 01138,0.00001404,0.00011224,-0.00003021,-0.00000934,0.00003472,0.00006
 440,-0.00042775,-0.00007935,0.00017391,0.00006098,-0.00032083,0.000179
 28,0.00011492,-0.00237725,-0.00065169,0.00040436,-0.00043955,-0.002011
 76,-0.00507114,0.00628573,-0.20122841,0.37830363,-0.00165502,0.0001534
 4,0.00024258,0.00104150,0.00343503,0.00207418,0.00279430,0.00143999,0.
 00096142,0.00058277,-0.00147749,-0.00019344,0.00004104,0.00005205,-0.0
 0006146,0.00007554,0.00013069,-0.00001987,0.00333686,-0.00434485,-0.00
 144769,-0.00129780,-0.00091432,-0.00154960,-0.00067072,-0.00011654,0.0
 0010130,-0.00048180,0.00035851,0.00006010,-0.00929564,0.00911560,-0.00
 194092,0.00060142,0.00118456,0.00445890,-0.00071472,0.00012096,-0.0001
 7559,0.00017194,-0.00030721,-0.00005597,-0.06230234,0.03944543,-0.1067
 2288,-0.00869606,0.00022497,-0.00115049,0.00012946,0.00051155,0.006694
 48,0.00066310,0.00052877,-0.00063257,0.00085482,0.00015264,0.00000717,
 -0.00062603,-0.00081942,-0.00014612,0.00209751,-0.00142249,0.00000327,
 -0.00859575,0.00074765,-0.00175399,0.02971419,0.02999294,-0.02514393,0
 .00009486,-0.00005909,-0.00018168,0.00001965,-0.00000506,-0.00004610,0
 .00000930,-0.00001216,0.00001428,0.00001724,0.00003393,-0.00003193,0.0
 0000839,0.00001679,0.00000879,-0.00005145,-0.00000934,-0.00003353,-0.0
 0001189,-0.00000255,0.00002048,0.00004340,0.00008007,-0.00004621,0.000
 12680,-0.00014753,-0.00069965,0.00125745,-0.00096780,-0.00308360,0.000
 18313,-0.00005326,0.00029106,-0.00114412,-0.00367623,0.00530715,0.0430
 6556,0.13140422,0.42582299,-0.00698297,0.00229584,0.00031168,0.0030779
 1,0.00849985,0.00551702,0.00727774,0.00571470,0.00441274,0.00417610,-0
 .00545011,-0.00013327,0.00096917,-0.00049051,-0.00029526,-0.00086242,0
 .00052620,-0.00012406,0.00794715,-0.02303885,-0.00792309,-0.00498921,0
 .00321802,0.00058269,-0.00188512,-0.00118664,-0.00078554,-0.00193214,0
 .00200901,-0.00005518,0.00218887,-0.00301330,0.00019050,0.00036757,0.0
 0114135,-0.00025475,-0.00049670,-0.00085267,-0.00032324,0.00073918,0.0
 0025543,0.00019151,-0.02623423,0.01809854,0.00067428,0.00408053,0.0018
 7415,0.00241979,-0.00057424,0.00147148,-0.00173296,-0.00117735,-0.0008
 1404,0.00000038,0.00235913,-0.00206351,-0.00046358,0.00029348,-0.00143
 763,-0.00076058,0.00468222,-0.00325896,-0.00108872,-0.02620059,-0.0042
 3985,0.00145895,0.05338794,0.10016390,-0.06345395,0.00011665,-0.000077
 23,0.00018211,-0.00001888,0.00005946,0.00005199,0.00004780,-0.00011012
 ,0.00010223,0.00000754,0.00006025,-0.00007889,0.00009494,0.00004656,-0
 .00007174,-0.00005993,0.00004768,0.00010052,-0.00002202,0.00003997,0.0
 0000310,0.00003126,-0.00000747,-0.00002584,-0.00000628,0.00001798,0.00
 012202,0.00010621,0.00005374,0.00047658,-0.00008120,0.00002526,-0.0002
 3627,-0.00767546,-0.01660820,0.01859953,-0.16703755,0.15277390,0.06434
 722,0.33266700,-0.00017448,-0.00018608,-0.00016912,0.00055130,0.001826
 26,0.00152943,0.00294124,-0.00040402,0.00151151,-0.00013334,-0.0003073
 0,-0.00073600,-0.00011600,-0.00001514,-0.00002791,0.00013977,0.0000201
 2,-0.00004858,-0.00468286,-0.01252017,0.00634003,-0.00126305,0.0010281
 2,-0.00095079,-0.00072946,-0.00037991,-0.00074243,0.00013884,0.0001368
 0,0.00016880,-0.00152848,0.00247873,0.00133087,0.00060049,0.00037629,0
 .00041497,-0.00032845,0.00015912,0.00005431,0.00004514,-0.00008135,0.0
 0006115,0.02074409,-0.00744755,-0.00023905,-0.00230117,-0.00191594,-0.
 00146693,0.00042121,-0.00037082,0.00059955,0.00030377,0.00011754,-0.00
 010198,0.00052491,0.00053271,0.00015530,-0.00072593,-0.00046223,-0.000
 31355,0.00215901,-0.00038184,-0.00007264,-0.00721537,-0.00071396,-0.00
 100961,0.01596635,0.00434102,-0.01769084,-0.00001714,-0.00010317,0.000
 04370,0.00005400,-0.00000949,-0.00002630,-0.00000086,-0.00000193,0.000
 05947,0.00001289,0.00002868,0.00000291,-0.00003373,0.00001269,-0.00000
 722,-0.00001827,0.00000699,0.00007580,-0.00003022,0.00001593,-0.000013
 99,0.00001315,0.00003285,-0.00000259,-0.00000813,-0.00000302,-0.000046
 22,0.00021781,0.00021792,-0.00011977,0.00011475,-0.00004913,0.00010349
 ,-0.00320563,-0.00364773,0.00553817,0.19336876,-0.20747611,-0.11288472
 ,-0.38035917,0.38381309,0.00489472,-0.00148892,-0.00052522,-0.00305870
 ,-0.00647005,-0.00392275,-0.00560950,-0.00424444,-0.00300748,-0.002770
 11,0.00373477,0.00003192,-0.00058963,0.00024266,0.00020272,0.00042701,
 -0.00042806,0.00011410,-0.00544839,0.01646698,0.00433058,0.00291255,-0
 .00187787,0.00057409,0.00158005,0.00100933,0.00059407,0.00120795,-0.00
 127293,-0.00001586,-0.00298911,0.00196654,-0.00166095,-0.00052534,-0.0
 0040159,-0.00064953,0.00033217,0.00048964,0.00023676,-0.00058895,-0.00
 007827,-0.00013863,-0.00197802,0.00523112,0.01221779,-0.00347896,0.000
 82210,-0.00208375,0.00045384,-0.00156570,-0.00007195,0.00061043,0.0009
 1872,-0.00000838,-0.00180100,0.00120838,0.00024597,0.00010236,0.001170
 44,0.00037929,-0.00350841,0.00220078,0.00102788,0.01796106,-0.00110273
 ,0.00145196,-0.04319716,-0.06328516,0.03257194,-0.00013079,0.00014628,
 0.00011988,-0.00001457,-0.00003701,-0.00000320,-0.00003431,0.00006905,
 -0.00003836,-0.00000906,-0.00006891,0.00004325,-0.00006600,-0.00003802
 ,0.00004858,0.00005364,-0.00003731,-0.00006605,0.00004718,-0.00002008,
 -0.00001244,-0.00003392,0.00007319,0.00002748,-0.00001710,0.00003331,0
 .00001995,-0.00016734,0.00002502,0.00031359,-0.00010034,0.00004009,-0.
 00001529,0.00953312,0.01744200,-0.02251195,0.02782920,-0.05825788,-0.0
 8013278,0.06876573,0.04625670,0.14192095,0.00069264,-0.00019886,-0.000
 03693,-0.00027751,-0.00063756,-0.00034869,-0.00026264,-0.00060514,-0.0
 0029460,-0.00032126,0.00035062,-0.00009919,-0.00010812,0.00001071,0.00
 000468,0.00010810,-0.00003378,0.00000724,-0.00151924,0.00135152,0.0016
 9187,0.00022771,-0.00054379,0.00004920,0.00025766,0.00040358,0.0000275
 5,-0.00003565,-0.00027664,-0.00001608,-0.00108869,0.00067294,-0.000259
 43,-0.00003254,0.00000379,-0.00025674,0.00000082,0.00010351,0.00002380
 ,-0.00007902,-0.00005142,-0.00002182,0.00212954,0.00429436,0.00121726,
 0.00028993,-0.00039623,-0.00013757,0.00013625,-0.00012094,0.00015549,0
 .00010104,0.00015627,-0.00000525,-0.00016586,0.00036454,0.00012284,-0.
 00036791,0.00003258,-0.00012882,0.00004261,0.00026044,-0.00014397,0.00
 209927,-0.00008958,0.00036649,-0.00303514,-0.01229878,0.00516743,-0.00
 013933,0.00008383,0.00026249,-0.00000109,-0.00001274,-0.00000174,0.000
 00099,0.00002431,0.00001591,0.00000384,0.00000079,0.00000430,-0.000017
 92,-0.00000201,0.00001037,-0.00000093,-0.00000039,0.00000287,0.0000076
 8,0.00000050,-0.00000397,-0.00001145,0.00002106,0.00001034,-0.00000194
 ,-0.00001057,-0.00001225,-0.00013197,-0.00012199,0.00001763,0.00000909
 ,-0.00001482,0.00003126,0.00111465,0.00194771,-0.00149695,-0.01211732,
 0.00832853,-0.00634363,-0.17539691,0.14753816,-0.08272195,0.18881196,0
 .00079218,-0.00027182,-0.00007030,-0.00017670,-0.00114043,-0.00053028,
 -0.00044774,-0.00032810,-0.00021334,-0.00031879,0.00024021,-0.00010116
 ,-0.00015602,0.00004081,0.00002491,0.00016610,-0.00001277,-0.00000508,
 -0.00137819,0.00110204,0.00174290,0.00022058,-0.00059827,-0.00012285,0
 .00023927,0.00042725,0.00003738,-0.00011377,-0.00027928,-0.00000722,-0
 .00014611,0.00039366,-0.00000544,-0.00021913,-0.00001608,0.00000790,-0
 .00001115,0.00015271,0.00000772,-0.00006262,-0.00008514,-0.00003719,0.
 00347158,0.00317258,-0.00271272,0.00006386,-0.00120636,-0.00012913,0.0
 0036798,-0.00026180,0.00053208,0.00038022,0.00034628,-0.00003775,-0.00
 023568,0.00027291,0.00007028,-0.00009080,0.00023206,0.00001870,-0.0007
 5933,0.00064087,0.00011805,0.00279354,0.00023144,0.00022475,-0.0033542
 6,-0.01113430,0.00464983,-0.00003762,0.00004489,0.00006449,0.00003066,
 -0.00000683,-0.00000540,0.00000015,0.00001742,0.00000732,0.00000247,0.
 00000594,0.00000993,-0.00001712,-0.00000121,0.00000343,-0.00000760,-0.
 00000340,0.00000755,-0.00000145,-0.00000520,-0.00000650,-0.00000479,0.
 00000291,0.00002352,0.00001286,-0.00001992,-0.00005474,-0.00000669,-0.
 00009448,-0.00016969,0.00006345,-0.00004924,0.00011338,0.00122775,0.00
 194428,-0.00094894,-0.00186488,0.00367197,0.01656066,0.15208441,-0.148
 72505,0.05769402,-0.15039046,0.15077385,-0.00030901,0.00005476,-0.0000
 4352,0.00021549,0.00015276,0.00020936,-0.00030818,0.00005868,-0.000135
 15,0.00012263,-0.00003755,0.00002257,0.00004788,0.00005868,0.00000661,
 -0.00002799,-0.00004403,-0.00001400,0.00052013,-0.00008058,-0.00023142
 ,0.00007896,0.00010709,-0.00002709,0.00003605,-0.00014810,-0.00004823,
 -0.00001396,-0.00004045,-0.00001227,0.00011786,-0.00069057,0.00013651,
 -0.00001885,-0.00014835,0.00007711,0.00009419,0.00002428,0.00000494,-0
 .00008977,0.00008365,-0.00002246,-0.00116561,-0.00091019,-0.00130989,0
 .00015142,0.00022160,0.00012730,0.00009668,0.00009660,-0.00000965,-0.0
 0008035,0.00009420,-0.00007120,-0.00003290,-0.00027081,-0.00008451,0.0
 0029532,-0.00002863,0.00003186,-0.00007837,0.00016782,0.00009846,-0.00
 026739,-0.00006164,0.00024848,0.00018952,0.00427939,-0.00223257,0.0002
 1566,-0.00016607,-0.00019612,-0.00000697,0.00001121,0.00001115,-0.0000
 0948,-0.00003137,-0.00000328,-0.00000761,-0.00001120,-0.00000054,0.000
 01010,-0.00000525,-0.00000378,0.00000477,-0.00000028,0.00001408,0.0000
 0110,0.00000132,0.00000501,0.00000512,0.00000629,0.00001196,0.00000024
 ,0.00000950,0.00000484,0.00008071,0.00000330,-0.00003837,-0.00002805,-
 0.00000111,-0.00000654,-0.00039958,-0.00052059,0.00045465,0.02120906,-
 0.01306913,0.00538634,-0.10046830,0.08793339,-0.06684991,0.08214692,-0
 .07804704,0.06305217,-0.00043210,0.00019291,0.00016634,-0.00009946,0.0
 0095733,0.00032360,0.00092381,0.00021533,0.00021187,0.00032550,-0.0004
 1876,0.00007016,0.00011489,-0.00016548,-0.00004228,-0.00017460,0.00003
 931,-0.00001204,0.00044025,-0.00110567,-0.00103475,0.00039691,0.000036
 20,-0.00010205,0.00005075,0.00011225,0.00004188,-0.00021029,0.00013383
 ,0.00001574,0.00023554,-0.00206293,-0.00020857,-0.00087490,0.00014688,
 0.00049897,0.00000821,-0.00011909,0.00001822,0.00003467,0.00002346,-0.
 00001075,-0.00777273,-0.00632811,-0.02414235,0.00062042,0.00160536,-0.
 00011201,-0.00095104,0.00107905,0.00108751,-0.00019467,-0.00008015,-0.
 00017832,0.00024263,0.00006050,0.00001831,-0.00021465,-0.00035480,-0.0
 0004805,0.00072491,-0.00030443,-0.00013304,-0.00222668,0.00037698,-0.0
 0080896,0.00527169,0.00579251,-0.00039120,0.00004879,-0.00002473,-0.00
 006407,0.00000136,-0.00000374,-0.00000400,0.00000798,-0.00000371,-0.00
 001022,0.00000952,0.00000715,-0.00000247,0.00000649,0.00001172,0.00000
 011,-0.00000742,0.00001028,-0.00000256,0.00001373,0.00001222,-0.000007
 40,-0.00001101,-0.00000676,-0.00000379,0.00003666,-0.00000620,-0.00015
 723,0.00011430,-0.00031595,-0.00069461,-0.00016571,0.00004613,-0.00003
 540,-0.00102927,-0.00151602,0.00097945,-0.04131714,-0.02022124,-0.0493
 9049,-0.00298519,0.01701610,0.02212763,-0.00092135,-0.00211620,-0.0023
 2744,0.04995920,-0.00055231,0.00021397,0.00022374,0.00005075,0.0014074
 9,0.00053927,0.00123340,0.00049555,0.00032070,0.00032132,-0.00044550,0
 .00017625,0.00011559,-0.00018192,-0.00004089,-0.00017389,0.00010604,-0
 .00000614,0.00090911,-0.00177106,-0.00161538,0.00036161,0.00072377,0.0
 0011508,-0.00013975,-0.00039744,-0.00004409,-0.00009141,0.00028125,0.0
 0002814,0.00059383,-0.00093297,0.00022954,-0.00058570,0.00038515,-0.00
 060684,-0.00005459,0.00007657,0.00005654,-0.00000954,-0.00008789,-0.00
 001072,0.00348912,0.00773896,0.00791672,0.00090045,-0.00012330,0.00143
 316,-0.00008221,0.00018647,-0.00046496,0.00049783,-0.00011333,0.000138
 93,0.00038375,0.00018080,0.00005386,-0.00038993,-0.00051021,-0.0000551
 3,0.00113028,-0.00055577,-0.00021814,-0.00352593,0.00071862,-0.0009712
 8,0.00781724,0.00956141,-0.00158272,0.00002287,0.00000566,-0.00008378,
 0.00001179,-0.00000704,-0.00001237,0.00001549,0.00000529,-0.00001452,0
 .00001728,0.00002176,-0.00001025,0.00001057,0.00001962,-0.00000320,-0.
 00001047,0.00001056,0.00000018,-0.00001225,0.00000346,-0.00001838,-0.0
 0000597,-0.00001224,0.00001812,-0.00000600,0.00000224,0.00001021,-0.00
 002553,0.00004379,-0.00003963,0.00004787,-0.00003709,-0.00002795,-0.00
 136355,-0.00223273,0.00231900,-0.01056610,-0.09160266,-0.10847040,-0.0
 0746942,-0.00994293,-0.01656620,-0.00014405,0.00052560,0.00094840,0.00
 727846,0.08624006,0.00037354,-0.00016508,-0.00012499,0.00005856,-0.000
 82978,-0.00041705,-0.00075116,-0.00028690,-0.00019492,-0.00031483,0.00
 050095,-0.00002933,-0.00010748,0.00017668,0.00002797,0.00017050,-0.000
 06673,0.00001582,-0.00060917,0.00164319,0.00100903,0.00060461,0.000156
 54,-0.00021140,-0.00001688,-0.00003952,-0.00000252,0.00035730,-0.00019
 972,0.00001037,-0.00127584,-0.00077490,0.00133111,0.00014605,0.0000389
 4,0.00020935,0.00000865,-0.00010856,-0.00000730,0.00001704,0.00008376,
 0.00000198,-0.00736829,-0.00700502,-0.01081562,0.00020261,0.00128894,-
 0.00144567,-0.00062417,0.00032932,0.00028024,-0.00031946,-0.00030131,-
 0.00011789,-0.00021984,-0.00005231,-0.00000544,0.00012947,0.00027310,0
 .00002949,-0.00055635,0.00024530,0.00006025,0.00200999,-0.00037470,0.0
 0065464,-0.00444764,-0.00597170,0.00143535,-0.00003721,0.00002335,0.00
 006249,-0.00000750,0.00000250,0.00000307,-0.00001068,0.00000474,0.0000
 0525,-0.00001100,-0.00001233,0.00000595,-0.00000697,-0.00001082,-0.000
 00347,0.00001356,-0.00000433,-0.00000281,0.00001400,0.00000065,0.00000
 931,0.00000296,0.00002280,-0.00000785,0.00000773,0.00001131,-0.0000421
 3,0.00007840,-0.00013010,-0.00014016,-0.00015506,0.00010858,0.00002586
 ,0.00070506,0.00125207,-0.00105639,-0.05318311,-0.09194073,-0.22620450
 ,0.00976466,-0.01550933,-0.01475827,0.00099370,0.00128596,0.00143713,0
 .05436424,0.11633518,0.24897302\\0.00000286,-0.00000349,0.00000077,-0.
 00000154,-0.00000417,0.00000238,-0.00000228,-0.00000266,0.00000242,-0.
 00000212,0.00000226,0.00000020,-0.00000009,-0.00000088,0.00000050,0.00
 000277,-0.00000202,0.00000005,-0.00000100,0.00000544,0.00000146,0.0000
 0560,0.00000046,-0.00000086,0.00000113,0.00000092,0.00000016,0.0000035
 4,-0.00000099,-0.00000039,0.00000017,-0.00000077,0.00000149,0.00000054
 ,0.00000103,-0.00000059,0.00000163,0.00000213,-0.00000052,0.00000153,0
 .00000073,-0.00000112,-0.00000061,-0.00000632,-0.00001509,0.00000062,0
 .00000242,0.00000141,-0.00000175,0.00000438,-0.00000149,-0.00000007,0.
 00000116,-0.00000065,-0.00000170,-0.00000136,0.00000118,-0.00000173,-0
 .00000282,0.00000110,-0.00000107,-0.00000057,-0.00000136,0.00000173,-0
 .00000298,0.00000340,-0.00001107,-0.00000648,0.00000340,-0.00000160,-0
 .00000171,0.00000084,-0.00000128,-0.00000303,0.00000141,-0.00000017,-0
 .00000324,0.00000138,0.00000114,-0.00000268,0.00000094,0.00000189,-0.0
 0000157,0.00000037,0.00000202,-0.00000008,-0.00000047,0.00000219,0.000
 00120,-0.00000093,0.00000161,0.00000226,-0.00000129,0.00000049,0.00000
 306,-0.00000129,-0.00000195,0.00000215,-0.00000072,-0.00000084,0.00000
 312,-0.00000122,-0.00000158,-0.00000209,0.00000274,-0.00002086,0.00004
 174,0.00003211,0.00002486,-0.00003074,-0.00003488,-0.00000041,0.000003
 85,0.00000136,-0.00000259,0.00000234,0.00000182\\\@


 In the beginning there was nothing, which exploded.
 Job cpu time:       0 days 23 hours 31 minutes 49.8 seconds.
 Elapsed time:       0 days  1 hours 10 minutes 47.8 seconds.
 File lengths (MBytes):  RWF=   2739 Int=      0 D2E=      0 Chk=     45 Scr=      1
 Normal termination of Gaussian 16 at Thu Jun 27 09:48:29 2019.
