 Entering Gaussian System, Link 0=g09
 Initial command:
 /usr/local/Cluster-Apps/gaussian/g09/l1.exe "/rds/user/am2145/hpc-work/scratch/19190030/Gau-124822.inp" -scrdir="/rds/user/am2145/hpc-work/scratch/19190030/"
 Entering Link 1 = /usr/local/Cluster-Apps/gaussian/g09/l1.exe PID=    124823.
  
 Copyright (c) 1988,1990,1992,1993,1995,1998,2003,2009,2013,
            Gaussian, Inc.  All Rights Reserved.
  
 This is part of the Gaussian(R) 09 program.  It is based on
 the Gaussian(R) 03 system (copyright 2003, Gaussian, Inc.),
 the Gaussian(R) 98 system (copyright 1998, Gaussian, Inc.),
 the Gaussian(R) 94 system (copyright 1995, Gaussian, Inc.),
 the Gaussian 92(TM) system (copyright 1992, Gaussian, Inc.),
 the Gaussian 90(TM) system (copyright 1990, Gaussian, Inc.),
 the Gaussian 88(TM) system (copyright 1988, Gaussian, Inc.),
 the Gaussian 86(TM) system (copyright 1986, Carnegie Mellon
 University), and the Gaussian 82(TM) system (copyright 1983,
 Carnegie Mellon University). Gaussian is a federally registered
 trademark of Gaussian, Inc.
  
 This software contains proprietary and confidential information,
 including trade secrets, belonging to Gaussian, Inc.
  
 This software is provided under written license and may be
 used, copied, transmitted, or stored only in accord with that
 written license.
  
 The following legend is applicable only to US Government
 contracts under FAR:
  
                    RESTRICTED RIGHTS LEGEND
  
 Use, reproduction and disclosure by the US Government is
 subject to restrictions as set forth in subparagraphs (a)
 and (c) of the Commercial Computer Software - Restricted
 Rights clause in FAR 52.227-19.
  
 Gaussian, Inc.
 340 Quinnipiac St., Bldg. 40, Wallingford CT 06492
  
  
 ---------------------------------------------------------------
 Warning -- This program may not be used in any manner that
 competes with the business of Gaussian, Inc. or will provide
 assistance to any competitor of Gaussian, Inc.  The licensee
 of this program is prohibited from giving any competitor of
 Gaussian, Inc. access to this program.  By using this program,
 the user acknowledges that Gaussian, Inc. is engaged in the
 business of creating and licensing software in the field of
 computational chemistry and represents and warrants to the
 licensee that it is not a competitor of Gaussian, Inc. and that
 it will not use this program in any manner prohibited above.
 ---------------------------------------------------------------
  

 Cite this work as:
 Gaussian 09, Revision D.01,
 M. J. Frisch, G. W. Trucks, H. B. Schlegel, G. E. Scuseria, 
 M. A. Robb, J. R. Cheeseman, G. Scalmani, V. Barone, B. Mennucci, 
 G. A. Petersson, H. Nakatsuji, M. Caricato, X. Li, H. P. Hratchian, 
 A. F. Izmaylov, J. Bloino, G. Zheng, J. L. Sonnenberg, M. Hada, 
 M. Ehara, K. Toyota, R. Fukuda, J. Hasegawa, M. Ishida, T. Nakajima, 
 Y. Honda, O. Kitao, H. Nakai, T. Vreven, J. A. Montgomery, Jr., 
 J. E. Peralta, F. Ogliaro, M. Bearpark, J. J. Heyd, E. Brothers, 
 K. N. Kudin, V. N. Staroverov, T. Keith, R. Kobayashi, J. Normand, 
 K. Raghavachari, A. Rendell, J. C. Burant, S. S. Iyengar, J. Tomasi, 
 M. Cossi, N. Rega, J. M. Millam, M. Klene, J. E. Knox, J. B. Cross, 
 V. Bakken, C. Adamo, J. Jaramillo, R. Gomperts, R. E. Stratmann, 
 O. Yazyev, A. J. Austin, R. Cammi, C. Pomelli, J. W. Ochterski, 
 R. L. Martin, K. Morokuma, V. G. Zakrzewski, G. A. Voth, 
 P. Salvador, J. J. Dannenberg, S. Dapprich, A. D. Daniels, 
 O. Farkas, J. B. Foresman, J. V. Ortiz, J. Cioslowski, 
 and D. J. Fox, Gaussian, Inc., Wallingford CT, 2013.
 
 ******************************************
 Gaussian 09:  ES64L-G09RevD.01 24-Apr-2013
                 2-Feb-2020 
 ******************************************
 %NProcShared=20
 Will use up to   20 processors via shared memory.
 %mem=64GB
 %Chk=BS2a_Hmigclose_guess.chk
 --------------------------------------------------
 #n opt=(ts,calcfc,noeigen) freq b3lyp/6-311+g(d,p)
 --------------------------------------------------
 1/5=1,10=4,11=1,14=-1,18=20,26=3,38=1/1,3;
 2/9=110,12=2,17=6,18=5,40=1/2;
 3/5=4,6=6,7=111,11=2,16=1,25=1,30=1,71=2,74=-5,140=1/1,2,3;
 4//1;
 5/5=2,38=5/2;
 8/6=4,10=90,11=11/1;
 11/6=1,8=1,9=11,15=111,16=1/1,2,10;
 10/6=1,13=1/2;
 6/7=2,8=2,9=2,10=2,28=1/1;
 7/10=1,18=20,25=1/1,2,3,16;
 1/5=1,10=4,11=1,14=-1,18=20,26=3/3(2);
 2/9=110/2;
 99//99;
 2/9=110/2;
 3/5=4,6=6,7=111,11=2,16=1,25=1,30=1,71=1,74=-5/1,2,3;
 4/5=5,16=3,69=1/1;
 5/5=2,38=5/2;
 7//1,2,3,16;
 1/5=1,11=1,14=-1,18=20,26=3/3(-5);
 2/9=110/2;
 6/7=2,8=2,9=2,10=2,19=2,28=1/1;
 99/9=1/99;
 --------------------
 BS2a_Hmigclose_guess
 --------------------
 Symbolic Z-matrix:
 Charge =  0 Multiplicity = 3
 C                     3.80557   0.43294  -0.09528 
 C                     2.51857  -0.08524  -0.04384 
 C                     1.36648   0.70032   0.05042 
 C                     1.43903   2.08771   0.088 
 C                     3.89285   1.87314  -0.04236 
 C                     2.76734   2.65678   0.04522 
 C                     0.20222  -0.12782   0.07258 
 C                    -1.06334   0.55273   0.06879 
 C                    -1.01042   2.00278   0.12525 
 C                     0.19453   2.73818   0.14776 
 C                    -2.37182  -0.07085  -0.03727 
 C                    -3.55633   0.74219  -0.09899 
 C                    -3.44541   2.16392   0.00699 
 C                    -2.23362   2.75623   0.1198 
 C                    -2.60048  -1.45314  -0.10956 
 C                    -3.82142  -2.05045  -0.2588 
 C                    -4.96359  -1.2297   -0.35874 
 C                    -4.82205   0.13899  -0.26434 
 C                     4.83982  -0.53733  -0.19048 
 C                     4.5164   -1.89063  -0.21993 
 C                     3.18465  -2.3729   -0.16017 
 C                     2.1502   -1.44682  -0.07773 
 C                     0.69025  -1.48913   0.02305 
 H                     3.00363  -3.44206  -0.17896 
 H                     5.32083  -2.61453  -0.28986 
 H                     5.87963  -0.23183  -0.23846 
 H                     4.86882   2.34642  -0.07409 
 H                     2.87334   3.73621   0.08003 
 H                     0.13513   3.82115   0.18342 
 H                    -2.15903   3.83631   0.18765 
 H                    -4.35261   2.75843  -0.01676 
 H                    -5.69406   0.78181  -0.31996 
 H                    -1.29587  -2.13177   1.76502 
 H                    -3.91978  -3.13049  -0.3062 
 H                    -5.94236  -1.67389  -0.50664 
 C                    -0.07065  -2.71937   0.13033 
 C                    -1.14001  -2.83404   0.95532 
 H                     0.18441  -3.53509  -0.54151 
 H                    -1.71467  -3.75154   1.00017 
 

 GradGradGradGradGradGradGradGradGradGradGradGradGradGradGradGradGradGrad
 Berny optimization.
 Initialization pass.
                           ----------------------------
                           !    Initial Parameters    !
                           ! (Angstroms and Degrees)  !
 --------------------------                            --------------------------
 ! Name  Definition              Value          Derivative Info.                !
 --------------------------------------------------------------------------------
 ! R1    R(1,2)                  1.3884         calculate D2E/DX2 analytically  !
 ! R2    R(1,5)                  1.4438         calculate D2E/DX2 analytically  !
 ! R3    R(1,19)                 1.4213         calculate D2E/DX2 analytically  !
 ! R4    R(2,3)                  1.3976         calculate D2E/DX2 analytically  !
 ! R5    R(2,22)                 1.4109         calculate D2E/DX2 analytically  !
 ! R6    R(3,4)                  1.3898         calculate D2E/DX2 analytically  !
 ! R7    R(3,7)                  1.4289         calculate D2E/DX2 analytically  !
 ! R8    R(4,6)                  1.4457         calculate D2E/DX2 analytically  !
 ! R9    R(4,10)                 1.4055         calculate D2E/DX2 analytically  !
 ! R10   R(5,6)                  1.3742         calculate D2E/DX2 analytically  !
 ! R11   R(5,27)                 1.0851         calculate D2E/DX2 analytically  !
 ! R12   R(6,28)                 1.0852         calculate D2E/DX2 analytically  !
 ! R13   R(7,8)                  1.4369         calculate D2E/DX2 analytically  !
 ! R14   R(7,23)                 1.447          calculate D2E/DX2 analytically  !
 ! R15   R(8,9)                  1.4521         calculate D2E/DX2 analytically  !
 ! R16   R(8,11)                 1.4533         calculate D2E/DX2 analytically  !
 ! R17   R(9,10)                 1.4118         calculate D2E/DX2 analytically  !
 ! R18   R(9,14)                 1.4366         calculate D2E/DX2 analytically  !
 ! R19   R(10,29)                1.0852         calculate D2E/DX2 analytically  !
 ! R20   R(11,12)                1.438          calculate D2E/DX2 analytically  !
 ! R21   R(11,15)                1.4029         calculate D2E/DX2 analytically  !
 ! R22   R(12,13)                1.43           calculate D2E/DX2 analytically  !
 ! R23   R(12,18)                1.4118         calculate D2E/DX2 analytically  !
 ! R24   R(13,14)                1.3535         calculate D2E/DX2 analytically  !
 ! R25   R(13,31)                1.0849         calculate D2E/DX2 analytically  !
 ! R26   R(14,30)                1.0848         calculate D2E/DX2 analytically  !
 ! R27   R(15,16)                1.3674         calculate D2E/DX2 analytically  !
 ! R28   R(16,17)                1.41           calculate D2E/DX2 analytically  !
 ! R29   R(16,34)                1.0855         calculate D2E/DX2 analytically  !
 ! R30   R(17,18)                1.3792         calculate D2E/DX2 analytically  !
 ! R31   R(17,35)                1.085          calculate D2E/DX2 analytically  !
 ! R32   R(18,32)                1.0848         calculate D2E/DX2 analytically  !
 ! R33   R(19,20)                1.3917         calculate D2E/DX2 analytically  !
 ! R34   R(19,26)                1.0848         calculate D2E/DX2 analytically  !
 ! R35   R(20,21)                1.4176         calculate D2E/DX2 analytically  !
 ! R36   R(20,25)                1.0844         calculate D2E/DX2 analytically  !
 ! R37   R(21,22)                1.3909         calculate D2E/DX2 analytically  !
 ! R38   R(21,24)                1.0845         calculate D2E/DX2 analytically  !
 ! R39   R(22,23)                1.464          calculate D2E/DX2 analytically  !
 ! R40   R(23,36)                1.4505         calculate D2E/DX2 analytically  !
 ! R41   R(33,37)                1.0831         calculate D2E/DX2 analytically  !
 ! R42   R(36,37)                1.3555         calculate D2E/DX2 analytically  !
 ! R43   R(36,38)                1.0871         calculate D2E/DX2 analytically  !
 ! R44   R(37,39)                1.0835         calculate D2E/DX2 analytically  !
 ! A1    A(2,1,5)              115.276          calculate D2E/DX2 analytically  !
 ! A2    A(2,1,19)             114.976          calculate D2E/DX2 analytically  !
 ! A3    A(5,1,19)             129.7479         calculate D2E/DX2 analytically  !
 ! A4    A(1,2,3)              123.8394         calculate D2E/DX2 analytically  !
 ! A5    A(1,2,22)             126.9637         calculate D2E/DX2 analytically  !
 ! A6    A(3,2,22)             109.1969         calculate D2E/DX2 analytically  !
 ! A7    A(2,3,4)              121.3252         calculate D2E/DX2 analytically  !
 ! A8    A(2,3,7)              110.3004         calculate D2E/DX2 analytically  !
 ! A9    A(4,3,7)              128.365          calculate D2E/DX2 analytically  !
 ! A10   A(3,4,6)              116.1108         calculate D2E/DX2 analytically  !
 ! A11   A(3,4,10)             114.6407         calculate D2E/DX2 analytically  !
 ! A12   A(6,4,10)             129.2442         calculate D2E/DX2 analytically  !
 ! A13   A(1,5,6)              121.442          calculate D2E/DX2 analytically  !
 ! A14   A(1,5,27)             119.2325         calculate D2E/DX2 analytically  !
 ! A15   A(6,5,27)             119.3254         calculate D2E/DX2 analytically  !
 ! A16   A(4,6,5)              122.0003         calculate D2E/DX2 analytically  !
 ! A17   A(4,6,28)             118.7075         calculate D2E/DX2 analytically  !
 ! A18   A(5,6,28)             119.2918         calculate D2E/DX2 analytically  !
 ! A19   A(3,7,8)              116.3006         calculate D2E/DX2 analytically  !
 ! A20   A(3,7,23)             105.6586         calculate D2E/DX2 analytically  !
 ! A21   A(8,7,23)             137.9465         calculate D2E/DX2 analytically  !
 ! A22   A(7,8,9)              116.1509         calculate D2E/DX2 analytically  !
 ! A23   A(7,8,11)             126.1516         calculate D2E/DX2 analytically  !
 ! A24   A(9,8,11)             117.6522         calculate D2E/DX2 analytically  !
 ! A25   A(8,9,10)             123.4956         calculate D2E/DX2 analytically  !
 ! A26   A(8,9,14)             119.5071         calculate D2E/DX2 analytically  !
 ! A27   A(10,9,14)            116.9719         calculate D2E/DX2 analytically  !
 ! A28   A(4,10,9)             120.9278         calculate D2E/DX2 analytically  !
 ! A29   A(4,10,29)            120.7784         calculate D2E/DX2 analytically  !
 ! A30   A(9,10,29)            118.2704         calculate D2E/DX2 analytically  !
 ! A31   A(8,11,12)            120.1421         calculate D2E/DX2 analytically  !
 ! A32   A(8,11,15)            124.9772         calculate D2E/DX2 analytically  !
 ! A33   A(12,11,15)           114.8726         calculate D2E/DX2 analytically  !
 ! A34   A(11,12,13)           119.6731         calculate D2E/DX2 analytically  !
 ! A35   A(11,12,18)           120.1279         calculate D2E/DX2 analytically  !
 ! A36   A(13,12,18)           120.199          calculate D2E/DX2 analytically  !
 ! A37   A(12,13,14)           120.7109         calculate D2E/DX2 analytically  !
 ! A38   A(12,13,31)           118.5768         calculate D2E/DX2 analytically  !
 ! A39   A(14,13,31)           120.7084         calculate D2E/DX2 analytically  !
 ! A40   A(9,14,13)            122.2146         calculate D2E/DX2 analytically  !
 ! A41   A(9,14,30)            117.6067         calculate D2E/DX2 analytically  !
 ! A42   A(13,14,30)           120.1648         calculate D2E/DX2 analytically  !
 ! A43   A(11,15,16)           125.5597         calculate D2E/DX2 analytically  !
 ! A44   A(15,16,17)           118.4732         calculate D2E/DX2 analytically  !
 ! A45   A(15,16,34)           121.3511         calculate D2E/DX2 analytically  !
 ! A46   A(17,16,34)           120.1747         calculate D2E/DX2 analytically  !
 ! A47   A(16,17,18)           119.318          calculate D2E/DX2 analytically  !
 ! A48   A(16,17,35)           120.1391         calculate D2E/DX2 analytically  !
 ! A49   A(18,17,35)           120.5428         calculate D2E/DX2 analytically  !
 ! A50   A(12,18,17)           121.6013         calculate D2E/DX2 analytically  !
 ! A51   A(12,18,32)           118.262          calculate D2E/DX2 analytically  !
 ! A52   A(17,18,32)           120.1363         calculate D2E/DX2 analytically  !
 ! A53   A(1,19,20)            119.7438         calculate D2E/DX2 analytically  !
 ! A54   A(1,19,26)            120.5435         calculate D2E/DX2 analytically  !
 ! A55   A(20,19,26)           119.7126         calculate D2E/DX2 analytically  !
 ! A56   A(19,20,21)           123.2447         calculate D2E/DX2 analytically  !
 ! A57   A(19,20,25)           118.5602         calculate D2E/DX2 analytically  !
 ! A58   A(21,20,25)           118.195          calculate D2E/DX2 analytically  !
 ! A59   A(20,21,22)           118.338          calculate D2E/DX2 analytically  !
 ! A60   A(20,21,24)           119.4349         calculate D2E/DX2 analytically  !
 ! A61   A(22,21,24)           122.2271         calculate D2E/DX2 analytically  !
 ! A62   A(2,22,21)            116.7298         calculate D2E/DX2 analytically  !
 ! A63   A(2,22,23)            106.6538         calculate D2E/DX2 analytically  !
 ! A64   A(21,22,23)           136.5944         calculate D2E/DX2 analytically  !
 ! A65   A(7,23,22)            108.1496         calculate D2E/DX2 analytically  !
 ! A66   A(7,23,36)            128.2042         calculate D2E/DX2 analytically  !
 ! A67   A(22,23,36)           123.5534         calculate D2E/DX2 analytically  !
 ! A68   A(23,36,37)           122.0472         calculate D2E/DX2 analytically  !
 ! A69   A(23,36,38)           117.8801         calculate D2E/DX2 analytically  !
 ! A70   A(37,36,38)           119.8519         calculate D2E/DX2 analytically  !
 ! A71   A(33,37,36)           120.9095         calculate D2E/DX2 analytically  !
 ! A72   A(33,37,39)           116.217          calculate D2E/DX2 analytically  !
 ! A73   A(36,37,39)           121.0134         calculate D2E/DX2 analytically  !
 ! D1    D(5,1,2,3)              0.0959         calculate D2E/DX2 analytically  !
 ! D2    D(5,1,2,22)          -179.9952         calculate D2E/DX2 analytically  !
 ! D3    D(19,1,2,3)          -179.9843         calculate D2E/DX2 analytically  !
 ! D4    D(19,1,2,22)           -0.0754         calculate D2E/DX2 analytically  !
 ! D5    D(2,1,5,6)             -0.3441         calculate D2E/DX2 analytically  !
 ! D6    D(2,1,5,27)           179.7553         calculate D2E/DX2 analytically  !
 ! D7    D(19,1,5,6)           179.7505         calculate D2E/DX2 analytically  !
 ! D8    D(19,1,5,27)           -0.1501         calculate D2E/DX2 analytically  !
 ! D9    D(2,1,19,20)           -0.2427         calculate D2E/DX2 analytically  !
 ! D10   D(2,1,19,26)          179.8761         calculate D2E/DX2 analytically  !
 ! D11   D(5,1,19,20)          179.6629         calculate D2E/DX2 analytically  !
 ! D12   D(5,1,19,26)           -0.2183         calculate D2E/DX2 analytically  !
 ! D13   D(1,2,3,4)              0.5744         calculate D2E/DX2 analytically  !
 ! D14   D(1,2,3,7)            179.5518         calculate D2E/DX2 analytically  !
 ! D15   D(22,2,3,4)          -179.3485         calculate D2E/DX2 analytically  !
 ! D16   D(22,2,3,7)            -0.3711         calculate D2E/DX2 analytically  !
 ! D17   D(1,2,22,21)            0.5844         calculate D2E/DX2 analytically  !
 ! D18   D(1,2,22,23)          179.1617         calculate D2E/DX2 analytically  !
 ! D19   D(3,2,22,21)         -179.4957         calculate D2E/DX2 analytically  !
 ! D20   D(3,2,22,23)           -0.9184         calculate D2E/DX2 analytically  !
 ! D21   D(2,3,4,6)             -0.935          calculate D2E/DX2 analytically  !
 ! D22   D(2,3,4,10)           178.3862         calculate D2E/DX2 analytically  !
 ! D23   D(7,3,4,6)           -179.7118         calculate D2E/DX2 analytically  !
 ! D24   D(7,3,4,10)            -0.3905         calculate D2E/DX2 analytically  !
 ! D25   D(2,3,7,8)           -175.5975         calculate D2E/DX2 analytically  !
 ! D26   D(2,3,7,23)             1.508          calculate D2E/DX2 analytically  !
 ! D27   D(4,3,7,8)              3.2884         calculate D2E/DX2 analytically  !
 ! D28   D(4,3,7,23)          -179.6061         calculate D2E/DX2 analytically  !
 ! D29   D(3,4,6,5)              0.6911         calculate D2E/DX2 analytically  !
 ! D30   D(3,4,6,28)          -179.5316         calculate D2E/DX2 analytically  !
 ! D31   D(10,4,6,5)          -178.5122         calculate D2E/DX2 analytically  !
 ! D32   D(10,4,6,28)            1.265          calculate D2E/DX2 analytically  !
 ! D33   D(3,4,10,9)            -1.9401         calculate D2E/DX2 analytically  !
 ! D34   D(3,4,10,29)          179.8464         calculate D2E/DX2 analytically  !
 ! D35   D(6,4,10,9)           177.273          calculate D2E/DX2 analytically  !
 ! D36   D(6,4,10,29)           -0.9406         calculate D2E/DX2 analytically  !
 ! D37   D(1,5,6,4)             -0.0536         calculate D2E/DX2 analytically  !
 ! D38   D(1,5,6,28)          -179.8296         calculate D2E/DX2 analytically  !
 ! D39   D(27,5,6,4)           179.8468         calculate D2E/DX2 analytically  !
 ! D40   D(27,5,6,28)            0.0708         calculate D2E/DX2 analytically  !
 ! D41   D(3,7,8,9)             -3.6227         calculate D2E/DX2 analytically  !
 ! D42   D(3,7,8,11)           173.8596         calculate D2E/DX2 analytically  !
 ! D43   D(23,7,8,9)          -179.4598         calculate D2E/DX2 analytically  !
 ! D44   D(23,7,8,11)           -1.9775         calculate D2E/DX2 analytically  !
 ! D45   D(3,7,23,22)           -2.0384         calculate D2E/DX2 analytically  !
 ! D46   D(3,7,23,36)          174.5162         calculate D2E/DX2 analytically  !
 ! D47   D(8,7,23,22)          174.0863         calculate D2E/DX2 analytically  !
 ! D48   D(8,7,23,36)           -9.3592         calculate D2E/DX2 analytically  !
 ! D49   D(7,8,9,10)             1.6423         calculate D2E/DX2 analytically  !
 ! D50   D(7,8,9,14)           179.7514         calculate D2E/DX2 analytically  !
 ! D51   D(11,8,9,10)         -176.0627         calculate D2E/DX2 analytically  !
 ! D52   D(11,8,9,14)            2.0463         calculate D2E/DX2 analytically  !
 ! D53   D(7,8,11,12)         -176.7066         calculate D2E/DX2 analytically  !
 ! D54   D(7,8,11,15)            2.1968         calculate D2E/DX2 analytically  !
 ! D55   D(9,8,11,12)            0.742          calculate D2E/DX2 analytically  !
 ! D56   D(9,8,11,15)          179.6454         calculate D2E/DX2 analytically  !
 ! D57   D(8,9,10,4)             1.3221         calculate D2E/DX2 analytically  !
 ! D58   D(8,9,10,29)          179.5794         calculate D2E/DX2 analytically  !
 ! D59   D(14,9,10,4)         -176.8314         calculate D2E/DX2 analytically  !
 ! D60   D(14,9,10,29)           1.4259         calculate D2E/DX2 analytically  !
 ! D61   D(8,9,14,13)           -2.8321         calculate D2E/DX2 analytically  !
 ! D62   D(8,9,14,30)          178.5223         calculate D2E/DX2 analytically  !
 ! D63   D(10,9,14,13)         175.3986         calculate D2E/DX2 analytically  !
 ! D64   D(10,9,14,30)          -3.247          calculate D2E/DX2 analytically  !
 ! D65   D(8,11,12,13)          -2.8947         calculate D2E/DX2 analytically  !
 ! D66   D(8,11,12,18)         177.062          calculate D2E/DX2 analytically  !
 ! D67   D(15,11,12,13)        178.0957         calculate D2E/DX2 analytically  !
 ! D68   D(15,11,12,18)         -1.9476         calculate D2E/DX2 analytically  !
 ! D69   D(8,11,15,16)        -177.4502         calculate D2E/DX2 analytically  !
 ! D70   D(12,11,15,16)          1.5046         calculate D2E/DX2 analytically  !
 ! D71   D(11,12,13,14)          2.2299         calculate D2E/DX2 analytically  !
 ! D72   D(11,12,13,31)       -178.4826         calculate D2E/DX2 analytically  !
 ! D73   D(18,12,13,14)       -177.7268         calculate D2E/DX2 analytically  !
 ! D74   D(18,12,13,31)          1.5607         calculate D2E/DX2 analytically  !
 ! D75   D(11,12,18,17)          0.5792         calculate D2E/DX2 analytically  !
 ! D76   D(11,12,18,32)       -179.2156         calculate D2E/DX2 analytically  !
 ! D77   D(13,12,18,17)       -179.4643         calculate D2E/DX2 analytically  !
 ! D78   D(13,12,18,32)          0.7409         calculate D2E/DX2 analytically  !
 ! D79   D(12,13,14,9)           0.6525         calculate D2E/DX2 analytically  !
 ! D80   D(12,13,14,30)        179.2643         calculate D2E/DX2 analytically  !
 ! D81   D(31,13,14,9)        -178.6198         calculate D2E/DX2 analytically  !
 ! D82   D(31,13,14,30)         -0.008          calculate D2E/DX2 analytically  !
 ! D83   D(11,15,16,17)          0.3894         calculate D2E/DX2 analytically  !
 ! D84   D(11,15,16,34)       -179.9608         calculate D2E/DX2 analytically  !
 ! D85   D(15,16,17,18)         -1.8815         calculate D2E/DX2 analytically  !
 ! D86   D(15,16,17,35)        178.2242         calculate D2E/DX2 analytically  !
 ! D87   D(34,16,17,18)        178.4644         calculate D2E/DX2 analytically  !
 ! D88   D(34,16,17,35)         -1.4298         calculate D2E/DX2 analytically  !
 ! D89   D(16,17,18,12)          1.4054         calculate D2E/DX2 analytically  !
 ! D90   D(16,17,18,32)       -178.8036         calculate D2E/DX2 analytically  !
 ! D91   D(35,17,18,12)       -178.7008         calculate D2E/DX2 analytically  !
 ! D92   D(35,17,18,32)          1.0902         calculate D2E/DX2 analytically  !
 ! D93   D(1,19,20,21)           0.0446         calculate D2E/DX2 analytically  !
 ! D94   D(1,19,20,25)        -179.819          calculate D2E/DX2 analytically  !
 ! D95   D(26,19,20,21)        179.9268         calculate D2E/DX2 analytically  !
 ! D96   D(26,19,20,25)          0.0632         calculate D2E/DX2 analytically  !
 ! D97   D(19,20,21,22)          0.478          calculate D2E/DX2 analytically  !
 ! D98   D(19,20,21,24)       -179.4687         calculate D2E/DX2 analytically  !
 ! D99   D(25,20,21,22)       -179.6579         calculate D2E/DX2 analytically  !
 ! D100  D(25,20,21,24)          0.3954         calculate D2E/DX2 analytically  !
 ! D101  D(20,21,22,2)          -0.7446         calculate D2E/DX2 analytically  !
 ! D102  D(20,21,22,23)       -178.7608         calculate D2E/DX2 analytically  !
 ! D103  D(24,21,22,2)         179.2005         calculate D2E/DX2 analytically  !
 ! D104  D(24,21,22,23)          1.1843         calculate D2E/DX2 analytically  !
 ! D105  D(2,22,23,7)            1.8506         calculate D2E/DX2 analytically  !
 ! D106  D(2,22,23,36)        -174.9008         calculate D2E/DX2 analytically  !
 ! D107  D(21,22,23,7)        -179.9987         calculate D2E/DX2 analytically  !
 ! D108  D(21,22,23,36)          3.2498         calculate D2E/DX2 analytically  !
 ! D109  D(7,23,36,37)         -36.489          calculate D2E/DX2 analytically  !
 ! D110  D(7,23,36,38)         138.0995         calculate D2E/DX2 analytically  !
 ! D111  D(22,23,36,37)        139.5816         calculate D2E/DX2 analytically  !
 ! D112  D(22,23,36,38)        -45.8299         calculate D2E/DX2 analytically  !
 ! D113  D(23,36,37,33)        -17.9794         calculate D2E/DX2 analytically  !
 ! D114  D(23,36,37,39)        178.134          calculate D2E/DX2 analytically  !
 ! D115  D(38,36,37,33)        167.5361         calculate D2E/DX2 analytically  !
 ! D116  D(38,36,37,39)          3.6495         calculate D2E/DX2 analytically  !
 --------------------------------------------------------------------------------
 Trust Radius=3.00D-01 FncErr=1.00D-07 GrdErr=1.00D-06
 Number of steps in this run=    234 maximum allowed number of steps=    234.
 Search for a saddle point of order  1.
 GradGradGradGradGradGradGradGradGradGradGradGradGradGradGradGradGradGrad

                          Input orientation:                          
 ---------------------------------------------------------------------
 Center     Atomic      Atomic             Coordinates (Angstroms)
 Number     Number       Type             X           Y           Z
 ---------------------------------------------------------------------
      1          6           0        3.805570    0.432940   -0.095280
      2          6           0        2.518570   -0.085240   -0.043840
      3          6           0        1.366480    0.700320    0.050420
      4          6           0        1.439030    2.087710    0.088000
      5          6           0        3.892850    1.873140   -0.042360
      6          6           0        2.767340    2.656780    0.045220
      7          6           0        0.202220   -0.127820    0.072580
      8          6           0       -1.063340    0.552730    0.068790
      9          6           0       -1.010420    2.002780    0.125250
     10          6           0        0.194530    2.738180    0.147760
     11          6           0       -2.371820   -0.070850   -0.037270
     12          6           0       -3.556330    0.742190   -0.098990
     13          6           0       -3.445410    2.163920    0.006990
     14          6           0       -2.233620    2.756230    0.119800
     15          6           0       -2.600480   -1.453140   -0.109560
     16          6           0       -3.821420   -2.050450   -0.258800
     17          6           0       -4.963590   -1.229700   -0.358740
     18          6           0       -4.822050    0.138990   -0.264340
     19          6           0        4.839820   -0.537330   -0.190480
     20          6           0        4.516400   -1.890630   -0.219930
     21          6           0        3.184650   -2.372900   -0.160170
     22          6           0        2.150200   -1.446820   -0.077730
     23          6           0        0.690250   -1.489130    0.023050
     24          1           0        3.003630   -3.442060   -0.178960
     25          1           0        5.320830   -2.614530   -0.289860
     26          1           0        5.879630   -0.231830   -0.238460
     27          1           0        4.868820    2.346420   -0.074090
     28          1           0        2.873340    3.736210    0.080030
     29          1           0        0.135130    3.821150    0.183420
     30          1           0       -2.159030    3.836310    0.187650
     31          1           0       -4.352610    2.758430   -0.016760
     32          1           0       -5.694060    0.781810   -0.319960
     33          1           0       -1.295870   -2.131770    1.765020
     34          1           0       -3.919780   -3.130490   -0.306200
     35          1           0       -5.942360   -1.673890   -0.506640
     36          6           0       -0.070650   -2.719370    0.130330
     37          6           0       -1.140010   -2.834040    0.955320
     38          1           0        0.184410   -3.535090   -0.541510
     39          1           0       -1.714670   -3.751540    1.000170
 ---------------------------------------------------------------------
                    Distance matrix (angstroms):
                    1          2          3          4          5
     1  C    0.000000
     2  C    1.388354   0.000000
     3  C    2.458024   1.397605   0.000000
     4  C    2.893504   2.429918   1.389794   0.000000
     5  C    1.443812   2.392467   2.786873   2.466631   0.000000
     6  C    2.458277   2.754722   2.406278   1.445710   1.374240
     7  C    3.650584   2.319665   1.428919   2.537422   4.199738
     8  C    4.873146   3.640023   2.434368   2.935709   5.130269
     9  C    5.070186   4.103924   2.711394   2.451205   4.907846
    10  C    4.291015   3.661908   2.352831   1.405512   3.802895
    11  C    6.198170   4.890416   3.818020   4.381512   6.559361
    12  C    7.368393   6.131239   4.925255   5.176776   7.534755
    13  C    7.455432   6.374195   5.029741   4.885706   7.344185
    14  C    6.474238   5.539318   4.146360   3.733134   6.191912
    15  C    6.677947   5.299070   4.516609   5.375341   7.296026
    16  C    8.022776   6.641064   5.880192   6.702013   8.657446
    17  C    8.929275   7.575729   6.630398   7.224841   9.389582
    18  C    8.634281   7.347353   6.221902   6.566793   8.888534
    19  C    1.421323   2.369407   3.695119   4.305085   2.594043
    20  C    2.433063   2.698475   4.087555   5.039069   3.819203
    21  C    2.874455   2.385494   3.576978   4.796438   4.306307
    22  C    2.504806   1.410938   2.289290   3.609173   3.749695
    23  C    3.662455   2.306108   2.291665   3.654952   4.643898
    24  H    3.957996   3.394375   4.460066   5.753051   5.390800
    25  H    3.408951   3.782921   5.171161   6.109191   4.715884
    26  H    2.182692   3.369880   4.617454   5.020535   2.901146
    27  H    2.189145   3.381946   3.871890   3.443351   1.085135
    28  H    3.436769   3.839881   3.389415   2.185146   2.127301
    29  H    5.002976   4.581737   3.357602   2.171192   4.238653
    30  H    6.873095   6.108362   4.720433   4.001696   6.366490
    31  H    8.483512   7.436418   6.078513   5.831289   8.292889
    32  H    9.508689   8.262887   7.070718   7.263111   9.652819
    33  H    6.005260   4.691504   4.248376   5.300574   6.799172
    34  H    8.510203   7.127042   6.538106   7.490117   9.281331
    35  H    9.981487   8.621214   7.704955   8.305911  10.465579
    36  C    5.001304   3.697707   3.710257   5.038744   6.068797
    37  C    6.019608   4.683955   4.426402   5.623817   6.962944
    38  H    5.390472   4.194931   4.436932   5.795363   6.576521
    39  H    7.013054   5.696669   5.496778   6.698859   8.010504
                    6          7          8          9         10
     6  C    0.000000
     7  C    3.786104   0.000000
     8  C    4.370548   1.436943   0.000000
     9  C    3.834787   2.452086   1.452113   0.000000
    10  C    2.576139   2.866996   2.522829   1.411816   0.000000
    11  C    5.818740   2.577013   1.453348   2.485913   3.809336
    12  C    6.608726   3.861742   2.505802   2.849742   4.256032
    13  C    6.232386   4.308315   2.876458   2.443180   3.687649
    14  C    5.002505   3.775353   2.495510   1.436640   2.428378
    15  C    6.762314   3.105604   2.533401   3.811405   5.044349
    16  C    8.103222   4.471688   3.806687   4.947513   6.262916
    17  C    8.662285   5.299601   4.309500   5.129398   6.527390
    18  C    8.002121   5.042618   3.796058   4.260753   5.664953
    19  C    3.814848   4.663071   6.008556   6.385699   5.694040
    20  C    4.879391   4.669605   6.098103   6.769308   6.343472
    21  C    5.051140   3.740247   5.163057   6.068497   5.929484
    22  C    4.151567   2.357325   3.787678   4.682997   4.624902
    23  C    4.637172   1.446994   2.691907   3.885378   4.258103
    24  H    6.107531   4.346879   5.706135   6.771368   6.796555
    25  H    5.866796   5.702215   7.135670   7.847076   7.424417
    26  H    4.255689   5.686875   6.993909   7.252486   6.425767
    27  H    2.127622   5.283988   6.199053   5.892647   4.695922
    28  H    1.085181   4.697410   5.062817   4.253283   2.859488
    29  H    2.881560   3.951095   3.483108   2.149916   1.085184
    30  H    5.067613   4.615525   3.463605   2.164493   2.597446
    31  H    7.120945   5.393042   3.961279   3.429491   4.550160
    32  H    8.674339   5.978932   4.652652   4.860603   6.222671
    33  H    6.511344   3.020669   3.183992   4.456998   5.343523
    34  H    8.850625   5.113745   4.676107   5.916163   7.181568
    35  H    9.742593   6.362522   5.393866   6.183949   7.586568
    36  C    6.079837   2.606516   3.419921   4.814758   5.464016
    37  C    6.800351   3.147132   3.501717   4.909240   5.786431
    38  H    6.734615   3.462212   4.317362   5.704401   6.311031
    39  H    7.878255   4.203122   4.451791   5.862905   6.818219
                   11         12         13         14         15
    11  C    0.000000
    12  C    1.438022   0.000000
    13  C    2.479668   1.429983   0.000000
    14  C    2.834811   2.419460   1.353511   0.000000
    15  C    1.402939   2.394417   3.716263   4.231547   0.000000
    16  C    2.463581   2.809742   4.239451   5.076280   1.367387
    17  C    2.857192   2.436432   3.735677   4.854830   2.386693
    18  C    2.469660   1.411821   2.463554   3.701010   2.737555
    19  C    7.228335   8.493579   8.716696   7.808800   7.496887
    20  C    7.126888   8.492075   8.937633   8.201920   7.131168
    21  C    6.015721   7.426193   8.035445   7.466191   5.858007
    22  C    4.726901   6.112013   6.659990   6.076391   4.750791
    23  C    3.375119   4.798659   5.518036   5.155721   3.293598
    24  H    6.346700   7.781222   8.547029   8.120150   5.946988
    25  H    8.106231   9.492522   9.988427   9.278071   8.008026
    26  H    8.255472   9.487123   9.631004   8.653420   8.568575
    27  H    7.633572   8.576557   8.316628   7.116895   8.380236
    28  H    6.482219   7.094847   6.511838   5.200287   7.545065
    29  H    4.634778   4.815249   3.949406   2.597899   5.948742
    30  H    3.919409   3.407079   2.117617   1.084777   5.316154
    31  H    3.453806   2.169343   1.084905   2.123387   4.562444
    32  H    3.441543   2.149485   2.659615   4.008287   3.822238
    33  H    2.941651   4.104127   5.115090   5.242010   2.382561
    34  H    3.439462   3.895213   5.324837   6.138248   2.143064
    35  H    3.941929   3.420053   4.607316   5.811466   3.372620
    36  C    3.512568   4.917820   5.937233   5.887338   2.839177
    37  C    3.183993   4.442926   5.585141   5.757186   2.274605
    38  H    4.334689   5.699481   6.779024   6.772363   3.503813
    39  H    3.880156   4.979305   6.242959   6.587521   2.701630
                   16         17         18         19         20
    16  C    0.000000
    17  C    1.410025   0.000000
    18  C    2.407268   1.379223   0.000000
    19  C    8.792683   9.829269   9.685794   0.000000
    20  C    8.339442   9.504015   9.556567   1.391721   0.000000
    21  C    7.014180   8.230441   8.392121   2.471806   1.417644
    22  C    6.004782   7.122648   7.152754   2.841468   2.411657
    23  C    4.555182   5.672651   5.754895   4.262681   3.854824
    24  H    6.965936   8.270638   8.606537   3.436449   2.167276
    25  H    9.159688  10.377466  10.510021   2.134480   1.084449
    26  H    9.870064  10.889703  10.708134   1.084821   2.147174
    27  H    9.740988  10.466420   9.940921   2.886244   4.254182
    28  H    8.855510   9.288178   8.501624   4.712045   5.869493
    29  H    7.094049   7.197358   6.191319   6.424193   7.209899
    30  H    6.133254   5.816232   4.578880   8.261695   8.804847
    31  H    4.844179   4.049127   2.672665   9.766933  10.015706
    32  H    3.395912   2.140388   1.084764  10.616945  10.554877
    33  H    3.237416   4.333158   4.659249   6.634223   6.146597
    34  H    1.085545   2.169171   3.391953   9.136108   8.527240
    35  H    2.168319   1.084975   2.144840  10.846526  10.464934
    36  C    3.829772   5.138012   5.558938   5.383023   4.674454
    37  C    3.045991   4.349761   4.887115   6.507388   5.853735
    38  H    4.281443   5.643592   6.216135   5.548210   4.644760
    39  H    2.986153   4.331489   5.137219   7.396630   6.616484
                   21         22         23         24         25
    21  C    0.000000
    22  C    1.390866   0.000000
    23  C    2.652669   1.464036   0.000000
    24  H    1.084539   2.172458   3.034217   0.000000
    25  H    2.153711   3.385475   4.775637   2.463031   0.000000
    26  H    3.442852   3.925644   5.345920   4.310510   2.447889
    27  H    5.011569   4.666860   5.672859   6.082469   4.986170
    28  H    6.121751   5.235611   5.663330   7.184122   6.816078
    29  H    6.912589   5.646257   5.341624   7.817534   8.278494
    30  H    8.199401   6.822855   6.042003   8.930965   9.888865
    31  H    9.119287   7.744313   6.593466   9.622196  11.068818
    32  H    9.423864   8.158301   6.784854   9.670097  11.526657
    33  H    4.882577   3.967402   2.718845   4.897103   6.945236
    34  H    7.146201   6.303301   4.904574   6.931585   9.255018
    35  H    9.160293   8.107099   6.656292   9.124940  11.304479
    36  C    3.286550   2.568043   1.450506   3.173191   5.408845
    37  C    4.489950   3.717130   2.455150   4.338898   6.583397
    38  H    3.239992   2.905218   2.181869   2.843958   5.224325
    39  H    5.220189   4.627183   3.443385   4.873241   7.242598
                   26         27         28         29         30
    26  H    0.000000
    27  H    2.774190   0.000000
    28  H    4.988442   2.436639   0.000000
    29  H    7.043004   4.964772   2.741477   0.000000
    30  H    9.019500   7.188808   5.034516   2.294214   0.000000
    31  H   10.662530   9.230808   7.292446   4.616195   2.452632
    32  H   11.618279  10.680959   9.071318   6.593211   4.699370
    33  H    7.688401   7.838362   7.392881   6.323486   6.233067
    34  H   10.219357  10.358084   9.666810   8.062712   7.202807
    35  H   11.912636  11.542600  10.360016   8.222380   6.719965
    36  C    6.459852   7.078303   7.095359   6.543972   6.880520
    37  C    7.581026   8.000181   7.748632   6.820071   6.791266
    38  H    6.590819   7.533548   7.777433   7.392038   7.769229
    39  H    8.461439   9.037781   8.829660   7.838015   7.644155
                   31         32         33         34         35
    31  H    0.000000
    32  H    2.407996   0.000000
    33  H    6.035930   5.672756   0.000000
    34  H    5.911894   4.295853   3.488882   0.000000
    35  H    4.734210   2.475271   5.192298   2.500538   0.000000
    36  C    6.954359   6.639560   2.125711   3.895559   5.997978
    37  C    6.522381   5.953157   1.083093   3.066991   5.152266
    38  H    7.776137   7.296651   3.079061   4.130793   6.403327
    39  H    7.097365   6.174913   1.839577   2.637198   4.945753
                   36         37         38         39
    36  C    0.000000
    37  C    1.355466   0.000000
    38  H    1.087117   2.118032   0.000000
    39  H    2.127157   1.083537   2.455633   0.000000
 Stoichiometry    C25H14(3)
 Framework group  C1[X(C25H14)]
 Deg. of freedom   111
 Full point group                 C1      NOp   1
 Largest Abelian subgroup         C1      NOp   1
 Largest concise Abelian subgroup C1      NOp   1
                         Standard orientation:                         
 ---------------------------------------------------------------------
 Center     Atomic      Atomic             Coordinates (Angstroms)
 Number     Number       Type             X           Y           Z
 ---------------------------------------------------------------------
      1          6           0        3.805570    0.432941   -0.095280
      2          6           0        2.518570   -0.085239   -0.043840
      3          6           0        1.366480    0.700320    0.050420
      4          6           0        1.439029    2.087710    0.088000
      5          6           0        3.892849    1.873141   -0.042360
      6          6           0        2.767339    2.656781    0.045220
      7          6           0        0.202220   -0.127820    0.072580
      8          6           0       -1.063340    0.552729    0.068790
      9          6           0       -1.010421    2.002779    0.125250
     10          6           0        0.194529    2.738180    0.147760
     11          6           0       -2.371820   -0.070851   -0.037270
     12          6           0       -3.556330    0.742188   -0.098990
     13          6           0       -3.445411    2.163918    0.006990
     14          6           0       -2.233621    2.756229    0.119800
     15          6           0       -2.600480   -1.453141   -0.109560
     16          6           0       -3.821419   -2.050452   -0.258800
     17          6           0       -4.963590   -1.229702   -0.358740
     18          6           0       -4.822050    0.138988   -0.264340
     19          6           0        4.839820   -0.537329   -0.190480
     20          6           0        4.516401   -1.890629   -0.219930
     21          6           0        3.184651   -2.372899   -0.160170
     22          6           0        2.150200   -1.446820   -0.077730
     23          6           0        0.690250   -1.489130    0.023050
     24          1           0        3.003631   -3.442059   -0.178960
     25          1           0        5.320831   -2.614528   -0.289860
     26          1           0        5.879630   -0.231828   -0.238460
     27          1           0        4.868819    2.346421   -0.074090
     28          1           0        2.873338    3.736211    0.080030
     29          1           0        0.135128    3.821150    0.183420
     30          1           0       -2.159032    3.836309    0.187650
     31          1           0       -4.352611    2.758428   -0.016760
     32          1           0       -5.694060    0.781807   -0.319960
     33          1           0       -1.295869   -2.131771    1.765020
     34          1           0       -3.919779   -3.130492   -0.306200
     35          1           0       -5.942360   -1.673893   -0.506640
     36          6           0       -0.070649   -2.719370    0.130330
     37          6           0       -1.140009   -2.834041    0.955320
     38          1           0        0.184411   -3.535090   -0.541510
     39          1           0       -1.714669   -3.751541    1.000170
 ---------------------------------------------------------------------
 Rotational constants (GHZ):      0.4719461      0.1796023      0.1315995
 Standard basis: 6-311+G(d,p) (5D, 7F)
 There are   659 symmetry adapted cartesian basis functions of A   symmetry.
 There are   634 symmetry adapted basis functions of A   symmetry.
   634 basis functions,  1012 primitive gaussians,   659 cartesian basis functions
    83 alpha electrons       81 beta electrons
       nuclear repulsion energy      1925.3914603092 Hartrees.
 NAtoms=   39 NActive=   39 NUniq=   39 SFac= 1.00D+00 NAtFMM=   60 NAOKFM=F Big=F
 Integral buffers will be    131072 words long.
 Raffenetti 2 integral format.
 Two-electron integral symmetry is turned on.
 One-electron integrals computed using PRISM.
 NBasis=   634 RedAO= T EigKep=  1.21D-06  NBF=   634
 NBsUse=   617 1.00D-06 EigRej=  8.13D-07 NBFU=   617
 ExpMin= 4.38D-02 ExpMax= 4.56D+03 ExpMxC= 6.82D+02 IAcc=2 IRadAn=         4 AccDes= 0.00D+00
 Harris functional with IExCor=  402 and IRadAn=       4 diagonalized for initial guess.
 HarFok:  IExCor=  402 AccDes= 0.00D+00 IRadAn=         4 IDoV= 1 UseB2=F ITyADJ=14
 ICtDFT=  3500011 ScaDFX=  1.000000  1.000000  1.000000  1.000000
 FoFCou: FMM=F IPFlag=           0 FMFlag=      100000 FMFlg1=           0
         NFxFlg=           0 DoJE=T BraDBF=F KetDBF=T FulRan=T
         wScrn=  0.000000 ICntrl=     500 IOpCl=  0 I1Cent=   200000004 NGrid=           0
         NMat0=    1 NMatS0=      1 NMatT0=    0 NMatD0=    1 NMtDS0=    0 NMtDT0=    0
 Petite list used in FoFCou.
 Initial guess <Sx>= 0.0000 <Sy>= 0.0000 <Sz>= 1.0000 <S**2>= 2.0000 S= 1.0000
 Requested convergence on RMS density matrix=1.00D-08 within 128 cycles.
 Requested convergence on MAX density matrix=1.00D-06.
 Requested convergence on             energy=1.00D-06.
 No special actions if energy rises.
 Restarting incremental Fock formation.
 SCF Done:  E(UB3LYP) =  -961.215957375     A.U. after   23 cycles
            NFock= 23  Conv=0.71D-08     -V/T= 2.0044
 <Sx>= 0.0000 <Sy>= 0.0000 <Sz>= 1.0000 <S**2>= 2.0479 S= 1.0159
 <L.S>= 0.000000000000E+00
 Annihilation of the first spin contaminant:
 S**2 before annihilation     2.0479,   after     2.0014
 DoSCS=F DFT=T ScalE2(SS,OS)=  1.000000  1.000000
 Range of M.O.s used for correlation:     1   617
 NBasis=   634 NAE=    83 NBE=    81 NFC=     0 NFV=     0
 NROrb=    617 NOA=    83 NOB=    81 NVA=   534 NVB=   536

 **** Warning!!: The largest alpha MO coefficient is  0.11577836D+03


 **** Warning!!: The largest beta MO coefficient is  0.11343912D+03


 **** Warning!!: The smallest beta delta epsilon is  0.76707514D-01

 Symmetrizing basis deriv contribution to polar:
 IMax=3 JMax=2 DiffMx= 0.00D+00
 G2DrvN: will do    40 centers at a time, making    1 passes.
 Calling FoFCou, ICntrl=  3107 FMM=F I1Cent=   0 AccDes= 0.00D+00.
 End of G2Drv F.D. properties file   721 does not exist.
 End of G2Drv F.D. properties file   722 does not exist.
 End of G2Drv F.D. properties file   788 does not exist.
          IDoAtm=111111111111111111111111111111111111111
          Differentiating once with respect to nuclear coordinates.
          There are   120 degrees of freedom in the 1st order CPHF.  IDoFFX=6 NUNeed=     0.
    114 vectors produced by pass  0 Test12= 8.77D-14 1.00D-09 XBig12= 5.47D-01 2.42D-01.
 AX will form   114 AO Fock derivatives at one time.
    114 vectors produced by pass  1 Test12= 8.77D-14 1.00D-09 XBig12= 1.62D-01 6.64D-02.
    114 vectors produced by pass  2 Test12= 8.77D-14 1.00D-09 XBig12= 2.79D-03 9.55D-03.
    114 vectors produced by pass  3 Test12= 8.77D-14 1.00D-09 XBig12= 4.11D-05 9.23D-04.
    114 vectors produced by pass  4 Test12= 8.77D-14 1.00D-09 XBig12= 3.78D-07 6.46D-05.
    114 vectors produced by pass  5 Test12= 8.77D-14 1.00D-09 XBig12= 2.70D-09 4.10D-06.
    114 vectors produced by pass  6 Test12= 8.77D-14 1.00D-09 XBig12= 4.19D-11 4.30D-07.
    114 vectors produced by pass  7 Test12= 8.77D-14 1.00D-09 XBig12= 9.52D-12 1.95D-07.
    104 vectors produced by pass  8 Test12= 8.77D-14 1.00D-09 XBig12= 1.11D-12 5.98D-08.
     46 vectors produced by pass  9 Test12= 8.77D-14 1.00D-09 XBig12= 8.75D-15 4.71D-09.
     14 vectors produced by pass 10 Test12= 8.77D-14 1.00D-09 XBig12= 5.98D-16 1.27D-09.
     14 vectors produced by pass 11 Test12= 8.77D-14 1.00D-09 XBig12= 1.28D-13 1.78D-08.
     14 vectors produced by pass 12 Test12= 8.77D-14 1.00D-09 XBig12= 1.21D-12 5.67D-08.
     14 vectors produced by pass 13 Test12= 8.77D-14 1.00D-09 XBig12= 5.30D-13 4.41D-08.
     14 vectors produced by pass 14 Test12= 8.77D-14 1.00D-09 XBig12= 3.63D-13 2.86D-08.
     14 vectors produced by pass 15 Test12= 8.77D-14 1.00D-09 XBig12= 3.73D-13 2.72D-08.
     14 vectors produced by pass 16 Test12= 8.77D-14 1.00D-09 XBig12= 2.69D-13 2.28D-08.
     14 vectors produced by pass 17 Test12= 8.77D-14 1.00D-09 XBig12= 2.45D-13 2.11D-08.
     14 vectors produced by pass 18 Test12= 8.77D-14 1.00D-09 XBig12= 2.05D-13 2.32D-08.
     14 vectors produced by pass 19 Test12= 8.77D-14 1.00D-09 XBig12= 1.01D-13 1.85D-08.
     14 vectors produced by pass 20 Test12= 8.77D-14 1.00D-09 XBig12= 2.55D-13 2.55D-08.
     14 vectors produced by pass 21 Test12= 8.77D-14 1.00D-09 XBig12= 1.30D-13 1.90D-08.
     14 vectors produced by pass 22 Test12= 8.77D-14 1.00D-09 XBig12= 8.06D-14 1.41D-08.
     14 vectors produced by pass 23 Test12= 8.77D-14 1.00D-09 XBig12= 1.66D-13 1.81D-08.
     14 vectors produced by pass 24 Test12= 8.77D-14 1.00D-09 XBig12= 9.91D-14 1.56D-08.
     14 vectors produced by pass 25 Test12= 8.77D-14 1.00D-09 XBig12= 9.68D-14 1.42D-08.
     14 vectors produced by pass 26 Test12= 8.77D-14 1.00D-09 XBig12= 1.30D-13 1.64D-08.
     14 vectors produced by pass 27 Test12= 8.77D-14 1.00D-09 XBig12= 2.04D-13 1.95D-08.
     14 vectors produced by pass 28 Test12= 8.77D-14 1.00D-09 XBig12= 1.35D-13 1.66D-08.
     14 vectors produced by pass 29 Test12= 8.77D-14 1.00D-09 XBig12= 1.15D-13 1.57D-08.
     14 vectors produced by pass 30 Test12= 8.77D-14 1.00D-09 XBig12= 1.23D-13 1.50D-08.
     14 vectors produced by pass 31 Test12= 8.77D-14 1.00D-09 XBig12= 8.89D-14 1.53D-08.
     14 vectors produced by pass 32 Test12= 8.77D-14 1.00D-09 XBig12= 2.19D-13 2.08D-08.
     14 vectors produced by pass 33 Test12= 8.77D-14 1.00D-09 XBig12= 1.05D-13 1.74D-08.
     14 vectors produced by pass 34 Test12= 8.77D-14 1.00D-09 XBig12= 1.06D-13 1.37D-08.
     14 vectors produced by pass 35 Test12= 8.77D-14 1.00D-09 XBig12= 1.53D-13 1.77D-08.
     14 vectors produced by pass 36 Test12= 8.77D-14 1.00D-09 XBig12= 6.44D-14 1.09D-08.
     14 vectors produced by pass 37 Test12= 8.77D-14 1.00D-09 XBig12= 1.36D-13 1.59D-08.
     14 vectors produced by pass 38 Test12= 8.77D-14 1.00D-09 XBig12= 1.13D-13 1.44D-08.
     14 vectors produced by pass 39 Test12= 8.77D-14 1.00D-09 XBig12= 1.26D-13 1.63D-08.
     14 vectors produced by pass 40 Test12= 8.77D-14 1.00D-09 XBig12= 9.65D-14 1.43D-08.
     14 vectors produced by pass 41 Test12= 8.77D-14 1.00D-09 XBig12= 9.56D-14 1.21D-08.
     14 vectors produced by pass 42 Test12= 8.77D-14 1.00D-09 XBig12= 1.21D-13 1.37D-08.
     14 vectors produced by pass 43 Test12= 8.77D-14 1.00D-09 XBig12= 1.00D-13 1.36D-08.
     14 vectors produced by pass 44 Test12= 8.77D-14 1.00D-09 XBig12= 1.30D-13 1.64D-08.
     14 vectors produced by pass 45 Test12= 8.77D-14 1.00D-09 XBig12= 6.77D-14 1.05D-08.
     14 vectors produced by pass 46 Test12= 8.77D-14 1.00D-09 XBig12= 1.59D-13 1.77D-08.
     14 vectors produced by pass 47 Test12= 8.77D-14 1.00D-09 XBig12= 4.55D-14 8.95D-09.
     14 vectors produced by pass 48 Test12= 8.77D-14 1.00D-09 XBig12= 7.48D-14 1.24D-08.
     14 vectors produced by pass 49 Test12= 8.77D-14 1.00D-09 XBig12= 3.96D-14 8.74D-09.
     14 vectors produced by pass 50 Test12= 8.77D-14 1.00D-09 XBig12= 5.71D-14 9.66D-09.
     14 vectors produced by pass 51 Test12= 8.77D-14 1.00D-09 XBig12= 9.40D-14 1.31D-08.
     14 vectors produced by pass 52 Test12= 8.77D-14 1.00D-09 XBig12= 2.38D-14 8.02D-09.
     14 vectors produced by pass 53 Test12= 8.77D-14 1.00D-09 XBig12= 6.71D-14 1.05D-08.
     14 vectors produced by pass 54 Test12= 8.77D-14 1.00D-09 XBig12= 4.92D-14 8.75D-09.
     14 vectors produced by pass 55 Test12= 8.77D-14 1.00D-09 XBig12= 6.89D-14 1.30D-08.
     14 vectors produced by pass 56 Test12= 8.77D-14 1.00D-09 XBig12= 5.96D-14 9.41D-09.
     14 vectors produced by pass 57 Test12= 8.77D-14 1.00D-09 XBig12= 3.99D-14 9.85D-09.
     14 vectors produced by pass 58 Test12= 8.77D-14 1.00D-09 XBig12= 7.87D-14 1.33D-08.
     14 vectors produced by pass 59 Test12= 8.77D-14 1.00D-09 XBig12= 5.67D-14 1.08D-08.
     14 vectors produced by pass 60 Test12= 8.77D-14 1.00D-09 XBig12= 6.88D-14 1.25D-08.
     14 vectors produced by pass 61 Test12= 8.77D-14 1.00D-09 XBig12= 7.36D-14 1.09D-08.
     14 vectors produced by pass 62 Test12= 8.77D-14 1.00D-09 XBig12= 8.59D-14 1.21D-08.
     14 vectors produced by pass 63 Test12= 8.77D-14 1.00D-09 XBig12= 6.71D-14 9.96D-09.
     14 vectors produced by pass 64 Test12= 8.77D-14 1.00D-09 XBig12= 7.37D-14 1.31D-08.
     14 vectors produced by pass 65 Test12= 8.77D-14 1.00D-09 XBig12= 7.11D-14 1.10D-08.
     12 vectors produced by pass 66 Test12= 8.77D-14 1.00D-09 XBig12= 2.73D-14 5.90D-09.
     12 vectors produced by pass 67 Test12= 8.77D-14 1.00D-09 XBig12= 1.25D-13 1.49D-08.
     12 vectors produced by pass 68 Test12= 8.77D-14 1.00D-09 XBig12= 4.05D-14 8.17D-09.
     12 vectors produced by pass 69 Test12= 8.77D-14 1.00D-09 XBig12= 4.64D-14 8.15D-09.
     12 vectors produced by pass 70 Test12= 8.77D-14 1.00D-09 XBig12= 6.83D-14 9.50D-09.
     12 vectors produced by pass 71 Test12= 8.77D-14 1.00D-09 XBig12= 3.64D-14 7.57D-09.
     12 vectors produced by pass 72 Test12= 8.77D-14 1.00D-09 XBig12= 6.35D-14 1.04D-08.
     10 vectors produced by pass 73 Test12= 8.77D-14 1.00D-09 XBig12= 2.23D-14 5.90D-09.
     10 vectors produced by pass 74 Test12= 8.77D-14 1.00D-09 XBig12= 4.66D-14 7.83D-09.
      9 vectors produced by pass 75 Test12= 8.77D-14 1.00D-09 XBig12= 2.39D-14 7.33D-09.
      9 vectors produced by pass 76 Test12= 8.77D-14 1.00D-09 XBig12= 3.55D-14 6.84D-09.
      9 vectors produced by pass 77 Test12= 8.77D-14 1.00D-09 XBig12= 2.81D-14 7.18D-09.
      9 vectors produced by pass 78 Test12= 8.77D-14 1.00D-09 XBig12= 5.85D-14 1.01D-08.
      9 vectors produced by pass 79 Test12= 8.77D-14 1.00D-09 XBig12= 2.47D-14 6.01D-09.
      9 vectors produced by pass 80 Test12= 8.77D-14 1.00D-09 XBig12= 5.06D-14 8.35D-09.
      9 vectors produced by pass 81 Test12= 8.77D-14 1.00D-09 XBig12= 2.15D-14 5.41D-09.
      9 vectors produced by pass 82 Test12= 8.77D-14 1.00D-09 XBig12= 5.01D-14 9.07D-09.
      9 vectors produced by pass 83 Test12= 8.77D-14 1.00D-09 XBig12= 3.65D-14 6.66D-09.
      9 vectors produced by pass 84 Test12= 8.77D-14 1.00D-09 XBig12= 6.17D-14 1.21D-08.
      9 vectors produced by pass 85 Test12= 8.77D-14 1.00D-09 XBig12= 4.18D-14 6.92D-09.
      9 vectors produced by pass 86 Test12= 8.77D-14 1.00D-09 XBig12= 6.33D-14 9.43D-09.
      9 vectors produced by pass 87 Test12= 8.77D-14 1.00D-09 XBig12= 3.38D-14 6.32D-09.
      9 vectors produced by pass 88 Test12= 8.77D-14 1.00D-09 XBig12= 4.83D-14 1.05D-08.
      9 vectors produced by pass 89 Test12= 8.77D-14 1.00D-09 XBig12= 2.66D-14 6.16D-09.
      9 vectors produced by pass 90 Test12= 8.77D-14 1.00D-09 XBig12= 6.39D-14 8.77D-09.
      9 vectors produced by pass 91 Test12= 8.77D-14 1.00D-09 XBig12= 7.03D-14 8.97D-09.
      8 vectors produced by pass 92 Test12= 8.77D-14 1.00D-09 XBig12= 2.12D-14 4.70D-09.
      8 vectors produced by pass 93 Test12= 8.77D-14 1.00D-09 XBig12= 2.62D-14 5.63D-09.
      8 vectors produced by pass 94 Test12= 8.77D-14 1.00D-09 XBig12= 3.61D-14 7.59D-09.
      8 vectors produced by pass 95 Test12= 8.77D-14 1.00D-09 XBig12= 7.11D-14 1.23D-08.
      8 vectors produced by pass 96 Test12= 8.77D-14 1.00D-09 XBig12= 4.37D-14 8.51D-09.
      8 vectors produced by pass 97 Test12= 8.77D-14 1.00D-09 XBig12= 3.60D-14 7.19D-09.
      8 vectors produced by pass 98 Test12= 8.77D-14 1.00D-09 XBig12= 5.23D-14 8.29D-09.
      8 vectors produced by pass 99 Test12= 8.77D-14 1.00D-09 XBig12= 5.00D-14 8.05D-09.
      8 vectors produced by pass100 Test12= 8.77D-14 1.00D-09 XBig12= 2.29D-14 4.97D-09.
      5 vectors produced by pass101 Test12= 8.77D-14 1.00D-09 XBig12= 1.17D-14 3.84D-09.
      5 vectors produced by pass102 Test12= 8.77D-14 1.00D-09 XBig12= 3.44D-14 7.05D-09.
      5 vectors produced by pass103 Test12= 8.77D-14 1.00D-09 XBig12= 6.69D-14 1.13D-08.
      5 vectors produced by pass104 Test12= 8.77D-14 1.00D-09 XBig12= 4.47D-14 7.66D-09.
      5 vectors produced by pass105 Test12= 8.77D-14 1.00D-09 XBig12= 3.64D-14 7.77D-09.
      5 vectors produced by pass106 Test12= 8.77D-14 1.00D-09 XBig12= 3.57D-14 6.93D-09.
      5 vectors produced by pass107 Test12= 8.77D-14 1.00D-09 XBig12= 4.98D-14 8.01D-09.
      5 vectors produced by pass108 Test12= 8.77D-14 1.00D-09 XBig12= 3.07D-14 6.25D-09.
      5 vectors produced by pass109 Test12= 8.77D-14 1.00D-09 XBig12= 2.97D-14 6.33D-09.
      5 vectors produced by pass110 Test12= 8.77D-14 1.00D-09 XBig12= 3.74D-14 6.96D-09.
      5 vectors produced by pass111 Test12= 8.77D-14 1.00D-09 XBig12= 4.51D-14 7.84D-09.
      5 vectors produced by pass112 Test12= 8.77D-14 1.00D-09 XBig12= 2.64D-14 5.59D-09.
      5 vectors produced by pass113 Test12= 8.77D-14 1.00D-09 XBig12= 3.48D-14 6.89D-09.
      5 vectors produced by pass114 Test12= 8.77D-14 1.00D-09 XBig12= 1.36D-14 4.55D-09.
      5 vectors produced by pass115 Test12= 8.77D-14 1.00D-09 XBig12= 3.29D-14 6.84D-09.
      5 vectors produced by pass116 Test12= 8.77D-14 1.00D-09 XBig12= 3.65D-14 7.27D-09.
      5 vectors produced by pass117 Test12= 8.77D-14 1.00D-09 XBig12= 2.36D-14 4.55D-09.
      5 vectors produced by pass118 Test12= 8.77D-14 1.00D-09 XBig12= 2.03D-14 5.93D-09.
      5 vectors produced by pass119 Test12= 8.77D-14 1.00D-09 XBig12= 1.90D-14 5.20D-09.
      5 vectors produced by pass120 Test12= 8.77D-14 1.00D-09 XBig12= 2.02D-14 5.52D-09.
      5 vectors produced by pass121 Test12= 8.77D-14 1.00D-09 XBig12= 2.14D-14 4.66D-09.
      5 vectors produced by pass122 Test12= 8.77D-14 1.00D-09 XBig12= 3.06D-14 5.91D-09.
      5 vectors produced by pass123 Test12= 8.77D-14 1.00D-09 XBig12= 3.67D-14 6.33D-09.
      5 vectors produced by pass124 Test12= 8.77D-14 1.00D-09 XBig12= 2.43D-14 5.49D-09.
      5 vectors produced by pass125 Test12= 8.77D-14 1.00D-09 XBig12= 4.51D-14 6.97D-09.
      5 vectors produced by pass126 Test12= 8.77D-14 1.00D-09 XBig12= 2.16D-14 4.74D-09.
      5 vectors produced by pass127 Test12= 8.77D-14 1.00D-09 XBig12= 3.36D-14 7.07D-09.
      5 vectors produced by pass128 Test12= 8.77D-14 1.00D-09 XBig12= 9.66D-15 3.77D-09.
      5 vectors produced by pass129 Test12= 8.77D-14 1.00D-09 XBig12= 6.53D-15 2.79D-09.
      5 vectors produced by pass130 Test12= 8.77D-14 1.00D-09 XBig12= 4.36D-14 7.76D-09.
      5 vectors produced by pass131 Test12= 8.77D-14 1.00D-09 XBig12= 2.19D-14 5.47D-09.
      5 vectors produced by pass132 Test12= 8.77D-14 1.00D-09 XBig12= 2.59D-14 5.31D-09.
      5 vectors produced by pass133 Test12= 8.77D-14 1.00D-09 XBig12= 3.01D-14 6.23D-09.
      5 vectors produced by pass134 Test12= 8.77D-14 1.00D-09 XBig12= 2.47D-14 5.28D-09.
      5 vectors produced by pass135 Test12= 8.77D-14 1.00D-09 XBig12= 2.21D-14 5.56D-09.
      5 vectors produced by pass136 Test12= 8.77D-14 1.00D-09 XBig12= 1.87D-14 4.73D-09.
      5 vectors produced by pass137 Test12= 8.77D-14 1.00D-09 XBig12= 2.92D-14 5.42D-09.
      5 vectors produced by pass138 Test12= 8.77D-14 1.00D-09 XBig12= 1.52D-14 4.15D-09.
      5 vectors produced by pass139 Test12= 8.77D-14 1.00D-09 XBig12= 3.33D-14 7.15D-09.
      5 vectors produced by pass140 Test12= 8.77D-14 1.00D-09 XBig12= 2.81D-14 5.79D-09.
      5 vectors produced by pass141 Test12= 8.77D-14 1.00D-09 XBig12= 2.64D-14 6.46D-09.
      5 vectors produced by pass142 Test12= 8.77D-14 1.00D-09 XBig12= 1.71D-14 4.52D-09.
      5 vectors produced by pass143 Test12= 8.77D-14 1.00D-09 XBig12= 2.72D-14 5.73D-09.
      5 vectors produced by pass144 Test12= 8.77D-14 1.00D-09 XBig12= 2.53D-14 5.19D-09.
      5 vectors produced by pass145 Test12= 8.77D-14 1.00D-09 XBig12= 2.95D-14 6.17D-09.
      5 vectors produced by pass146 Test12= 8.77D-14 1.00D-09 XBig12= 1.77D-14 4.22D-09.
      5 vectors produced by pass147 Test12= 8.77D-14 1.00D-09 XBig12= 2.03D-14 4.91D-09.
      5 vectors produced by pass148 Test12= 8.77D-14 1.00D-09 XBig12= 1.79D-14 4.36D-09.
      5 vectors produced by pass149 Test12= 8.77D-14 1.00D-09 XBig12= 1.20D-14 3.59D-09.
      5 vectors produced by pass150 Test12= 8.77D-14 1.00D-09 XBig12= 2.54D-14 5.58D-09.
      5 vectors produced by pass151 Test12= 8.77D-14 1.00D-09 XBig12= 1.76D-14 4.50D-09.
      5 vectors produced by pass152 Test12= 8.77D-14 1.00D-09 XBig12= 1.55D-14 4.45D-09.
      5 vectors produced by pass153 Test12= 8.77D-14 1.00D-09 XBig12= 1.52D-14 5.03D-09.
      5 vectors produced by pass154 Test12= 8.77D-14 1.00D-09 XBig12= 2.87D-14 6.19D-09.
      5 vectors produced by pass155 Test12= 8.77D-14 1.00D-09 XBig12= 1.76D-14 4.40D-09.
      5 vectors produced by pass156 Test12= 8.77D-14 1.00D-09 XBig12= 1.49D-14 4.16D-09.
      5 vectors produced by pass157 Test12= 8.77D-14 1.00D-09 XBig12= 1.00D-14 3.41D-09.
      5 vectors produced by pass158 Test12= 8.77D-14 1.00D-09 XBig12= 2.69D-14 6.18D-09.
      5 vectors produced by pass159 Test12= 8.77D-14 1.00D-09 XBig12= 1.26D-14 4.27D-09.
      5 vectors produced by pass160 Test12= 8.77D-14 1.00D-09 XBig12= 2.35D-14 5.79D-09.
      5 vectors produced by pass161 Test12= 8.77D-14 1.00D-09 XBig12= 1.46D-14 4.44D-09.
      5 vectors produced by pass162 Test12= 8.77D-14 1.00D-09 XBig12= 1.97D-14 4.78D-09.
      5 vectors produced by pass163 Test12= 8.77D-14 1.00D-09 XBig12= 2.62D-14 5.47D-09.
      5 vectors produced by pass164 Test12= 8.77D-14 1.00D-09 XBig12= 1.88D-14 5.30D-09.
      5 vectors produced by pass165 Test12= 8.77D-14 1.00D-09 XBig12= 2.20D-14 5.24D-09.
      5 vectors produced by pass166 Test12= 8.77D-14 1.00D-09 XBig12= 1.26D-14 3.71D-09.
      5 vectors produced by pass167 Test12= 8.77D-14 1.00D-09 XBig12= 1.16D-14 3.35D-09.
      5 vectors produced by pass168 Test12= 8.77D-14 1.00D-09 XBig12= 1.84D-14 4.65D-09.
      5 vectors produced by pass169 Test12= 8.77D-14 1.00D-09 XBig12= 2.86D-14 6.00D-09.
      5 vectors produced by pass170 Test12= 8.77D-14 1.00D-09 XBig12= 1.66D-14 4.37D-09.
      5 vectors produced by pass171 Test12= 8.77D-14 1.00D-09 XBig12= 2.03D-14 4.47D-09.
      5 vectors produced by pass172 Test12= 8.77D-14 1.00D-09 XBig12= 1.87D-14 4.57D-09.
      5 vectors produced by pass173 Test12= 8.77D-14 1.00D-09 XBig12= 1.91D-14 4.34D-09.
      5 vectors produced by pass174 Test12= 8.77D-14 1.00D-09 XBig12= 1.73D-14 4.81D-09.
      5 vectors produced by pass175 Test12= 8.77D-14 1.00D-09 XBig12= 1.13D-14 3.64D-09.
      5 vectors produced by pass176 Test12= 8.77D-14 1.00D-09 XBig12= 1.51D-14 4.21D-09.
      5 vectors produced by pass177 Test12= 8.77D-14 1.00D-09 XBig12= 1.83D-14 4.89D-09.
      5 vectors produced by pass178 Test12= 8.77D-14 1.00D-09 XBig12= 1.50D-14 3.98D-09.
      5 vectors produced by pass179 Test12= 8.77D-14 1.00D-09 XBig12= 1.72D-14 4.79D-09.
      5 vectors produced by pass180 Test12= 8.77D-14 1.00D-09 XBig12= 2.48D-14 5.69D-09.
      5 vectors produced by pass181 Test12= 8.77D-14 1.00D-09 XBig12= 1.10D-14 3.66D-09.
      5 vectors produced by pass182 Test12= 8.77D-14 1.00D-09 XBig12= 9.99D-15 3.59D-09.
      5 vectors produced by pass183 Test12= 8.77D-14 1.00D-09 XBig12= 8.94D-15 3.38D-09.
      5 vectors produced by pass184 Test12= 8.77D-14 1.00D-09 XBig12= 2.15D-14 6.10D-09.
      5 vectors produced by pass185 Test12= 8.77D-14 1.00D-09 XBig12= 1.56D-14 3.76D-09.
      5 vectors produced by pass186 Test12= 8.77D-14 1.00D-09 XBig12= 1.27D-14 4.07D-09.
      5 vectors produced by pass187 Test12= 8.77D-14 1.00D-09 XBig12= 2.33D-14 4.83D-09.
      5 vectors produced by pass188 Test12= 8.77D-14 1.00D-09 XBig12= 1.39D-14 4.93D-09.
      5 vectors produced by pass189 Test12= 8.77D-14 1.00D-09 XBig12= 2.96D-14 5.42D-09.
      5 vectors produced by pass190 Test12= 8.77D-14 1.00D-09 XBig12= 1.67D-14 4.77D-09.
      5 vectors produced by pass191 Test12= 8.77D-14 1.00D-09 XBig12= 1.49D-14 4.42D-09.
      5 vectors produced by pass192 Test12= 8.77D-14 1.00D-09 XBig12= 1.44D-14 4.15D-09.
      5 vectors produced by pass193 Test12= 8.77D-14 1.00D-09 XBig12= 1.26D-14 3.53D-09.
      5 vectors produced by pass194 Test12= 8.77D-14 1.00D-09 XBig12= 1.97D-14 4.48D-09.
      5 vectors produced by pass195 Test12= 8.77D-14 1.00D-09 XBig12= 1.16D-14 3.81D-09.
      5 vectors produced by pass196 Test12= 8.77D-14 1.00D-09 XBig12= 1.80D-14 4.64D-09.
      5 vectors produced by pass197 Test12= 8.77D-14 1.00D-09 XBig12= 1.22D-14 3.36D-09.
      5 vectors produced by pass198 Test12= 8.77D-14 1.00D-09 XBig12= 1.34D-14 3.73D-09.
      5 vectors produced by pass199 Test12= 8.77D-14 1.00D-09 XBig12= 1.77D-14 4.68D-09.
      5 vectors produced by pass200 Test12= 8.77D-14 1.00D-09 XBig12= 1.25D-14 3.57D-09.
      5 vectors produced by pass201 Test12= 8.77D-14 1.00D-09 XBig12= 2.01D-14 4.44D-09.
      5 vectors produced by pass202 Test12= 8.77D-14 1.00D-09 XBig12= 1.65D-14 3.92D-09.
      5 vectors produced by pass203 Test12= 8.77D-14 1.00D-09 XBig12= 1.26D-14 4.11D-09.
      5 vectors produced by pass204 Test12= 8.77D-14 1.00D-09 XBig12= 1.17D-14 2.95D-09.
      5 vectors produced by pass205 Test12= 8.77D-14 1.00D-09 XBig12= 1.42D-14 4.15D-09.
      5 vectors produced by pass206 Test12= 8.77D-14 1.00D-09 XBig12= 1.33D-14 4.25D-09.
      5 vectors produced by pass207 Test12= 8.77D-14 1.00D-09 XBig12= 1.68D-14 3.73D-09.
      5 vectors produced by pass208 Test12= 8.77D-14 1.00D-09 XBig12= 1.28D-14 3.45D-09.
      5 vectors produced by pass209 Test12= 8.77D-14 1.00D-09 XBig12= 2.66D-14 5.46D-09.
      5 vectors produced by pass210 Test12= 8.77D-14 1.00D-09 XBig12= 1.24D-14 3.79D-09.
      5 vectors produced by pass211 Test12= 8.77D-14 1.00D-09 XBig12= 1.88D-14 4.74D-09.
      5 vectors produced by pass212 Test12= 8.77D-14 1.00D-09 XBig12= 1.75D-14 4.10D-09.
      5 vectors produced by pass213 Test12= 8.77D-14 1.00D-09 XBig12= 1.76D-14 3.85D-09.
      5 vectors produced by pass214 Test12= 8.77D-14 1.00D-09 XBig12= 1.61D-14 4.49D-09.
      5 vectors produced by pass215 Test12= 8.77D-14 1.00D-09 XBig12= 1.08D-14 3.43D-09.
      5 vectors produced by pass216 Test12= 8.77D-14 1.00D-09 XBig12= 1.72D-14 4.37D-09.
      5 vectors produced by pass217 Test12= 8.77D-14 1.00D-09 XBig12= 9.83D-15 3.44D-09.
      5 vectors produced by pass218 Test12= 8.77D-14 1.00D-09 XBig12= 1.03D-14 3.19D-09.
      5 vectors produced by pass219 Test12= 8.77D-14 1.00D-09 XBig12= 1.40D-14 3.79D-09.
      5 vectors produced by pass220 Test12= 8.77D-14 1.00D-09 XBig12= 1.13D-14 3.15D-09.
      4 vectors produced by pass221 Test12= 8.77D-14 1.00D-09 XBig12= 1.15D-14 3.55D-09.
      4 vectors produced by pass222 Test12= 8.77D-14 1.00D-09 XBig12= 1.32D-14 3.67D-09.
      4 vectors produced by pass223 Test12= 8.77D-14 1.00D-09 XBig12= 8.58D-15 2.87D-09.
      4 vectors produced by pass224 Test12= 8.77D-14 1.00D-09 XBig12= 2.13D-14 4.21D-09.
      4 vectors produced by pass225 Test12= 8.77D-14 1.00D-09 XBig12= 1.88D-14 4.42D-09.
      4 vectors produced by pass226 Test12= 8.77D-14 1.00D-09 XBig12= 9.53D-15 3.19D-09.
      4 vectors produced by pass227 Test12= 8.77D-14 1.00D-09 XBig12= 9.54D-15 3.89D-09.
      4 vectors produced by pass228 Test12= 8.77D-14 1.00D-09 XBig12= 1.19D-14 3.17D-09.
      4 vectors produced by pass229 Test12= 8.77D-14 1.00D-09 XBig12= 1.65D-14 4.45D-09.
      4 vectors produced by pass230 Test12= 8.77D-14 1.00D-09 XBig12= 9.50D-15 3.35D-09.
      4 vectors produced by pass231 Test12= 8.77D-14 1.00D-09 XBig12= 1.34D-14 3.48D-09.
      4 vectors produced by pass232 Test12= 8.77D-14 1.00D-09 XBig12= 1.08D-14 3.30D-09.
      4 vectors produced by pass233 Test12= 8.77D-14 1.00D-09 XBig12= 1.22D-14 3.12D-09.
      4 vectors produced by pass234 Test12= 8.77D-14 1.00D-09 XBig12= 2.02D-14 4.54D-09.
      4 vectors produced by pass235 Test12= 8.77D-14 1.00D-09 XBig12= 1.32D-14 3.69D-09.
      4 vectors produced by pass236 Test12= 8.77D-14 1.00D-09 XBig12= 1.10D-14 3.66D-09.
      4 vectors produced by pass237 Test12= 8.77D-14 1.00D-09 XBig12= 1.18D-14 3.55D-09.
      4 vectors produced by pass238 Test12= 8.77D-14 1.00D-09 XBig12= 9.27D-15 3.29D-09.
      4 vectors produced by pass239 Test12= 8.77D-14 1.00D-09 XBig12= 1.84D-14 4.92D-09.
      4 vectors produced by pass240 Test12= 8.77D-14 1.00D-09 XBig12= 1.50D-14 3.83D-09.
      4 vectors produced by pass241 Test12= 8.77D-14 1.00D-09 XBig12= 9.92D-15 3.69D-09.
      4 vectors produced by pass242 Test12= 8.77D-14 1.00D-09 XBig12= 1.24D-14 4.39D-09.
      4 vectors produced by pass243 Test12= 8.77D-14 1.00D-09 XBig12= 1.82D-14 4.09D-09.
      4 vectors produced by pass244 Test12= 8.77D-14 1.00D-09 XBig12= 7.51D-15 2.60D-09.
      4 vectors produced by pass245 Test12= 8.77D-14 1.00D-09 XBig12= 1.49D-14 3.63D-09.
      4 vectors produced by pass246 Test12= 8.77D-14 1.00D-09 XBig12= 9.46D-15 3.38D-09.
      4 vectors produced by pass247 Test12= 8.77D-14 1.00D-09 XBig12= 1.30D-14 3.61D-09.
      4 vectors produced by pass248 Test12= 8.77D-14 1.00D-09 XBig12= 6.24D-15 2.84D-09.
      4 vectors produced by pass249 Test12= 8.77D-14 1.00D-09 XBig12= 1.20D-14 3.64D-09.
      4 vectors produced by pass250 Test12= 8.77D-14 1.00D-09 XBig12= 7.06D-15 2.92D-09.
      4 vectors produced by pass251 Test12= 8.77D-14 1.00D-09 XBig12= 1.18D-14 3.36D-09.
      4 vectors produced by pass252 Test12= 8.77D-14 1.00D-09 XBig12= 1.62D-14 4.06D-09.
      4 vectors produced by pass253 Test12= 8.77D-14 1.00D-09 XBig12= 1.27D-14 3.49D-09.
      4 vectors produced by pass254 Test12= 8.77D-14 1.00D-09 XBig12= 1.57D-14 4.69D-09.
      4 vectors produced by pass255 Test12= 8.77D-14 1.00D-09 XBig12= 9.32D-15 3.01D-09.
      4 vectors produced by pass256 Test12= 8.77D-14 1.00D-09 XBig12= 9.05D-15 3.21D-09.
      4 vectors produced by pass257 Test12= 8.77D-14 1.00D-09 XBig12= 1.09D-14 3.80D-09.
      4 vectors produced by pass258 Test12= 8.77D-14 1.00D-09 XBig12= 9.60D-15 3.00D-09.
      4 vectors produced by pass259 Test12= 8.77D-14 1.00D-09 XBig12= 5.56D-15 2.18D-09.
      4 vectors produced by pass260 Test12= 8.77D-14 1.00D-09 XBig12= 1.22D-14 3.51D-09.
      4 vectors produced by pass261 Test12= 8.77D-14 1.00D-09 XBig12= 5.02D-15 2.46D-09.
      4 vectors produced by pass262 Test12= 8.77D-14 1.00D-09 XBig12= 1.19D-14 3.29D-09.
      4 vectors produced by pass263 Test12= 8.77D-14 1.00D-09 XBig12= 1.20D-14 3.56D-09.
      4 vectors produced by pass264 Test12= 8.77D-14 1.00D-09 XBig12= 1.17D-14 3.51D-09.
      4 vectors produced by pass265 Test12= 8.77D-14 1.00D-09 XBig12= 1.09D-14 4.34D-09.
      4 vectors produced by pass266 Test12= 8.77D-14 1.00D-09 XBig12= 9.16D-15 3.02D-09.
      4 vectors produced by pass267 Test12= 8.77D-14 1.00D-09 XBig12= 1.15D-14 3.41D-09.
      4 vectors produced by pass268 Test12= 8.77D-14 1.00D-09 XBig12= 9.39D-15 3.22D-09.
      4 vectors produced by pass269 Test12= 8.77D-14 1.00D-09 XBig12= 1.07D-14 3.87D-09.
      4 vectors produced by pass270 Test12= 8.77D-14 1.00D-09 XBig12= 1.36D-14 3.49D-09.
      4 vectors produced by pass271 Test12= 8.77D-14 1.00D-09 XBig12= 1.07D-14 3.32D-09.
      4 vectors produced by pass272 Test12= 8.77D-14 1.00D-09 XBig12= 9.87D-15 3.29D-09.
      4 vectors produced by pass273 Test12= 8.77D-14 1.00D-09 XBig12= 1.23D-14 3.62D-09.
      4 vectors produced by pass274 Test12= 8.77D-14 1.00D-09 XBig12= 8.82D-15 3.11D-09.
      4 vectors produced by pass275 Test12= 8.77D-14 1.00D-09 XBig12= 8.31D-15 3.03D-09.
      4 vectors produced by pass276 Test12= 8.77D-14 1.00D-09 XBig12= 7.81D-15 2.61D-09.
      4 vectors produced by pass277 Test12= 8.77D-14 1.00D-09 XBig12= 1.01D-14 3.84D-09.
      4 vectors produced by pass278 Test12= 8.77D-14 1.00D-09 XBig12= 1.05D-14 3.41D-09.
      4 vectors produced by pass279 Test12= 8.77D-14 1.00D-09 XBig12= 7.36D-15 2.87D-09.
      4 vectors produced by pass280 Test12= 8.77D-14 1.00D-09 XBig12= 9.61D-15 3.49D-09.
      4 vectors produced by pass281 Test12= 8.77D-14 1.00D-09 XBig12= 1.19D-14 3.79D-09.
      4 vectors produced by pass282 Test12= 8.77D-14 1.00D-09 XBig12= 9.41D-15 3.09D-09.
      4 vectors produced by pass283 Test12= 8.77D-14 1.00D-09 XBig12= 1.03D-14 3.20D-09.
      4 vectors produced by pass284 Test12= 8.77D-14 1.00D-09 XBig12= 1.41D-14 3.78D-09.
      4 vectors produced by pass285 Test12= 8.77D-14 1.00D-09 XBig12= 6.87D-15 2.73D-09.
      4 vectors produced by pass286 Test12= 8.77D-14 1.00D-09 XBig12= 1.09D-14 3.30D-09.
      4 vectors produced by pass287 Test12= 8.77D-14 1.00D-09 XBig12= 7.97D-15 2.88D-09.
      4 vectors produced by pass288 Test12= 8.77D-14 1.00D-09 XBig12= 3.82D-15 2.03D-09.
      4 vectors produced by pass289 Test12= 8.77D-14 1.00D-09 XBig12= 1.26D-14 3.82D-09.
      4 vectors produced by pass290 Test12= 8.77D-14 1.00D-09 XBig12= 7.12D-15 2.76D-09.
      4 vectors produced by pass291 Test12= 8.77D-14 1.00D-09 XBig12= 1.22D-14 3.67D-09.
      3 vectors produced by pass292 Test12= 8.77D-14 1.00D-09 XBig12= 4.91D-15 2.12D-09.
      3 vectors produced by pass293 Test12= 8.77D-14 1.00D-09 XBig12= 1.47D-14 4.09D-09.
      3 vectors produced by pass294 Test12= 8.77D-14 1.00D-09 XBig12= 1.07D-14 3.62D-09.
      3 vectors produced by pass295 Test12= 8.77D-14 1.00D-09 XBig12= 8.20D-15 3.37D-09.
      3 vectors produced by pass296 Test12= 8.77D-14 1.00D-09 XBig12= 1.34D-14 3.78D-09.
      3 vectors produced by pass297 Test12= 8.77D-14 1.00D-09 XBig12= 7.40D-15 2.98D-09.
      3 vectors produced by pass298 Test12= 8.77D-14 1.00D-09 XBig12= 1.18D-14 3.38D-09.
      3 vectors produced by pass299 Test12= 8.77D-14 1.00D-09 XBig12= 4.77D-15 2.28D-09.
      3 vectors produced by pass300 Test12= 8.77D-14 1.00D-09 XBig12= 1.13D-14 3.42D-09.
      3 vectors produced by pass301 Test12= 8.77D-14 1.00D-09 XBig12= 1.19D-14 3.50D-09.
      3 vectors produced by pass302 Test12= 8.77D-14 1.00D-09 XBig12= 1.43D-14 3.79D-09.
      3 vectors produced by pass303 Test12= 8.77D-14 1.00D-09 XBig12= 7.89D-15 3.01D-09.
      3 vectors produced by pass304 Test12= 8.77D-14 1.00D-09 XBig12= 1.17D-14 3.72D-09.
      3 vectors produced by pass305 Test12= 8.77D-14 1.00D-09 XBig12= 6.72D-15 2.52D-09.
      3 vectors produced by pass306 Test12= 8.77D-14 1.00D-09 XBig12= 1.27D-14 4.06D-09.
      3 vectors produced by pass307 Test12= 8.77D-14 1.00D-09 XBig12= 2.73D-15 1.99D-09.
      3 vectors produced by pass308 Test12= 8.77D-14 1.00D-09 XBig12= 1.70D-14 3.76D-09.
      3 vectors produced by pass309 Test12= 8.77D-14 1.00D-09 XBig12= 6.93D-15 2.59D-09.
      3 vectors produced by pass310 Test12= 8.77D-14 1.00D-09 XBig12= 9.02D-15 2.97D-09.
      3 vectors produced by pass311 Test12= 8.77D-14 1.00D-09 XBig12= 5.17D-15 2.35D-09.
      3 vectors produced by pass312 Test12= 8.77D-14 1.00D-09 XBig12= 5.93D-15 2.61D-09.
      3 vectors produced by pass313 Test12= 8.77D-14 1.00D-09 XBig12= 1.00D-14 3.32D-09.
      3 vectors produced by pass314 Test12= 8.77D-14 1.00D-09 XBig12= 9.65D-15 3.03D-09.
      3 vectors produced by pass315 Test12= 8.77D-14 1.00D-09 XBig12= 1.04D-14 3.26D-09.
      3 vectors produced by pass316 Test12= 8.77D-14 1.00D-09 XBig12= 3.58D-15 1.81D-09.
      3 vectors produced by pass317 Test12= 8.77D-14 1.00D-09 XBig12= 9.79D-15 3.11D-09.
      3 vectors produced by pass318 Test12= 8.77D-14 1.00D-09 XBig12= 7.08D-15 2.66D-09.
      3 vectors produced by pass319 Test12= 8.77D-14 1.00D-09 XBig12= 1.03D-14 3.29D-09.
      3 vectors produced by pass320 Test12= 8.77D-14 1.00D-09 XBig12= 5.38D-15 2.61D-09.
      3 vectors produced by pass321 Test12= 8.77D-14 1.00D-09 XBig12= 7.34D-15 2.50D-09.
      3 vectors produced by pass322 Test12= 8.77D-14 1.00D-09 XBig12= 8.55D-15 2.88D-09.
      3 vectors produced by pass323 Test12= 8.77D-14 1.00D-09 XBig12= 3.60D-15 1.80D-09.
      3 vectors produced by pass324 Test12= 8.77D-14 1.00D-09 XBig12= 9.65D-15 3.33D-09.
      3 vectors produced by pass325 Test12= 8.77D-14 1.00D-09 XBig12= 8.91D-15 3.70D-09.
      3 vectors produced by pass326 Test12= 8.77D-14 1.00D-09 XBig12= 1.14D-14 3.40D-09.
      3 vectors produced by pass327 Test12= 8.77D-14 1.00D-09 XBig12= 7.49D-15 2.69D-09.
      3 vectors produced by pass328 Test12= 8.77D-14 1.00D-09 XBig12= 3.53D-15 2.05D-09.
      3 vectors produced by pass329 Test12= 8.77D-14 1.00D-09 XBig12= 1.03D-14 3.42D-09.
      3 vectors produced by pass330 Test12= 8.77D-14 1.00D-09 XBig12= 7.72D-15 3.14D-09.
      3 vectors produced by pass331 Test12= 8.77D-14 1.00D-09 XBig12= 5.97D-15 2.67D-09.
      3 vectors produced by pass332 Test12= 8.77D-14 1.00D-09 XBig12= 5.81D-15 2.54D-09.
      3 vectors produced by pass333 Test12= 8.77D-14 1.00D-09 XBig12= 7.13D-15 2.36D-09.
      3 vectors produced by pass334 Test12= 8.77D-14 1.00D-09 XBig12= 8.85D-15 3.15D-09.
      3 vectors produced by pass335 Test12= 8.77D-14 1.00D-09 XBig12= 4.89D-15 2.08D-09.
      3 vectors produced by pass336 Test12= 8.77D-14 1.00D-09 XBig12= 6.74D-15 2.72D-09.
      3 vectors produced by pass337 Test12= 8.77D-14 1.00D-09 XBig12= 7.38D-15 2.88D-09.
      3 vectors produced by pass338 Test12= 8.77D-14 1.00D-09 XBig12= 8.73D-15 2.93D-09.
      3 vectors produced by pass339 Test12= 8.77D-14 1.00D-09 XBig12= 7.70D-15 3.11D-09.
      3 vectors produced by pass340 Test12= 8.77D-14 1.00D-09 XBig12= 6.75D-15 2.29D-09.
      3 vectors produced by pass341 Test12= 8.77D-14 1.00D-09 XBig12= 8.69D-15 2.81D-09.
      3 vectors produced by pass342 Test12= 8.77D-14 1.00D-09 XBig12= 3.66D-15 2.13D-09.
      3 vectors produced by pass343 Test12= 8.77D-14 1.00D-09 XBig12= 7.36D-15 2.50D-09.
      3 vectors produced by pass344 Test12= 8.77D-14 1.00D-09 XBig12= 7.93D-15 2.81D-09.
      3 vectors produced by pass345 Test12= 8.77D-14 1.00D-09 XBig12= 1.06D-14 3.44D-09.
      3 vectors produced by pass346 Test12= 8.77D-14 1.00D-09 XBig12= 5.30D-15 2.09D-09.
      3 vectors produced by pass347 Test12= 8.77D-14 1.00D-09 XBig12= 9.51D-15 3.24D-09.
      3 vectors produced by pass348 Test12= 8.77D-14 1.00D-09 XBig12= 6.09D-15 2.73D-09.
      3 vectors produced by pass349 Test12= 8.77D-14 1.00D-09 XBig12= 5.11D-15 2.02D-09.
      3 vectors produced by pass350 Test12= 8.77D-14 1.00D-09 XBig12= 4.95D-15 2.21D-09.
      3 vectors produced by pass351 Test12= 8.77D-14 1.00D-09 XBig12= 5.71D-15 2.48D-09.
      3 vectors produced by pass352 Test12= 8.77D-14 1.00D-09 XBig12= 5.08D-15 2.20D-09.
      3 vectors produced by pass353 Test12= 8.77D-14 1.00D-09 XBig12= 9.99D-15 3.59D-09.
      3 vectors produced by pass354 Test12= 8.77D-14 1.00D-09 XBig12= 7.38D-15 2.69D-09.
      3 vectors produced by pass355 Test12= 8.77D-14 1.00D-09 XBig12= 9.70D-15 2.97D-09.
      3 vectors produced by pass356 Test12= 8.77D-14 1.00D-09 XBig12= 8.14D-15 2.56D-09.
      3 vectors produced by pass357 Test12= 8.77D-14 1.00D-09 XBig12= 8.35D-15 2.88D-09.
      3 vectors produced by pass358 Test12= 8.77D-14 1.00D-09 XBig12= 6.15D-15 2.54D-09.
      3 vectors produced by pass359 Test12= 8.77D-14 1.00D-09 XBig12= 1.03D-14 3.79D-09.
      3 vectors produced by pass360 Test12= 8.77D-14 1.00D-09 XBig12= 3.87D-15 2.19D-09.
      3 vectors produced by pass361 Test12= 8.77D-14 1.00D-09 XBig12= 7.63D-15 3.25D-09.
      3 vectors produced by pass362 Test12= 8.77D-14 1.00D-09 XBig12= 1.06D-14 3.16D-09.
      3 vectors produced by pass363 Test12= 8.77D-14 1.00D-09 XBig12= 5.37D-15 2.16D-09.
[...]
 ,-0.00009271,0.00005042,0.00003442,-0.00004009,0.00000532,0.00000864,-
 0.00002845,0.00004631,0.00000520,0.00005249,0.00000051,-0.00000797,-0.
 00017256,0.00024996,-0.00000778,0.00031879,0.00017174,0.00002111,0.000
 28500,-0.00005121,0.00001374,-0.00005935,-0.00001365,-0.00000745,0.000
 02555,-0.00098818,0.00004158,0.00096188,-0.00528702,-0.00070327,-0.001
 43877,0.00039164,-0.00009927,-0.00013802,-0.00059331,-0.00002134,0.003
 01987,-0.00029726,-0.00013225,0.01783579,0.01006293,0.00274288,-0.1006
 0307,-0.10439524,-0.01700103,-0.02956998,-0.00740098,-0.00426709,-0.00
 003108,0.00004165,0.00000229,-0.00004101,-0.00002481,0.00000628,0.0000
 1822,-0.00000681,0.00000059,0.00001729,0.00003669,-0.00003304,-0.00004
 932,-0.00033816,0.00002486,-0.00000723,0.00000709,0.00000058,-0.000001
 51,0.00000040,-0.00000022,-0.00000184,0.00000149,-0.00000090,-0.000002
 85,0.00000025,0.00000287,0.00000081,-0.00000224,-0.00000173,0.00000585
 ,0.00000233,-0.00000399,-0.00014794,-0.00007798,-0.00000858,0.00005497
 ,-0.00001793,-0.00000855,0.00036632,0.00090537,0.00038724,-0.00005242,
 0.00002375,-0.00002292,-0.00084787,0.00079462,0.00008404,0.10971857,0.
 10695411,0.00011920,0.00004819,0.00001379,-0.00010539,-0.00005409,0.00
 001654,0.00011696,0.00009589,-0.00001207,0.00024181,-0.00023026,-0.000
 03432,0.00005858,-0.00009891,-0.00000623,-0.00010101,-0.00000366,0.000
 00805,0.00008608,-0.00022395,0.00019183,-0.00046656,-0.00037926,-0.000
 90271,0.00038385,0.00041638,0.00011682,-0.00053130,-0.00009597,0.00004
 124,0.00083476,0.00046903,-0.00057352,-0.00100043,-0.00069535,0.007858
 39,-0.00000301,0.00019416,0.00024394,-0.00014577,-0.00000047,-0.000462
 64,-0.00125500,-0.00033029,0.00552738,-0.00114348,-0.00182053,0.003409
 86,-0.03716550,-0.01711495,-0.04205480,-0.00163803,0.00003440,0.003388
 83,-0.00003686,0.00002431,0.00000217,0.00002536,0.00003616,-0.00000361
 ,-0.00009108,0.00008667,0.00000284,0.00026936,-0.00002304,-0.00017545,
 -0.00053170,-0.00044230,0.00006139,0.00000202,-0.00000186,0.00000465,0
 .00000045,0.00000042,-0.00000075,0.00000024,-0.00000067,0.00000116,-0.
 00000001,-0.00000111,-0.00000058,-0.00000110,-0.00000011,0.00000117,-0
 .00000748,-0.00000371,0.00000311,-0.00000555,-0.00000719,-0.00000055,0
 .00001222,-0.00001306,0.00007409,0.00058611,0.00026485,-0.00433159,0.0
 0001452,-0.00002576,0.00003100,0.00042358,0.00012106,-0.00297319,0.041
 02917,0.01879400,0.03082137,0.00100697,-0.00318368,-0.00019473,-0.0037
 3226,-0.00034349,-0.00018437,-0.00510358,0.00172018,0.00046203,-0.0021
 4603,0.00255232,0.00021752,-0.00170695,0.00183259,0.00026552,0.0019238
 4,-0.00011956,-0.00010006,0.00940321,0.01010559,-0.00291545,0.00455333
 ,-0.00096614,0.00024225,0.00190608,0.00148174,-0.00052541,0.00097781,-
 0.00192498,-0.00009767,-0.00377124,-0.00179471,0.00031826,0.00052111,-
 0.00113435,0.00148565,0.00095105,0.00134870,-0.00038151,-0.00133440,0.
 00001053,-0.00002241,-0.03186769,0.03096768,-0.01791216,0.00066037,0.0
 0005845,-0.00141420,0.00050058,-0.00123052,0.00081476,0.00050220,0.000
 43369,-0.00008423,-0.00083967,0.00123345,0.00009205,-0.00101823,-0.001
 25837,0.00006033,0.00280267,-0.00061436,-0.00023886,-0.01595780,-0.029
 30010,0.00422104,-0.12952598,-0.08179594,0.02117108,0.00026236,0.00024
 545,-0.00013499,-0.00002887,-0.00000709,-0.00003380,-0.00003132,0.0000
 2230,-0.00001531,-0.00000878,-0.00015803,0.00002796,0.00008636,0.00002
 094,-0.00008096,0.00002272,0.00000813,0.00014470,0.00000474,0.00000693
 ,0.00000126,-0.00000685,0.00009740,-0.00002459,-0.00000324,0.00000700,
 -0.00012180,-0.00733434,0.00437392,-0.00353900,-0.00007774,-0.00085596
 ,-0.00055683,-0.00021921,-0.00001185,0.00066373,0.50796262,-0.00106164
 ,-0.00014153,-0.00015476,0.00473497,0.00168010,-0.00055090,0.00085562,
 -0.00348771,0.00041107,-0.00292818,0.00113007,0.00029826,-0.00064331,0
 .00094627,0.00017902,0.00127847,-0.00024948,-0.00011060,-0.01607397,-0
 .02038362,-0.00199559,0.00260942,0.00137519,0.00118132,0.00085939,0.00
 073002,-0.00036614,0.00067483,-0.00057828,-0.00009244,0.00099609,-0.00
 073101,0.00057263,-0.00017437,-0.00183744,-0.00063890,0.00118576,0.001
 18168,-0.00041377,-0.00097641,-0.00026385,-0.00003982,0.00872818,-0.00
 738508,0.00954653,-0.00043300,-0.00194239,-0.00199600,0.00084206,0.000
 36108,-0.00157447,0.00037686,-0.00033149,0.00017650,0.00010958,0.00077
 209,0.00007841,-0.00114721,-0.00162752,-0.00011497,0.00366802,-0.00062
 445,-0.00032518,-0.01330366,0.00422764,0.00570930,-0.06884164,-0.21865
 782,0.00267470,0.00025840,-0.00026024,0.00028715,0.00013727,0.00000865
 ,-0.00002394,0.00003795,0.00001350,-0.00001964,0.00003337,0.00013723,0
 .00001735,-0.00009991,-0.00001952,-0.00008038,0.00000580,-0.00002205,0
 .00014358,-0.00003696,-0.00001930,-0.00000298,0.00000858,-0.00016189,-
 0.00002921,0.00000160,-0.00002219,0.00019308,0.01771882,0.00494297,-0.
 01291389,0.00016947,0.00076599,0.00087012,0.00023802,-0.00013287,0.000
 73890,0.08699292,0.53309174,-0.00007831,0.00044798,0.00077614,0.000329
 41,0.00166186,0.00257845,0.00319689,0.00032261,0.00455467,0.00093712,-
 0.00146989,0.00053963,0.00048584,-0.00030170,-0.00023538,-0.00039275,-
 0.00005069,-0.00028702,0.00020868,-0.00642087,0.00353296,-0.00294833,0
 .00075654,-0.00185397,-0.00146133,-0.00126082,-0.00003330,0.00026613,0
 .00120679,0.00020681,-0.00046205,0.00177622,-0.00028715,0.00082148,0.0
 0196383,-0.00052019,-0.00121952,-0.00105533,0.00019492,0.00109675,-0.0
 0004276,0.00002709,0.00963680,-0.01309841,0.01255115,-0.00198049,0.002
 65195,-0.00003341,-0.00099719,-0.00042088,-0.00087928,-0.00035364,-0.0
 0044662,0.00004570,0.00020404,0.00007351,0.00007190,0.00020457,-0.0001
 3963,-0.00039937,-0.00078345,0.00069742,-0.00096790,0.00192660,0.00427
 656,0.00255463,0.01375065,0.00493144,-0.06259953,0.00014171,-0.0003919
 6,0.00041300,0.00002891,-0.00001244,0.00005333,0.00001341,-0.00003134,
 0.00005445,0.00000804,0.00002675,-0.00019250,-0.00001656,0.00002112,-0
 .00015258,0.00001066,0.00001988,-0.00002045,0.00001823,0.00003388,-0.0
 0000698,-0.00003613,0.00012380,-0.00002027,-0.00005235,0.00006001,0.00
 006078,0.02222296,-0.00095652,-0.00584083,-0.00000763,0.00003254,0.000
 39999,-0.00029037,0.00023878,-0.00032818,-0.27089170,0.12273184,0.4088
 7292,-0.00166904,0.00230438,-0.00016536,-0.00216811,0.00327078,-0.0000
 2561,0.00713498,0.00392466,-0.00054135,0.00467889,-0.00445131,-0.00003
 227,0.00180147,-0.00216906,-0.00030937,-0.00249006,0.00031211,0.000163
 12,0.00361499,-0.01178929,-0.00167695,-0.00813859,0.00168590,0.0003630
 6,-0.00343052,-0.00234532,0.00087601,-0.00125658,0.00295673,0.00009955
 ,0.00151337,0.00543200,-0.00006760,0.00173403,0.00271146,-0.00215002,-
 0.00218072,-0.00234062,0.00000393,0.00228400,0.00013147,0.00016202,0.0
 3589199,-0.05523345,0.03610376,-0.01022383,0.00900272,-0.00233120,-0.0
 0115857,-0.00125460,-0.00390678,-0.00119630,-0.00059306,0.00048291,0.0
 0141205,-0.00148634,-0.00013023,0.00121549,0.00091237,-0.00018391,-0.0
 0082455,-0.00015593,0.00005009,-0.00079489,-0.00122146,0.00275464,-0.0
 2545477,-0.00229570,0.01116056,-0.00018456,0.00014341,0.00006954,-0.00
 001199,0.00002939,0.00007787,0.00001194,-0.00003246,0.00000977,0.00000
 885,-0.00001703,-0.00001374,0.00004602,0.00004529,0.00009637,-0.000025
 61,0.00003932,-0.00020534,0.00000377,0.00005450,0.00000182,-0.00001978
 ,0.00010088,-0.00011527,-0.00008216,0.00011992,0.00047108,-0.03932564,
 0.00980166,0.05091589,-0.00010562,0.00124716,0.00218763,-0.00048036,0.
 00059342,-0.00076680,-0.25515170,-0.04200544,0.17974678,0.41906013,0.0
 0113444,-0.00116304,0.00008624,-0.00124648,-0.00282755,-0.00010625,-0.
 00409773,-0.00238163,-0.00072848,-0.00158875,0.00213323,-0.00016893,-0
 .00076284,0.00062684,0.00013478,0.00071040,-0.00014629,-0.00000187,-0.
 00278906,0.00898956,0.00353751,0.00339707,-0.00189193,-0.00035417,0.00
 198046,0.00164391,-0.00040730,0.00000312,-0.00176664,-0.00007896,0.000
 90265,-0.00412008,0.00177682,-0.00100815,-0.00126251,0.00170814,0.0009
 8117,0.00074545,-0.00013301,-0.00099649,0.00017032,-0.00001943,-0.0223
 7417,0.02000442,-0.02351009,0.00245196,-0.00062224,0.00038797,-0.00004
 555,-0.00004304,0.00246253,0.00008418,0.00062349,-0.00029300,-0.000635
 55,0.00025926,-0.00000240,-0.00032229,0.00040556,0.00024206,-0.0003425
 3,0.00008697,0.00011435,0.00321843,-0.00431103,-0.00297518,-0.03114990
 ,-0.01181023,0.01954574,-0.00020663,0.00031366,-0.00011640,-0.00008595
 ,-0.00000954,-0.00004090,-0.00003755,0.00002913,-0.00001293,-0.0000343
 2,-0.00006986,0.00003156,-0.00002613,-0.00004790,-0.00001022,0.0000298
 3,-0.00001600,0.00008076,0.00001482,-0.00002506,0.00002608,0.00000830,
 0.00000368,-0.00001587,0.00005806,-0.00002387,-0.00028627,0.01060588,-
 0.16991081,-0.14994517,-0.00081621,-0.00058315,-0.00201298,-0.00012482
 ,-0.00006927,0.00030631,-0.06579756,-0.09001126,0.01774771,0.21857568,
 0.51070095,-0.00063984,0.00050662,-0.00016043,-0.00042705,0.00167582,-
 0.00018272,0.00222731,0.00061706,-0.00050510,0.00068705,-0.00094724,0.
 00006633,0.00031995,-0.00061701,-0.00005968,-0.00063425,0.00010351,0.0
 0010720,0.00027970,-0.00551407,-0.00193829,-0.00160153,0.00093957,0.00
 030744,-0.00039488,-0.00026710,0.00016741,-0.00046120,0.00072543,0.000
 02293,0.00285700,0.00075968,0.00014782,-0.00064955,-0.00094624,-0.0007
 8228,0.00032079,-0.00007494,-0.00000206,0.00008086,-0.00016605,-0.0000
 3628,0.00190093,-0.00952905,0.00249212,-0.00045391,0.00002673,-0.00026
 156,0.00047871,0.00079786,-0.00020616,-0.00014099,-0.00010710,0.000166
 20,0.00048619,0.00001531,0.00002940,-0.00016512,-0.00041008,-0.0000399
 0,0.00107325,-0.00068620,-0.00012288,-0.00544236,-0.00050422,0.0036566
 2,0.01229497,0.01209185,0.00305829,-0.00000835,0.00000157,-0.00017165,
 0.00000823,0.00000442,0.00000775,0.00001104,-0.00000429,-0.00001710,0.
 00001383,0.00001317,-0.00001148,-0.00000481,0.00001119,0.00001246,-0.0
 0002228,-0.00001579,-0.00001449,-0.00001205,-0.00000786,-0.00000322,0.
 00001754,-0.00015824,-0.00002214,0.00003001,-0.00001201,0.00009244,0.0
 3650917,-0.14370672,-0.20125173,0.00030516,0.00053997,0.00023294,0.000
 21227,-0.00006718,-0.00009832,0.21277826,-0.00910331,-0.22358044,-0.29
 337376,0.14836413,0.47723988,-0.00008206,0.00000079,-0.00001744,0.0002
 8218,-0.00002626,-0.00001596,0.00001372,-0.00087180,0.00032339,-0.0004
 6969,0.00027075,0.00010089,-0.00014125,0.00006446,0.00001686,0.0001486
 1,-0.00000264,-0.00005113,-0.00163474,-0.00039358,0.00003210,0.0004329
 7,-0.00013076,0.00013187,0.00023990,0.00014850,-0.00004519,0.00009849,
 -0.00019094,-0.00002600,-0.00029512,-0.00027500,0.00000604,0.00017654,
 -0.00021876,-0.00004456,0.00017108,0.00020187,-0.00008794,-0.00019893,
 -0.00004170,-0.00001819,0.00083262,-0.00118877,0.00133879,-0.00026447,
 0.00010331,-0.00043141,0.00008273,-0.00002848,-0.00026875,0.00003164,-
 0.00009455,0.00003028,0.00005301,0.00008513,-0.00001977,-0.00029038,0.
 00002578,0.00004114,0.00032922,-0.00045466,0.00000465,-0.00059234,0.00
 074327,0.00050524,0.01061001,-0.01060896,-0.00877527,-0.00054847,0.000
 10969,-0.00001215,0.00000116,-0.00000593,0.00000171,0.00000479,0.00002
 982,-0.00000212,-0.00000112,0.00001318,0.00000061,-0.00002892,-0.00001
 273,-0.00001268,-0.00000123,-0.00000813,0.00002625,0.00000351,-0.00001
 397,0.00001028,0.00000891,-0.00001053,0.00000196,0.00000388,-0.0000033
 4,0.00002663,0.00017810,-0.00311389,0.00499590,-0.00004019,0.00006237,
 0.00018046,-0.00001018,0.00000639,0.00015003,-0.06468960,0.03772853,0.
 04540893,-0.00195407,0.02086397,0.01820600,0.05907921,0.00003777,0.000
 33457,0.00005053,-0.00029955,-0.00056970,0.00009824,0.00055890,-0.0010
 3593,0.00054940,0.00019862,-0.00025720,0.00010025,0.00016867,-0.000335
 91,-0.00003196,-0.00031870,-0.00000319,-0.00001068,-0.00304551,-0.0012
 1657,-0.00084719,-0.00068774,0.00011684,-0.00018730,-0.00007453,-0.000
 11872,0.00005424,-0.00024527,0.00011422,0.00002414,0.00001039,0.000122
 53,-0.00008969,0.00001375,0.00025170,-0.00000870,-0.00010754,-0.000151
 65,0.00005445,0.00009219,0.00006691,-0.00001922,-0.00046986,0.00055468
 ,-0.00074989,0.00026534,0.00021434,0.00025241,-0.00002391,0.00003182,0
 .00016293,-0.00009382,0.00007044,-0.00002283,0.00010849,-0.00022763,-0
 .00000232,0.00011410,0.00041211,0.00005496,-0.00058596,0.00000691,-0.0
 0008443,0.00128905,0.00048616,0.00065326,0.00455551,-0.02001283,-0.013
 55175,-0.00018481,0.00029982,-0.00010346,-0.00001008,0.00000838,-0.000
 00693,-0.00000709,0.00001577,-0.00000813,-0.00001196,-0.00000012,-0.00
 000779,-0.00003683,-0.00002064,-0.00002892,0.00000504,-0.00000866,0.00
 000313,0.00001117,-0.00000755,-0.00001163,0.00000819,0.00001810,0.0000
 1079,0.00000658,0.00000295,-0.00001345,-0.00256500,0.00237305,-0.00050
 717,0.00003643,-0.00006047,-0.00011439,-0.00002105,0.00002133,-0.00007
 777,0.04546394,-0.20394669,-0.13306441,-0.00158989,0.00419897,0.002878
 41,-0.04416710,0.21827572,0.00005533,-0.00021853,-0.00005488,0.0000425
 8,-0.00017237,-0.00017248,-0.00023445,0.00005218,-0.00007436,-0.000389
 24,0.00029500,0.00005778,-0.00023260,0.00022232,0.00002549,0.00028860,
 0.00002112,-0.00002007,-0.00002499,0.00164783,-0.00039230,0.00063047,-
 0.00010291,0.00016765,0.00018116,0.00018277,-0.00000454,0.00016414,-0.
 00021185,-0.00003953,-0.00031733,-0.00029809,0.00012978,0.00002760,-0.
 00016814,0.00001774,0.00015921,0.00018671,-0.00010148,-0.00016887,-0.0
 0004143,0.00000707,0.00037160,-0.00083516,0.00096985,-0.00037868,0.000
 01787,-0.00037934,0.00012694,-0.00009378,-0.00027319,0.00009958,-0.000
 03581,0.00003196,-0.00006954,0.00006453,0.00001811,-0.00014702,0.00016
 925,-0.00003208,0.00009158,-0.00046393,-0.00010114,0.00014972,-0.00003
 823,0.00056276,0.00233522,0.00513459,0.00423821,-0.00018332,0.00021095
 ,0.00011698,-0.00000457,-0.00000907,0.00000986,0.00000429,0.00002492,0
 .00000668,-0.00000121,0.00000290,0.00000823,-0.00000569,-0.00000394,0.
 00001996,-0.00000370,-0.00000649,0.00000500,-0.00000075,-0.00001117,0.
 00001279,0.00000765,-0.00001099,-0.00000947,0.00000550,0.00000195,0.00
 002481,0.00683991,-0.00252580,0.00277452,0.00003077,0.00006752,0.00016
 215,0.00000020,0.00000212,0.00013522,0.04731629,-0.13391157,-0.1421489
 7,0.00530578,-0.01452390,-0.01024912,-0.05869481,0.14311280,0.14684071
 ,0.00002790,0.00013515,-0.00006821,-0.00023588,-0.00034549,-0.00026905
 ,-0.00001451,-0.00016135,-0.00019414,0.00015179,-0.00003031,-0.0000314
 8,0.00005002,-0.00015803,0.00001937,-0.00015520,0.00003679,0.00001057,
 -0.00042677,-0.00037977,0.00006966,-0.00022549,0.00016277,0.00004091,-
 0.00006086,-0.00016864,-0.00001390,-0.00005779,0.00002564,0.00000366,-
 0.00069701,0.00015573,-0.00059665,0.00018709,0.00013550,-0.00010189,-0
 .00003497,0.00006388,0.00008616,-0.00004583,0.00003721,-0.00003171,0.0
 0075262,0.00348297,-0.00014066,0.00037771,0.00062246,0.00006781,0.0000
 1221,-0.00000982,-0.00000695,0.00000479,-0.00003325,0.00000039,0.00001
 381,-0.00015471,-0.00001181,0.00013087,0.00017689,0.00002301,-0.000263
 27,0.00010280,0.00003010,0.00073815,-0.00006391,-0.00002089,0.00082934
 ,-0.00101874,0.00630666,-0.00004278,0.00000290,-0.00000023,-0.00001146
 ,0.00000718,0.00000474,-0.00000814,-0.00000154,-0.00000455,-0.00000659
 ,-0.00000418,0.00002050,-0.00000576,-0.00001000,0.00000720,0.00000377,
 -0.00000311,0.00000539,-0.00000220,-0.00000443,-0.00000378,0.00001227,
 0.00002028,0.00002401,0.00000038,-0.00002633,-0.00000573,0.00381626,0.
 00480462,0.00049106,-0.00018714,-0.00010856,-0.00023957,0.00000309,-0.
 00000211,-0.00002194,-0.00949252,-0.02252427,0.00130720,-0.12208395,-0
 .13053176,0.01333365,-0.00153951,0.00160207,-0.00337735,0.12848555,0.0
 0005301,-0.00008903,-0.00002619,-0.00033050,0.00022525,0.00008111,0.00
 016780,0.00009998,0.00014756,0.00000046,-0.00002656,0.00002753,-0.0000
 2199,0.00002671,-0.00000462,0.00001714,-0.00001560,-0.00001448,0.00045
 655,0.00028563,-0.00012579,-0.00003198,0.00021246,-0.00006875,-0.00000
 114,0.00000848,0.00000965,0.00002479,0.00000451,0.00000025,0.00076179,
 -0.00031385,0.00035611,-0.00041488,-0.00004830,0.00001579,0.00009734,-
 0.00007552,-0.00003701,0.00000100,0.00004152,0.00001536,-0.00153413,-0
 .00219821,-0.00001390,-0.00052664,-0.00019335,-0.00032963,0.00037723,0
 .00001287,-0.00011629,0.00002917,0.00020867,0.00006074,-0.00001108,0.0
 0007592,0.00001051,-0.00007738,-0.00005830,-0.00003264,0.00011372,-0.0
 0011780,-0.00001968,-0.00019391,-0.00066406,0.00041889,-0.00256162,0.0
 0325530,-0.00234608,0.00001925,0.00001675,0.00002087,-0.00001639,-0.00
 000299,-0.00000006,-0.00000528,-0.00000069,0.00000390,-0.00000284,-0.0
 0001202,-0.00000270,0.00000049,-0.00000249,-0.00000694,-0.00000170,-0.
 00000665,-0.00000155,0.00000623,-0.00000564,0.00000158,0.00000053,-0.0
 0002509,-0.00000929,0.00001401,0.00004093,0.00002370,-0.00945787,-0.01
 148553,0.00264817,0.00036540,0.00046817,0.00024343,0.00001474,-0.00000
 743,0.00001356,0.00151283,0.00147343,-0.00263873,-0.13441424,-0.257822
 45,0.00277241,0.00140465,-0.00002385,0.00226587,0.14416544,0.26673884,
 0.00003159,0.00020180,0.00000887,0.00048613,-0.00033634,-0.00018672,-0
 .00000446,0.00001218,-0.00008341,0.00003982,0.00002199,-0.00002761,0.0
 0004688,-0.00006429,0.00001023,-0.00004539,0.00003172,0.00001239,-0.00
 041534,-0.00037475,0.00015362,-0.00004970,0.00016949,-0.00005174,0.000
 01119,-0.00001085,0.00002633,-0.00003633,-0.00001411,0.00000762,-0.000
 89643,-0.00001922,-0.00033633,0.00002101,0.00009759,0.00008272,-0.0000
 2154,0.00011282,0.00003076,-0.00008434,-0.00000778,-0.00002385,0.00037
 614,0.00352060,-0.00147540,0.00038280,0.00058911,0.00006826,0.00007369
 ,-0.00026745,-0.00005874,0.00011454,0.00007740,0.00001008,-0.00003010,
 -0.00006952,-0.00001003,0.00010664,0.00006648,0.00002438,-0.00024348,0
 .00020446,0.00001989,0.00070375,0.00163540,-0.00020191,0.00638904,-0.0
 0400630,0.00272965,-0.00000709,-0.00005238,-0.00000296,0.00002294,0.00
 000687,-0.00000093,0.00000364,-0.00000077,-0.00000322,0.00000124,0.000
 02116,0.00000713,-0.00000419,-0.00000059,0.00000327,-0.00000311,0.0000
 0097,-0.00000034,-0.00000080,-0.00000075,-0.00000548,0.00000571,0.0000
 2086,0.00001214,-0.00000149,-0.00002719,0.00000205,-0.01097907,-0.0173
 2239,0.00411894,-0.00034345,-0.00020186,0.00010000,-0.00000296,-0.0000
 0147,0.00000363,0.00918736,0.01864870,0.00289919,0.01489338,-0.0008089
 8,-0.04809020,-0.00301668,0.00149005,-0.00229035,-0.01671155,-0.003342
 66,0.04251807\\0.00000052,-0.00000128,-0.00000232,-0.00000033,-0.00000
 081,-0.00000137,0.00000118,-0.00000076,-0.00000150,0.00000082,-0.00000
 033,-0.00000164,-0.00000111,-0.00000059,-0.00000241,0.00000255,-0.0000
 0228,-0.00000259,0.00000051,-0.00000221,-0.00000053,-0.00000064,0.0000
 0038,-0.00000043,0.00000070,0.00000080,-0.00000039,0.00000094,-0.00000
 043,-0.00000125,-0.00000049,0.00000070,0.00000168,-0.00000003,0.000001
 19,0.00000085,0.00000257,0.00000198,0.00000052,-0.00000038,-0.00000037
 ,-0.00000057,0.00000062,-0.00000168,0.00000336,-0.00000178,0.00000336,
 0.00000247,0.00000042,0.00000207,0.00000267,0.00000022,0.00000060,0.00
 000228,-0.00000093,-0.00000303,-0.00000192,-0.00000157,-0.00000072,-0.
 00000104,-0.00000019,-0.00000047,-0.00000048,-0.00000036,-0.00000076,0
 .00000015,-0.00000002,0.00000190,0.00000098,-0.00000141,-0.00000114,0.
 00000068,-0.00000105,-0.00000205,-0.00000109,-0.00000024,-0.00000223,-
 0.00000268,0.00000080,-0.00000182,-0.00000347,0.00000139,-0.00000106,-
 0.00000339,0.00000146,0.,-0.00000235,0.00000155,0.00000082,-0.00000119
 ,0.00000099,0.00000150,0.00000046,0.00000020,0.00000190,0.00000224,0.0
 0000054,0.00000113,0.00000225,-0.00000124,0.00000129,0.00000360,-0.000
 00083,0.00000189,0.00000342,0.00000044,-0.00000179,0.00000150,-0.00000
 386,0.00000349,-0.00000138,-0.00000188,-0.00000010,0.00000147,-0.00000
 005,0.00000094,0.00000340\\\@


 THERE ARE TWO THINGS THAT EVERYBODY THINKS THEY CAN DO BETTER THAN
 ANYONE ELSE - PUNCH THE FIRE, AND EDIT A DAILY PAPER.
 -- UNCLE ESEK, "CENTURY MAGAZINE", 1885
 Job cpu time:       3 days  2 hours 58 minutes 59.0 seconds.
 File lengths (MBytes):  RWF=   9039 Int=      0 D2E=      0 Chk=     42 Scr=      1
 Normal termination of Gaussian 09 at Mon Feb  3 03:16:07 2020.
