 Entering Gaussian System, Link 0=/share/apps/gaussian16/g16/g16
 Initial command:
 /share/apps/gaussian16/g16/l1.exe "/home/amen01//scratch/649/Gau-38352.inp" -scrdir="/home/amen01//scratch/649/"
 Entering Link 1 = /share/apps/gaussian16/g16/l1.exe PID=     38353.
  
 Copyright (c) 1988-2017, Gaussian, Inc.  All Rights Reserved.
  
 This is part of the Gaussian(R) 16 program.  It is based on
 the Gaussian(R) 09 system (copyright 2009, Gaussian, Inc.),
 the Gaussian(R) 03 system (copyright 2003, Gaussian, Inc.),
 the Gaussian(R) 98 system (copyright 1998, Gaussian, Inc.),
 the Gaussian(R) 94 system (copyright 1995, Gaussian, Inc.),
 the Gaussian 92(TM) system (copyright 1992, Gaussian, Inc.),
 the Gaussian 90(TM) system (copyright 1990, Gaussian, Inc.),
 the Gaussian 88(TM) system (copyright 1988, Gaussian, Inc.),
 the Gaussian 86(TM) system (copyright 1986, Carnegie Mellon
 University), and the Gaussian 82(TM) system (copyright 1983,
 Carnegie Mellon University). Gaussian is a federally registered
 trademark of Gaussian, Inc.
  
 This software contains proprietary and confidential information,
 including trade secrets, belonging to Gaussian, Inc.
  
 This software is provided under written license and may be
 used, copied, transmitted, or stored only in accord with that
 written license.
  
 The following legend is applicable only to US Government
 contracts under FAR:
  
                    RESTRICTED RIGHTS LEGEND
  
 Use, reproduction and disclosure by the US Government is
 subject to restrictions as set forth in subparagraphs (a)
 and (c) of the Commercial Computer Software - Restricted
 Rights clause in FAR 52.227-19.
  
 Gaussian, Inc.
 340 Quinnipiac St., Bldg. 40, Wallingford CT 06492
  
  
 ---------------------------------------------------------------
 Warning -- This program may not be used in any manner that
 competes with the business of Gaussian, Inc. or will provide
 assistance to any competitor of Gaussian, Inc.  The licensee
 of this program is prohibited from giving any competitor of
 Gaussian, Inc. access to this program.  By using this program,
 the user acknowledges that Gaussian, Inc. is engaged in the
 business of creating and licensing software in the field of
 computational chemistry and represents and warrants to the
 licensee that it is not a competitor of Gaussian, Inc. and that
 it will not use this program in any manner prohibited above.
 ---------------------------------------------------------------
  

 Cite this work as:
 Gaussian 16, Revision B.01,
 M. J. Frisch, G. W. Trucks, H. B. Schlegel, G. E. Scuseria, 
 M. A. Robb, J. R. Cheeseman, G. Scalmani, V. Barone, 
 G. A. Petersson, H. Nakatsuji, X. Li, M. Caricato, A. V. Marenich, 
 J. Bloino, B. G. Janesko, R. Gomperts, B. Mennucci, H. P. Hratchian, 
 J. V. Ortiz, A. F. Izmaylov, J. L. Sonnenberg, D. Williams-Young, 
 F. Ding, F. Lipparini, F. Egidi, J. Goings, B. Peng, A. Petrone, 
 T. Henderson, D. Ranasinghe, V. G. Zakrzewski, J. Gao, N. Rega, 
 G. Zheng, W. Liang, M. Hada, M. Ehara, K. Toyota, R. Fukuda, 
 J. Hasegawa, M. Ishida, T. Nakajima, Y. Honda, O. Kitao, H. Nakai, 
 T. Vreven, K. Throssell, J. A. Montgomery, Jr., J. E. Peralta, 
 F. Ogliaro, M. J. Bearpark, J. J. Heyd, E. N. Brothers, K. N. Kudin, 
 V. N. Staroverov, T. A. Keith, R. Kobayashi, J. Normand, 
 K. Raghavachari, A. P. Rendell, J. C. Burant, S. S. Iyengar, 
 J. Tomasi, M. Cossi, J. M. Millam, M. Klene, C. Adamo, R. Cammi, 
 J. W. Ochterski, R. L. Martin, K. Morokuma, O. Farkas, 
 J. B. Foresman, and D. J. Fox, Gaussian, Inc., Wallingford CT, 2016.
 
 ******************************************
 Gaussian 16:  ES64L-G16RevB.01 20-Dec-2017
                29-Jun-2019 
 ******************************************
 %nprocshared=20
 Will use up to   20 processors via shared memory.
 %mem=100GB
 %chk=7-HACAsite2TSguess-3a.chk
 ---------------------------------------------------------------
 # opt=(ts,calcfc,noeigen) freq b3lyp/6-311+g(d,p) int=grid=fine
 ---------------------------------------------------------------
 1/5=1,10=4,11=1,18=20,26=3,38=1/1,3;
 2/9=110,12=2,17=6,18=5,40=1/2;
 3/5=4,6=6,7=111,11=2,25=1,30=1,71=2,74=-5,75=-4,140=1/1,2,3;
 4//1;
 5/5=2,38=5/2;
 8/6=4,10=90,11=11/1;
 11/6=1,8=1,9=11,15=111,16=1/1,2,10;
 10/6=1,13=1/2;
 6/7=2,8=2,9=2,10=2,28=1/1;
 7/10=1,18=20,25=1/1,2,3,16;
 1/5=1,10=4,11=1,18=20,26=3/3(2);
 2/9=110/2;
 99//99;
 2/9=110/2;
 3/5=4,6=6,7=111,11=2,25=1,30=1,71=1,74=-5,75=-4/1,2,3;
 4/5=5,16=3,69=1/1;
 5/5=2,38=5/2;
 7//1,2,3,16;
 1/5=1,11=1,18=20,26=3/3(-5);
 2/9=110/2;
 6/7=2,8=2,9=2,10=2,19=2,28=1/1;
 99/9=1/99;
 -------------------------
 7-HACAsite2TSguess-3a-new
 -------------------------
 Symbolic Z-matrix:
 Charge =  0 Multiplicity = 3
 C                     3.79461   0.39194   0.15986 
 C                     2.50208  -0.11722   0.1132 
 C                     1.35187   0.68877   0.13351 
 C                     1.43288   2.0841    0.12662 
 C                     3.88784   1.83524   0.22537 
 C                     2.7711    2.63374   0.19873 
 C                     0.18965  -0.10728   0.04292 
 C                    -1.04997   0.58115   0.02852 
 C                    -0.9986    2.0212   -0.1126 
 C                     0.2082    2.74815  -0.03708 
 C                    -2.34419  -0.04618   0.15652 
 C                    -3.51854   0.67825  -0.17078 
 C                    -3.4155    2.07691  -0.47559 
 C                    -2.22484   2.72217  -0.38366 
 C                    -2.4829   -1.36715   0.6855 
 C                    -3.75421  -1.93588   0.83181 
 C                    -4.89074  -1.25777   0.38134 
 C                    -4.77729   0.03649  -0.0984 
 C                     4.82517  -0.57906   0.08998 
 C                     4.49559  -1.92626  -0.04685 
 C                     3.16151  -2.39408  -0.13213 
 C                     2.12929  -1.46611  -0.04924 
 C                     0.65655  -1.49215  -0.15134 
 H                     2.97898  -3.45555  -0.26002 
 H                     5.2984   -2.65333  -0.10186 
 H                     5.86795  -0.28255   0.13036 
 H                     4.8684    2.29788   0.27209 
 H                     2.89099   3.71216   0.21819 
 H                     0.17016   3.8286   -0.13467 
 H                    -2.17219   3.7944   -0.54105 
 H                    -4.32032   2.62267  -0.72111 
 H                    -5.66406   0.59303  -0.38262 
 H                    -1.66517  -1.76965   1.26653 
 H                    -3.85147  -2.90769   1.30243 
 H                    -5.8671   -1.72237   0.46227 
 C                    -0.06315  -2.61949  -0.61853 
 C                    -1.39787  -2.69937  -0.80469 
 H                     0.5438   -3.48774  -0.8915 
 H                    -2.00962  -3.51051  -1.17722 
 

 GradGradGradGradGradGradGradGradGradGradGradGradGradGradGradGradGradGrad
 Berny optimization.
 Initialization pass.
                           ----------------------------
                           !    Initial Parameters    !
                           ! (Angstroms and Degrees)  !
 --------------------------                            --------------------------
 ! Name  Definition              Value          Derivative Info.                !
 --------------------------------------------------------------------------------
 ! R1    R(1,2)                  1.39           calculate D2E/DX2 analytically  !
 ! R2    R(1,5)                  1.4478         calculate D2E/DX2 analytically  !
 ! R3    R(1,19)                 1.4177         calculate D2E/DX2 analytically  !
 ! R4    R(2,3)                  1.4046         calculate D2E/DX2 analytically  !
 ! R5    R(2,22)                 1.4089         calculate D2E/DX2 analytically  !
 ! R6    R(3,4)                  1.3977         calculate D2E/DX2 analytically  !
 ! R7    R(3,7)                  1.4116         calculate D2E/DX2 analytically  !
 ! R8    R(4,6)                  1.4485         calculate D2E/DX2 analytically  !
 ! R9    R(4,10)                 1.4027         calculate D2E/DX2 analytically  !
 ! R10   R(5,6)                  1.3731         calculate D2E/DX2 analytically  !
 ! R11   R(5,27)                 1.0852         calculate D2E/DX2 analytically  !
 ! R12   R(6,28)                 1.0852         calculate D2E/DX2 analytically  !
 ! R13   R(7,8)                  1.418          calculate D2E/DX2 analytically  !
 ! R14   R(7,23)                 1.4743         calculate D2E/DX2 analytically  !
 ! R15   R(8,9)                  1.4479         calculate D2E/DX2 analytically  !
 ! R16   R(8,11)                 1.4439         calculate D2E/DX2 analytically  !
 ! R17   R(9,10)                 1.4109         calculate D2E/DX2 analytically  !
 ! R18   R(9,14)                 1.4382         calculate D2E/DX2 analytically  !
 ! R19   R(10,29)                1.0855         calculate D2E/DX2 analytically  !
 ! R20   R(11,12)                1.4181         calculate D2E/DX2 analytically  !
 ! R21   R(11,15)                1.4297         calculate D2E/DX2 analytically  !
 ! R22   R(12,13)                1.4352         calculate D2E/DX2 analytically  !
 ! R23   R(12,18)                1.4148         calculate D2E/DX2 analytically  !
 ! R24   R(13,14)                1.3574         calculate D2E/DX2 analytically  !
 ! R25   R(13,31)                1.0848         calculate D2E/DX2 analytically  !
 ! R26   R(14,30)                1.085          calculate D2E/DX2 analytically  !
 ! R27   R(15,16)                1.4004         calculate D2E/DX2 analytically  !
 ! R28   R(15,33)                1.0809         calculate D2E/DX2 analytically  !
 ! R29   R(16,17)                1.398          calculate D2E/DX2 analytically  !
 ! R30   R(16,34)                1.0841         calculate D2E/DX2 analytically  !
 ! R31   R(17,18)                1.385          calculate D2E/DX2 analytically  !
 ! R32   R(17,35)                1.0843         calculate D2E/DX2 analytically  !
 ! R33   R(18,32)                1.0848         calculate D2E/DX2 analytically  !
 ! R34   R(19,20)                1.3937         calculate D2E/DX2 analytically  !
 ! R35   R(19,26)                1.0849         calculate D2E/DX2 analytically  !
 ! R36   R(20,21)                1.4163         calculate D2E/DX2 analytically  !
 ! R37   R(20,25)                1.0845         calculate D2E/DX2 analytically  !
 ! R38   R(21,22)                1.3905         calculate D2E/DX2 analytically  !
 ! R39   R(21,24)                1.0846         calculate D2E/DX2 analytically  !
 ! R40   R(22,23)                1.4765         calculate D2E/DX2 analytically  !
 ! R41   R(23,36)                1.4167         calculate D2E/DX2 analytically  !
 ! R42   R(36,37)                1.35           calculate D2E/DX2 analytically  !
 ! R43   R(36,38)                1.094          calculate D2E/DX2 analytically  !
 ! R44   R(37,39)                1.0821         calculate D2E/DX2 analytically  !
 ! A1    A(2,1,5)              115.2497         calculate D2E/DX2 analytically  !
 ! A2    A(2,1,19)             115.0508         calculate D2E/DX2 analytically  !
 ! A3    A(5,1,19)             129.6601         calculate D2E/DX2 analytically  !
 ! A4    A(1,2,3)              123.4205         calculate D2E/DX2 analytically  !
 ! A5    A(1,2,22)             126.9158         calculate D2E/DX2 analytically  !
 ! A6    A(3,2,22)             109.5345         calculate D2E/DX2 analytically  !
 ! A7    A(2,3,4)              121.6887         calculate D2E/DX2 analytically  !
 ! A8    A(2,3,7)              110.4676         calculate D2E/DX2 analytically  !
 ! A9    A(4,3,7)              127.6167         calculate D2E/DX2 analytically  !
 ! A10   A(3,4,6)              115.6017         calculate D2E/DX2 analytically  !
 ! A11   A(3,4,10)             114.9976         calculate D2E/DX2 analytically  !
 ! A12   A(6,4,10)             129.2558         calculate D2E/DX2 analytically  !
 ! A13   A(1,5,6)              121.7682         calculate D2E/DX2 analytically  !
 ! A14   A(1,5,27)             119.02           calculate D2E/DX2 analytically  !
 ! A15   A(6,5,27)             119.1944         calculate D2E/DX2 analytically  !
 ! A16   A(4,6,5)              122.1187         calculate D2E/DX2 analytically  !
 ! A17   A(4,6,28)             118.6871         calculate D2E/DX2 analytically  !
 ! A18   A(5,6,28)             119.1886         calculate D2E/DX2 analytically  !
 ! A19   A(3,7,8)              116.5265         calculate D2E/DX2 analytically  !
 ! A20   A(3,7,23)             106.1069         calculate D2E/DX2 analytically  !
 ! A21   A(8,7,23)             137.0158         calculate D2E/DX2 analytically  !
 ! A22   A(7,8,9)              116.9263         calculate D2E/DX2 analytically  !
 ! A23   A(7,8,11)             124.8706         calculate D2E/DX2 analytically  !
 ! A24   A(9,8,11)             118.2002         calculate D2E/DX2 analytically  !
 ! A25   A(8,9,10)             122.5208         calculate D2E/DX2 analytically  !
 ! A26   A(8,9,14)             118.2215         calculate D2E/DX2 analytically  !
 ! A27   A(10,9,14)            119.2252         calculate D2E/DX2 analytically  !
 ! A28   A(4,10,9)             120.6052         calculate D2E/DX2 analytically  !
 ! A29   A(4,10,29)            120.8163         calculate D2E/DX2 analytically  !
 ! A30   A(9,10,29)            118.5589         calculate D2E/DX2 analytically  !
 ! A31   A(8,11,12)            119.9901         calculate D2E/DX2 analytically  !
 ! A32   A(8,11,15)            121.4115         calculate D2E/DX2 analytically  !
 ! A33   A(12,11,15)           118.4928         calculate D2E/DX2 analytically  !
 ! A34   A(11,12,13)           119.1704         calculate D2E/DX2 analytically  !
 ! A35   A(11,12,18)           119.5549         calculate D2E/DX2 analytically  !
 ! A36   A(13,12,18)           121.1185         calculate D2E/DX2 analytically  !
 ! A37   A(12,13,14)           120.7878         calculate D2E/DX2 analytically  !
 ! A38   A(12,13,31)           118.5855         calculate D2E/DX2 analytically  !
 ! A39   A(14,13,31)           120.5177         calculate D2E/DX2 analytically  !
 ! A40   A(9,14,13)            121.9349         calculate D2E/DX2 analytically  !
 ! A41   A(9,14,30)            117.88           calculate D2E/DX2 analytically  !
 ! A42   A(13,14,30)           120.1666         calculate D2E/DX2 analytically  !
 ! A43   A(11,15,16)           120.1305         calculate D2E/DX2 analytically  !
 ! A44   A(11,15,33)           118.0056         calculate D2E/DX2 analytically  !
 ! A45   A(16,15,33)           118.6474         calculate D2E/DX2 analytically  !
 ! A46   A(15,16,17)           120.489          calculate D2E/DX2 analytically  !
 ! A47   A(15,16,34)           119.3961         calculate D2E/DX2 analytically  !
 ! A48   A(17,16,34)           120.1145         calculate D2E/DX2 analytically  !
 ! A49   A(16,17,18)           119.8877         calculate D2E/DX2 analytically  !
 ! A50   A(16,17,35)           120.0102         calculate D2E/DX2 analytically  !
 ! A51   A(18,17,35)           120.0024         calculate D2E/DX2 analytically  !
 ! A52   A(12,18,17)           120.9648         calculate D2E/DX2 analytically  !
 ! A53   A(12,18,32)           118.7617         calculate D2E/DX2 analytically  !
 ! A54   A(17,18,32)           120.2123         calculate D2E/DX2 analytically  !
 ! A55   A(1,19,20)            119.6719         calculate D2E/DX2 analytically  !
 ! A56   A(1,19,26)            120.6439         calculate D2E/DX2 analytically  !
 ! A57   A(20,19,26)           119.6804         calculate D2E/DX2 analytically  !
 ! A58   A(19,20,21)           123.2274         calculate D2E/DX2 analytically  !
 ! A59   A(19,20,25)           118.5542         calculate D2E/DX2 analytically  !
 ! A60   A(21,20,25)           118.2149         calculate D2E/DX2 analytically  !
 ! A61   A(20,21,22)           118.3736         calculate D2E/DX2 analytically  !
 ! A62   A(20,21,24)           119.2671         calculate D2E/DX2 analytically  !
 ! A63   A(22,21,24)           122.3593         calculate D2E/DX2 analytically  !
 ! A64   A(2,22,21)            116.7057         calculate D2E/DX2 analytically  !
 ! A65   A(2,22,23)            106.7855         calculate D2E/DX2 analytically  !
 ! A66   A(21,22,23)           136.432          calculate D2E/DX2 analytically  !
 ! A67   A(7,23,22)            106.8705         calculate D2E/DX2 analytically  !
 ! A68   A(7,23,36)            129.0524         calculate D2E/DX2 analytically  !
 ! A69   A(22,23,36)           122.9249         calculate D2E/DX2 analytically  !
 ! A70   A(23,36,37)           126.4988         calculate D2E/DX2 analytically  !
 ! A71   A(23,36,38)           115.5941         calculate D2E/DX2 analytically  !
 ! A72   A(37,36,38)           117.8501         calculate D2E/DX2 analytically  !
 ! A73   A(36,37,39)           130.5989         calculate D2E/DX2 analytically  !
 ! D1    D(5,1,2,3)             -0.3027         calculate D2E/DX2 analytically  !
 ! D2    D(5,1,2,22)           175.1229         calculate D2E/DX2 analytically  !
 ! D3    D(19,1,2,3)          -178.2416         calculate D2E/DX2 analytically  !
 ! D4    D(19,1,2,22)           -2.816          calculate D2E/DX2 analytically  !
 ! D5    D(2,1,5,6)             -2.0125         calculate D2E/DX2 analytically  !
 ! D6    D(2,1,5,27)           179.5212         calculate D2E/DX2 analytically  !
 ! D7    D(19,1,5,6)           175.5619         calculate D2E/DX2 analytically  !
 ! D8    D(19,1,5,27)           -2.9044         calculate D2E/DX2 analytically  !
 ! D9    D(2,1,19,20)            1.428          calculate D2E/DX2 analytically  !
 ! D10   D(2,1,19,26)         -179.2892         calculate D2E/DX2 analytically  !
 ! D11   D(5,1,19,20)         -176.1504         calculate D2E/DX2 analytically  !
 ! D12   D(5,1,19,26)            3.1325         calculate D2E/DX2 analytically  !
 ! D13   D(1,2,3,4)              3.696          calculate D2E/DX2 analytically  !
 ! D14   D(1,2,3,7)            178.6145         calculate D2E/DX2 analytically  !
 ! D15   D(22,2,3,4)          -172.4245         calculate D2E/DX2 analytically  !
 ! D16   D(22,2,3,7)             2.494          calculate D2E/DX2 analytically  !
 ! D17   D(1,2,22,21)            2.0723         calculate D2E/DX2 analytically  !
 ! D18   D(1,2,22,23)         -175.2642         calculate D2E/DX2 analytically  !
 ! D19   D(3,2,22,21)          178.022          calculate D2E/DX2 analytically  !
 ! D20   D(3,2,22,23)            0.6856         calculate D2E/DX2 analytically  !
 ! D21   D(2,3,4,6)             -4.4482         calculate D2E/DX2 analytically  !
 ! D22   D(2,3,4,10)           171.5867         calculate D2E/DX2 analytically  !
 ! D23   D(7,3,4,6)           -178.435          calculate D2E/DX2 analytically  !
 ! D24   D(7,3,4,10)            -2.4001         calculate D2E/DX2 analytically  !
 ! D25   D(2,3,7,8)           -178.9255         calculate D2E/DX2 analytically  !
 ! D26   D(2,3,7,23)            -4.5648         calculate D2E/DX2 analytically  !
 ! D27   D(4,3,7,8)             -4.3852         calculate D2E/DX2 analytically  !
 ! D28   D(4,3,7,23)           169.9754         calculate D2E/DX2 analytically  !
 ! D29   D(3,4,6,5)              2.161          calculate D2E/DX2 analytically  !
 ! D30   D(3,4,6,28)          -178.7084         calculate D2E/DX2 analytically  !
 ! D31   D(10,4,6,5)          -173.1966         calculate D2E/DX2 analytically  !
 ! D32   D(10,4,6,28)            5.9341         calculate D2E/DX2 analytically  !
 ! D33   D(3,4,10,9)             3.221          calculate D2E/DX2 analytically  !
 ! D34   D(3,4,10,29)         -175.1498         calculate D2E/DX2 analytically  !
 ! D35   D(6,4,10,9)           178.6017         calculate D2E/DX2 analytically  !
 ! D36   D(6,4,10,29)            0.2309         calculate D2E/DX2 analytically  !
 ! D37   D(1,5,6,4)              1.0697         calculate D2E/DX2 analytically  !
 ! D38   D(1,5,6,28)          -178.0567         calculate D2E/DX2 analytically  !
 ! D39   D(27,5,6,4)           179.5333         calculate D2E/DX2 analytically  !
 ! D40   D(27,5,6,28)            0.4069         calculate D2E/DX2 analytically  !
 ! D41   D(3,7,8,9)              9.8006         calculate D2E/DX2 analytically  !
 ! D42   D(3,7,8,11)          -169.5665         calculate D2E/DX2 analytically  !
 ! D43   D(23,7,8,9)          -162.2401         calculate D2E/DX2 analytically  !
 ! D44   D(23,7,8,11)           18.3928         calculate D2E/DX2 analytically  !
 ! D45   D(3,7,23,22)            4.8385         calculate D2E/DX2 analytically  !
 ! D46   D(3,7,23,36)         -162.9665         calculate D2E/DX2 analytically  !
 ! D47   D(8,7,23,22)          177.4293         calculate D2E/DX2 analytically  !
 ! D48   D(8,7,23,36)            9.6242         calculate D2E/DX2 analytically  !
 ! D49   D(7,8,9,10)            -9.4457         calculate D2E/DX2 analytically  !
 ! D50   D(7,8,9,14)           168.4615         calculate D2E/DX2 analytically  !
 ! D51   D(11,8,9,10)          169.965          calculate D2E/DX2 analytically  !
 ! D52   D(11,8,9,14)          -12.1277         calculate D2E/DX2 analytically  !
 ! D53   D(7,8,11,12)         -165.6735         calculate D2E/DX2 analytically  !
 ! D54   D(7,8,11,15)           18.1192         calculate D2E/DX2 analytically  !
 ! D55   D(9,8,11,12)           14.9668         calculate D2E/DX2 analytically  !
 ! D56   D(9,8,11,15)         -161.2404         calculate D2E/DX2 analytically  !
 ! D57   D(8,9,10,4)             2.6491         calculate D2E/DX2 analytically  !
 ! D58   D(8,9,10,29)         -178.9439         calculate D2E/DX2 analytically  !
 ! D59   D(14,9,10,4)         -175.238          calculate D2E/DX2 analytically  !
 ! D60   D(14,9,10,29)           3.1691         calculate D2E/DX2 analytically  !
 ! D61   D(8,9,14,13)            1.6464         calculate D2E/DX2 analytically  !
 ! D62   D(8,9,14,30)         -176.7925         calculate D2E/DX2 analytically  !
 ! D63   D(10,9,14,13)         179.6244         calculate D2E/DX2 analytically  !
 ! D64   D(10,9,14,30)           1.1855         calculate D2E/DX2 analytically  !
 ! D65   D(8,11,12,13)          -7.2582         calculate D2E/DX2 analytically  !
 ! D66   D(8,11,12,18)         177.2317         calculate D2E/DX2 analytically  !
 ! D67   D(15,11,12,13)        169.0589         calculate D2E/DX2 analytically  !
 ! D68   D(15,11,12,18)         -6.4512         calculate D2E/DX2 analytically  !
 ! D69   D(8,11,15,16)         178.2532         calculate D2E/DX2 analytically  !
 ! D70   D(8,11,15,33)          18.7802         calculate D2E/DX2 analytically  !
 ! D71   D(12,11,15,16)          1.9909         calculate D2E/DX2 analytically  !
 ! D72   D(12,11,15,33)       -157.4822         calculate D2E/DX2 analytically  !
 ! D73   D(11,12,13,14)         -3.5531         calculate D2E/DX2 analytically  !
 ! D74   D(11,12,13,31)       -179.7776         calculate D2E/DX2 analytically  !
 ! D75   D(18,12,13,14)        171.8846         calculate D2E/DX2 analytically  !
 ! D76   D(18,12,13,31)         -4.3399         calculate D2E/DX2 analytically  !
 ! D77   D(11,12,18,17)          4.8067         calculate D2E/DX2 analytically  !
 ! D78   D(11,12,18,32)       -178.0314         calculate D2E/DX2 analytically  !
 ! D79   D(13,12,18,17)       -170.6137         calculate D2E/DX2 analytically  !
 ! D80   D(13,12,18,32)          6.5481         calculate D2E/DX2 analytically  !
 ! D81   D(12,13,14,9)           6.3658         calculate D2E/DX2 analytically  !
 ! D82   D(12,13,14,30)       -175.2303         calculate D2E/DX2 analytically  !
 ! D83   D(31,13,14,9)        -177.4827         calculate D2E/DX2 analytically  !
 ! D84   D(31,13,14,30)          0.9212         calculate D2E/DX2 analytically  !
 ! D85   D(11,15,16,17)          4.3007         calculate D2E/DX2 analytically  !
 ! D86   D(11,15,16,34)       -175.4465         calculate D2E/DX2 analytically  !
 ! D87   D(33,15,16,17)        163.6438         calculate D2E/DX2 analytically  !
 ! D88   D(33,15,16,34)        -16.1034         calculate D2E/DX2 analytically  !
 ! D89   D(15,16,17,18)         -6.0908         calculate D2E/DX2 analytically  !
 ! D90   D(15,16,17,35)        177.5403         calculate D2E/DX2 analytically  !
 ! D91   D(34,16,17,18)        173.6546         calculate D2E/DX2 analytically  !
 ! D92   D(34,16,17,35)         -2.7144         calculate D2E/DX2 analytically  !
 ! D93   D(16,17,18,12)          1.5115         calculate D2E/DX2 analytically  !
 ! D94   D(16,17,18,32)       -175.6094         calculate D2E/DX2 analytically  !
 ! D95   D(35,17,18,12)        177.8807         calculate D2E/DX2 analytically  !
 ! D96   D(35,17,18,32)          0.7598         calculate D2E/DX2 analytically  !
 ! D97   D(1,19,20,21)           0.4865         calculate D2E/DX2 analytically  !
 ! D98   D(1,19,20,25)         179.797          calculate D2E/DX2 analytically  !
 ! D99   D(26,19,20,21)       -178.8033         calculate D2E/DX2 analytically  !
 ! D100  D(26,19,20,25)          0.5071         calculate D2E/DX2 analytically  !
 ! D101  D(19,20,21,22)         -1.287          calculate D2E/DX2 analytically  !
 ! D102  D(19,20,21,24)        178.6458         calculate D2E/DX2 analytically  !
 ! D103  D(25,20,21,22)        179.4003         calculate D2E/DX2 analytically  !
 ! D104  D(25,20,21,24)         -0.6668         calculate D2E/DX2 analytically  !
 ! D105  D(20,21,22,2)           0.089          calculate D2E/DX2 analytically  !
 ! D106  D(20,21,22,23)        176.3878         calculate D2E/DX2 analytically  !
 ! D107  D(24,21,22,2)        -179.8417         calculate D2E/DX2 analytically  !
 ! D108  D(24,21,22,23)         -3.5429         calculate D2E/DX2 analytically  !
 ! D109  D(2,22,23,7)           -3.4229         calculate D2E/DX2 analytically  !
 ! D110  D(2,22,23,36)         165.3072         calculate D2E/DX2 analytically  !
 ! D111  D(21,22,23,7)        -179.9697         calculate D2E/DX2 analytically  !
 ! D112  D(21,22,23,36)        -11.2396         calculate D2E/DX2 analytically  !
 ! D113  D(7,23,36,37)         -10.3517         calculate D2E/DX2 analytically  !
 ! D114  D(7,23,36,38)         166.8258         calculate D2E/DX2 analytically  !
 ! D115  D(22,23,36,37)       -176.4163         calculate D2E/DX2 analytically  !
 ! D116  D(22,23,36,38)          0.7612         calculate D2E/DX2 analytically  !
 ! D117  D(23,36,37,39)        178.3461         calculate D2E/DX2 analytically  !
 ! D118  D(38,36,37,39)          1.2252         calculate D2E/DX2 analytically  !
 --------------------------------------------------------------------------------
 Trust Radius=3.00D-01 FncErr=1.00D-07 GrdErr=1.00D-06 EigMax=2.50D+02 EigMin=1.00D-04
 Number of steps in this run=    234 maximum allowed number of steps=    234.
 Search for a saddle point of order  1.
 GradGradGradGradGradGradGradGradGradGradGradGradGradGradGradGradGradGrad

                          Input orientation:                          
 ---------------------------------------------------------------------
 Center     Atomic      Atomic             Coordinates (Angstroms)
 Number     Number       Type             X           Y           Z
 ---------------------------------------------------------------------
      1          6           0        3.794614    0.391942    0.159862
      2          6           0        2.502078   -0.117219    0.113201
      3          6           0        1.351868    0.688772    0.133509
      4          6           0        1.432875    2.084099    0.126619
      5          6           0        3.887836    1.835236    0.225374
      6          6           0        2.771101    2.633741    0.198733
      7          6           0        0.189647   -0.107281    0.042923
      8          6           0       -1.049965    0.581147    0.028516
      9          6           0       -0.998599    2.021197   -0.112597
     10          6           0        0.208201    2.748152   -0.037077
     11          6           0       -2.344190   -0.046181    0.156523
     12          6           0       -3.518536    0.678249   -0.170776
     13          6           0       -3.415502    2.076914   -0.475585
     14          6           0       -2.224837    2.722174   -0.383662
     15          6           0       -2.482901   -1.367152    0.685504
     16          6           0       -3.754208   -1.935878    0.831812
     17          6           0       -4.890738   -1.257771    0.381342
     18          6           0       -4.777287    0.036490   -0.098398
     19          6           0        4.825165   -0.579060    0.089984
     20          6           0        4.495592   -1.926260   -0.046852
     21          6           0        3.161507   -2.394081   -0.132127
     22          6           0        2.129286   -1.466110   -0.049242
     23          6           0        0.656551   -1.492147   -0.151341
     24          1           0        2.978980   -3.455547   -0.260022
     25          1           0        5.298395   -2.653325   -0.101861
     26          1           0        5.867947   -0.282551    0.130357
     27          1           0        4.868398    2.297880    0.272086
     28          1           0        2.890989    3.712164    0.218185
     29          1           0        0.170159    3.828600   -0.134670
     30          1           0       -2.172190    3.794402   -0.541045
     31          1           0       -4.320319    2.622670   -0.721108
     32          1           0       -5.664062    0.593030   -0.382617
     33          1           0       -1.665170   -1.769653    1.266531
     34          1           0       -3.851474   -2.907688    1.302426
     35          1           0       -5.867103   -1.722373    0.462268
     36          6           0       -0.063147   -2.619490   -0.618525
     37          6           0       -1.397866   -2.699373   -0.804685
     38          1           0        0.543801   -3.487741   -0.891500
     39          1           0       -2.009622   -3.510513   -1.177222
 ---------------------------------------------------------------------
                    Distance matrix (angstroms):
                    1          2          3          4          5
     1  C    0.000000
     2  C    1.389990   0.000000
     3  C    2.460856   1.404641   0.000000
     4  C    2.905566   2.447279   1.397693   0.000000
     5  C    1.447784   2.396871   2.784592   2.469518   0.000000
     6  C    2.464701   2.765406   2.408606   1.448501   1.373105
     7  C    3.641248   2.313520   1.411617   2.520866   4.181299
     8  C    4.850051   3.621035   2.406535   2.903960   5.098369
     9  C    5.069871   4.108351   2.713046   2.444023   4.901638
    10  C    4.295680   3.673528   2.361804   1.402708   3.800264
    11  C    6.154419   4.846982   3.768492   4.336497   6.510193
    12  C    7.326217   6.079573   4.879911   5.155708   7.506657
    13  C    7.431601   6.338662   5.002574   4.885638   7.340879
    14  C    6.477591   5.536493   4.146686   3.747851   6.206638
    15  C    6.540482   5.171062   4.385998   5.249456   7.145159
    16  C    7.928113   6.554772   5.783461   6.600253   8.543413
    17  C    8.843413   7.485084   6.543744   7.156889   9.308833
    18  C    8.583154   7.284062   6.168127   6.542893   8.855771
    19  C    1.417661   2.368664   3.697713   4.312933   2.593403
    20  C    2.430671   2.696728   4.093156   5.049090   3.819990
    21  C    2.871934   2.383093   3.584597   4.807204   4.306098
    22  C    2.503877   1.408854   2.298106   3.622140   3.750573
    23  C    3.673429   2.316545   2.306732   3.670078   4.653450
    24  H    3.955342   3.392811   4.469647   5.764339   5.390177
    25  H    3.406392   3.781200   5.176880   6.118630   4.716348
    26  H    2.180486   3.369971   4.619356   5.027018   2.900843
    27  H    2.190481   3.384881   3.869679   3.445240   1.085230
    28  H    3.441484   3.850513   3.393665   2.187482   2.125233
    29  H    5.003403   4.590073   3.365542   2.169333   4.233705
    30  H    6.904401   6.130057   4.745413   4.045665   6.414799
    31  H    8.461938   7.399200   6.053432   5.840200   8.299981
    32  H    9.476353   8.211951   7.035540   7.269740   9.651502
    33  H    5.975487   4.628894   4.053407   5.074316   6.701873
    34  H    8.405693   7.040497   6.432391   7.363749   9.140694
    35  H    9.894976   8.528866   7.618087   8.239634  10.386122
    36  C    4.955495   3.657480   3.675924   4.991700   6.013902
    37  C    6.119512   4.766508   4.463269   5.635781   7.040053
    38  H    5.169631   4.025505   4.375714   5.733447   6.384674
    39  H    7.120822   5.790947   5.536391   6.697049   8.082346
                    6          7          8          9         10
     6  C    0.000000
     7  C    3.768472   0.000000
     8  C    4.340813   1.418019   0.000000
     9  C    3.831811   2.442649   1.447859   0.000000
    10  C    2.576267   2.856614   2.506630   1.410863   0.000000
    11  C    5.774943   2.537118   1.443934   2.481349   3.789522
    12  C    6.596970   3.796491   2.478505   2.856042   4.265084
    13  C    6.248105   4.246959   2.843801   2.444644   3.711344
    14  C    5.030547   3.743998   2.476734   1.438230   2.457737
    15  C    6.621830   3.023689   2.506154   3.784313   4.969897
    16  C    7.991362   4.418156   3.780692   4.913627   6.196434
    17  C    8.595405   5.220006   4.272896   5.113155   6.497821
    18  C    7.988251   4.971024   3.769043   4.268225   5.675558
    19  C    3.814852   4.659701   5.988907   6.381113   5.692349
    20  C    4.881372   4.675244   6.086540   6.765565   6.342866
    21  C    5.053798   3.753938   5.158903   6.066428   5.930734
    22  C    4.157186   2.370044   3.782188   4.684975   4.631492
    23  C    4.649390   1.474311   2.691300   3.883891   4.265467
    24  H    6.110082   4.368414   5.710565   6.770347   6.798000
    25  H    5.867763   5.709869   7.126043   7.842411   7.422279
    26  H    4.254396   5.681677   6.972363   7.246774   6.422299
    27  H    2.125285   5.265741   6.167132   5.886101   4.692096
    28  H    1.085241   4.681466   5.036900   4.254137   2.862137
    29  H    2.881622   3.939934   3.472936   2.152484   1.085513
    30  H    5.131328   4.598089   3.450912   2.169133   2.648563
    31  H    7.150837   5.326929   3.927463   3.430143   4.581609
    32  H    8.697956   5.910789   4.632393   4.886626   6.264776
    33  H    6.341181   2.775075   2.727163   4.088625   5.061568
    34  H    8.705405   5.075361   4.652233   5.868142   7.089694
    35  H    9.678003   6.282403   5.357160   6.168235   7.559382
    36  C    6.024725   2.610098   3.411239   4.760988   5.405857
    37  C    6.843189   3.155563   3.402509   4.787711   5.730986
    38  H    6.604696   3.525065   4.465688   5.773568   6.303097
    39  H    7.905721   4.231728   4.372234   5.723234   6.737177
                   11         12         13         14         15
    11  C    0.000000
    12  C    1.418102   0.000000
    13  C    2.460651   1.435196   0.000000
    14  C    2.823090   2.428293   1.357385   0.000000
    15  C    1.429694   2.447329   3.752261   4.234655   0.000000
    16  C    2.452574   2.809695   4.233971   5.051119   1.400385
    17  C    2.829028   2.436380   3.745767   4.851002   2.429436
    18  C    2.447811   1.414760   2.481947   3.716083   2.801592
    19  C    7.189439   8.441929   8.676558   7.799039   7.374521
    20  C    7.096385   8.427637   8.876634   8.178358   7.039056
    21  C    5.992383   7.352801   7.960201   7.433171   5.795036
    22  C    4.697928   6.042428   6.593896   6.050781   4.671393
    23  C    3.345152   4.705566   5.424477   5.110467   3.251475
    24  H    6.335095   7.701555   8.458368   8.078319   5.923475
    25  H    8.079175   9.425625   9.922038   9.250644   7.926080
    26  H    8.215580   9.440333   9.597743   8.647875   8.439266
    27  H    7.584814   8.553362   8.320507   7.136106   8.224656
    28  H    6.444847   7.101967   6.551884   5.245377   7.409219
    29  H    4.628247   4.851029   4.005196   2.649940   5.891286
    30  H    3.907207   3.414697   2.121291   1.084995   5.314377
    31  H    3.434834   2.174050   1.084816   2.124810   4.612303
    32  H    3.423567   2.157642   2.695659   4.044938   3.886255
    33  H    2.159523   3.390139   4.571073   4.817974   1.080872
    34  H    3.431213   3.891030   5.310146   6.097884   2.151008
    35  H    3.913313   3.417528   4.617846   5.808244   3.410108
    36  C    3.525021   4.797424   5.771908   5.767273   3.020604
    37  C    2.976387   4.038244   5.195390   5.500392   2.274374
    38  H    4.613370   5.863233   6.842109   6.818086   4.018055
    39  H    3.727252   4.564590   5.804148   6.286688   2.878843
                   16         17         18         19         20
    16  C    0.000000
    17  C    1.398017   0.000000
    18  C    2.408779   1.384967   0.000000
    19  C    8.717620   9.743937   9.624005   0.000000
    20  C    8.296466   9.419842   9.478467   1.393661   0.000000
    21  C    6.997588   8.148221   8.302606   2.472123   1.416302
    22  C    5.967616   7.036302   7.068308   2.841479   2.410632
    23  C    4.540736   5.577732   5.645009   4.274261   3.864920
    24  H    6.988370   8.195976   8.507651   3.435852   2.164318
    25  H    9.128861  10.295605  10.428542   2.136194   1.084501
    26  H    9.788330  10.805709  10.652470   1.084870   2.148614
    27  H    9.622231  10.387268   9.914151   2.883022   4.252536
    28  H    8.742743   9.234833   8.509598   4.708723   5.868289
    29  H    7.040167   7.193755   6.233670   6.414594   7.199687
    30  H    6.101117   5.810831   4.593949   8.275769   8.799404
    31  H    4.848959   4.074137   2.699058   9.723622   9.943222
    32  H    3.393782   2.146422   1.084844  10.565085  10.472733
    33  H    2.140255   3.383766   3.848436   6.702703   6.301150
    34  H    1.084137   2.156546   3.389339   9.065130   8.512183
    35  H    2.155568   1.084294   2.143745  10.759663  10.377197
    36  C    4.024268   5.114650   5.435796   5.344243   4.646448
    37  C    2.968736   3.960433   4.405028   6.634928   5.992067
    38  H    4.883745   6.010583   6.431422   5.268189   4.332240
    39  H    3.091807   3.975525   4.626560   7.544106   6.790096
                   21         22         23         24         25
    21  C    0.000000
    22  C    1.390496   0.000000
    23  C    2.662454   1.476499   0.000000
    24  H    1.084612   2.173538   3.043095   0.000000
    25  H    2.152769   3.384597   4.785133   2.459321   0.000000
    26  H    3.442713   3.925641   5.357343   4.308878   2.449262
    27  H    5.009128   4.666220   5.681835   6.079059   4.983891
    28  H    6.122265   5.240823   5.675748   7.184184   6.813038
    29  H    6.904341   5.646187   5.342958   7.807944   8.265303
    30  H    8.180028   6.813043   6.008431   8.898050   9.878042
    31  H    9.027315   7.665959   6.482715   9.509842  10.988141
    32  H    9.320743   8.067681   6.659700   9.545061  11.436481
    33  H    5.063888   4.027567   2.734549   5.171144   7.151546
    34  H    7.176603   6.298781   4.943631   7.028264   9.260498
    35  H    9.073053   8.016829   6.556492   9.043162  11.218434
    36  C    3.268912   2.541875   1.416732   3.175225   5.386485
    37  C    4.618811   3.812143   2.470806   4.474957   6.733201
    38  H    2.936856   2.703729   2.131418   2.515929   4.891415
    39  H    5.392515   4.752103   3.497815   5.072517   7.436282
                   26         27         28         29         30
    26  H    0.000000
    27  H    2.770886   0.000000
    28  H    4.982744   2.431718   0.000000
    29  H    7.031116   4.958024   2.746084   0.000000
    30  H    9.039697   7.243662   5.120447   2.377585   0.000000
    31  H   10.628550   9.247943   7.353382   4.686424   2.453536
    32  H   11.576572  10.689615   9.125725   6.675966   4.739942
    33  H    7.762101   7.760236   7.204716   6.055760   5.872232
    34  H   10.135691  10.207630   9.510985   7.975986   7.150971
    35  H   11.827707  11.465147  10.310089   8.223027   6.715194
    36  C    6.418721   7.020958   7.036821   6.470426   6.752190
    37  C    7.714102   8.086905   7.781282   6.747003   6.545090
    38  H    6.297933   7.316384   7.653713   7.364866   7.780041
    39  H    8.613106   9.118393   8.839130   7.726638   7.334367
                   31         32         33         34         35
    31  H    0.000000
    32  H    2.457572   0.000000
    33  H    5.503910   4.928803   0.000000
    34  H    5.907568   4.287175   2.465023   0.000000
    35  H    4.761546   2.473085   4.278471   2.484672   0.000000
    36  C    6.753834   6.461129   2.615748   4.257292   5.971502
    37  C    6.072220   5.405413   2.285994   3.240911   4.746976
    38  H    7.811902   7.446423   3.533904   4.946536   6.785934
    39  H    6.569878   5.552062   3.020127   3.147137   4.556921
                   36         37         38         39
    36  C    0.000000
    37  C    1.350004   0.000000
    38  H    1.093966   2.097411   0.000000
    39  H    2.212426   1.082117   2.569460   0.000000
 Stoichiometry    C25H14(3)
 Framework group  C1[X(C25H14)]
 Deg. of freedom   111
 Full point group                 C1      NOp   1
 Largest Abelian subgroup         C1      NOp   1
 Largest concise Abelian subgroup C1      NOp   1
                         Standard orientation:                         
 ---------------------------------------------------------------------
 Center     Atomic      Atomic             Coordinates (Angstroms)
 Number     Number       Type             X           Y           Z
 ---------------------------------------------------------------------
      1          6           0        3.794614    0.391942    0.159862
      2          6           0        2.502078   -0.117219    0.113201
      3          6           0        1.351868    0.688772    0.133509
      4          6           0        1.432875    2.084099    0.126619
      5          6           0        3.887836    1.835236    0.225374
      6          6           0        2.771101    2.633741    0.198733
      7          6           0        0.189647   -0.107281    0.042923
      8          6           0       -1.049965    0.581147    0.028516
      9          6           0       -0.998599    2.021197   -0.112597
     10          6           0        0.208201    2.748152   -0.037077
     11          6           0       -2.344190   -0.046181    0.156523
     12          6           0       -3.518536    0.678249   -0.170776
     13          6           0       -3.415502    2.076914   -0.475585
     14          6           0       -2.224837    2.722174   -0.383662
     15          6           0       -2.482901   -1.367152    0.685504
     16          6           0       -3.754208   -1.935878    0.831812
     17          6           0       -4.890738   -1.257771    0.381342
     18          6           0       -4.777287    0.036490   -0.098398
     19          6           0        4.825165   -0.579060    0.089984
     20          6           0        4.495592   -1.926260   -0.046852
     21          6           0        3.161507   -2.394081   -0.132127
     22          6           0        2.129286   -1.466110   -0.049242
     23          6           0        0.656551   -1.492147   -0.151341
     24          1           0        2.978980   -3.455547   -0.260022
     25          1           0        5.298395   -2.653325   -0.101861
     26          1           0        5.867947   -0.282551    0.130357
     27          1           0        4.868398    2.297880    0.272086
     28          1           0        2.890989    3.712164    0.218185
     29          1           0        0.170159    3.828600   -0.134670
     30          1           0       -2.172190    3.794402   -0.541045
     31          1           0       -4.320319    2.622670   -0.721108
     32          1           0       -5.664062    0.593030   -0.382617
     33          1           0       -1.665170   -1.769653    1.266531
     34          1           0       -3.851474   -2.907688    1.302426
     35          1           0       -5.867103   -1.722373    0.462268
     36          6           0       -0.063147   -2.619490   -0.618525
     37          6           0       -1.397866   -2.699373   -0.804685
     38          1           0        0.543801   -3.487741   -0.891500
     39          1           0       -2.009622   -3.510513   -1.177222
 ---------------------------------------------------------------------
 Rotational constants (GHZ):           0.4781734           0.1806886           0.1341301
 Standard basis: 6-311+G(d,p) (5D, 7F)
 There are   659 symmetry adapted cartesian basis functions of A   symmetry.
 There are   634 symmetry adapted basis functions of A   symmetry.
   634 basis functions,  1012 primitive gaussians,   659 cartesian basis functions
    83 alpha electrons       81 beta electrons
       nuclear repulsion energy      1932.3226850076 Hartrees.
 NAtoms=   39 NActive=   39 NUniq=   39 SFac= 1.00D+00 NAtFMM=   60 NAOKFM=F Big=F
 Integral buffers will be    131072 words long.
 Raffenetti 2 integral format.
 Two-electron integral symmetry is turned on.
 One-electron integrals computed using PRISM.
 NBasis=   634 RedAO= T EigKep=  1.62D-06  NBF=   634
 NBsUse=   618 1.00D-06 EigRej=  9.97D-07 NBFU=   618
 ExpMin= 4.38D-02 ExpMax= 4.56D+03 ExpMxC= 6.82D+02 IAcc=2 IRadAn=         4 AccDes= 0.00D+00
 Harris functional with IExCor=  402 and IRadAn=       4 diagonalized for initial guess.
 HarFok:  IExCor=  402 AccDes= 0.00D+00 IRadAn=         4 IDoV= 1 UseB2=F ITyADJ=14
 ICtDFT=  3500011 ScaDFX=  1.000000  1.000000  1.000000  1.000000
 FoFCou: FMM=F IPFlag=           0 FMFlag=      100000 FMFlg1=           0
         NFxFlg=           0 DoJE=T BraDBF=F KetDBF=T FulRan=T
         wScrn=  0.000000 ICntrl=       500 IOpCl=  0 I1Cent=   200000004 NGrid=           0
         NMat0=    1 NMatS0=      1 NMatT0=    0 NMatD0=    1 NMtDS0=    0 NMtDT0=    0
 Petite list used in FoFCou.
 Initial guess <Sx>= 0.0000 <Sy>= 0.0000 <Sz>= 1.0000 <S**2>= 2.0000 S= 1.0000
 Requested convergence on RMS density matrix=1.00D-08 within 128 cycles.
 Requested convergence on MAX density matrix=1.00D-06.
 Requested convergence on             energy=1.00D-06.
 No special actions if energy rises.
 Restarting incremental Fock formation.
 SCF Done:  E(UB3LYP) =  -961.220546434     A.U. after   23 cycles
            NFock= 23  Conv=0.44D-08     -V/T= 2.0045
 <Sx>= 0.0000 <Sy>= 0.0000 <Sz>= 1.0000 <S**2>= 2.0541 S= 1.0179
 <L.S>=  0.00000000000    
 Annihilation of the first spin contaminant:
 S**2 before annihilation     2.0541,   after     2.0016
 DoSCS=F DFT=T ScalE2(SS,OS)=  1.000000  1.000000
 Range of M.O.s used for correlation:     1   618
 NBasis=   634 NAE=    83 NBE=    81 NFC=     0 NFV=     0
 NROrb=    618 NOA=    83 NOB=    81 NVA=   535 NVB=   537

 **** Warning!!: The largest alpha MO coefficient is  0.12664448D+03


 **** Warning!!: The largest beta MO coefficient is  0.12831318D+03


 **** Warning!!: The smallest beta delta epsilon is  0.86653784D-01

 Symmetrizing basis deriv contribution to polar:
 IMax=3 JMax=2 DiffMx= 0.00D+00
 G2DrvN: will do    40 centers at a time, making    1 passes.
 Calling FoFCou, ICntrl=  3107 FMM=F I1Cent=   0 AccDes= 0.00D+00.
 End of G2Drv F.D. properties file   721 does not exist.
 End of G2Drv F.D. properties file   722 does not exist.
 End of G2Drv F.D. properties file   788 does not exist.
          IDoAtm=111111111111111111111111111111111111111
          Differentiating once with respect to nuclear coordinates.
 CalDSu exits because no D1Ps are significant.
          There are   120 degrees of freedom in the 1st order CPHF.  IDoFFX=6 NUNeed=     0.
    114 vectors produced by pass  0 Test12= 8.79D-14 1.00D-09 XBig12= 5.24D-01 2.36D-01.
 AX will form   114 AO Fock derivatives at one time.
    114 vectors produced by pass  1 Test12= 8.79D-14 1.00D-09 XBig12= 1.54D-01 6.11D-02.
    114 vectors produced by pass  2 Test12= 8.79D-14 1.00D-09 XBig12= 2.14D-03 8.36D-03.
    114 vectors produced by pass  3 Test12= 8.79D-14 1.00D-09 XBig12= 3.45D-05 7.29D-04.
    114 vectors produced by pass  4 Test12= 8.79D-14 1.00D-09 XBig12= 3.79D-07 5.46D-05.
    114 vectors produced by pass  5 Test12= 8.79D-14 1.00D-09 XBig12= 2.56D-09 3.33D-06.
    114 vectors produced by pass  6 Test12= 8.79D-14 1.00D-09 XBig12= 4.75D-11 5.03D-07.
    102 vectors produced by pass  7 Test12= 8.79D-14 1.00D-09 XBig12= 1.44D-11 2.44D-07.
     69 vectors produced by pass  8 Test12= 8.79D-14 1.00D-09 XBig12= 1.64D-12 5.92D-08.
     18 vectors produced by pass  9 Test12= 8.79D-14 1.00D-09 XBig12= 2.36D-14 7.57D-09.
      4 vectors produced by pass 10 Test12= 8.79D-14 1.00D-09 XBig12= 5.65D-16 1.92D-09.
      3 vectors produced by pass 11 Test12= 8.79D-14 1.00D-09 XBig12= 4.56D-16 1.17D-09.
      2 vectors produced by pass 12 Test12= 8.79D-14 1.00D-09 XBig12= 5.04D-16 1.21D-09.
      2 vectors produced by pass 13 Test12= 8.79D-14 1.00D-09 XBig12= 4.62D-16 1.03D-09.
      1 vectors produced by pass 14 Test12= 8.79D-14 1.00D-09 XBig12= 5.17D-16 1.33D-09.
 InvSVY:  IOpt=1 It=  1 EMax= 7.77D-16
 Solved reduced A of dimension   999 with   120 vectors.
 End of Minotr F.D. properties file   721 does not exist.
 End of Minotr F.D. properties file   722 does not exist.
 End of Minotr F.D. properties file   788 does not exist.

 **********************************************************************

            Population analysis using the SCF Density.

 **********************************************************************

 Orbital symmetries:
 Alpha Orbitals:
       Occupied  (A) (A) (A) (A) (A) (A) (A) (A) (A) (A) (A) (A)
                 (A) (A) (A) (A) (A) (A) (A) (A) (A) (A) (A) (A)
                 (A) (A) (A) (A) (A) (A) (A) (A) (A) (A) (A) (A)
                 (A) (A) (A) (A) (A) (A) (A) (A) (A) (A) (A) (A)
                 (A) (A) (A) (A) (A) (A) (A) (A) (A) (A) (A) (A)
                 (A) (A) (A) (A) (A) (A) (A) (A) (A) (A) (A) (A)
                 (A) (A) (A) (A) (A) (A) (A) (A) (A) (A) (A)
       Virtual   (A) (A) (A) (A) (A) (A) (A) (A) (A) (A) (A) (A)
                 (A) (A) (A) (A) (A) (A) (A) (A) (A) (A) (A) (A)
                 (A) (A) (A) (A) (A) (A) (A) (A) (A) (A) (A) (A)
                 (A) (A) (A) (A) (A) (A) (A) (A) (A) (A) (A) (A)
                 (A) (A) (A) (A) (A) (A) (A) (A) (A) (A) (A) (A)
                 (A) (A) (A) (A) (A) (A) (A) (A) (A) (A) (A) (A)
                 (A) (A) (A) (A) (A) (A) (A) (A) (A) (A) (A) (A)
                 (A) (A) (A) (A) (A) (A) (A) (A) (A) (A) (A) (A)
                 (A) (A) (A) (A) (A) (A) (A) (A) (A) (A) (A) (A)
                 (A) (A) (A) (A) (A) (A) (A) (A) (A) (A) (A) (A)
                 (A) (A) (A) (A) (A) (A) (A) (A) (A) (A) (A) (A)
                 (A) (A) (A) (A) (A) (A) (A) (A) (A) (A) (A) (A)
                 (A) (A) (A) (A) (A) (A) (A) (A) (A) (A) (A) (A)
                 (A) (A) (A) (A) (A) (A) (A) (A) (A) (A) (A) (A)
                 (A) (A) (A) (A) (A) (A) (A) (A) (A) (A) (A) (A)
                 (A) (A) (A) (A) (A) (A) (A) (A) (A) (A) (A) (A)
                 (A) (A) (A) (A) (A) (A) (A) (A) (A) (A) (A) (A)
                 (A) (A) (A) (A) (A) (A) (A) (A) (A) (A) (A) (A)
                 (A) (A) (A) (A) (A) (A) (A) (A) (A) (A) (A) (A)
                 (A) (A) (A) (A) (A) (A) (A) (A) (A) (A) (A) (A)
                 (A) (A) (A) (A) (A) (A) (A) (A) (A) (A) (A) (A)
                 (A) (A) (A) (A) (A) (A) (A) (A) (A) (A) (A) (A)
                 (A) (A) (A) (A) (A) (A) (A) (A) (A) (A) (A) (A)
                 (A) (A) (A) (A) (A) (A) (A) (A) (A) (A) (A) (A)
                 (A) (A) (A) (A) (A) (A) (A) (A) (A) (A) (A) (A)
                 (A) (A) (A) (A) (A) (A) (A) (A) (A) (A) (A) (A)
                 (A) (A) (A) (A) (A) (A) (A) (A) (A) (A) (A) (A)
                 (A) (A) (A) (A) (A) (A) (A) (A) (A) (A) (A) (A)
                 (A) (A) (A) (A) (A) (A) (A) (A) (A) (A) (A) (A)
                 (A) (A) (A) (A) (A) (A) (A) (A) (A) (A) (A) (A)
                 (A) (A) (A) (A) (A) (A) (A) (A) (A) (A) (A) (A)
                 (A) (A) (A) (A) (A) (A) (A) (A) (A) (A) (A) (A)
                 (A) (A) (A) (A) (A) (A) (A) (A) (A) (A) (A) (A)
                 (A) (A) (A) (A) (A) (A) (A) (A) (A) (A) (A) (A)
                 (A) (A) (A) (A) (A) (A) (A) (A) (A) (A) (A) (A)
                 (A) (A) (A) (A) (A) (A) (A) (A) (A) (A) (A) (A)
                 (A) (A) (A) (A) (A) (A) (A) (A) (A) (A) (A) (A)
                 (A) (A) (A) (A) (A) (A) (A) (A) (A) (A) (A) (A)
                 (A) (A) (A) (A) (A) (A) (A) (A) (A) (A) (A) (A)
                 (A) (A) (A) (A) (A) (A) (A) (A) (A) (A) (A) (A)
                 (A) (A) (A) (A) (A) (A) (A) (A) (A) (A) (A) (A)
                 (A) (A) (A) (A) (A) (A) (A) (A) (A) (A) (A) (A)
                 (A) (A) (A) (A) (A) (A) (A) (A) (A) (A) (A) (A)
                 (A) (A) (A) (A) (A) (A) (A) (A) (A) (A) (A) (A)
                 (A) (A) (A) (A) (A) (A) (A)
 Beta  Orbitals:
       Occupied  (A) (A) (A) (A) (A) (A) (A) (A) (A) (A) (A) (A)
                 (A) (A) (A) (A) (A) (A) (A) (A) (A) (A) (A) (A)
                 (A) (A) (A) (A) (A) (A) (A) (A) (A) (A) (A) (A)
                 (A) (A) (A) (A) (A) (A) (A) (A) (A) (A) (A) (A)
                 (A) (A) (A) (A) (A) (A) (A) (A) (A) (A) (A) (A)
                 (A) (A) (A) (A) (A) (A) (A) (A) (A) (A) (A) (A)
                 (A) (A) (A) (A) (A) (A) (A) (A) (A)
       Virtual   (A) (A) (A) (A) (A) (A) (A) (A) (A) (A) (A) (A)
                 (A) (A) (A) (A) (A) (A) (A) (A) (A) (A) (A) (A)
                 (A) (A) (A) (A) (A) (A) (A) (A) (A) (A) (A) (A)
                 (A) (A) (A) (A) (A) (A) (A) (A) (A) (A) (A) (A)
                 (A) (A) (A) (A) (A) (A) (A) (A) (A) (A) (A) (A)
                 (A) (A) (A) (A) (A) (A) (A) (A) (A) (A) (A) (A)
                 (A) (A) (A) (A) (A) (A) (A) (A) (A) (A) (A) (A)
                 (A) (A) (A) (A) (A) (A) (A) (A) (A) (A) (A) (A)
                 (A) (A) (A) (A) (A) (A) (A) (A) (A) (A) (A) (A)
                 (A) (A) (A) (A) (A) (A) (A) (A) (A) (A) (A) (A)
                 (A) (A) (A) (A) (A) (A) (A) (A) (A) (A) (A) (A)
                 (A) (A) (A) (A) (A) (A) (A) (A) (A) (A) (A) (A)
                 (A) (A) (A) (A) (A) (A) (A) (A) (A) (A) (A) (A)
                 (A) (A) (A) (A) (A) (A) (A) (A) (A) (A) (A) (A)
                 (A) (A) (A) (A) (A) (A) (A) (A) (A) (A) (A) (A)
                 (A) (A) (A) (A) (A) (A) (A) (A) (A) (A) (A) (A)
                 (A) (A) (A) (A) (A) (A) (A) (A) (A) (A) (A) (A)
                 (A) (A) (A) (A) (A) (A) (A) (A) (A) (A) (A) (A)
                 (A) (A) (A) (A) (A) (A) (A) (A) (A) (A) (A) (A)
                 (A) (A) (A) (A) (A) (A) (A) (A) (A) (A) (A) (A)
                 (A) (A) (A) (A) (A) (A) (A) (A) (A) (A) (A) (A)
                 (A) (A) (A) (A) (A) (A) (A) (A) (A) (A) (A) (A)
                 (A) (A) (A) (A) (A) (A) (A) (A) (A) (A) (A) (A)
                 (A) (A) (A) (A) (A) (A) (A) (A) (A) (A) (A) (A)
                 (A) (A) (A) (A) (A) (A) (A) (A) (A) (A) (A) (A)
                 (A) (A) (A) (A) (A) (A) (A) (A) (A) (A) (A) (A)
                 (A) (A) (A) (A) (A) (A) (A) (A) (A) (A) (A) (A)
                 (A) (A) (A) (A) (A) (A) (A) (A) (A) (A) (A) (A)
                 (A) (A) (A) (A) (A) (A) (A) (A) (A) (A) (A) (A)
                 (A) (A) (A) (A) (A) (A) (A) (A) (A) (A) (A) (A)
                 (A) (A) (A) (A) (A) (A) (A) (A) (A) (A) (A) (A)
                 (A) (A) (A) (A) (A) (A) (A) (A) (A) (A) (A) (A)
                 (A) (A) (A) (A) (A) (A) (A) (A) (A) (A) (A) (A)
                 (A) (A) (A) (A) (A) (A) (A) (A) (A) (A) (A) (A)
                 (A) (A) (A) (A) (A) (A) (A) (A) (A) (A) (A) (A)
                 (A) (A) (A) (A) (A) (A) (A) (A) (A) (A) (A) (A)
                 (A) (A) (A) (A) (A) (A) (A) (A) (A) (A) (A) (A)
                 (A) (A) (A) (A) (A) (A) (A) (A) (A) (A) (A) (A)
                 (A) (A) (A) (A) (A) (A) (A) (A) (A) (A) (A) (A)
                 (A) (A) (A) (A) (A) (A) (A) (A) (A) (A) (A) (A)
                 (A) (A) (A) (A) (A) (A) (A) (A) (A) (A) (A) (A)
                 (A) (A) (A) (A) (A) (A) (A) (A) (A) (A) (A) (A)
                 (A) (A) (A) (A) (A) (A) (A) (A) (A) (A) (A) (A)
                 (A) (A) (A) (A) (A) (A) (A) (A) (A) (A) (A) (A)
                 (A) (A) (A) (A) (A) (A) (A) (A) (A)
 The electronic state is 3-A.
 Alpha  occ. eigenvalues --  -10.20973 -10.20198 -10.19969 -10.19483 -10.19352
 Alpha  occ. eigenvalues --  -10.19227 -10.19183 -10.19075 -10.18965 -10.18868
 Alpha  occ. eigenvalues --  -10.18864 -10.18859 -10.18792 -10.18770 -10.18707
 Alpha  occ. eigenvalues --  -10.18539 -10.18514 -10.18439 -10.18404 -10.18259
 Alpha  occ. eigenvalues --  -10.18251 -10.18216 -10.18049 -10.17502 -10.16984
 Alpha  occ. eigenvalues --   -0.91571  -0.88628  -0.85620  -0.84414  -0.82786
 Alpha  occ. eigenvalues --   -0.79343  -0.79262  -0.78318  -0.75330  -0.74737
 Alpha  occ. eigenvalues --   -0.72896  -0.71427  -0.69248  -0.64838  -0.64480
 Alpha  occ. eigenvalues --   -0.62361  -0.62251  -0.59962  -0.59241  -0.56802
 Alpha  occ. eigenvalues --   -0.54885  -0.52522  -0.52077  -0.51297  -0.51123
 Alpha  occ. eigenvalues --   -0.48403  -0.48038  -0.47196  -0.46478  -0.45489
 Alpha  occ. eigenvalues --   -0.44212  -0.43953  -0.43367  -0.42841  -0.42340
 Alpha  occ. eigenvalues --   -0.41736  -0.41286  -0.40681  -0.40284  -0.39658
 Alpha  occ. eigenvalues --   -0.37913  -0.37391  -0.36980  -0.36167  -0.35643
 Alpha  occ. eigenvalues --   -0.34550  -0.33973  -0.33267  -0.33153  -0.31537
 Alpha  occ. eigenvalues --   -0.29695  -0.29153  -0.26663  -0.25825  -0.23960
 Alpha  occ. eigenvalues --   -0.21734  -0.19646  -0.18839
 Alpha virt. eigenvalues --   -0.06801  -0.05449  -0.02385  -0.01581  -0.00734
 Alpha virt. eigenvalues --    0.00176   0.00578   0.00724   0.00894   0.01785
 Alpha virt. eigenvalues --    0.01844   0.02886   0.03122   0.03298   0.03391
 Alpha virt. eigenvalues --    0.03880   0.04298   0.04866   0.05223   0.05448
 Alpha virt. eigenvalues --    0.05856   0.06343   0.06981   0.07092   0.07363
 Alpha virt. eigenvalues --    0.07616   0.07936   0.08050   0.08687   0.09196
 Alpha virt. eigenvalues --    0.09764   0.10259   0.10485   0.10805   0.11027
 Alpha virt. eigenvalues --    0.11307   0.11871   0.12281   0.12707   0.13272
 Alpha virt. eigenvalues --    0.13610   0.13711   0.13945   0.14010   0.14662
 Alpha virt. eigenvalues --    0.14828   0.15354   0.15601   0.15848   0.16041
 Alpha virt. eigenvalues --    0.16396   0.16701   0.16863   0.17410   0.17669
 Alpha virt. eigenvalues --    0.17772   0.17968   0.18170   0.18466   0.18600
 Alpha virt. eigenvalues --    0.19093   0.19309   0.19443   0.19757   0.19951
 Alpha virt. eigenvalues --    0.20100   0.20350   0.20614   0.21031   0.21227
 Alpha virt. eigenvalues --    0.21436   0.21656   0.21698   0.22289   0.22448
 Alpha virt. eigenvalues --    0.22655   0.22893   0.23148   0.23170   0.24039
 Alpha virt. eigenvalues --    0.24239   0.24284   0.24934   0.25023   0.25090
 Alpha virt. eigenvalues --    0.25244   0.25706   0.25836   0.25935   0.26299
 Alpha virt. eigenvalues --    0.26445   0.26874   0.27398   0.27583   0.28111
 Alpha virt. eigenvalues --    0.28286   0.28520   0.28886   0.29229   0.29303
 Alpha virt. eigenvalues --    0.29498   0.29621   0.29994   0.30355   0.31064
 Alpha virt. eigenvalues --    0.31317   0.31777   0.31940   0.32176   0.32467
 Alpha virt. eigenvalues --    0.32768   0.33066   0.33426   0.34042   0.34875
 Alpha virt. eigenvalues --    0.35709   0.36096   0.36322   0.36925   0.37915
 Alpha virt. eigenvalues --    0.38372   0.39359   0.39848   0.40391   0.41173
 Alpha virt. eigenvalues --    0.41992   0.43014   0.43807   0.44172   0.44871
 Alpha virt. eigenvalues --    0.45572   0.46308   0.47495   0.48036   0.49267
 Alpha virt. eigenvalues --    0.50203   0.50694   0.52159   0.52548   0.53013
 Alpha virt. eigenvalues --    0.53221   0.53583   0.53992   0.54524   0.54832
 Alpha virt. eigenvalues --    0.54984   0.55388   0.55646   0.56252   0.57004
 Alpha virt. eigenvalues --    0.57148   0.57560   0.57882   0.58541   0.58947
 Alpha virt. eigenvalues --    0.59188   0.59965   0.60237   0.60544   0.60825
 Alpha virt. eigenvalues --    0.61385   0.62005   0.62558   0.62748   0.62977
 Alpha virt. eigenvalues --    0.63701   0.63934   0.64632   0.65229   0.65954
 Alpha virt. eigenvalues --    0.66317   0.66499   0.67365   0.67472   0.67963
 Alpha virt. eigenvalues --    0.68532   0.68763   0.69550   0.69914   0.70344
 Alpha virt. eigenvalues --    0.70619   0.71324   0.71463   0.71545   0.72521
 Alpha virt. eigenvalues --    0.72645   0.72902   0.73392   0.73506   0.74188
 Alpha virt. eigenvalues --    0.74515   0.74703   0.75632   0.75843   0.76712
 Alpha virt. eigenvalues --    0.76872   0.77309   0.77716   0.78139   0.79644
 Alpha virt. eigenvalues --    0.80419   0.80990   0.81752   0.82511   0.83391
 Alpha virt. eigenvalues --    0.84008   0.84517   0.85402   0.86245   0.86538
 Alpha virt. eigenvalues --    0.87086   0.88117   0.88878   0.89507   0.90085
 Alpha virt. eigenvalues --    0.90331   0.91254   0.91545   0.92061   0.92588
 Alpha virt. eigenvalues --    0.93514   0.93967   0.94141   0.94591   0.94927
 Alpha virt. eigenvalues --    0.95426   0.96095   0.96587   0.96932   0.97002
 Alpha virt. eigenvalues --    0.97793   0.98710   0.99176   0.99404   1.00536
 Alpha virt. eigenvalues --    1.01373   1.01500   1.01909   1.03430   1.03604
 Alpha virt. eigenvalues --    1.04494   1.04983   1.06065   1.06571   1.07459
 Alpha virt. eigenvalues --    1.07733   1.08854   1.09250   1.09644   1.10756
 Alpha virt. eigenvalues --    1.11569   1.12069   1.13341   1.13966   1.14888
 Alpha virt. eigenvalues --    1.15609   1.15932   1.17847   1.18668   1.20103
 Alpha virt. eigenvalues --    1.21724   1.23148   1.24087   1.25140   1.26878
 Alpha virt. eigenvalues --    1.29094   1.30393   1.31672   1.32282   1.34928
 Alpha virt. eigenvalues --    1.37696   1.38196   1.38792   1.41021   1.43223
 Alpha virt. eigenvalues --    1.43720   1.46179   1.46915   1.47370   1.47881
 Alpha virt. eigenvalues --    1.48036   1.49307   1.49934   1.50391   1.50583
 Alpha virt. eigenvalues --    1.51140   1.53019   1.53464   1.54103   1.54825
 Alpha virt. eigenvalues --    1.55076   1.55525   1.56099   1.56472   1.57090
 Alpha virt. eigenvalues --    1.57630   1.59112   1.60692   1.60884   1.61717
 Alpha virt. eigenvalues --    1.62239   1.62702   1.63665   1.64837   1.65524
 Alpha virt. eigenvalues --    1.66277   1.67263   1.68009   1.69231   1.70065
 Alpha virt. eigenvalues --    1.71322   1.71639   1.73411   1.73650   1.74120
 Alpha virt. eigenvalues --    1.74364   1.74877   1.75773   1.76404   1.76574
 Alpha virt. eigenvalues --    1.78591   1.80020   1.80279   1.82101   1.82564
 Alpha virt. eigenvalues --    1.83072   1.83600   1.84431   1.84795   1.85524
 Alpha virt. eigenvalues --    1.85833   1.87312   1.87722   1.88930   1.88991
 Alpha virt. eigenvalues --    1.89897   1.90380   1.91442   1.91920   1.92541
 Alpha virt. eigenvalues --    1.92982   1.93445   1.93813   1.94428   1.95282
 Alpha virt. eigenvalues --    1.96688   1.97283   1.98019   1.98636   1.99825
 Alpha virt. eigenvalues --    2.00622   2.01049   2.02002   2.03932   2.04628
 Alpha virt. eigenvalues --    2.05366   2.06320   2.07326   2.08033   2.09274
 Alpha virt. eigenvalues --    2.10111   2.10383   2.12248   2.13097   2.13677
 Alpha virt. eigenvalues --    2.14623   2.15447   2.16183   2.16862   2.19019
 Alpha virt. eigenvalues --    2.20250   2.22199   2.22382   2.23279   2.24611
 Alpha virt. eigenvalues --    2.25162   2.27187   2.30794   2.32155   2.32861
 Alpha virt. eigenvalues --    2.33286   2.35891   2.37818   2.37989   2.38928
 Alpha virt. eigenvalues --    2.40291   2.41558   2.42964   2.44056   2.44491
 Alpha virt. eigenvalues --    2.44955   2.45898   2.47299   2.49281   2.52383
 Alpha virt. eigenvalues --    2.54605   2.55072   2.56029   2.58940   2.61280
 Alpha virt. eigenvalues --    2.62625   2.64098   2.65093   2.66146   2.67643
 Alpha virt. eigenvalues --    2.68070   2.69450   2.70279   2.71286   2.71985
 Alpha virt. eigenvalues --    2.72403   2.72540   2.73158   2.73604   2.74023
 Alpha virt. eigenvalues --    2.74500   2.74902   2.75516   2.75955   2.76235
 Alpha virt. eigenvalues --    2.76845   2.77237   2.77870   2.78320   2.78768
 Alpha virt. eigenvalues --    2.79155   2.79825   2.81113   2.81762   2.83091
 Alpha virt. eigenvalues --    2.83589   2.83858   2.84380   2.86792   2.87698
 Alpha virt. eigenvalues --    2.88341   2.89012   2.89944   2.91186   2.91385
 Alpha virt. eigenvalues --    2.91736   2.92869   2.94176   2.96857   2.97351
 Alpha virt. eigenvalues --    2.98351   3.01995   3.02781   3.03733   3.05992
 Alpha virt. eigenvalues --    3.08758   3.09053   3.11304   3.13992   3.14213
 Alpha virt. eigenvalues --    3.16980   3.19576   3.20899   3.22329   3.23053
 Alpha virt. eigenvalues --    3.24901   3.26211   3.29544   3.30924   3.33871
 Alpha virt. eigenvalues --    3.34300   3.37528   3.37939   3.38900   3.39029
 Alpha virt. eigenvalues --    3.41283   3.43215   3.45979   3.46473   3.47055
 Alpha virt. eigenvalues --    3.48898   3.51622   3.51925   3.54456   3.55554
 Alpha virt. eigenvalues --    3.58511   3.59093   3.61497   3.62299   3.67086
 Alpha virt. eigenvalues --    3.70713   3.73081   3.77355   3.82857   3.89381
 Alpha virt. eigenvalues --    3.96850   4.02187   4.03862   4.05545   4.07082
 Alpha virt. eigenvalues --    4.08163   4.09618   4.12572   4.16972   4.23391
 Alpha virt. eigenvalues --    4.28980   4.35688   4.45781   4.60685   4.74162
 Alpha virt. eigenvalues --    4.77006   4.78715   4.81105   4.82163   4.86931
 Alpha virt. eigenvalues --   23.42763  23.63628  23.72375  23.77461  23.82107
 Alpha virt. eigenvalues --   23.85984  23.90773  23.91562  23.94361  23.94806
 Alpha virt. eigenvalues --   23.96431  23.97397  23.99647  24.02472  24.02655
 Alpha virt. eigenvalues --   24.06192  24.07353  24.08385  24.10255  24.13673
 Alpha virt. eigenvalues --   24.15861  24.16207  24.17550  24.19979  24.20914
  Beta  occ. eigenvalues --  -10.20278 -10.19879 -10.19524 -10.19355 -10.19228
  Beta  occ. eigenvalues --  -10.19177 -10.19114 -10.19053 -10.18988 -10.18974
  Beta  occ. eigenvalues --  -10.18775 -10.18712 -10.18707 -10.18651 -10.18616
  Beta  occ. eigenvalues --  -10.18399 -10.18309 -10.18298 -10.18296 -10.18255
  Beta  occ. eigenvalues --  -10.18198 -10.18125 -10.18060 -10.17372 -10.16908
  Beta  occ. eigenvalues --   -0.91290  -0.88437  -0.85404  -0.83963  -0.82634
  Beta  occ. eigenvalues --   -0.79145  -0.78451  -0.77828  -0.75160  -0.74513
  Beta  occ. eigenvalues --   -0.72499  -0.71271  -0.67949  -0.64624  -0.64240
  Beta  occ. eigenvalues --   -0.62060  -0.61542  -0.59525  -0.58912  -0.56726
  Beta  occ. eigenvalues --   -0.54239  -0.52200  -0.51862  -0.50979  -0.50878
  Beta  occ. eigenvalues --   -0.47926  -0.47836  -0.46858  -0.46272  -0.45109
  Beta  occ. eigenvalues --   -0.44024  -0.43559  -0.43129  -0.42435  -0.42031
  Beta  occ. eigenvalues --   -0.41421  -0.41093  -0.40525  -0.39746  -0.39563
  Beta  occ. eigenvalues --   -0.37542  -0.37178  -0.36496  -0.35574  -0.34894
  Beta  occ. eigenvalues --   -0.34456  -0.33756  -0.33112  -0.32729  -0.30339
  Beta  occ. eigenvalues --   -0.28675  -0.27833  -0.25519  -0.25220  -0.22259
  Beta  occ. eigenvalues --   -0.20945
  Beta virt. eigenvalues --   -0.12280  -0.09058  -0.05954  -0.04394  -0.01715
  Beta virt. eigenvalues --   -0.00330   0.00032   0.00562   0.00657   0.00882
  Beta virt. eigenvalues --    0.01439   0.01820   0.01889   0.03000   0.03186
  Beta virt. eigenvalues --    0.03398   0.03531   0.04053   0.04572   0.04902
  Beta virt. eigenvalues --    0.05294   0.05556   0.05979   0.06809   0.07130
  Beta virt. eigenvalues --    0.07198   0.07489   0.07712   0.08010   0.08228
  Beta virt. eigenvalues --    0.08976   0.09459   0.09851   0.10318   0.10805
  Beta virt. eigenvalues --    0.10938   0.11122   0.11447   0.12030   0.12338
  Beta virt. eigenvalues --    0.12786   0.13530   0.13716   0.13828   0.14200
  Beta virt. eigenvalues --    0.14314   0.14813   0.14957   0.15443   0.15800
  Beta virt. eigenvalues --    0.15941   0.16145   0.16621   0.16751   0.16935
  Beta virt. eigenvalues --    0.17510   0.17762   0.17853   0.18104   0.18345
  Beta virt. eigenvalues --    0.18567   0.18717   0.19339   0.19441   0.19533
  Beta virt. eigenvalues --    0.19844   0.20058   0.20176   0.20438   0.20692
  Beta virt. eigenvalues --    0.21113   0.21421   0.21621   0.21810   0.21844
  Beta virt. eigenvalues --    0.22374   0.22658   0.22763   0.23032   0.23254
  Beta virt. eigenvalues --    0.23433   0.24169   0.24341   0.24366   0.25035
  Beta virt. eigenvalues --    0.25179   0.25237   0.25297   0.25817   0.25956
  Beta virt. eigenvalues --    0.26022   0.26462   0.26612   0.26997   0.27512
  Beta virt. eigenvalues --    0.27779   0.28182   0.28404   0.28600   0.28952
  Beta virt. eigenvalues --    0.29342   0.29383   0.29612   0.29797   0.30130
  Beta virt. eigenvalues --    0.30436   0.31206   0.31423   0.31893   0.32059
  Beta virt. eigenvalues --    0.32283   0.32551   0.32907   0.33254   0.33716
  Beta virt. eigenvalues --    0.34206   0.35033   0.35912   0.36249   0.36434
  Beta virt. eigenvalues --    0.37170   0.38131   0.38494   0.39539   0.40023
  Beta virt. eigenvalues --    0.40878   0.41360   0.42187   0.43339   0.43949
  Beta virt. eigenvalues --    0.44338   0.45043   0.46011   0.46394   0.47593
  Beta virt. eigenvalues --    0.48191   0.49499   0.50371   0.51129   0.52282
  Beta virt. eigenvalues --    0.52727   0.53114   0.53395   0.53805   0.54177
  Beta virt. eigenvalues --    0.54730   0.55056   0.55234   0.55608   0.55825
  Beta virt. eigenvalues --    0.56466   0.57219   0.57302   0.57699   0.57950
  Beta virt. eigenvalues --    0.58765   0.59262   0.59443   0.60178   0.60532
  Beta virt. eigenvalues --    0.60907   0.61005   0.62007   0.62260   0.62792
  Beta virt. eigenvalues --    0.63218   0.63334   0.63833   0.64405   0.65214
  Beta virt. eigenvalues --    0.65489   0.66194   0.66452   0.67022   0.67659
  Beta virt. eigenvalues --    0.67773   0.68462   0.68748   0.69136   0.69884
  Beta virt. eigenvalues --    0.70286   0.70604   0.70937   0.71586   0.71696
  Beta virt. eigenvalues --    0.71870   0.72633   0.73006   0.73160   0.73588
  Beta virt. eigenvalues --    0.73953   0.74406   0.74620   0.75025   0.75763
  Beta virt. eigenvalues --    0.76007   0.76886   0.77211   0.77646   0.77911
  Beta virt. eigenvalues --    0.78625   0.79956   0.80723   0.81052   0.81953
  Beta virt. eigenvalues --    0.82594   0.83781   0.84340   0.84892   0.85775
  Beta virt. eigenvalues --    0.86433   0.86626   0.87317   0.88308   0.89033
  Beta virt. eigenvalues --    0.89736   0.90217   0.90525   0.91636   0.91756
  Beta virt. eigenvalues --    0.92277   0.92800   0.93744   0.94300   0.94497
  Beta virt. eigenvalues --    0.94871   0.95215   0.95760   0.96313   0.96799
  Beta virt. eigenvalues --    0.97114   0.97244   0.97997   0.99074   0.99450
  Beta virt. eigenvalues --    0.99739   1.00781   1.01709   1.01799   1.02225
  Beta virt. eigenvalues --    1.03651   1.04002   1.04918   1.05316   1.06288
  Beta virt. eigenvalues --    1.06741   1.07770   1.08126   1.09092   1.09622
  Beta virt. eigenvalues --    1.10014   1.10950   1.11838   1.12488   1.13682
  Beta virt. eigenvalues --    1.14240   1.15241   1.15788   1.16113   1.18225
  Beta virt. eigenvalues --    1.18953   1.20244   1.22026   1.23734   1.24494
  Beta virt. eigenvalues --    1.25618   1.27033   1.29592   1.30806   1.32012
  Beta virt. eigenvalues --    1.32567   1.35124   1.38063   1.38579   1.39138
  Beta virt. eigenvalues --    1.41376   1.43429   1.44024   1.46410   1.47216
  Beta virt. eigenvalues --    1.47587   1.48072   1.48616   1.49622   1.50126
  Beta virt. eigenvalues --    1.50627   1.50934   1.51351   1.53224   1.54168
  Beta virt. eigenvalues --    1.54372   1.55178   1.55561   1.55825   1.56341
  Beta virt. eigenvalues --    1.56722   1.57438   1.58414   1.59591   1.60998
  Beta virt. eigenvalues --    1.61207   1.62328   1.62762   1.63551   1.64236
  Beta virt. eigenvalues --    1.65243   1.65730   1.66562   1.67528   1.68494
  Beta virt. eigenvalues --    1.69819   1.70326   1.71545   1.72134   1.73636
  Beta virt. eigenvalues --    1.74069   1.74392   1.74628   1.75040   1.76042
  Beta virt. eigenvalues --    1.76550   1.76961   1.78948   1.80376   1.80965
  Beta virt. eigenvalues --    1.82766   1.82959   1.83458   1.83771   1.84682
  Beta virt. eigenvalues --    1.85113   1.85824   1.86060   1.87656   1.88053
  Beta virt. eigenvalues --    1.89161   1.89292   1.90312   1.90672   1.91758
  Beta virt. eigenvalues --    1.92112   1.92978   1.93096   1.93583   1.94119
  Beta virt. eigenvalues --    1.94682   1.95533   1.96924   1.97487   1.98471
  Beta virt. eigenvalues --    1.99108   2.00069   2.00977   2.01282   2.02182
  Beta virt. eigenvalues --    2.04142   2.04901   2.05634   2.06528   2.07587
  Beta virt. eigenvalues --    2.08583   2.09758   2.10513   2.10672   2.12491
  Beta virt. eigenvalues --    2.13358   2.14325   2.15041   2.16088   2.16753
  Beta virt. eigenvalues --    2.17338   2.19308   2.20972   2.22413   2.22702
  Beta virt. eigenvalues --    2.23590   2.24959   2.25949   2.27378   2.31362
  Beta virt. eigenvalues --    2.32494   2.33155   2.33670   2.36034   2.38098
  Beta virt. eigenvalues --    2.38386   2.39205   2.40712   2.41939   2.43147
  Beta virt. eigenvalues --    2.44194   2.44687   2.45149   2.46144   2.47600
  Beta virt. eigenvalues --    2.49595   2.52725   2.54827   2.55156   2.56139
  Beta virt. eigenvalues --    2.59090   2.61464   2.62918   2.64293   2.65297
  Beta virt. eigenvalues --    2.66427   2.67825   2.68486   2.69782   2.70603
  Beta virt. eigenvalues --    2.71369   2.72274   2.72571   2.72742   2.73321
  Beta virt. eigenvalues --    2.73814   2.74220   2.74784   2.75107   2.75883
  Beta virt. eigenvalues --    2.76156   2.76490   2.77110   2.77516   2.78011
  Beta virt. eigenvalues --    2.78500   2.79029   2.79398   2.80234   2.81216
  Beta virt. eigenvalues --    2.82194   2.83377   2.83737   2.84163   2.84561
  Beta virt. eigenvalues --    2.87232   2.87910   2.88677   2.89636   2.90252
  Beta virt. eigenvalues --    2.91674   2.91712   2.92390   2.93176   2.94415
  Beta virt. eigenvalues --    2.97199   2.98124   2.98980   3.02472   3.04118
  Beta virt. eigenvalues --    3.04383   3.06334   3.09208   3.09806   3.11641
  Beta virt. eigenvalues --    3.14423   3.14715   3.17157   3.19714   3.21018
  Beta virt. eigenvalues --    3.22497   3.23164   3.25022   3.26551   3.30047
  Beta virt. eigenvalues --    3.31568   3.33999   3.35110   3.37616   3.38473
  Beta virt. eigenvalues --    3.38976   3.39276   3.41449   3.43291   3.46080
  Beta virt. eigenvalues --    3.46837   3.47175   3.48991   3.51752   3.52113
  Beta virt. eigenvalues --    3.54583   3.56100   3.58560   3.59422   3.61610
  Beta virt. eigenvalues --    3.62383   3.67217   3.70856   3.73222   3.77463
  Beta virt. eigenvalues --    3.83014   3.89444   3.97306   4.02390   4.03982
  Beta virt. eigenvalues --    4.05849   4.07116   4.08360   4.09951   4.12770
  Beta virt. eigenvalues --    4.17193   4.23514   4.29065   4.35868   4.46447
  Beta virt. eigenvalues --    4.60956   4.74554   4.77116   4.78851   4.81253
  Beta virt. eigenvalues --    4.82363   4.87033  23.42861  23.63715  23.73146
  Beta virt. eigenvalues --   23.77581  23.82127  23.86038  23.90840  23.92277
  Beta virt. eigenvalues --   23.94447  23.94908  23.96563  23.97478  23.99644
  Beta virt. eigenvalues --   24.02507  24.02719  24.06299  24.07458  24.08440
  Beta virt. eigenvalues --   24.10327  24.13740  24.15877  24.16327  24.17604
  Beta virt. eigenvalues --   24.20683  24.20944
          Condensed to atoms (all electrons):
               1          2          3          4          5          6
     1  C    8.438865   1.457549   0.286479   0.154446  -0.302826  -1.160969
     2  C    1.457549   6.777736   0.572101   0.394176  -0.153722   0.093769
     3  C    0.286479   0.572101   6.763860   1.179890   0.184467  -0.087416
     4  C    0.154446   0.394176   1.179890   9.203256  -0.935097   0.386019
     5  C   -0.302826  -0.153722   0.184467  -0.935097   7.924911   1.666499
     6  C   -1.160969   0.093769  -0.087416   0.386019   1.666499   8.179366
     7  C    0.137282  -0.354726   0.580734   0.026514  -0.242998  -0.591995
     8  C   -0.227066  -0.143682   0.050539  -1.184372  -0.157160  -0.465070
     9  C   -0.207399   0.129891  -0.159790  -0.316918  -0.149624   0.070118
    10  C   -0.370364  -0.303691   0.389079   0.893106  -0.357899  -0.495268
    11  C   -0.035573  -0.242727  -0.099846  -0.831652  -0.022251  -0.140900
    12  C   -0.049377   0.002962  -0.509731  -0.027291  -0.005770   0.031122
    13  C    0.029846   0.024821  -0.032966   0.158789  -0.035671  -0.077021
    14  C   -0.045563   0.072487  -1.060720  -1.198432  -0.200644  -0.204287
    15  C   -0.072746  -0.228287  -0.520605  -0.617208  -0.012891  -0.091515
    16  C   -0.007420  -0.055156   0.052987  -0.033906   0.004317  -0.006229
    17  C    0.001394   0.019776  -0.008301  -0.016394  -0.001167  -0.002821
    18  C   -0.000540  -0.013511  -0.161201  -0.042243  -0.001627   0.003425
    19  C   -1.775708  -1.706183  -0.253078  -0.103139  -0.089761  -0.040026
    20  C    0.315174   0.719970  -0.064210  -0.071316  -0.173859  -0.096833
    21  C    0.205851   0.141316  -0.178179   0.031761  -0.209189   0.006497
    22  C   -0.490704  -0.064219  -0.110332  -0.347395  -0.359145  -0.521983
    23  C   -0.146075  -0.474018  -0.240874  -0.979671  -0.273573  -0.481659
    24  H   -0.021858   0.025117  -0.007326   0.001484  -0.005922  -0.001566
    25  H   -0.000723  -0.008949  -0.001196   0.001404   0.005798   0.000714
    26  H   -0.094061   0.025760  -0.012219   0.001929   0.037086   0.014421
    27  H   -0.093091   0.004901  -0.002676   0.023093   0.370141  -0.024765
    28  H   -0.018046  -0.006014   0.011944  -0.096774  -0.049834   0.416054
    29  H    0.003881  -0.001427   0.004717  -0.037195   0.012040   0.033522
    30  H    0.000421   0.000782   0.009204   0.055289   0.001070   0.008080
    31  H    0.000004  -0.000110   0.000339   0.000809   0.000004   0.000140
    32  H   -0.000008  -0.000013  -0.000578   0.000008   0.000001   0.000010
    33  H    0.000917  -0.001381   0.011887  -0.003915  -0.000411  -0.000459
    34  H    0.000017   0.000355   0.000355  -0.000011  -0.000002  -0.000005
    35  H   -0.000000  -0.000005  -0.000022   0.000073   0.000000   0.000003
    36  C   -0.144623  -0.822915  -0.508685   0.149648  -0.088541  -0.079854
    37  C   -0.055859  -0.105512  -0.062568  -0.161069  -0.011267  -0.019411
    38  H   -0.002933   0.001199  -0.014767  -0.003625  -0.000390  -0.000681
    39  H   -0.000097   0.000751   0.001552   0.001368   0.000007   0.000096
               7          8          9         10         11         12
     1  C    0.137282  -0.227066  -0.207399  -0.370364  -0.035573  -0.049377
     2  C   -0.354726  -0.143682   0.129891  -0.303691  -0.242727   0.002962
     3  C    0.580734   0.050539  -0.159790   0.389079  -0.099846  -0.509731
     4  C    0.026514  -1.184372  -0.316918   0.893106  -0.831652  -0.027291
     5  C   -0.242998  -0.157160  -0.149624  -0.357899  -0.022251  -0.005770
     6  C   -0.591995  -0.465070   0.070118  -0.495268  -0.140900   0.031122
     7  C    7.453239   0.177121   0.470395   0.223314   0.428928   0.207029
     8  C    0.177121   7.256693   0.218077   0.294123   1.661247  -0.563618
     9  C    0.470395   0.218077  11.935325   1.089952  -0.003213   0.409215
    10  C    0.223314   0.294123   1.089952   7.736424  -0.395824  -0.802362
[...]
 -0.00000391,-0.00000072,-0.00000075,-0.00000147,0.00001062,0.00000294,
 -0.00008583,0.00011635,-0.00003400,0.00020347,0.00006276,-0.00035675,0
 .00020777,-0.00006131,0.00011594,-0.00005544,0.00000982,0.00000927,0.0
 0031918,-0.00049802,0.00000657,0.00106866,-0.00390158,0.00440472,-0.00
 127213,0.00027826,-0.00006647,-0.00005078,-0.00056326,-0.00011695,0.00
 268436,-0.00013233,0.00337446,0.01529426,0.01012412,-0.00168843,-0.107
 03192,-0.10589747,0.01660003,-0.02807681,-0.00837740,0.00183504,-0.000
 00560,0.00000855,-0.00000012,-0.00001297,-0.00000447,-0.00000332,0.000
 00863,-0.00000609,-0.00000375,-0.00001051,0.00000727,0.00000147,-0.000
 00901,-0.00010232,-0.00001796,0.00000087,0.00000208,0.00000285,-0.0000
 0232,0.00000176,0.00000072,-0.00000311,-0.00000046,0.00000036,-0.00000
 379,-0.00000066,-0.00000055,-0.00000009,-0.00000356,0.00000109,0.00000
 707,-0.00000059,-0.00000186,-0.00012896,-0.00008057,-0.00003910,0.0000
 2934,-0.00002660,0.00005696,0.00053044,0.00037510,-0.00172694,0.000782
 27,0.00043680,-0.00002330,-0.00034139,-0.00004727,-0.00166848,0.116085
 83,0.10813200,-0.00001878,-0.00001079,-0.00000297,0.00001993,-0.000013
 93,-0.00000299,0.00001180,-0.00002926,0.00002578,-0.00001871,-0.000007
 94,-0.00000824,0.00000019,0.00001299,-0.00000175,0.00002191,0.,0.00000
 789,0.00015741,-0.00004441,-0.00006989,0.00007987,-0.00028569,-0.00074
 297,-0.00016351,-0.00003550,0.00007202,0.00007219,0.00001741,0.0000461
 3,-0.00027324,0.00042200,-0.00088981,-0.00034444,0.00432312,0.00612184
 ,0.00063701,0.00005649,0.00026356,0.00008416,0.00012673,-0.00040977,-0
 .00239451,0.00307738,0.00496431,-0.00848855,-0.00464984,0.00435038,0.0
 1620017,0.01793671,-0.04272188,0.01062348,0.00320520,0.00323458,-0.000
 00439,-0.00001608,-0.00000166,0.00003039,0.00001872,0.00000162,-0.0000
 4980,0.00002771,-0.00000538,0.00009981,0.00000776,0.00000609,-0.000121
 64,0.00017049,0.00002832,0.00000124,-0.00000356,0.00000217,0.00000009,
 0.00000017,0.00000144,0.00000083,-0.00000109,0.00000109,0.00000004,0.0
 0000042,-0.00000121,0.00000017,-0.00000041,0.00000125,-0.00000065,-0.0
 0000575,-0.00000281,0.00005381,0.00002425,0.00000360,-0.00003675,0.000
 01728,0.00006647,0.00024209,-0.00169671,-0.00364288,-0.00024623,0.0000
 7871,0.00006415,0.00063743,-0.00174853,-0.00265310,-0.01670748,-0.0207
 9650,0.03207134,-0.00715875,0.00200450,0.00024516,-0.00427669,0.010969
 62,0.00119490,0.00924488,0.01121126,0.00204439,0.00644063,-0.00648847,
 0.00051695,0.00113274,-0.00155736,-0.00010142,-0.00214840,0.00084742,-
 0.00025459,0.01919396,-0.02179673,-0.00300467,-0.00646399,0.00495854,0
 .00009503,-0.00374295,-0.00325400,-0.00102696,-0.00128838,0.00323344,-
 0.00026296,-0.00048855,-0.00003207,0.00168408,0.00141521,0.00165218,-0
 .00040462,-0.00078066,-0.00145970,0.00015822,0.00140447,0.00046822,0.0
 0021928,-0.00818890,0.00600752,0.00586849,0.00510234,0.00100609,0.0013
 8207,-0.00120388,0.00340670,-0.00217929,-0.00246861,-0.00254470,0.0002
 9513,0.00291880,-0.00314589,-0.00019423,0.00108049,-0.00072906,0.00013
 998,0.00511784,-0.00493279,-0.00106653,-0.03817137,-0.02888454,-0.0114
 7019,-0.10969597,-0.01013006,-0.00891361,-0.00008043,0.00054661,-0.000
 12420,-0.00013390,0.00010489,-0.00002154,0.00001378,-0.00008155,-0.000
 02689,-0.00001232,-0.00014142,0.00000276,0.00020431,0.00007587,-0.0000
 4212,-0.00005671,0.00008463,0.00010295,-0.00003324,0.00006699,-0.00000
 284,0.00001508,0.00000661,-0.00003669,-0.00000965,0.00000125,0.0001415
 5,-0.00225793,0.00054994,-0.00147882,-0.00004192,0.00002059,0.00025514
 ,-0.00013378,0.00008621,-0.00003331,0.64981260,-0.00360855,0.00162690,
 -0.00026293,0.00313252,0.00777635,0.00038046,0.01053131,0.00134297,0.0
 0102194,0.00147593,-0.00384448,0.00048716,0.00057695,-0.00080291,-0.00
 000518,-0.00053404,0.00026657,-0.00016129,-0.00873456,-0.03838371,-0.0
 1232637,-0.00551190,0.00369663,-0.00052235,-0.00257682,-0.00205852,-0.
 00030903,-0.00034706,0.00208725,-0.00004661,0.00189241,0.00190515,-0.0
 0063471,0.00038590,0.00181094,0.00021252,-0.00070268,-0.00033503,-0.00
 007268,0.00058141,-0.00022376,0.00020569,0.00560297,-0.00141687,-0.002
 88443,-0.00013222,-0.00142717,-0.00148154,-0.00029767,-0.00045372,0.00
 016098,0.00078529,-0.00042530,0.00048021,0.00182872,-0.00025120,0.0000
 4282,-0.00066944,-0.00175191,-0.00020883,0.00517831,-0.00184611,-0.000
 30950,-0.02153612,0.00262328,-0.00175638,-0.07195098,-0.20319893,-0.05
 779767,0.00074313,-0.00033787,0.00022725,0.00010473,0.00003620,0.00000
 685,0.00002141,-0.00004740,-0.00000733,0.00002688,0.00013248,0.0000653
 7,-0.00006613,-0.00000162,-0.00003147,-0.00003524,-0.00001268,0.000005
 18,-0.00004125,-0.00002631,-0.00001720,0.00002872,-0.00002373,-0.00005
 540,0.00000030,-0.00005084,-0.00010985,0.00085601,-0.00011884,-0.00041
 518,0.00011819,0.00010038,-0.00021091,0.00009495,0.00004654,0.00009318
 ,-0.03555051,0.50743513,-0.00127334,0.00026609,0.00050118,0.00041741,0
 .00241781,0.00236295,0.00267355,0.00068286,0.00325021,0.00008596,-0.00
 054790,0.00033793,0.00005659,-0.00015873,-0.00021041,-0.00015154,0.000
 11861,-0.00008393,-0.00102931,-0.00869519,-0.00129532,-0.00029425,0.00
 176069,-0.00075139,-0.00139542,-0.00106680,-0.00008792,0.00076302,0.00
 083067,-0.00001745,-0.00014909,0.00026573,-0.00051958,0.00123443,0.000
 56801,0.00042511,-0.00021580,-0.00026673,-0.00002596,0.00041585,-0.000
 07288,0.00010990,0.00226211,-0.00163161,-0.00151427,0.00047469,-0.0005
 2833,-0.00020058,-0.00026063,0.00066030,-0.00021831,-0.00051586,-0.001
 07957,0.00033839,0.00065021,-0.00019115,0.00005135,-0.00016876,-0.0006
 3723,-0.00042443,0.00192003,-0.00071147,-0.00052797,-0.00838008,-0.002
 59345,0.00183796,-0.03386979,-0.05988514,-0.07322187,0.00023619,-0.000
 12897,0.00015205,0.00004020,0.00002667,0.00000466,-0.00000521,-0.00002
 104,0.00007509,0.00000884,0.00002403,-0.00009995,-0.00000612,0.0000003
 7,-0.00009639,-0.00001558,-0.00000759,0.00005465,-0.00001259,-0.000011
 81,-0.00000504,0.00000880,-0.00002798,-0.00001668,0.00000006,-0.000037
 76,-0.00004080,0.00273506,-0.00126677,-0.00025972,0.00002073,0.0000180
 2,-0.00014983,0.00003194,0.00003740,0.00006741,0.03997858,0.14412272,0
 .17348764,0.00480761,-0.00248941,-0.00008173,-0.00111109,-0.00724992,-
 0.00122241,-0.00842660,-0.00460585,-0.00167733,-0.00385906,0.00501616,
 -0.00069314,-0.00114868,0.00119073,0.00010909,0.00139196,-0.00023882,0
 .00020833,-0.00233608,0.01858538,0.00489837,0.00151887,-0.00453151,0.0
 0060913,0.00078290,0.00219100,0.00013176,0.00193755,-0.00156398,0.0002
 7943,0.00123796,0.01516269,-0.00481956,0.00474930,0.00021881,0.0018606
 3,-0.00074310,-0.00023504,0.00003352,0.00103049,-0.00060491,0.00012040
 ,0.02311151,-0.02649520,-0.02478649,-0.02610573,-0.00023017,0.00589804
 ,0.00377955,-0.00786018,0.00538825,-0.00034759,0.00290731,-0.00143014,
 -0.00194596,0.00200617,0.00009799,-0.00073384,0.00038791,0.00008057,-0
 .00237317,0.00268054,0.00092737,0.01668274,-0.00024457,-0.00005799,-0.
 05871675,-0.06677440,-0.02786074,-0.00003490,0.00006121,0.00003232,0.0
 0003454,-0.00004041,-0.00002188,-0.00003120,0.00007170,-0.00000600,-0.
 00000707,-0.00002064,-0.00000309,-0.00003614,-0.00002399,0.00004852,0.
 00003908,-0.00006027,-0.00009128,-0.00003892,-0.00003157,0.00003406,-0
 .00000474,-0.00004795,-0.00000742,0.00005219,-0.00009151,-0.00019969,-
 0.00110896,0.00420856,0.00617000,0.00038822,-0.00003259,-0.00102325,0.
 00037022,-0.00021680,-0.00007569,-0.38095745,0.02764168,-0.03174077,0.
 58293032,-0.00043931,0.00043029,0.00020395,-0.00156505,-0.00047843,-0.
 00005790,0.00005008,0.00033666,0.00008883,0.00093565,-0.00025748,0.000
 02882,0.00020576,-0.00038419,0.00001319,-0.00055302,-0.00003054,-0.000
 07664,-0.00141748,0.00198726,0.00001089,0.00310512,0.00091320,0.000426
 54,0.00062039,-0.00076775,0.00024585,-0.00013218,-0.00015670,-0.000142
 25,0.00028093,-0.02076834,0.00075150,-0.00480309,-0.00111479,-0.002294
 93,0.00031328,0.00001931,0.00022228,-0.00054026,0.00011714,-0.00006308
 ,-0.02938813,0.01827533,0.02379879,0.01856527,0.00473932,-0.00023002,-
 0.00407554,0.00690704,-0.00450468,0.00016233,-0.00276952,0.00124781,0.
 00022716,-0.00086135,-0.00009015,0.00042966,0.00072007,0.00005558,-0.0
 0048677,-0.00050264,0.00010253,0.00054008,-0.00319507,-0.00245924,-0.0
 2863606,0.00202624,-0.00500079,-0.00027017,0.00032110,0.00004614,-0.00
 006721,0.00001010,-0.00001130,-0.00001478,0.00000296,0.00001496,-0.000
 01938,-0.00006233,-0.00001288,0.00000780,-0.00000695,-0.00000420,0.000
 03613,0.00004581,0.00005427,0.00003749,0.00004111,-0.00001751,-0.00000
 805,0.00003704,0.00008832,-0.00004585,0.00012440,0.00026752,0.00250875
 ,-0.00517878,-0.01042859,-0.00014078,0.00005441,0.00104235,-0.00031471
 ,0.00010592,-0.00024105,-0.04469314,-0.07085127,-0.01805103,0.19168490
 ,0.27586860,0.00044540,0.00030829,-0.00009207,-0.00111629,-0.00078430,
 -0.00010539,0.00016882,0.00100533,-0.00027477,0.00124339,-0.00169822,0
 .00038019,0.00026298,-0.00035924,-0.00004389,-0.00027179,-0.00014332,-
 0.00000769,-0.00124351,0.00194576,-0.00159886,0.00278460,0.00028330,0.
 00021536,0.00284801,0.00028714,0.00067684,-0.00265718,-0.00054638,-0.0
 0023620,0.00066629,-0.01775418,0.00556161,-0.00925794,-0.00125841,-0.0
 0246317,0.00112434,0.00176026,-0.00024296,-0.00248433,0.00016762,-0.00
 027831,-0.03244018,0.02625735,0.02114988,0.02213605,0.00407162,-0.0040
 6668,-0.00398695,0.00447951,-0.00400717,0.00515426,-0.00038802,0.00155
 222,-0.00028562,-0.00029596,-0.00003347,0.00041009,0.00042343,0.000166
 42,-0.00087587,0.00060876,0.00013294,0.00321923,-0.00279652,0.00263103
 ,-0.01885745,-0.00522816,-0.00482460,-0.00004614,0.00012448,-0.0001006
 6,-0.00004171,0.00000722,0.00000201,-0.00000512,-0.00000823,-0.0000333
 3,-0.00000944,-0.00004520,-0.00002443,0.00001251,-0.00000617,0.0000039
 7,-0.00000278,0.00000626,-0.00001057,0.00000783,-0.00001145,-0.0000402
 1,0.00002696,0.00004048,-0.00005580,-0.00006757,0.00015563,0.00024189,
 0.00434267,-0.00949653,-0.01651505,-0.00033412,0.00006123,0.00120225,-
 0.00025531,0.00010172,-0.00028006,-0.05494801,-0.00822118,-0.04975743,
 0.13970002,0.09857385,0.09694856,-0.00019284,0.00016620,-0.00000159,0.
 00018975,0.00027779,-0.00003749,0.00053452,-0.00046690,0.00016366,0.00
 003526,-0.00016440,0.00015454,0.00008269,-0.00001810,0.00001619,-0.000
 03533,-0.00007422,-0.00003054,-0.00117278,-0.00209319,-0.00132243,-0.0
 0058439,0.00004763,0.00001825,-0.00001023,-0.00011714,-0.00002018,-0.0
 0002457,-0.00000753,-0.00002890,-0.00034771,-0.00008115,0.00052356,0.0
 0021169,-0.00012347,-0.00002692,0.00005712,-0.00016177,0.00004105,0.00
 003943,0.00008147,-0.00000046,-0.00119003,0.00011854,-0.00007742,0.000
 70280,0.00034022,0.00050916,-0.00012779,0.00064686,-0.00031959,-0.0005
 5045,-0.00032399,-0.00007767,0.00009825,-0.00011389,-0.00003944,-0.000
 05228,0.00004997,0.00007143,0.00000900,-0.00060554,-0.00014824,-0.0003
 9833,-0.00046775,-0.00005903,0.01025362,-0.01186165,-0.00435001,-0.000
 59005,0.00008257,-0.00018264,0.00002929,0.00000074,-0.00000708,0.00000
 479,0.00002234,0.00000252,0.00000436,0.00000349,-0.00000003,-0.0000174
 2,-0.00000351,-0.00001853,0.00000577,0.00000932,0.00000246,0.00002313,
 0.00001039,0.00000745,-0.00000780,0.00001405,0.00000289,-0.00000464,0.
 00001811,0.00003783,0.00007306,-0.00011433,-0.00032980,-0.00003159,-0.
 00000648,0.00009122,-0.00004980,-0.00000105,-0.00003193,-0.12583449,0.
 11466559,0.03550007,-0.02248179,0.02360343,0.00470975,0.13975314,0.000
 08984,0.00003738,-0.00002523,0.00000969,-0.00030068,-0.00011312,0.0006
 8985,-0.00104313,0.00003066,-0.00026745,-0.00010118,0.00029633,-0.0000
 4119,0.00000483,-0.00001478,0.00010371,-0.00005081,0.00002011,-0.00299
 218,-0.00054821,-0.00294708,-0.00041728,0.00012852,0.00004082,-0.00002
 204,-0.00024621,0.00013735,0.00002772,0.00000689,-0.00004467,-0.000075
 59,-0.00043635,0.00024475,-0.00003510,0.00003151,-0.00013533,-0.000067
 70,-0.00001901,-0.00000512,-0.00000162,-0.00002457,0.00000703,-0.00139
 557,0.00155089,0.00155331,0.00090163,0.00018453,-0.00016656,-0.0002703
 5,0.00027805,-0.00026920,0.00002283,-0.00015837,0.00011683,0.00006298,
 0.00005888,-0.00000348,-0.00020095,0.00033061,0.00015756,-0.00027612,-
 0.00004456,0.00000776,0.00149540,0.00022063,0.00141332,0.01375509,-0.0
 2131976,-0.00835288,-0.00026783,0.00051975,-0.00017953,-0.00000561,-0.
 00000590,-0.00000096,0.00000186,0.00004079,-0.00001917,-0.00000977,0.0
 0000637,-0.00000849,-0.00004268,-0.00002080,-0.00001231,0.00000932,-0.
 00001135,-0.00002522,0.00001022,-0.00001205,0.00001220,0.00000873,0.00
 000169,-0.00000506,0.00000110,0.00000248,0.00001758,-0.00030885,0.0000
 0712,-0.00030058,-0.00001562,0.00000421,0.00006224,-0.00000647,0.00000
 631,-0.00002038,0.10646986,-0.20725444,-0.05656098,0.00460795,0.003131
 69,-0.00376061,-0.12115066,0.22446084,-0.00022648,0.00028393,0.0001125
 0,-0.00013141,0.00042490,0.00022698,0.00095257,-0.00063824,0.00021042,
 0.00007252,-0.00023334,-0.00037001,0.00009321,-0.00022063,0.00000965,-
 0.00021107,-0.00000254,-0.00005994,-0.00197355,-0.00157967,0.00354759,
 -0.00049905,-0.00043113,-0.00011207,0.00017075,0.00043010,-0.00044382,
 -0.00029912,0.00002276,0.00005723,0.00021807,0.00079449,-0.00008740,0.
 00012703,0.00003584,0.00021561,0.00012741,-0.00012431,0.00004038,0.000
 02431,0.00000164,0.00001334,0.00190706,-0.00224307,-0.00178835,-0.0013
 3202,-0.00035141,0.00049468,0.00065865,-0.00019516,0.00035067,-0.00043
 775,0.00030721,-0.00036776,0.00014344,-0.00008495,0.00000375,-0.000055
 13,0.00013336,-0.00008777,0.00013892,-0.00069405,-0.00016090,-0.001014
 58,0.00115533,-0.00218749,0.00992580,-0.00766341,0.00372629,-0.0003556
 7,0.00016679,0.00027851,-0.00000592,-0.00000307,0.00000170,0.00000569,
 0.00001822,0.00002414,-0.00000100,0.00000717,0.00000661,-0.00003304,-0
 .00001366,0.00000516,-0.00001315,-0.00000885,0.00005205,0.00002232,-0.
 00000831,0.00000980,0.00000282,-0.00000667,0.00001510,0.00002802,-0.00
 000183,-0.00001843,0.00027205,0.00001185,0.00077855,0.00004140,0.00001
 313,-0.00006838,-0.00000123,-0.00000562,0.00005813,0.02713797,-0.05824
 110,-0.05642577,-0.00155659,0.00093738,0.01419872,-0.03478135,0.067088
 92,0.04140273,-0.00020130,0.00012316,0.00003028,-0.00047100,0.00006583
 ,0.00000351,0.00013461,0.00005424,0.00006794,0.00040416,-0.00034065,0.
 00007170,0.00012270,-0.00007166,-0.00000058,-0.00015815,-0.00008456,-0
 .00002746,-0.00014553,0.00007911,-0.00006443,-0.00024971,0.00002560,0.
 00001716,0.00029999,0.00004310,-0.00006854,-0.00040238,-0.00013518,-0.
 00004985,-0.00042474,-0.00109501,0.00108102,-0.00058075,-0.00018903,-0
 .00018996,0.00027980,-0.00000817,0.00000552,-0.00024294,0.00021430,-0.
 00005797,-0.00144136,0.00339127,0.00271323,0.00205617,0.00064741,0.000
 30308,0.00008504,0.00059587,-0.00044162,-0.00038950,0.00020309,-0.0002
 8349,0.00002053,-0.00027917,-0.00002728,0.00019358,0.00014478,0.000015
 87,-0.00018356,-0.00009065,-0.00002050,0.00034672,-0.00125642,-0.00038
 254,-0.00336044,0.00371681,-0.00024380,0.00000387,0.00001874,0.0000113
 0,-0.00003527,0.00000176,0.00000192,-0.00000848,-0.00000990,0.00000071
 ,-0.00000799,-0.00002945,-0.00000150,0.00000184,-0.00000595,-0.0000024
 7,0.00000299,0.00000675,0.00001797,0.00002260,0.00000898,0.00000832,-0
 .00000315,0.00002255,0.00000740,0.00000365,0.00002270,0.00005046,0.000
 15444,-0.00022780,-0.00010495,-0.00012821,-0.00004866,0.00026719,-0.00
 011931,0.00002741,0.00003558,-0.00746822,-0.02397817,-0.01003016,-0.13
 229620,-0.12570328,-0.06007586,0.00159667,-0.00039716,0.00085810,0.142
 58883,0.00021795,-0.00010741,0.00002797,-0.00025467,0.00018062,0.00015
 060,0.00022550,0.00002908,0.00003038,-0.00009327,-0.00008616,-0.000004
 39,-0.00004935,-0.00003946,-0.00001717,0.00001647,0.00002796,0.0000172
 1,0.00047520,-0.00017496,-0.00005651,-0.00027635,-0.00004998,-0.000042
 82,0.00024831,0.00023266,0.00005319,-0.00022395,0.00002677,0.00001390,
 0.00080737,0.00024305,-0.00059717,-0.00066231,-0.00006874,-0.00008222,
 0.00007579,0.00028659,-0.00001211,-0.00025373,-0.00010118,-0.00001221,
 0.00048313,-0.00147351,-0.00143285,-0.00170019,0.00015670,-0.00044291,
 0.00063946,-0.00129043,0.00093743,0.00117220,0.00075448,0.00004297,-0.
 00006246,0.00024524,0.00002575,-0.00017193,-0.00017852,0.00001228,0.00
 015129,0.00001818,0.00000075,-0.00028105,0.00009359,-0.00011288,0.0001
 8359,0.00143596,-0.00166025,0.00001728,-0.00003130,-0.00004015,-0.0000
 0766,-0.00000126,-0.00000541,-0.00000373,0.00000014,-0.00000916,-0.000
 00043,0.00000112,-0.00000842,-0.00000461,-0.00000566,-0.00000114,-0.00
 000896,-0.00002061,-0.00000803,-0.00000601,-0.00002398,-0.00001205,0.0
 0001423,-0.00001853,-0.00001387,0.00001291,0.00000420,-0.00005629,0.00
 009532,-0.00002180,0.00002903,0.00009674,0.00007856,-0.00032589,0.0000
 8243,-0.00002045,-0.00000931,0.01164305,0.00425781,0.00238012,-0.15493
 301,-0.20882887,-0.08786714,-0.00220198,0.00058344,0.00091797,0.144537
 42,0.20388666,0.00004565,-0.00031385,-0.00012053,0.00014047,-0.0000635
 6,-0.00028936,-0.00026058,-0.00031181,-0.00007671,-0.00064807,0.000690
 68,-0.00014329,-0.00021308,0.00025874,0.00003648,0.00028967,0.00002352
 ,0.00001936,-0.00015623,0.00033888,0.00007493,0.00087867,0.00041546,-0
 .00001192,-0.00100396,-0.00071206,0.00001545,0.00124810,0.00021200,0.0
 0009054,-0.00066986,-0.00016624,-0.00049012,0.00162493,0.00069818,-0.0
 0005031,-0.00055680,-0.00064019,0.00007472,0.00080566,-0.00003869,0.00
 010749,-0.00021584,-0.00089464,-0.00024657,0.00042729,-0.00072021,0.00
 026545,-0.00073375,0.00097662,-0.00054996,-0.00095733,-0.00136820,0.00
 042171,0.00004534,0.00010240,0.00000740,-0.00011648,0.00003338,-0.0000
 3778,0.00001667,-0.00000440,-0.00000452,-0.00008642,-0.00016818,0.0001
 8964,-0.00128243,-0.00247057,0.00580703,-0.00001879,-0.00001000,0.0000
 3749,0.00000765,-0.00000657,0.00000561,-0.00000327,0.00000588,0.000009
 70,-0.00000003,0.00000529,0.00002255,-0.00000191,0.00000155,0.00000373
 ,0.00001732,0.00000662,-0.00000376,-0.00000930,0.00000748,-0.00000079,
 -0.00001307,0.00000643,0.00001200,-0.00002752,-0.00000322,-0.00000883,
 -0.00025403,-0.00003582,-0.00012833,0.00024892,0.00014088,-0.00022723,
 0.00003018,0.00000782,-0.00002220,0.00413086,-0.00142322,0.00289456,-0
 .06927256,-0.08453511,-0.05997115,0.00003924,0.00176396,-0.00366220,0.
 06650469,0.08819081,0.05594971\\0.00000027,-0.00000050,0.00000087,-0.0
 0000004,-0.00000048,0.00000096,0.00000049,-0.00000007,-0.00000020,0.00
 000051,-0.00000015,-0.00000161,0.00000017,-0.00000083,-0.00000058,0.00
 000058,-0.00000055,-0.00000170,-0.00000081,0.00000024,-0.00000021,0.00
 000118,0.00000060,-0.00000056,0.00000108,-0.00000012,-0.00000199,0.000
 00031,-0.00000025,-0.00000266,-0.00000015,-0.00000593,0.00000087,-0.00
 000259,-0.00000010,-0.00000293,0.00000117,0.00000111,-0.00000341,0.000
 00002,0.,-0.00000340,-0.00001136,0.00001133,0.00001022,0.00000716,0.00
 000328,-0.00000028,-0.00000185,0.00000397,-0.00000235,0.00000168,-0.00
 000024,-0.00000073,-0.00000015,-0.00000093,0.00000223,-0.00000041,-0.0
 0000105,0.00000336,-0.00000058,-0.00000075,0.00000332,-0.00000019,-0.0
 0000057,0.00000215,-0.00000074,-0.00000104,0.00000144,-0.00000072,-0.0
 0000096,0.00000438,-0.00000056,-0.00000129,0.00000435,-0.00000012,-0.0
 0000122,0.00000221,0.00000041,-0.00000077,-0.00000061,0.00000081,-0.00
 000042,-0.00000272,0.00000093,-0.00000019,-0.00000375,0.00000104,-0.00
 000005,-0.00000454,0.00000084,0.00000024,-0.00000406,0.00000028,0.0000
 0095,-0.00000246,-0.00000082,0.00000044,-0.00000197,-0.00000104,0.0000
 0238,0.00000186,-0.00000055,0.00000184,-0.00000043,-0.00000094,0.00000
 017,0.00000184,0.00000551,-0.00000609,-0.00000378,-0.00000021,-0.00000
 121,0.00000389,-0.00000059,-0.00000077,0.00000294\\\@


 The chemist is a guest at the physicist's table and
 frequently dines well.
                   -- Richard Bersohn
 Job cpu time:       1 days  0 hours 12 minutes 45.8 seconds.
 Elapsed time:       0 days  1 hours 12 minutes 50.7 seconds.
 File lengths (MBytes):  RWF=   2733 Int=      0 D2E=      0 Chk=     45 Scr=      1
 Normal termination of Gaussian 16 at Sat Jun 29 21:11:40 2019.
