 Entering Gaussian System, Link 0=g09
 Initial command:
 /usr/local/Cluster-Apps/gaussian/g09/l1.exe "/rds/user/am2145/hpc-work/scratch/19190171/Gau-232186.inp" -scrdir="/rds/user/am2145/hpc-work/scratch/19190171/"
 Entering Link 1 = /usr/local/Cluster-Apps/gaussian/g09/l1.exe PID=    232187.
  
 Copyright (c) 1988,1990,1992,1993,1995,1998,2003,2009,2013,
            Gaussian, Inc.  All Rights Reserved.
  
 This is part of the Gaussian(R) 09 program.  It is based on
 the Gaussian(R) 03 system (copyright 2003, Gaussian, Inc.),
 the Gaussian(R) 98 system (copyright 1998, Gaussian, Inc.),
 the Gaussian(R) 94 system (copyright 1995, Gaussian, Inc.),
 the Gaussian 92(TM) system (copyright 1992, Gaussian, Inc.),
 the Gaussian 90(TM) system (copyright 1990, Gaussian, Inc.),
 the Gaussian 88(TM) system (copyright 1988, Gaussian, Inc.),
 the Gaussian 86(TM) system (copyright 1986, Carnegie Mellon
 University), and the Gaussian 82(TM) system (copyright 1983,
 Carnegie Mellon University). Gaussian is a federally registered
 trademark of Gaussian, Inc.
  
 This software contains proprietary and confidential information,
 including trade secrets, belonging to Gaussian, Inc.
  
 This software is provided under written license and may be
 used, copied, transmitted, or stored only in accord with that
 written license.
  
 The following legend is applicable only to US Government
 contracts under FAR:
  
                    RESTRICTED RIGHTS LEGEND
  
 Use, reproduction and disclosure by the US Government is
 subject to restrictions as set forth in subparagraphs (a)
 and (c) of the Commercial Computer Software - Restricted
 Rights clause in FAR 52.227-19.
  
 Gaussian, Inc.
 340 Quinnipiac St., Bldg. 40, Wallingford CT 06492
  
  
 ---------------------------------------------------------------
 Warning -- This program may not be used in any manner that
 competes with the business of Gaussian, Inc. or will provide
 assistance to any competitor of Gaussian, Inc.  The licensee
 of this program is prohibited from giving any competitor of
 Gaussian, Inc. access to this program.  By using this program,
 the user acknowledges that Gaussian, Inc. is engaged in the
 business of creating and licensing software in the field of
 computational chemistry and represents and warrants to the
 licensee that it is not a competitor of Gaussian, Inc. and that
 it will not use this program in any manner prohibited above.
 ---------------------------------------------------------------
  

 Cite this work as:
 Gaussian 09, Revision D.01,
 M. J. Frisch, G. W. Trucks, H. B. Schlegel, G. E. Scuseria, 
 M. A. Robb, J. R. Cheeseman, G. Scalmani, V. Barone, B. Mennucci, 
 G. A. Petersson, H. Nakatsuji, M. Caricato, X. Li, H. P. Hratchian, 
 A. F. Izmaylov, J. Bloino, G. Zheng, J. L. Sonnenberg, M. Hada, 
 M. Ehara, K. Toyota, R. Fukuda, J. Hasegawa, M. Ishida, T. Nakajima, 
 Y. Honda, O. Kitao, H. Nakai, T. Vreven, J. A. Montgomery, Jr., 
 J. E. Peralta, F. Ogliaro, M. Bearpark, J. J. Heyd, E. Brothers, 
 K. N. Kudin, V. N. Staroverov, T. Keith, R. Kobayashi, J. Normand, 
 K. Raghavachari, A. Rendell, J. C. Burant, S. S. Iyengar, J. Tomasi, 
 M. Cossi, N. Rega, J. M. Millam, M. Klene, J. E. Knox, J. B. Cross, 
 V. Bakken, C. Adamo, J. Jaramillo, R. Gomperts, R. E. Stratmann, 
 O. Yazyev, A. J. Austin, R. Cammi, C. Pomelli, J. W. Ochterski, 
 R. L. Martin, K. Morokuma, V. G. Zakrzewski, G. A. Voth, 
 P. Salvador, J. J. Dannenberg, S. Dapprich, A. D. Daniels, 
 O. Farkas, J. B. Foresman, J. V. Ortiz, J. Cioslowski, 
 and D. J. Fox, Gaussian, Inc., Wallingford CT, 2013.
 
 ******************************************
 Gaussian 09:  ES64L-G09RevD.01 24-Apr-2013
                 2-Feb-2020 
 ******************************************
 %NProcShared=20
 Will use up to   20 processors via shared memory.
 %mem=64GB
 %Chk=BS2b_Hmigclose_guess.chk
 --------------------------------------------------
 #n opt=(ts,calcfc,noeigen) freq b3lyp/6-311+g(d,p)
 --------------------------------------------------
 1/5=1,10=4,11=1,14=-1,18=20,26=3,38=1/1,3;
 2/9=110,12=2,17=6,18=5,40=1/2;
 3/5=4,6=6,7=111,11=2,16=1,25=1,30=1,71=2,74=-5,140=1/1,2,3;
 4//1;
 5/5=2,38=5/2;
 8/6=4,10=90,11=11/1;
 11/6=1,8=1,9=11,15=111,16=1/1,2,10;
 10/6=1,13=1/2;
 6/7=2,8=2,9=2,10=2,28=1/1;
 7/10=1,18=20,25=1/1,2,3,16;
 1/5=1,10=4,11=1,14=-1,18=20,26=3/3(2);
 2/9=110/2;
 99//99;
 2/9=110/2;
 3/5=4,6=6,7=111,11=2,16=1,25=1,30=1,71=1,74=-5/1,2,3;
 4/5=5,16=3,69=1/1;
 5/5=2,38=5/2;
 7//1,2,3,16;
 1/5=1,11=1,14=-1,18=20,26=3/3(-5);
 2/9=110/2;
 6/7=2,8=2,9=2,10=2,19=2,28=1/1;
 99/9=1/99;
 --------------------
 BS2b_Hmigclose_guess
 --------------------
 Symbolic Z-matrix:
 Charge =  0 Multiplicity = 3
 C                     3.85175   0.34162  -0.03353 
 C                     2.55038  -0.14204  -0.0417 
 C                     1.41939   0.67706   0.08458 
 C                     1.52443   2.0604    0.194 
 C                     3.97413   1.77502   0.12007 
 C                     2.87207   2.58791   0.22355 
 C                     0.23101  -0.1085    0.02703 
 C                    -1.01435   0.58569   0.09526 
 C                    -0.92505   2.0359    0.11238 
 C                     0.29572   2.73955   0.19753 
 C                    -2.33945  -0.02464   0.06063 
 C                    -3.46982   0.80014  -0.2302 
 C                    -3.32475   2.22563  -0.26546 
 C                    -2.12549   2.80978  -0.04225 
 C                    -2.58911  -1.41234   0.29591 
 C                    -3.85022  -1.94511   0.05862 
 C                    -4.92252  -1.13824  -0.34276 
 C                    -4.73787   0.22264  -0.44468 
 C                     4.86023  -0.64461  -0.19326 
 C                     4.50183  -1.98167  -0.35454 
 C                     3.16019  -2.43197  -0.37217 
 C                     2.14538  -1.49314  -0.20981 
 C                     0.69939  -1.45583  -0.16642 
 H                     2.9493   -3.48558  -0.51745 
 H                     5.28979  -2.71637  -0.47912 
 H                     5.9086   -0.36577  -0.19653 
 H                     4.96401   2.21944   0.14285 
 H                     3.01117   3.65966   0.32208 
 H                     0.26146   3.82401   0.22037 
 H                    -2.03635   3.8908   -0.03037 
 H                    -4.20865   2.8276   -0.44657 
 H                    -5.57027   0.87515  -0.6857 
 H                    -4.00826  -3.00188   0.24083 
 H                    -5.8964   -1.57909  -0.52217 
 H                    -1.07925  -3.48379  -0.75253 
 C                    -1.58227  -2.29249   0.92842 
 C                    -0.88326  -3.24412   0.2864 
 H                    -0.17883  -3.87602   0.81431 
 H                    -1.33692  -2.06785   1.96455 
 

 GradGradGradGradGradGradGradGradGradGradGradGradGradGradGradGradGradGrad
 Berny optimization.
 Initialization pass.
                           ----------------------------
                           !    Initial Parameters    !
                           ! (Angstroms and Degrees)  !
 --------------------------                            --------------------------
 ! Name  Definition              Value          Derivative Info.                !
 --------------------------------------------------------------------------------
 ! R1    R(1,2)                  1.3884         calculate D2E/DX2 analytically  !
 ! R2    R(1,5)                  1.4468         calculate D2E/DX2 analytically  !
 ! R3    R(1,19)                 1.4196         calculate D2E/DX2 analytically  !
 ! R4    R(2,3)                  1.4021         calculate D2E/DX2 analytically  !
 ! R5    R(2,22)                 1.4205         calculate D2E/DX2 analytically  !
 ! R6    R(3,4)                  1.3916         calculate D2E/DX2 analytically  !
 ! R7    R(3,7)                  1.4257         calculate D2E/DX2 analytically  !
 ! R8    R(4,6)                  1.4475         calculate D2E/DX2 analytically  !
 ! R9    R(4,10)                 1.4039         calculate D2E/DX2 analytically  !
 ! R10   R(5,6)                  1.3733         calculate D2E/DX2 analytically  !
 ! R11   R(5,27)                 1.0853         calculate D2E/DX2 analytically  !
 ! R12   R(6,28)                 1.0852         calculate D2E/DX2 analytically  !
 ! R13   R(7,8)                  1.4274         calculate D2E/DX2 analytically  !
 ! R14   R(7,23)                 1.4395         calculate D2E/DX2 analytically  !
 ! R15   R(8,9)                  1.4531         calculate D2E/DX2 analytically  !
 ! R16   R(8,11)                 1.4593         calculate D2E/DX2 analytically  !
 ! R17   R(9,10)                 1.4116         calculate D2E/DX2 analytically  !
 ! R18   R(9,14)                 1.4366         calculate D2E/DX2 analytically  !
 ! R19   R(10,29)                1.0852         calculate D2E/DX2 analytically  !
 ! R20   R(11,12)                1.4292         calculate D2E/DX2 analytically  !
 ! R21   R(11,15)                1.4295         calculate D2E/DX2 analytically  !
 ! R22   R(12,13)                1.4333         calculate D2E/DX2 analytically  !
 ! R23   R(12,18)                1.4098         calculate D2E/DX2 analytically  !
 ! R24   R(13,14)                1.3525         calculate D2E/DX2 analytically  !
 ! R25   R(13,31)                1.0846         calculate D2E/DX2 analytically  !
 ! R26   R(14,30)                1.0848         calculate D2E/DX2 analytically  !
 ! R27   R(15,16)                1.3894         calculate D2E/DX2 analytically  !
 ! R28   R(15,36)                1.4793         calculate D2E/DX2 analytically  !
 ! R29   R(16,17)                1.4007         calculate D2E/DX2 analytically  !
 ! R30   R(16,33)                1.0839         calculate D2E/DX2 analytically  !
 ! R31   R(17,18)                1.3771         calculate D2E/DX2 analytically  !
 ! R32   R(17,34)                1.084          calculate D2E/DX2 analytically  !
 ! R33   R(18,32)                1.0848         calculate D2E/DX2 analytically  !
 ! R34   R(19,20)                1.3936         calculate D2E/DX2 analytically  !
 ! R35   R(19,26)                1.0848         calculate D2E/DX2 analytically  !
 ! R36   R(20,21)                1.4153         calculate D2E/DX2 analytically  !
 ! R37   R(20,25)                1.0845         calculate D2E/DX2 analytically  !
 ! R38   R(21,22)                1.392          calculate D2E/DX2 analytically  !
 ! R39   R(21,24)                1.0843         calculate D2E/DX2 analytically  !
 ! R40   R(22,23)                1.4471         calculate D2E/DX2 analytically  !
 ! R41   R(35,37)                1.0841         calculate D2E/DX2 analytically  !
 ! R42   R(36,37)                1.344          calculate D2E/DX2 analytically  !
 ! R43   R(36,39)                1.0882         calculate D2E/DX2 analytically  !
 ! R44   R(37,38)                1.0836         calculate D2E/DX2 analytically  !
 ! A1    A(2,1,5)              115.1541         calculate D2E/DX2 analytically  !
 ! A2    A(2,1,19)             115.0374         calculate D2E/DX2 analytically  !
 ! A3    A(5,1,19)             129.8037         calculate D2E/DX2 analytically  !
 ! A4    A(1,2,3)              123.5067         calculate D2E/DX2 analytically  !
 ! A5    A(1,2,22)             126.8197         calculate D2E/DX2 analytically  !
 ! A6    A(3,2,22)             109.6531         calculate D2E/DX2 analytically  !
 ! A7    A(2,3,4)              121.7959         calculate D2E/DX2 analytically  !
 ! A8    A(2,3,7)              110.2933         calculate D2E/DX2 analytically  !
 ! A9    A(4,3,7)              127.8648         calculate D2E/DX2 analytically  !
 ! A10   A(3,4,6)              115.7302         calculate D2E/DX2 analytically  !
 ! A11   A(3,4,10)             114.5199         calculate D2E/DX2 analytically  !
 ! A12   A(6,4,10)             129.6782         calculate D2E/DX2 analytically  !
 ! A13   A(1,5,6)              121.7729         calculate D2E/DX2 analytically  !
 ! A14   A(1,5,27)             119.0174         calculate D2E/DX2 analytically  !
 ! A15   A(6,5,27)             119.2061         calculate D2E/DX2 analytically  !
 ! A16   A(4,6,5)              121.9961         calculate D2E/DX2 analytically  !
 ! A17   A(4,6,28)             118.7566         calculate D2E/DX2 analytically  !
 ! A18   A(5,6,28)             119.2451         calculate D2E/DX2 analytically  !
 ! A19   A(3,7,8)              117.2152         calculate D2E/DX2 analytically  !
 ! A20   A(3,7,23)             104.4734         calculate D2E/DX2 analytically  !
 ! A21   A(8,7,23)             138.2026         calculate D2E/DX2 analytically  !
 ! A22   A(7,8,9)              115.615          calculate D2E/DX2 analytically  !
 ! A23   A(7,8,11)             125.9934         calculate D2E/DX2 analytically  !
 ! A24   A(9,8,11)             118.2615         calculate D2E/DX2 analytically  !
 ! A25   A(8,9,10)             123.4599         calculate D2E/DX2 analytically  !
 ! A26   A(8,9,14)             119.0129         calculate D2E/DX2 analytically  !
 ! A27   A(10,9,14)            117.4264         calculate D2E/DX2 analytically  !
 ! A28   A(4,10,9)             121.0368         calculate D2E/DX2 analytically  !
 ! A29   A(4,10,29)            120.7363         calculate D2E/DX2 analytically  !
 ! A30   A(9,10,29)            118.1695         calculate D2E/DX2 analytically  !
 ! A31   A(8,11,12)            118.793          calculate D2E/DX2 analytically  !
 ! A32   A(8,11,15)            124.1037         calculate D2E/DX2 analytically  !
 ! A33   A(12,11,15)           117.1029         calculate D2E/DX2 analytically  !
 ! A34   A(11,12,13)           119.928          calculate D2E/DX2 analytically  !
 ! A35   A(11,12,18)           120.3954         calculate D2E/DX2 analytically  !
 ! A36   A(13,12,18)           119.6506         calculate D2E/DX2 analytically  !
 ! A37   A(12,13,14)           121.0134         calculate D2E/DX2 analytically  !
 ! A38   A(12,13,31)           118.2683         calculate D2E/DX2 analytically  !
 ! A39   A(14,13,31)           120.6932         calculate D2E/DX2 analytically  !
 ! A40   A(9,14,13)            121.7376         calculate D2E/DX2 analytically  !
 ! A41   A(9,14,30)            117.8387         calculate D2E/DX2 analytically  !
 ! A42   A(13,14,30)           120.3371         calculate D2E/DX2 analytically  !
 ! A43   A(11,15,16)           120.1753         calculate D2E/DX2 analytically  !
 ! A44   A(11,15,36)           121.9432         calculate D2E/DX2 analytically  !
 ! A45   A(16,15,36)           117.5566         calculate D2E/DX2 analytically  !
 ! A46   A(15,16,17)           121.5266         calculate D2E/DX2 analytically  !
 ! A47   A(15,16,33)           118.5193         calculate D2E/DX2 analytically  !
 ! A48   A(17,16,33)           119.8781         calculate D2E/DX2 analytically  !
 ! A49   A(16,17,18)           119.1968         calculate D2E/DX2 analytically  !
 ! A50   A(16,17,34)           120.0627         calculate D2E/DX2 analytically  !
 ! A51   A(18,17,34)           120.6718         calculate D2E/DX2 analytically  !
 ! A52   A(12,18,17)           120.9408         calculate D2E/DX2 analytically  !
 ! A53   A(12,18,32)           118.5289         calculate D2E/DX2 analytically  !
 ! A54   A(17,18,32)           120.5289         calculate D2E/DX2 analytically  !
 ! A55   A(1,19,20)            119.7926         calculate D2E/DX2 analytically  !
 ! A56   A(1,19,26)            120.5509         calculate D2E/DX2 analytically  !
 ! A57   A(20,19,26)           119.6556         calculate D2E/DX2 analytically  !
 ! A58   A(19,20,21)           123.3999         calculate D2E/DX2 analytically  !
 ! A59   A(19,20,25)           118.45           calculate D2E/DX2 analytically  !
 ! A60   A(21,20,25)           118.1491         calculate D2E/DX2 analytically  !
 ! A61   A(20,21,22)           118.363          calculate D2E/DX2 analytically  !
 ! A62   A(20,21,24)           119.6834         calculate D2E/DX2 analytically  !
 ! A63   A(22,21,24)           121.952          calculate D2E/DX2 analytically  !
 ! A64   A(2,22,21)            116.5808         calculate D2E/DX2 analytically  !
 ! A65   A(2,22,23)            104.8815         calculate D2E/DX2 analytically  !
 ! A66   A(21,22,23)           138.5348         calculate D2E/DX2 analytically  !
 ! A67   A(7,23,22)            110.6886         calculate D2E/DX2 analytically  !
 ! A68   A(15,36,37)           124.8192         calculate D2E/DX2 analytically  !
 ! A69   A(15,36,39)           115.9588         calculate D2E/DX2 analytically  !
 ! A70   A(37,36,39)           118.9287         calculate D2E/DX2 analytically  !
 ! A71   A(35,37,36)           121.3523         calculate D2E/DX2 analytically  !
 ! A72   A(35,37,38)           117.0966         calculate D2E/DX2 analytically  !
 ! A73   A(36,37,38)           121.2164         calculate D2E/DX2 analytically  !
 ! D1    D(5,1,2,3)              0.151          calculate D2E/DX2 analytically  !
 ! D2    D(5,1,2,22)           178.3297         calculate D2E/DX2 analytically  !
 ! D3    D(19,1,2,3)          -179.1326         calculate D2E/DX2 analytically  !
 ! D4    D(19,1,2,22)           -0.9538         calculate D2E/DX2 analytically  !
 ! D5    D(2,1,5,6)             -1.1806         calculate D2E/DX2 analytically  !
 ! D6    D(2,1,5,27)           179.5119         calculate D2E/DX2 analytically  !
 ! D7    D(19,1,5,6)           177.9744         calculate D2E/DX2 analytically  !
 ! D8    D(19,1,5,27)           -1.3331         calculate D2E/DX2 analytically  !
 ! D9    D(2,1,19,20)            0.5708         calculate D2E/DX2 analytically  !
 ! D10   D(2,1,19,26)         -179.777          calculate D2E/DX2 analytically  !
 ! D11   D(5,1,19,20)         -178.5851         calculate D2E/DX2 analytically  !
 ! D12   D(5,1,19,26)            1.0672         calculate D2E/DX2 analytically  !
 ! D13   D(1,2,3,4)              1.7286         calculate D2E/DX2 analytically  !
 ! D14   D(1,2,3,7)            179.443          calculate D2E/DX2 analytically  !
 ! D15   D(22,2,3,4)          -176.7234         calculate D2E/DX2 analytically  !
 ! D16   D(22,2,3,7)             0.9911         calculate D2E/DX2 analytically  !
 ! D17   D(1,2,22,21)            0.5809         calculate D2E/DX2 analytically  !
 ! D18   D(1,2,22,23)         -178.9138         calculate D2E/DX2 analytically  !
 ! D19   D(3,2,22,21)          178.9684         calculate D2E/DX2 analytically  !
 ! D20   D(3,2,22,23)           -0.5263         calculate D2E/DX2 analytically  !
 ! D21   D(2,3,4,6)             -2.4151         calculate D2E/DX2 analytically  !
 ! D22   D(2,3,4,10)           174.8067         calculate D2E/DX2 analytically  !
 ! D23   D(7,3,4,6)           -179.6994         calculate D2E/DX2 analytically  !
 ! D24   D(7,3,4,10)            -2.4777         calculate D2E/DX2 analytically  !
 ! D25   D(2,3,7,8)           -177.9013         calculate D2E/DX2 analytically  !
 ! D26   D(2,3,7,23)            -1.0065         calculate D2E/DX2 analytically  !
 ! D27   D(4,3,7,8)             -0.362          calculate D2E/DX2 analytically  !
 ! D28   D(4,3,7,23)           176.5328         calculate D2E/DX2 analytically  !
 ! D29   D(3,4,6,5)              1.3901         calculate D2E/DX2 analytically  !
 ! D30   D(3,4,6,28)          -179.1419         calculate D2E/DX2 analytically  !
 ! D31   D(10,4,6,5)          -175.3252         calculate D2E/DX2 analytically  !
 ! D32   D(10,4,6,28)            4.1428         calculate D2E/DX2 analytically  !
 ! D33   D(3,4,10,9)             0.7679         calculate D2E/DX2 analytically  !
 ! D34   D(3,4,10,29)         -176.4256         calculate D2E/DX2 analytically  !
 ! D35   D(6,4,10,9)           177.5156         calculate D2E/DX2 analytically  !
 ! D36   D(6,4,10,29)            0.3221         calculate D2E/DX2 analytically  !
 ! D37   D(1,5,6,4)              0.407          calculate D2E/DX2 analytically  !
 ! D38   D(1,5,6,28)          -179.0585         calculate D2E/DX2 analytically  !
 ! D39   D(27,5,6,4)           179.7132         calculate D2E/DX2 analytically  !
 ! D40   D(27,5,6,28)            0.2477         calculate D2E/DX2 analytically  !
 ! D41   D(3,7,8,9)              4.5821         calculate D2E/DX2 analytically  !
 ! D42   D(3,7,8,11)          -179.6595         calculate D2E/DX2 analytically  !
 ! D43   D(23,7,8,9)          -170.9043         calculate D2E/DX2 analytically  !
 ! D44   D(23,7,8,11)            4.854          calculate D2E/DX2 analytically  !
 ! D45   D(3,7,23,22)            0.6766         calculate D2E/DX2 analytically  !
 ! D46   D(8,7,23,22)          176.5318         calculate D2E/DX2 analytically  !
 ! D47   D(7,8,9,10)            -6.4142         calculate D2E/DX2 analytically  !
 ! D48   D(7,8,9,14)           169.8373         calculate D2E/DX2 analytically  !
 ! D49   D(11,8,9,10)          177.4815         calculate D2E/DX2 analytically  !
 ! D50   D(11,8,9,14)           -6.2669         calculate D2E/DX2 analytically  !
 ! D51   D(7,8,11,12)         -162.9586         calculate D2E/DX2 analytically  !
 ! D52   D(7,8,11,15)           16.7881         calculate D2E/DX2 analytically  !
 ! D53   D(9,8,11,12)           12.6988         calculate D2E/DX2 analytically  !
 ! D54   D(9,8,11,15)         -167.5545         calculate D2E/DX2 analytically  !
 ! D55   D(8,9,10,4)             3.7303         calculate D2E/DX2 analytically  !
 ! D56   D(8,9,10,29)         -179.006          calculate D2E/DX2 analytically  !
 ! D57   D(14,9,10,4)         -172.5766         calculate D2E/DX2 analytically  !
 ! D58   D(14,9,10,29)           4.6871         calculate D2E/DX2 analytically  !
 ! D59   D(8,9,14,13)           -3.1463         calculate D2E/DX2 analytically  !
 ! D60   D(8,9,14,30)         -179.7724         calculate D2E/DX2 analytically  !
 ! D61   D(10,9,14,13)         173.3307         calculate D2E/DX2 analytically  !
 ! D62   D(10,9,14,30)          -3.2953         calculate D2E/DX2 analytically  !
 ! D63   D(8,11,12,13)         -10.1678         calculate D2E/DX2 analytically  !
 ! D64   D(8,11,12,18)         171.6952         calculate D2E/DX2 analytically  !
 ! D65   D(15,11,12,13)        170.0677         calculate D2E/DX2 analytically  !
 ! D66   D(15,11,12,18)         -8.0692         calculate D2E/DX2 analytically  !
 ! D67   D(8,11,15,16)        -170.8706         calculate D2E/DX2 analytically  !
 ! D68   D(8,11,15,36)          15.8366         calculate D2E/DX2 analytically  !
 ! D69   D(12,11,15,16)          8.8801         calculate D2E/DX2 analytically  !
 ! D70   D(12,11,15,36)       -164.4127         calculate D2E/DX2 analytically  !
 ! D71   D(11,12,13,14)          0.7798         calculate D2E/DX2 analytically  !
 ! D72   D(11,12,13,31)       -177.4102         calculate D2E/DX2 analytically  !
 ! D73   D(18,12,13,14)        178.9307         calculate D2E/DX2 analytically  !
 ! D74   D(18,12,13,31)          0.7407         calculate D2E/DX2 analytically  !
 ! D75   D(11,12,18,17)          1.8107         calculate D2E/DX2 analytically  !
 ! D76   D(11,12,18,32)       -178.6192         calculate D2E/DX2 analytically  !
 ! D77   D(13,12,18,17)       -176.3314         calculate D2E/DX2 analytically  !
 ! D78   D(13,12,18,32)          3.2386         calculate D2E/DX2 analytically  !
 ! D79   D(12,13,14,9)           6.0297         calculate D2E/DX2 analytically  !
 ! D80   D(12,13,14,30)       -177.4273         calculate D2E/DX2 analytically  !
 ! D81   D(31,13,14,9)        -175.8242         calculate D2E/DX2 analytically  !
 ! D82   D(31,13,14,30)          0.7189         calculate D2E/DX2 analytically  !
 ! D83   D(11,15,16,17)         -3.5146         calculate D2E/DX2 analytically  !
 ! D84   D(11,15,16,33)        179.6611         calculate D2E/DX2 analytically  !
 ! D85   D(36,15,16,17)        170.0668         calculate D2E/DX2 analytically  !
 ! D86   D(36,15,16,33)         -6.7576         calculate D2E/DX2 analytically  !
 ! D87   D(11,15,36,37)       -108.0453         calculate D2E/DX2 analytically  !
 ! D88   D(11,15,36,39)         65.6438         calculate D2E/DX2 analytically  !
 ! D89   D(16,15,36,37)         78.4943         calculate D2E/DX2 analytically  !
 ! D90   D(16,15,36,39)       -107.8166         calculate D2E/DX2 analytically  !
 ! D91   D(15,16,17,18)         -3.0414         calculate D2E/DX2 analytically  !
 ! D92   D(15,16,17,34)        179.9516         calculate D2E/DX2 analytically  !
 ! D93   D(33,16,17,18)        173.7406         calculate D2E/DX2 analytically  !
 ! D94   D(33,16,17,34)         -3.2665         calculate D2E/DX2 analytically  !
 ! D95   D(16,17,18,12)          3.8726         calculate D2E/DX2 analytically  !
 ! D96   D(16,17,18,32)       -175.6888         calculate D2E/DX2 analytically  !
 ! D97   D(34,17,18,12)       -179.1391         calculate D2E/DX2 analytically  !
 ! D98   D(34,17,18,32)          1.2995         calculate D2E/DX2 analytically  !
 ! D99   D(1,19,20,21)           0.1163         calculate D2E/DX2 analytically  !
 ! D100  D(1,19,20,25)         179.7372         calculate D2E/DX2 analytically  !
 ! D101  D(26,19,20,21)       -179.5391         calculate D2E/DX2 analytically  !
 ! D102  D(26,19,20,25)          0.0818         calculate D2E/DX2 analytically  !
 ! D103  D(19,20,21,22)         -0.513          calculate D2E/DX2 analytically  !
 ! D104  D(19,20,21,24)        179.0327         calculate D2E/DX2 analytically  !
 ! D105  D(25,20,21,22)        179.8651         calculate D2E/DX2 analytically  !
 ! D106  D(25,20,21,24)         -0.5893         calculate D2E/DX2 analytically  !
 ! D107  D(20,21,22,2)           0.1823         calculate D2E/DX2 analytically  !
 ! D108  D(20,21,22,23)        179.4448         calculate D2E/DX2 analytically  !
 ! D109  D(24,21,22,2)        -179.3525         calculate D2E/DX2 analytically  !
 ! D110  D(24,21,22,23)         -0.09           calculate D2E/DX2 analytically  !
 ! D111  D(2,22,23,7)           -0.1103         calculate D2E/DX2 analytically  !
 ! D112  D(21,22,23,7)        -179.4278         calculate D2E/DX2 analytically  !
 ! D113  D(15,36,37,35)         -5.0628         calculate D2E/DX2 analytically  !
 ! D114  D(15,36,37,38)       -178.2267         calculate D2E/DX2 analytically  !
 ! D115  D(39,36,37,35)       -178.5789         calculate D2E/DX2 analytically  !
 ! D116  D(39,36,37,38)          8.2572         calculate D2E/DX2 analytically  !
 --------------------------------------------------------------------------------
 Trust Radius=3.00D-01 FncErr=1.00D-07 GrdErr=1.00D-06
 Number of steps in this run=    234 maximum allowed number of steps=    234.
 Search for a saddle point of order  1.
 GradGradGradGradGradGradGradGradGradGradGradGradGradGradGradGradGradGrad

                          Input orientation:                          
 ---------------------------------------------------------------------
 Center     Atomic      Atomic             Coordinates (Angstroms)
 Number     Number       Type             X           Y           Z
 ---------------------------------------------------------------------
      1          6           0        3.851750    0.341620   -0.033530
      2          6           0        2.550380   -0.142040   -0.041700
      3          6           0        1.419390    0.677060    0.084580
      4          6           0        1.524430    2.060400    0.194000
      5          6           0        3.974130    1.775020    0.120070
      6          6           0        2.872070    2.587910    0.223550
      7          6           0        0.231010   -0.108500    0.027030
      8          6           0       -1.014350    0.585690    0.095260
      9          6           0       -0.925050    2.035900    0.112380
     10          6           0        0.295720    2.739550    0.197530
     11          6           0       -2.339450   -0.024640    0.060630
     12          6           0       -3.469820    0.800140   -0.230200
     13          6           0       -3.324750    2.225630   -0.265460
     14          6           0       -2.125490    2.809780   -0.042250
     15          6           0       -2.589110   -1.412340    0.295910
     16          6           0       -3.850220   -1.945110    0.058620
     17          6           0       -4.922520   -1.138240   -0.342760
     18          6           0       -4.737870    0.222640   -0.444680
     19          6           0        4.860230   -0.644610   -0.193260
     20          6           0        4.501830   -1.981670   -0.354540
     21          6           0        3.160190   -2.431970   -0.372170
     22          6           0        2.145380   -1.493140   -0.209810
     23          6           0        0.699390   -1.455830   -0.166420
     24          1           0        2.949300   -3.485580   -0.517450
     25          1           0        5.289790   -2.716370   -0.479120
     26          1           0        5.908600   -0.365770   -0.196530
     27          1           0        4.964010    2.219440    0.142850
     28          1           0        3.011170    3.659660    0.322080
     29          1           0        0.261460    3.824010    0.220370
     30          1           0       -2.036350    3.890800   -0.030370
     31          1           0       -4.208650    2.827600   -0.446570
     32          1           0       -5.570270    0.875150   -0.685700
     33          1           0       -4.008260   -3.001880    0.240830
     34          1           0       -5.896400   -1.579090   -0.522170
     35          1           0       -1.079250   -3.483790   -0.752530
     36          6           0       -1.582270   -2.292490    0.928420
     37          6           0       -0.883260   -3.244120    0.286400
     38          1           0       -0.178830   -3.876020    0.814310
     39          1           0       -1.336920   -2.067850    1.964550
 ---------------------------------------------------------------------
                    Distance matrix (angstroms):
                    1          2          3          4          5
     1  C    0.000000
     2  C    1.388365   0.000000
     3  C    2.458220   1.402145   0.000000
     4  C    2.902136   2.441080   1.391631   0.000000
     5  C    1.446791   2.393398   2.780912   2.467375   0.000000
     6  C    2.464078   2.761606   2.404358   1.447506   1.373330
     7  C    3.649114   2.320631   1.425715   2.530799   4.191331
     8  C    4.873919   3.640831   2.435478   2.937673   5.128358
     9  C    5.070473   4.104361   2.709911   2.450962   4.906127
    10  C    4.295207   3.666645   2.351437   1.403918   3.803553
    11  C    6.202739   4.892309   3.823851   4.392579   6.565333
    12  C    7.338549   6.096396   4.900878   5.168243   7.515682
    13  C    7.423304   6.338224   5.002745   4.873700   7.322932
    14  C    6.466783   5.529648   4.138932   3.733537   6.188897
    15  C    6.683531   5.304903   4.525298   5.384377   7.298377
    16  C    8.034797   6.650474   5.886021   6.704424   8.663925
    17  C    8.903562   7.545017   6.610428   7.216826   9.372923
    18  C    8.600277   7.308486   6.196649   6.557566   8.867230
    19  C    1.419576   2.368745   3.696402   4.312147   2.595758
    20  C    2.433789   2.700049   4.094277   5.050162   3.823146
    21  C    2.878495   2.392668   3.592363   4.814317   4.313185
    22  C    2.511796   1.420478   2.307270   3.629916   3.759524
    23  C    3.631234   2.273271   2.265087   3.629665   4.609164
    24  H    3.961825   3.400696   4.475560   5.770122   5.397279
    25  H    3.408491   3.784558   5.178139   6.119523   4.718323
    26  H    2.181193   3.369224   4.617307   5.025909   2.902653
    27  H    2.189621   3.381753   3.866091   3.443635   1.085307
    28  H    3.441282   3.846763   3.389111   2.187335   2.126022
    29  H    5.008162   4.586653   3.355970   2.169357   4.241738
    30  H    6.875057   6.107538   4.720538   4.009970   6.373777
    31  H    8.445161   7.393725   6.048287   5.819547   8.269637
    32  H    9.459622   8.209407   7.034765   7.246617   9.620530
    33  H    8.545995   7.160605   6.558841   7.499302   9.303328
    34  H    9.947579   8.581612   7.679788   8.296234  10.444611
    35  H    6.282156   4.984655   4.925102   6.197831   7.345282
    36  C    6.114937   4.758609   4.305840   5.398019   6.933372
    37  C    5.948126   4.639012   4.551767   5.826100   6.986678
    38  H    5.895159   4.703610   4.880302   6.207009   7.047219
    39  H    6.059717   4.779632   4.320424   5.325844   6.810067
                    6          7          8          9         10
     6  C    0.000000
     7  C    3.779477   0.000000
     8  C    4.373740   1.427402   0.000000
     9  C    3.838645   2.437665   1.453058   0.000000
    10  C    2.580940   2.853883   2.523065   1.411614   0.000000
    11  C    5.831972   2.572047   1.459312   2.499806   3.821467
    12  C    6.604663   3.819416   2.486211   2.849617   4.257177
    13  C    6.226633   4.263466   2.856129   2.436662   3.685957
    14  C    5.009539   3.751566   2.490003   1.436613   2.434067
    15  C    6.769913   3.118553   2.551912   3.833163   5.056690
    16  C    8.109541   4.475553   3.801112   4.940440   6.257328
    17  C    8.657975   5.268394   4.293901   5.124654   6.523741
    18  C    7.997013   5.002193   3.779939   4.258618   5.664300
    19  C    3.817813   4.665364   6.008958   6.383417   5.695613
    20  C    4.885833   4.679131   6.100975   6.768302   6.347130
    21  C    5.063308   3.760049   5.172190   6.073371   5.939223
    22  C    4.167835   2.374475   3.794535   4.688867   4.637115
    23  C    4.607000   1.439479   2.678280   3.861180   4.230440
    24  H    6.119014   4.369237   5.714996   6.774512   6.804772
    25  H    5.871499   5.713880   7.139726   7.845902   7.427358
    26  H    4.256901   5.687811   6.994116   7.249980   6.426719
    27  H    2.125675   5.275795   6.197757   5.891998   4.697493
    28  H    1.085221   4.692054   5.070064   4.263144   2.869806
    29  H    2.888466   3.937378   3.482824   2.148675   1.085241
    30  H    5.084740   4.597675   3.461794   2.167030   2.610721
    31  H    7.116397   5.343740   3.939961   3.423630   4.551040
    32  H    8.662181   5.927090   4.631424   4.854106   6.218193
    33  H    8.864818   5.137000   4.674970   5.907784   7.175663
    34  H    9.736840   6.325299   5.376049   6.179412   7.583599
    35  H    7.309665   3.703657   4.157358   5.589170   6.443843
    36  C    6.645020   2.978305   3.049690   4.453405   5.420560
    37  C    6.936788   3.337811   3.836817   5.283052   6.099360
    38  H    7.172125   3.870657   4.595866   6.000029   6.661185
    39  H    6.513277   3.170401   3.261836   4.521165   5.375776
                   11         12         13         14         15
    11  C    0.000000
    12  C    1.429189   0.000000
    13  C    2.478077   1.433287   0.000000
    14  C    2.844345   2.425119   1.352508   0.000000
    15  C    1.429475   2.438752   3.753815   4.260938   0.000000
    16  C    2.443488   2.786489   4.216185   5.059036   1.389442
    17  C    2.841668   2.424938   3.724844   4.847736   2.434714
    18  C    2.463515   1.409773   2.457844   3.698618   2.799786
    19  C    7.230782   8.454490   8.673949   7.794607   7.504756
    20  C    7.127794   8.444000   8.886206   8.183941   7.143434
    21  C    6.019019   7.377244   7.984928   7.451389   5.877110
    22  C    4.726873   6.065478   6.614731   6.064942   4.762108
    23  C    3.366661   4.740863   5.454966   5.117694   3.321125
    24  H    6.346902   7.723666   8.487940   8.100053   5.969411
    25  H    8.108147   9.442382   9.933746   9.258270   8.023605
    26  H    8.259106   9.450674   9.590352   8.640285   8.576064
    27  H    7.640889   8.560553   8.298813   7.116444   8.382295
    28  H    6.501658   7.105287   6.522693   5.219225   7.555727
    29  H    4.647834   4.823821   3.956229   2.606753   5.962451
    30  H    3.928208   3.412762   2.118498   1.084754   5.341844
    31  H    3.447671   2.168705   1.084642   2.122109   4.599052
    32  H    3.435816   2.150581   2.653820   4.002915   3.883746
    33  H    3.417800   3.868739   5.296261   6.115582   2.131586
    34  H    3.925285   3.410905   4.599476   5.806226   3.411045
    35  H    3.770285   4.933529   6.154428   6.419357   2.769442
    36  C    2.543526   3.803893   4.987484   5.222111   1.479344
    37  C    3.540694   4.828375   6.015280   6.188768   2.503085
    38  H    4.479893   5.812752   6.949306   7.015918   3.485385
    39  H    2.967269   4.194229   5.230524   5.332951   2.186786
                   16         17         18         19         20
    16  C    0.000000
    17  C    1.400704   0.000000
    18  C    2.395908   1.377127   0.000000
    19  C    8.810601   9.796337   9.640480   0.000000
    20  C    8.362343   9.462023   9.499430   1.393625   0.000000
    21  C    7.040487   8.185646   8.332560   2.473217   1.415302
    22  C    6.018600   7.078053   7.097760   2.844413   2.410905
    23  C    4.581374   5.633634   5.697235   4.239267   3.843234
    24  H    6.995597   8.216208   8.535149   3.439166   2.167633
    25  H    9.188242  10.334426  10.449542   2.135047   1.084521
    26  H    9.889084  10.859616  10.665605   1.084824   2.148279
    27  H    9.748909  10.452431   9.922645   2.885571   4.255624
    28  H    8.863494   9.295445   8.511677   4.712891   5.874052
    29  H    7.086242   7.198242   6.197214   6.425600   7.212294
    30  H    6.111946   5.806790   4.574414   8.255864   8.794247
    31  H    4.812738   4.030915   2.658175   9.714165   9.950377
    32  H    3.386215   2.142645   1.084781  10.552132  10.474650
    33  H    1.083946   2.156294   3.376357   9.186690   8.591678
    34  H    2.158273   1.083964   2.143462  10.802154  10.407370
    35  H    3.271662   4.521088   5.217077   6.606902   5.793377
    36  C    2.453736   3.755724   4.262522   6.743848   6.225662
    37  C    3.246870   4.598499   5.235544   6.322595   5.568104
    38  H    4.216466   5.597932   6.258507   6.070365   5.182987
    39  H    3.156630   4.363987   4.755754   6.714643   6.283041
                   21         22         23         24         25
    21  C    0.000000
    22  C    1.391978   0.000000
    23  C    2.655319   1.447122   0.000000
    24  H    1.084285   2.170426   3.050443   0.000000
    25  H    2.151167   3.384691   4.770588   2.463949   0.000000
    26  H    3.442933   3.928481   5.322124   4.312037   2.447060
    27  H    5.015439   4.674644   5.638284   6.086239   4.985499
    28  H    6.132874   5.252033   5.634820   7.194657   6.818195
    29  H    6.920334   5.657410   5.312071   7.822977   8.279490
    30  H    8.191354   6.819522   6.007432   8.916554   9.875647
    31  H    9.053641   7.687558   6.520361   9.544502  10.998046
    32  H    9.341107   8.084957   6.709080   9.572217  11.440393
    33  H    7.217149   6.351902   4.971729   7.015454   9.330251
    34  H    9.097897   8.048303   6.606527   9.048820  11.243936
    35  H    4.384501   3.828246   2.760382   4.035403   6.420931
    36  C    4.919544   3.978681   2.665454   4.903991   7.027521
    37  C    4.176457   3.533386   2.430598   3.923391   6.242683
    38  H    3.826496   3.482656   2.755072   3.422167   5.737905
    39  H    5.081028   4.145425   3.010342   5.151889   7.092629
                   26         27         28         29         30
    26  H    0.000000
    27  H    2.773218   0.000000
    28  H    4.986797   2.433093   0.000000
    29  H    7.044022   4.969369   2.756494   0.000000
    30  H    9.014889   7.199201   5.065087   2.312415   0.000000
    31  H   10.612204   9.211676   7.308143   4.628123   2.454079
    32  H   11.556108  10.651979   9.078008   6.597410   4.691715
    33  H   10.270563  10.381397   9.677557   8.051317   7.174330
    34  H   11.871656  11.524738  10.368320   8.225819   6.712790
    35  H    7.672107   8.357603   8.301518   7.493195   7.471421
    36  C    7.816067   7.989269   7.542906   6.427460   6.273639
    37  C    7.392394   8.003853   7.926540   7.160531   7.234435
    38  H    7.099328   8.003393   8.197857   7.735443   8.030402
    39  H    7.750155   7.835890   7.376176   6.349094   6.322533
                   31         32         33         34         35
    31  H    0.000000
    32  H    2.392332   0.000000
    33  H    5.873288   4.281319   0.000000
    34  H    4.719442   2.481209   2.484265   0.000000
    35  H    7.051269   6.258920   3.130192   5.185160   0.000000
    36  C    5.916400   5.342609   2.619435   4.607046   2.120806
    37  C    6.961411   6.315174   3.134706   5.343939   1.084080
    38  H    7.922612   7.341067   3.969576   6.304972   1.849213
    39  H    6.166503   5.797096   3.313560   5.216466   3.074704
                   36         37         38         39
    36  C    0.000000
    37  C    1.344025   0.000000
    38  H    2.119017   1.083609   0.000000
    39  H    1.088221   2.098954   2.435919   0.000000
 Stoichiometry    C25H14(3)
 Framework group  C1[X(C25H14)]
 Deg. of freedom   111
 Full point group                 C1      NOp   1
 Largest Abelian subgroup         C1      NOp   1
 Largest concise Abelian subgroup C1      NOp   1
                         Standard orientation:                         
 ---------------------------------------------------------------------
 Center     Atomic      Atomic             Coordinates (Angstroms)
 Number     Number       Type             X           Y           Z
 ---------------------------------------------------------------------
      1          6           0        3.851751    0.341620   -0.033531
      2          6           0        2.550381   -0.142041   -0.041701
      3          6           0        1.419391    0.677059    0.084579
      4          6           0        1.524431    2.060399    0.193999
      5          6           0        3.974131    1.775020    0.120069
      6          6           0        2.872071    2.587909    0.223549
      7          6           0        0.231011   -0.108501    0.027029
      8          6           0       -1.014349    0.585689    0.095259
      9          6           0       -0.925049    2.035899    0.112379
     10          6           0        0.295721    2.739549    0.197529
     11          6           0       -2.339449   -0.024641    0.060629
     12          6           0       -3.469819    0.800139   -0.230201
     13          6           0       -3.324749    2.225629   -0.265461
     14          6           0       -2.125489    2.809779   -0.042251
     15          6           0       -2.589109   -1.412341    0.295909
     16          6           0       -3.850219   -1.945111    0.058619
     17          6           0       -4.922519   -1.138242   -0.342761
     18          6           0       -4.737869    0.222638   -0.444681
     19          6           0        4.860231   -0.644610   -0.193261
     20          6           0        4.501831   -1.981670   -0.354541
     21          6           0        3.160191   -2.431971   -0.372171
     22          6           0        2.145381   -1.493141   -0.209811
     23          6           0        0.699391   -1.455831   -0.166421
     24          1           0        2.949301   -3.485581   -0.517451
     25          1           0        5.289791   -2.716370   -0.479121
     26          1           0        5.908601   -0.365770   -0.196531
     27          1           0        4.964011    2.219440    0.142849
     28          1           0        3.011171    3.659659    0.322079
     29          1           0        0.261460    3.824009    0.220369
     30          1           0       -2.036350    3.890799   -0.030371
     31          1           0       -4.208649    2.827599   -0.446571
     32          1           0       -5.570269    0.875148   -0.685701
     33          1           0       -4.008259   -3.001881    0.240829
     34          1           0       -5.896399   -1.579092   -0.522171
     35          1           0       -1.079249   -3.483791   -0.752531
     36          6           0       -1.582269   -2.292491    0.928419
     37          6           0       -0.883259   -3.244121    0.286399
     38          1           0       -0.178829   -3.876021    0.814309
     39          1           0       -1.336919   -2.067851    1.964549
 ---------------------------------------------------------------------
 Rotational constants (GHZ):      0.4663009      0.1786838      0.1312732
 Standard basis: 6-311+G(d,p) (5D, 7F)
 There are   659 symmetry adapted cartesian basis functions of A   symmetry.
 There are   634 symmetry adapted basis functions of A   symmetry.
   634 basis functions,  1012 primitive gaussians,   659 cartesian basis functions
    83 alpha electrons       81 beta electrons
       nuclear repulsion energy      1921.7969517978 Hartrees.
 NAtoms=   39 NActive=   39 NUniq=   39 SFac= 1.00D+00 NAtFMM=   60 NAOKFM=F Big=F
 Integral buffers will be    131072 words long.
 Raffenetti 2 integral format.
 Two-electron integral symmetry is turned on.
 One-electron integrals computed using PRISM.
 NBasis=   634 RedAO= T EigKep=  1.07D-06  NBF=   634
 NBsUse=   619 1.00D-06 EigRej=  8.23D-07 NBFU=   619
 ExpMin= 4.38D-02 ExpMax= 4.56D+03 ExpMxC= 6.82D+02 IAcc=2 IRadAn=         4 AccDes= 0.00D+00
 Harris functional with IExCor=  402 and IRadAn=       4 diagonalized for initial guess.
 HarFok:  IExCor=  402 AccDes= 0.00D+00 IRadAn=         4 IDoV= 1 UseB2=F ITyADJ=14
 ICtDFT=  3500011 ScaDFX=  1.000000  1.000000  1.000000  1.000000
 FoFCou: FMM=F IPFlag=           0 FMFlag=      100000 FMFlg1=           0
         NFxFlg=           0 DoJE=T BraDBF=F KetDBF=T FulRan=T
         wScrn=  0.000000 ICntrl=     500 IOpCl=  0 I1Cent=   200000004 NGrid=           0
         NMat0=    1 NMatS0=      1 NMatT0=    0 NMatD0=    1 NMtDS0=    0 NMtDT0=    0
 Petite list used in FoFCou.
 Initial guess <Sx>= 0.0000 <Sy>= 0.0000 <Sz>= 1.0000 <S**2>= 2.0000 S= 1.0000
 Requested convergence on RMS density matrix=1.00D-08 within 128 cycles.
 Requested convergence on MAX density matrix=1.00D-06.
 Requested convergence on             energy=1.00D-06.
 No special actions if energy rises.
 Restarting incremental Fock formation.
 SCF Done:  E(UB3LYP) =  -961.202679509     A.U. after   26 cycles
            NFock= 26  Conv=0.24D-08     -V/T= 2.0044
 <Sx>= 0.0000 <Sy>= 0.0000 <Sz>= 1.0000 <S**2>= 2.0484 S= 1.0160
 <L.S>= 0.000000000000E+00
 Annihilation of the first spin contaminant:
 S**2 before annihilation     2.0484,   after     2.0014
 DoSCS=F DFT=T ScalE2(SS,OS)=  1.000000  1.000000
 Range of M.O.s used for correlation:     1   619
 NBasis=   634 NAE=    83 NBE=    81 NFC=     0 NFV=     0
 NROrb=    619 NOA=    83 NOB=    81 NVA=   536 NVB=   538

 **** Warning!!: The largest alpha MO coefficient is  0.13768234D+03


 **** Warning!!: The largest beta MO coefficient is  0.13509016D+03


 **** Warning!!: The smallest beta delta epsilon is  0.94404119D-01

 Symmetrizing basis deriv contribution to polar:
 IMax=3 JMax=2 DiffMx= 0.00D+00
 G2DrvN: will do    40 centers at a time, making    1 passes.
 Calling FoFCou, ICntrl=  3107 FMM=F I1Cent=   0 AccDes= 0.00D+00.
 End of G2Drv F.D. properties file   721 does not exist.
 End of G2Drv F.D. properties file   722 does not exist.
 End of G2Drv F.D. properties file   788 does not exist.
          IDoAtm=111111111111111111111111111111111111111
          Differentiating once with respect to nuclear coordinates.
          There are   120 degrees of freedom in the 1st order CPHF.  IDoFFX=6 NUNeed=     0.
    115 vectors produced by pass  0 Test12= 8.81D-14 1.00D-09 XBig12= 5.79D-01 2.28D-01.
 AX will form   115 AO Fock derivatives at one time.
    114 vectors produced by pass  1 Test12= 8.81D-14 1.00D-09 XBig12= 1.39D-01 5.47D-02.
    114 vectors produced by pass  2 Test12= 8.81D-14 1.00D-09 XBig12= 2.58D-03 9.97D-03.
    114 vectors produced by pass  3 Test12= 8.81D-14 1.00D-09 XBig12= 4.56D-05 8.74D-04.
    114 vectors produced by pass  4 Test12= 8.81D-14 1.00D-09 XBig12= 5.05D-07 8.41D-05.
    114 vectors produced by pass  5 Test12= 8.81D-14 1.00D-09 XBig12= 3.83D-09 4.34D-06.
    114 vectors produced by pass  6 Test12= 8.81D-14 1.00D-09 XBig12= 8.71D-11 6.70D-07.
    114 vectors produced by pass  7 Test12= 8.81D-14 1.00D-09 XBig12= 2.15D-11 2.39D-07.
    113 vectors produced by pass  8 Test12= 8.81D-14 1.00D-09 XBig12= 2.46D-12 9.26D-08.
     86 vectors produced by pass  9 Test12= 8.81D-14 1.00D-09 XBig12= 6.60D-14 1.64D-08.
     35 vectors produced by pass 10 Test12= 8.81D-14 1.00D-09 XBig12= 6.77D-16 1.42D-09.
     35 vectors produced by pass 11 Test12= 8.81D-14 1.00D-09 XBig12= 1.49D-13 2.57D-08.
     35 vectors produced by pass 12 Test12= 8.81D-14 1.00D-09 XBig12= 6.03D-13 4.76D-08.
     35 vectors produced by pass 13 Test12= 8.81D-14 1.00D-09 XBig12= 6.84D-13 4.49D-08.
     35 vectors produced by pass 14 Test12= 8.81D-14 1.00D-09 XBig12= 2.35D-13 2.31D-08.
     35 vectors produced by pass 15 Test12= 8.81D-14 1.00D-09 XBig12= 2.28D-13 2.19D-08.
     35 vectors produced by pass 16 Test12= 8.81D-14 1.00D-09 XBig12= 2.12D-13 2.58D-08.
     35 vectors produced by pass 17 Test12= 8.81D-14 1.00D-09 XBig12= 1.02D-13 1.46D-08.
     35 vectors produced by pass 18 Test12= 8.81D-14 1.00D-09 XBig12= 1.91D-13 1.95D-08.
     35 vectors produced by pass 19 Test12= 8.81D-14 1.00D-09 XBig12= 1.16D-13 1.44D-08.
     35 vectors produced by pass 20 Test12= 8.81D-14 1.00D-09 XBig12= 1.43D-13 1.87D-08.
     35 vectors produced by pass 21 Test12= 8.81D-14 1.00D-09 XBig12= 1.75D-13 1.83D-08.
     35 vectors produced by pass 22 Test12= 8.81D-14 1.00D-09 XBig12= 1.44D-13 1.51D-08.
     35 vectors produced by pass 23 Test12= 8.81D-14 1.00D-09 XBig12= 1.28D-13 1.51D-08.
     35 vectors produced by pass 24 Test12= 8.81D-14 1.00D-09 XBig12= 1.53D-13 1.56D-08.
     34 vectors produced by pass 25 Test12= 8.81D-14 1.00D-09 XBig12= 6.24D-14 1.11D-08.
     34 vectors produced by pass 26 Test12= 8.81D-14 1.00D-09 XBig12= 1.32D-13 1.44D-08.
     34 vectors produced by pass 27 Test12= 8.81D-14 1.00D-09 XBig12= 9.14D-14 1.29D-08.
     34 vectors produced by pass 28 Test12= 8.81D-14 1.00D-09 XBig12= 8.74D-14 1.09D-08.
     34 vectors produced by pass 29 Test12= 8.81D-14 1.00D-09 XBig12= 1.04D-13 1.34D-08.
     28 vectors produced by pass 30 Test12= 8.81D-14 1.00D-09 XBig12= 5.10D-14 8.27D-09.
     28 vectors produced by pass 31 Test12= 8.81D-14 1.00D-09 XBig12= 9.88D-14 1.19D-08.
     26 vectors produced by pass 32 Test12= 8.81D-14 1.00D-09 XBig12= 4.92D-14 8.95D-09.
     26 vectors produced by pass 33 Test12= 8.81D-14 1.00D-09 XBig12= 6.29D-14 9.43D-09.
     25 vectors produced by pass 34 Test12= 8.81D-14 1.00D-09 XBig12= 2.92D-14 6.77D-09.
     25 vectors produced by pass 35 Test12= 8.81D-14 1.00D-09 XBig12= 8.65D-14 1.17D-08.
     25 vectors produced by pass 36 Test12= 8.81D-14 1.00D-09 XBig12= 7.37D-14 1.01D-08.
     25 vectors produced by pass 37 Test12= 8.81D-14 1.00D-09 XBig12= 9.16D-14 1.25D-08.
     24 vectors produced by pass 38 Test12= 8.81D-14 1.00D-09 XBig12= 5.01D-14 7.91D-09.
     22 vectors produced by pass 39 Test12= 8.81D-14 1.00D-09 XBig12= 2.44D-14 5.64D-09.
     22 vectors produced by pass 40 Test12= 8.81D-14 1.00D-09 XBig12= 5.87D-14 8.36D-09.
     21 vectors produced by pass 41 Test12= 8.81D-14 1.00D-09 XBig12= 2.93D-14 6.99D-09.
     20 vectors produced by pass 42 Test12= 8.81D-14 1.00D-09 XBig12= 2.80D-14 6.59D-09.
     20 vectors produced by pass 43 Test12= 8.81D-14 1.00D-09 XBig12= 4.59D-14 7.98D-09.
     20 vectors produced by pass 44 Test12= 8.81D-14 1.00D-09 XBig12= 2.82D-14 6.65D-09.
     20 vectors produced by pass 45 Test12= 8.81D-14 1.00D-09 XBig12= 6.69D-14 1.13D-08.
     20 vectors produced by pass 46 Test12= 8.81D-14 1.00D-09 XBig12= 3.18D-14 6.14D-09.
     20 vectors produced by pass 47 Test12= 8.81D-14 1.00D-09 XBig12= 4.11D-14 7.16D-09.
     20 vectors produced by pass 48 Test12= 8.81D-14 1.00D-09 XBig12= 5.67D-14 8.24D-09.
     20 vectors produced by pass 49 Test12= 8.81D-14 1.00D-09 XBig12= 5.74D-14 8.34D-09.
     20 vectors produced by pass 50 Test12= 8.81D-14 1.00D-09 XBig12= 2.97D-14 6.46D-09.
     20 vectors produced by pass 51 Test12= 8.81D-14 1.00D-09 XBig12= 3.37D-14 6.57D-09.
     20 vectors produced by pass 52 Test12= 8.81D-14 1.00D-09 XBig12= 3.84D-14 9.68D-09.
     20 vectors produced by pass 53 Test12= 8.81D-14 1.00D-09 XBig12= 3.77D-14 6.48D-09.
     20 vectors produced by pass 54 Test12= 8.81D-14 1.00D-09 XBig12= 4.48D-14 7.19D-09.
     20 vectors produced by pass 55 Test12= 8.81D-14 1.00D-09 XBig12= 3.26D-14 6.33D-09.
     20 vectors produced by pass 56 Test12= 8.81D-14 1.00D-09 XBig12= 2.94D-14 6.43D-09.
     16 vectors produced by pass 57 Test12= 8.81D-14 1.00D-09 XBig12= 1.42D-14 4.09D-09.
     16 vectors produced by pass 58 Test12= 8.81D-14 1.00D-09 XBig12= 4.19D-14 7.90D-09.
     16 vectors produced by pass 59 Test12= 8.81D-14 1.00D-09 XBig12= 2.54D-14 5.26D-09.
     16 vectors produced by pass 60 Test12= 8.81D-14 1.00D-09 XBig12= 2.10D-14 4.89D-09.
     14 vectors produced by pass 61 Test12= 8.81D-14 1.00D-09 XBig12= 1.40D-14 3.86D-09.
     14 vectors produced by pass 62 Test12= 8.81D-14 1.00D-09 XBig12= 2.10D-14 5.46D-09.
     14 vectors produced by pass 63 Test12= 8.81D-14 1.00D-09 XBig12= 3.33D-14 5.95D-09.
     14 vectors produced by pass 64 Test12= 8.81D-14 1.00D-09 XBig12= 1.74D-14 5.28D-09.
     14 vectors produced by pass 65 Test12= 8.81D-14 1.00D-09 XBig12= 2.86D-14 5.74D-09.
     13 vectors produced by pass 66 Test12= 8.81D-14 1.00D-09 XBig12= 1.24D-14 3.68D-09.
     13 vectors produced by pass 67 Test12= 8.81D-14 1.00D-09 XBig12= 2.99D-14 5.88D-09.
     13 vectors produced by pass 68 Test12= 8.81D-14 1.00D-09 XBig12= 2.97D-14 5.56D-09.
     13 vectors produced by pass 69 Test12= 8.81D-14 1.00D-09 XBig12= 2.42D-14 5.62D-09.
     13 vectors produced by pass 70 Test12= 8.81D-14 1.00D-09 XBig12= 1.90D-14 4.97D-09.
     13 vectors produced by pass 71 Test12= 8.81D-14 1.00D-09 XBig12= 1.79D-14 4.29D-09.
     13 vectors produced by pass 72 Test12= 8.81D-14 1.00D-09 XBig12= 2.07D-14 5.17D-09.
     12 vectors produced by pass 73 Test12= 8.81D-14 1.00D-09 XBig12= 2.17D-14 5.01D-09.
     11 vectors produced by pass 74 Test12= 8.81D-14 1.00D-09 XBig12= 1.47D-14 4.06D-09.
     11 vectors produced by pass 75 Test12= 8.81D-14 1.00D-09 XBig12= 2.17D-14 4.89D-09.
     11 vectors produced by pass 76 Test12= 8.81D-14 1.00D-09 XBig12= 3.19D-14 6.26D-09.
     11 vectors produced by pass 77 Test12= 8.81D-14 1.00D-09 XBig12= 1.67D-14 4.04D-09.
     11 vectors produced by pass 78 Test12= 8.81D-14 1.00D-09 XBig12= 2.28D-14 5.38D-09.
     11 vectors produced by pass 79 Test12= 8.81D-14 1.00D-09 XBig12= 2.55D-14 5.01D-09.
     11 vectors produced by pass 80 Test12= 8.81D-14 1.00D-09 XBig12= 1.51D-14 4.53D-09.
     11 vectors produced by pass 81 Test12= 8.81D-14 1.00D-09 XBig12= 1.25D-14 3.49D-09.
     11 vectors produced by pass 82 Test12= 8.81D-14 1.00D-09 XBig12= 2.20D-14 4.51D-09.
     11 vectors produced by pass 83 Test12= 8.81D-14 1.00D-09 XBig12= 2.30D-14 4.99D-09.
     11 vectors produced by pass 84 Test12= 8.81D-14 1.00D-09 XBig12= 2.60D-14 5.70D-09.
     11 vectors produced by pass 85 Test12= 8.81D-14 1.00D-09 XBig12= 1.64D-14 4.49D-09.
     11 vectors produced by pass 86 Test12= 8.81D-14 1.00D-09 XBig12= 1.92D-14 4.85D-09.
     11 vectors produced by pass 87 Test12= 8.81D-14 1.00D-09 XBig12= 2.54D-14 5.04D-09.
     11 vectors produced by pass 88 Test12= 8.81D-14 1.00D-09 XBig12= 1.46D-14 4.36D-09.
     11 vectors produced by pass 89 Test12= 8.81D-14 1.00D-09 XBig12= 2.51D-14 4.90D-09.
     11 vectors produced by pass 90 Test12= 8.81D-14 1.00D-09 XBig12= 1.58D-14 4.20D-09.
     11 vectors produced by pass 91 Test12= 8.81D-14 1.00D-09 XBig12= 1.80D-14 4.54D-09.
     11 vectors produced by pass 92 Test12= 8.81D-14 1.00D-09 XBig12= 1.20D-14 3.31D-09.
     11 vectors produced by pass 93 Test12= 8.81D-14 1.00D-09 XBig12= 1.64D-14 3.79D-09.
     11 vectors produced by pass 94 Test12= 8.81D-14 1.00D-09 XBig12= 1.27D-14 4.08D-09.
     11 vectors produced by pass 95 Test12= 8.81D-14 1.00D-09 XBig12= 2.01D-14 5.47D-09.
     11 vectors produced by pass 96 Test12= 8.81D-14 1.00D-09 XBig12= 1.21D-14 3.56D-09.
     11 vectors produced by pass 97 Test12= 8.81D-14 1.00D-09 XBig12= 9.90D-15 3.20D-09.
     11 vectors produced by pass 98 Test12= 8.81D-14 1.00D-09 XBig12= 2.02D-14 4.59D-09.
     11 vectors produced by pass 99 Test12= 8.81D-14 1.00D-09 XBig12= 1.28D-14 3.65D-09.
     11 vectors produced by pass100 Test12= 8.81D-14 1.00D-09 XBig12= 1.94D-14 4.53D-09.
     11 vectors produced by pass101 Test12= 8.81D-14 1.00D-09 XBig12= 8.67D-15 3.24D-09.
     11 vectors produced by pass102 Test12= 8.81D-14 1.00D-09 XBig12= 1.02D-14 3.66D-09.
     11 vectors produced by pass103 Test12= 8.81D-14 1.00D-09 XBig12= 1.26D-14 3.72D-09.
     11 vectors produced by pass104 Test12= 8.81D-14 1.00D-09 XBig12= 1.12D-14 3.00D-09.
     11 vectors produced by pass105 Test12= 8.81D-14 1.00D-09 XBig12= 1.13D-14 3.62D-09.
     10 vectors produced by pass106 Test12= 8.81D-14 1.00D-09 XBig12= 7.09D-15 3.03D-09.
     10 vectors produced by pass107 Test12= 8.81D-14 1.00D-09 XBig12= 1.51D-14 4.31D-09.
     10 vectors produced by pass108 Test12= 8.81D-14 1.00D-09 XBig12= 8.21D-15 2.93D-09.
     10 vectors produced by pass109 Test12= 8.81D-14 1.00D-09 XBig12= 1.62D-14 3.53D-09.
     10 vectors produced by pass110 Test12= 8.81D-14 1.00D-09 XBig12= 1.01D-14 3.12D-09.
     10 vectors produced by pass111 Test12= 8.81D-14 1.00D-09 XBig12= 1.66D-14 4.51D-09.
     10 vectors produced by pass112 Test12= 8.81D-14 1.00D-09 XBig12= 7.98D-15 2.75D-09.
     10 vectors produced by pass113 Test12= 8.81D-14 1.00D-09 XBig12= 1.18D-14 3.55D-09.
     10 vectors produced by pass114 Test12= 8.81D-14 1.00D-09 XBig12= 1.12D-14 3.34D-09.
     10 vectors produced by pass115 Test12= 8.81D-14 1.00D-09 XBig12= 7.36D-15 3.05D-09.
     10 vectors produced by pass116 Test12= 8.81D-14 1.00D-09 XBig12= 1.63D-14 4.14D-09.
     10 vectors produced by pass117 Test12= 8.81D-14 1.00D-09 XBig12= 1.37D-14 3.50D-09.
     10 vectors produced by pass118 Test12= 8.81D-14 1.00D-09 XBig12= 1.62D-14 4.11D-09.
     10 vectors produced by pass119 Test12= 8.81D-14 1.00D-09 XBig12= 1.06D-14 3.34D-09.
     10 vectors produced by pass120 Test12= 8.81D-14 1.00D-09 XBig12= 1.29D-14 3.42D-09.
     10 vectors produced by pass121 Test12= 8.81D-14 1.00D-09 XBig12= 9.89D-15 3.14D-09.
     10 vectors produced by pass122 Test12= 8.81D-14 1.00D-09 XBig12= 1.30D-14 3.92D-09.
     10 vectors produced by pass123 Test12= 8.81D-14 1.00D-09 XBig12= 9.74D-15 3.30D-09.
     10 vectors produced by pass124 Test12= 8.81D-14 1.00D-09 XBig12= 1.53D-14 4.05D-09.
     10 vectors produced by pass125 Test12= 8.81D-14 1.00D-09 XBig12= 7.80D-15 2.75D-09.
     10 vectors produced by pass126 Test12= 8.81D-14 1.00D-09 XBig12= 1.04D-14 3.78D-09.
     10 vectors produced by pass127 Test12= 8.81D-14 1.00D-09 XBig12= 1.37D-14 3.66D-09.
     10 vectors produced by pass128 Test12= 8.81D-14 1.00D-09 XBig12= 9.62D-15 3.00D-09.
     10 vectors produced by pass129 Test12= 8.81D-14 1.00D-09 XBig12= 1.52D-14 4.33D-09.
     10 vectors produced by pass130 Test12= 8.81D-14 1.00D-09 XBig12= 1.05D-14 2.90D-09.
     10 vectors produced by pass131 Test12= 8.81D-14 1.00D-09 XBig12= 8.12D-15 3.03D-09.
     10 vectors produced by pass132 Test12= 8.81D-14 1.00D-09 XBig12= 9.66D-15 3.11D-09.
     10 vectors produced by pass133 Test12= 8.81D-14 1.00D-09 XBig12= 1.53D-14 3.72D-09.
     10 vectors produced by pass134 Test12= 8.81D-14 1.00D-09 XBig12= 1.27D-14 3.63D-09.
     10 vectors produced by pass135 Test12= 8.81D-14 1.00D-09 XBig12= 1.19D-14 3.68D-09.
      9 vectors produced by pass136 Test12= 8.81D-14 1.00D-09 XBig12= 7.88D-15 2.78D-09.
      9 vectors produced by pass137 Test12= 8.81D-14 1.00D-09 XBig12= 1.09D-14 3.00D-09.
      9 vectors produced by pass138 Test12= 8.81D-14 1.00D-09 XBig12= 1.50D-14 3.89D-09.
      6 vectors produced by pass139 Test12= 8.81D-14 1.00D-09 XBig12= 5.53D-15 2.14D-09.
      6 vectors produced by pass140 Test12= 8.81D-14 1.00D-09 XBig12= 1.98D-14 4.51D-09.
      6 vectors produced by pass141 Test12= 8.81D-14 1.00D-09 XBig12= 4.74D-15 2.21D-09.
      6 vectors produced by pass142 Test12= 8.81D-14 1.00D-09 XBig12= 1.44D-14 5.36D-09.
      6 vectors produced by pass143 Test12= 8.81D-14 1.00D-09 XBig12= 9.69D-15 3.22D-09.
      6 vectors produced by pass144 Test12= 8.81D-14 1.00D-09 XBig12= 1.20D-14 3.30D-09.
      6 vectors produced by pass145 Test12= 8.81D-14 1.00D-09 XBig12= 9.68D-15 2.91D-09.
      6 vectors produced by pass146 Test12= 8.81D-14 1.00D-09 XBig12= 1.42D-14 3.37D-09.
      6 vectors produced by pass147 Test12= 8.81D-14 1.00D-09 XBig12= 5.63D-15 2.27D-09.
      6 vectors produced by pass148 Test12= 8.81D-14 1.00D-09 XBig12= 1.51D-14 4.00D-09.
      6 vectors produced by pass149 Test12= 8.81D-14 1.00D-09 XBig12= 9.52D-15 2.91D-09.
      6 vectors produced by pass150 Test12= 8.81D-14 1.00D-09 XBig12= 8.44D-15 2.54D-09.
      6 vectors produced by pass151 Test12= 8.81D-14 1.00D-09 XBig12= 8.46D-15 2.79D-09.
      6 vectors produced by pass152 Test12= 8.81D-14 1.00D-09 XBig12= 7.00D-15 2.64D-09.
      6 vectors produced by pass153 Test12= 8.81D-14 1.00D-09 XBig12= 1.07D-14 2.87D-09.
      6 vectors produced by pass154 Test12= 8.81D-14 1.00D-09 XBig12= 8.18D-15 2.94D-09.
      6 vectors produced by pass155 Test12= 8.81D-14 1.00D-09 XBig12= 1.17D-14 3.11D-09.
      6 vectors produced by pass156 Test12= 8.81D-14 1.00D-09 XBig12= 8.80D-15 2.80D-09.
      6 vectors produced by pass157 Test12= 8.81D-14 1.00D-09 XBig12= 7.86D-15 2.89D-09.
      6 vectors produced by pass158 Test12= 8.81D-14 1.00D-09 XBig12= 1.08D-14 3.15D-09.
      6 vectors produced by pass159 Test12= 8.81D-14 1.00D-09 XBig12= 5.10D-15 1.98D-09.
      6 vectors produced by pass160 Test12= 8.81D-14 1.00D-09 XBig12= 5.47D-15 2.10D-09.
      6 vectors produced by pass161 Test12= 8.81D-14 1.00D-09 XBig12= 1.17D-14 3.50D-09.
      6 vectors produced by pass162 Test12= 8.81D-14 1.00D-09 XBig12= 7.85D-15 2.83D-09.
      6 vectors produced by pass163 Test12= 8.81D-14 1.00D-09 XBig12= 9.92D-15 3.01D-09.
      6 vectors produced by pass164 Test12= 8.81D-14 1.00D-09 XBig12= 1.03D-14 3.47D-09.
      6 vectors produced by pass165 Test12= 8.81D-14 1.00D-09 XBig12= 8.64D-15 2.80D-09.
      6 vectors produced by pass166 Test12= 8.81D-14 1.00D-09 XBig12= 1.27D-14 3.32D-09.
      6 vectors produced by pass167 Test12= 8.81D-14 1.00D-09 XBig12= 8.19D-15 2.50D-09.
      6 vectors produced by pass168 Test12= 8.81D-14 1.00D-09 XBig12= 7.45D-15 2.52D-09.
      6 vectors produced by pass169 Test12= 8.81D-14 1.00D-09 XBig12= 1.17D-14 3.17D-09.
      6 vectors produced by pass170 Test12= 8.81D-14 1.00D-09 XBig12= 5.58D-15 2.11D-09.
      6 vectors produced by pass171 Test12= 8.81D-14 1.00D-09 XBig12= 1.22D-14 3.05D-09.
      6 vectors produced by pass172 Test12= 8.81D-14 1.00D-09 XBig12= 7.68D-15 2.62D-09.
      6 vectors produced by pass173 Test12= 8.81D-14 1.00D-09 XBig12= 6.60D-15 2.40D-09.
      6 vectors produced by pass174 Test12= 8.81D-14 1.00D-09 XBig12= 1.41D-14 3.57D-09.
      6 vectors produced by pass175 Test12= 8.81D-14 1.00D-09 XBig12= 4.78D-15 2.20D-09.
      6 vectors produced by pass176 Test12= 8.81D-14 1.00D-09 XBig12= 9.30D-15 2.93D-09.
      6 vectors produced by pass177 Test12= 8.81D-14 1.00D-09 XBig12= 1.21D-14 3.34D-09.
      6 vectors produced by pass178 Test12= 8.81D-14 1.00D-09 XBig12= 5.34D-15 2.35D-09.
      6 vectors produced by pass179 Test12= 8.81D-14 1.00D-09 XBig12= 1.04D-14 3.61D-09.
      6 vectors produced by pass180 Test12= 8.81D-14 1.00D-09 XBig12= 7.38D-15 2.84D-09.
      6 vectors produced by pass181 Test12= 8.81D-14 1.00D-09 XBig12= 7.78D-15 2.54D-09.
      5 vectors produced by pass182 Test12= 8.81D-14 1.00D-09 XBig12= 5.29D-15 1.98D-09.
      5 vectors produced by pass183 Test12= 8.81D-14 1.00D-09 XBig12= 1.46D-14 3.85D-09.
      5 vectors produced by pass184 Test12= 8.81D-14 1.00D-09 XBig12= 8.16D-15 2.84D-09.
      5 vectors produced by pass185 Test12= 8.81D-14 1.00D-09 XBig12= 8.88D-15 3.43D-09.
      3 vectors produced by pass186 Test12= 8.81D-14 1.00D-09 XBig12= 5.19D-15 2.12D-09.
      3 vectors produced by pass187 Test12= 8.81D-14 1.00D-09 XBig12= 1.01D-14 3.06D-09.
      3 vectors produced by pass188 Test12= 8.81D-14 1.00D-09 XBig12= 7.91D-15 3.20D-09.
      3 vectors produced by pass189 Test12= 8.81D-14 1.00D-09 XBig12= 4.68D-15 2.21D-09.
      3 vectors produced by pass190 Test12= 8.81D-14 1.00D-09 XBig12= 7.81D-15 2.52D-09.
      3 vectors produced by pass191 Test12= 8.81D-14 1.00D-09 XBig12= 6.21D-15 2.52D-09.
      3 vectors produced by pass192 Test12= 8.81D-14 1.00D-09 XBig12= 8.40D-15 2.86D-09.
      3 vectors produced by pass193 Test12= 8.81D-14 1.00D-09 XBig12= 1.07D-14 3.09D-09.
      3 vectors produced by pass194 Test12= 8.81D-14 1.00D-09 XBig12= 4.40D-15 1.90D-09.
      3 vectors produced by pass195 Test12= 8.81D-14 1.00D-09 XBig12= 1.08D-14 3.35D-09.
      3 vectors produced by pass196 Test12= 8.81D-14 1.00D-09 XBig12= 9.63D-15 2.94D-09.
      3 vectors produced by pass197 Test12= 8.81D-14 1.00D-09 XBig12= 7.83D-15 2.67D-09.
      3 vectors produced by pass198 Test12= 8.81D-14 1.00D-09 XBig12= 1.24D-14 3.16D-09.
      3 vectors produced by pass199 Test12= 8.81D-14 1.00D-09 XBig12= 4.75D-15 1.94D-09.
      3 vectors produced by pass200 Test12= 8.81D-14 1.00D-09 XBig12= 3.39D-15 1.87D-09.
      3 vectors produced by pass201 Test12= 8.81D-14 1.00D-09 XBig12= 1.12D-14 3.04D-09.
      3 vectors produced by pass202 Test12= 8.81D-14 1.00D-09 XBig12= 6.69D-15 2.47D-09.
      3 vectors produced by pass203 Test12= 8.81D-14 1.00D-09 XBig12= 1.12D-14 3.40D-09.
      3 vectors produced by pass204 Test12= 8.81D-14 1.00D-09 XBig12= 4.82D-15 1.79D-09.
      3 vectors produced by pass205 Test12= 8.81D-14 1.00D-09 XBig12= 1.08D-14 3.24D-09.
      3 vectors produced by pass206 Test12= 8.81D-14 1.00D-09 XBig12= 4.53D-15 2.06D-09.
      3 vectors produced by pass207 Test12= 8.81D-14 1.00D-09 XBig12= 7.42D-15 2.91D-09.
      3 vectors produced by pass208 Test12= 8.81D-14 1.00D-09 XBig12= 8.43D-15 2.61D-09.
      3 vectors produced by pass209 Test12= 8.81D-14 1.00D-09 XBig12= 3.02D-15 1.71D-09.
      3 vectors produced by pass210 Test12= 8.81D-14 1.00D-09 XBig12= 5.11D-15 2.19D-09.
      3 vectors produced by pass211 Test12= 8.81D-14 1.00D-09 XBig12= 1.04D-14 3.12D-09.
      3 vectors produced by pass212 Test12= 8.81D-14 1.00D-09 XBig12= 6.01D-15 2.34D-09.
      3 vectors produced by pass213 Test12= 8.81D-14 1.00D-09 XBig12= 1.11D-14 2.87D-09.
      3 vectors produced by pass214 Test12= 8.81D-14 1.00D-09 XBig12= 5.63D-15 2.37D-09.
      3 vectors produced by pass215 Test12= 8.81D-14 1.00D-09 XBig12= 3.64D-15 1.83D-09.
      3 vectors produced by pass216 Test12= 8.81D-14 1.00D-09 XBig12= 5.82D-15 2.72D-09.
      3 vectors produced by pass217 Test12= 8.81D-14 1.00D-09 XBig12= 9.17D-15 2.59D-09.
      3 vectors produced by pass218 Test12= 8.81D-14 1.00D-09 XBig12= 6.74D-15 2.48D-09.
      2 vectors produced by pass219 Test12= 8.81D-14 1.00D-09 XBig12= 4.68D-15 1.98D-09.
 InvSVY:  IOpt=1 It=  1 EMax= 2.11D-15
 Solved reduced A of dimension  3699 with   120 vectors.
 End of Minotr F.D. properties file   721 does not exist.
 End of Minotr F.D. properties file   722 does not exist.
 End of Minotr F.D. properties file   788 does not exist.

 **********************************************************************

            Population analysis using the SCF density.

 **********************************************************************

 Orbital symmetries:
 Alpha Orbitals:
       Occupied  (A) (A) (A) (A) (A) (A) (A) (A) (A) (A) (A) (A)
                 (A) (A) (A) (A) (A) (A) (A) (A) (A) (A) (A) (A)
                 (A) (A) (A) (A) (A) (A) (A) (A) (A) (A) (A) (A)
                 (A) (A) (A) (A) (A) (A) (A) (A) (A) (A) (A) (A)
                 (A) (A) (A) (A) (A) (A) (A) (A) (A) (A) (A) (A)
                 (A) (A) (A) (A) (A) (A) (A) (A) (A) (A) (A) (A)
                 (A) (A) (A) (A) (A) (A) (A) (A) (A) (A) (A)
       Virtual   (A) (A) (A) (A) (A) (A) (A) (A) (A) (A) (A) (A)
                 (A) (A) (A) (A) (A) (A) (A) (A) (A) (A) (A) (A)
                 (A) (A) (A) (A) (A) (A) (A) (A) (A) (A) (A) (A)
                 (A) (A) (A) (A) (A) (A) (A) (A) (A) (A) (A) (A)
                 (A) (A) (A) (A) (A) (A) (A) (A) (A) (A) (A) (A)
                 (A) (A) (A) (A) (A) (A) (A) (A) (A) (A) (A) (A)
                 (A) (A) (A) (A) (A) (A) (A) (A) (A) (A) (A) (A)
                 (A) (A) (A) (A) (A) (A) (A) (A) (A) (A) (A) (A)
                 (A) (A) (A) (A) (A) (A) (A) (A) (A) (A) (A) (A)
                 (A) (A) (A) (A) (A) (A) (A) (A) (A) (A) (A) (A)
                 (A) (A) (A) (A) (A) (A) (A) (A) (A) (A) (A) (A)
                 (A) (A) (A) (A) (A) (A) (A) (A) (A) (A) (A) (A)
                 (A) (A) (A) (A) (A) (A) (A) (A) (A) (A) (A) (A)
                 (A) (A) (A) (A) (A) (A) (A) (A) (A) (A) (A) (A)
                 (A) (A) (A) (A) (A) (A) (A) (A) (A) (A) (A) (A)
                 (A) (A) (A) (A) (A) (A) (A) (A) (A) (A) (A) (A)
                 (A) (A) (A) (A) (A) (A) (A) (A) (A) (A) (A) (A)
                 (A) (A) (A) (A) (A) (A) (A) (A) (A) (A) (A) (A)
                 (A) (A) (A) (A) (A) (A) (A) (A) (A) (A) (A) (A)
                 (A) (A) (A) (A) (A) (A) (A) (A) (A) (A) (A) (A)
                 (A) (A) (A) (A) (A) (A) (A) (A) (A) (A) (A) (A)
                 (A) (A) (A) (A) (A) (A) (A) (A) (A) (A) (A) (A)
                 (A) (A) (A) (A) (A) (A) (A) (A) (A) (A) (A) (A)
                 (A) (A) (A) (A) (A) (A) (A) (A) (A) (A) (A) (A)
                 (A) (A) (A) (A) (A) (A) (A) (A) (A) (A) (A) (A)
                 (A) (A) (A) (A) (A) (A) (A) (A) (A) (A) (A) (A)
                 (A) (A) (A) (A) (A) (A) (A) (A) (A) (A) (A) (A)
                 (A) (A) (A) (A) (A) (A) (A) (A) (A) (A) (A) (A)
                 (A) (A) (A) (A) (A) (A) (A) (A) (A) (A) (A) (A)
                 (A) (A) (A) (A) (A) (A) (A) (A) (A) (A) (A) (A)
                 (A) (A) (A) (A) (A) (A) (A) (A) (A) (A) (A) (A)
                 (A) (A) (A) (A) (A) (A) (A) (A) (A) (A) (A) (A)
                 (A) (A) (A) (A) (A) (A) (A) (A) (A) (A) (A) (A)
                 (A) (A) (A) (A) (A) (A) (A) (A) (A) (A) (A) (A)
                 (A) (A) (A) (A) (A) (A) (A) (A) (A) (A) (A) (A)
                 (A) (A) (A) (A) (A) (A) (A) (A) (A) (A) (A) (A)
                 (A) (A) (A) (A) (A) (A) (A) (A) (A) (A) (A) (A)
                 (A) (A) (A) (A) (A) (A) (A) (A) (A) (A) (A) (A)
                 (A) (A) (A) (A) (A) (A) (A) (A) (A) (A) (A) (A)
                 (A) (A) (A) (A) (A) (A) (A) (A) (A) (A) (A) (A)
                 (A) (A) (A) (A) (A) (A) (A) (A) (A) (A) (A) (A)
                 (A) (A) (A) (A) (A) (A) (A) (A) (A) (A) (A) (A)
                 (A) (A) (A) (A) (A) (A) (A) (A) (A) (A) (A) (A)
                 (A) (A) (A) (A) (A) (A) (A) (A) (A) (A) (A) (A)
                 (A) (A) (A) (A) (A) (A) (A) (A)
 Beta  Orbitals:
       Occupied  (A) (A) (A) (A) (A) (A) (A) (A) (A) (A) (A) (A)
                 (A) (A) (A) (A) (A) (A) (A) (A) (A) (A) (A) (A)
                 (A) (A) (A) (A) (A) (A) (A) (A) (A) (A) (A) (A)
                 (A) (A) (A) (A) (A) (A) (A) (A) (A) (A) (A) (A)
                 (A) (A) (A) (A) (A) (A) (A) (A) (A) (A) (A) (A)
                 (A) (A) (A) (A) (A) (A) (A) (A) (A) (A) (A) (A)
                 (A) (A) (A) (A) (A) (A) (A) (A) (A)
       Virtual   (A) (A) (A) (A) (A) (A) (A) (A) (A) (A) (A) (A)
                 (A) (A) (A) (A) (A) (A) (A) (A) (A) (A) (A) (A)
                 (A) (A) (A) (A) (A) (A) (A) (A) (A) (A) (A) (A)
                 (A) (A) (A) (A) (A) (A) (A) (A) (A) (A) (A) (A)
                 (A) (A) (A) (A) (A) (A) (A) (A) (A) (A) (A) (A)
                 (A) (A) (A) (A) (A) (A) (A) (A) (A) (A) (A) (A)
                 (A) (A) (A) (A) (A) (A) (A) (A) (A) (A) (A) (A)
                 (A) (A) (A) (A) (A) (A) (A) (A) (A) (A) (A) (A)
                 (A) (A) (A) (A) (A) (A) (A) (A) (A) (A) (A) (A)
                 (A) (A) (A) (A) (A) (A) (A) (A) (A) (A) (A) (A)
                 (A) (A) (A) (A) (A) (A) (A) (A) (A) (A) (A) (A)
                 (A) (A) (A) (A) (A) (A) (A) (A) (A) (A) (A) (A)
                 (A) (A) (A) (A) (A) (A) (A) (A) (A) (A) (A) (A)
                 (A) (A) (A) (A) (A) (A) (A) (A) (A) (A) (A) (A)
                 (A) (A) (A) (A) (A) (A) (A) (A) (A) (A) (A) (A)
                 (A) (A) (A) (A) (A) (A) (A) (A) (A) (A) (A) (A)
                 (A) (A) (A) (A) (A) (A) (A) (A) (A) (A) (A) (A)
                 (A) (A) (A) (A) (A) (A) (A) (A) (A) (A) (A) (A)
                 (A) (A) (A) (A) (A) (A) (A) (A) (A) (A) (A) (A)
                 (A) (A) (A) (A) (A) (A) (A) (A) (A) (A) (A) (A)
                 (A) (A) (A) (A) (A) (A) (A) (A) (A) (A) (A) (A)
                 (A) (A) (A) (A) (A) (A) (A) (A) (A) (A) (A) (A)
                 (A) (A) (A) (A) (A) (A) (A) (A) (A) (A) (A) (A)
                 (A) (A) (A) (A) (A) (A) (A) (A) (A) (A) (A) (A)
                 (A) (A) (A) (A) (A) (A) (A) (A) (A) (A) (A) (A)
                 (A) (A) (A) (A) (A) (A) (A) (A) (A) (A) (A) (A)
                 (A) (A) (A) (A) (A) (A) (A) (A) (A) (A) (A) (A)
                 (A) (A) (A) (A) (A) (A) (A) (A) (A) (A) (A) (A)
                 (A) (A) (A) (A) (A) (A) (A) (A) (A) (A) (A) (A)
                 (A) (A) (A) (A) (A) (A) (A) (A) (A) (A) (A) (A)
                 (A) (A) (A) (A) (A) (A) (A) (A) (A) (A) (A) (A)
                 (A) (A) (A) (A) (A) (A) (A) (A) (A) (A) (A) (A)
                 (A) (A) (A) (A) (A) (A) (A) (A) (A) (A) (A) (A)
                 (A) (A) (A) (A) (A) (A) (A) (A) (A) (A) (A) (A)
                 (A) (A) (A) (A) (A) (A) (A) (A) (A) (A) (A) (A)
                 (A) (A) (A) (A) (A) (A) (A) (A) (A) (A) (A) (A)
                 (A) (A) (A) (A) (A) (A) (A) (A) (A) (A) (A) (A)
                 (A) (A) (A) (A) (A) (A) (A) (A) (A) (A) (A) (A)
                 (A) (A) (A) (A) (A) (A) (A) (A) (A) (A) (A) (A)
                 (A) (A) (A) (A) (A) (A) (A) (A) (A) (A) (A) (A)
                 (A) (A) (A) (A) (A) (A) (A) (A) (A) (A) (A) (A)
                 (A) (A) (A) (A) (A) (A) (A) (A) (A) (A) (A) (A)
                 (A) (A) (A) (A) (A) (A) (A) (A) (A) (A) (A) (A)
                 (A) (A) (A) (A) (A) (A) (A) (A) (A) (A) (A) (A)
                 (A) (A) (A) (A) (A) (A) (A) (A) (A) (A)
 The electronic state is 3-A.
 Alpha  occ. eigenvalues --  -10.21055 -10.20645 -10.19825 -10.19566 -10.19505
 Alpha  occ. eigenvalues --  -10.19292 -10.19289 -10.19030 -10.18967 -10.18913
 Alpha  occ. eigenvalues --  -10.18903 -10.18870 -10.18844 -10.18800 -10.18733
 Alpha  occ. eigenvalues --  -10.18603 -10.18524 -10.18220 -10.18171 -10.18166
 Alpha  occ. eigenvalues --  -10.18116 -10.18078 -10.17900 -10.17425 -10.16998
 Alpha  occ. eigenvalues --   -0.91533  -0.88796  -0.85775  -0.83799  -0.83174
 Alpha  occ. eigenvalues --   -0.80985  -0.78905  -0.77442  -0.75330  -0.74173
 Alpha  occ. eigenvalues --   -0.72981  -0.71328  -0.69113  -0.64914  -0.64342
 Alpha  occ. eigenvalues --   -0.62853  -0.61476  -0.59277  -0.58284  -0.57182
 Alpha  occ. eigenvalues --   -0.55621  -0.52639  -0.51864  -0.51760  -0.50600
 Alpha  occ. eigenvalues --   -0.48501  -0.47332  -0.47034  -0.46587  -0.45472
 Alpha  occ. eigenvalues --   -0.44440  -0.43792  -0.43558  -0.42949  -0.42436
 Alpha  occ. eigenvalues --   -0.41671  -0.41403  -0.40023  -0.39807  -0.39326
 Alpha  occ. eigenvalues --   -0.39110  -0.37095  -0.36690  -0.36098  -0.35188
 Alpha  occ. eigenvalues --   -0.34686  -0.33861  -0.33580  -0.33159  -0.31377
 Alpha  occ. eigenvalues --   -0.29509  -0.29335  -0.25805  -0.25117  -0.24503
 Alpha  occ. eigenvalues --   -0.21232  -0.21175  -0.18762
 Alpha virt. eigenvalues --   -0.06845  -0.05610  -0.02670  -0.01723  -0.00300
 Alpha virt. eigenvalues --    0.00161   0.00634   0.00656   0.01075   0.01786
 Alpha virt. eigenvalues --    0.01934   0.02483   0.02593   0.03231   0.03487
 Alpha virt. eigenvalues --    0.03603   0.03776   0.04748   0.05213   0.05481
 Alpha virt. eigenvalues --    0.05791   0.06047   0.06518   0.06954   0.07530
 Alpha virt. eigenvalues --    0.07680   0.07744   0.08012   0.08550   0.08968
 Alpha virt. eigenvalues --    0.09395   0.10138   0.10295   0.10587   0.11070
 Alpha virt. eigenvalues --    0.11498   0.11699   0.12163   0.12416   0.12461
 Alpha virt. eigenvalues --    0.13018   0.13208   0.13842   0.14108   0.14324
 Alpha virt. eigenvalues --    0.15025   0.15393   0.15571   0.15836   0.16003
 Alpha virt. eigenvalues --    0.16411   0.16551   0.17094   0.17246   0.17418
 Alpha virt. eigenvalues --    0.17649   0.17895   0.18268   0.18424   0.18534
 Alpha virt. eigenvalues --    0.19014   0.19184   0.19309   0.19508   0.19799
 Alpha virt. eigenvalues --    0.20070   0.20439   0.20501   0.20608   0.20897
 Alpha virt. eigenvalues --    0.21188   0.21421   0.21898   0.22184   0.22345
 Alpha virt. eigenvalues --    0.22676   0.22916   0.23243   0.23471   0.23617
 Alpha virt. eigenvalues --    0.23766   0.24584   0.24650   0.24829   0.25059
 Alpha virt. eigenvalues --    0.25243   0.25573   0.25880   0.26107   0.26298
 Alpha virt. eigenvalues --    0.26875   0.26986   0.27279   0.27691   0.27896
 Alpha virt. eigenvalues --    0.28071   0.28969   0.29092   0.29230   0.29293
 Alpha virt. eigenvalues --    0.29802   0.29900   0.30304   0.30712   0.30929
 Alpha virt. eigenvalues --    0.31162   0.31676   0.31778   0.32556   0.32650
 Alpha virt. eigenvalues --    0.32878   0.33012   0.33643   0.34309   0.34592
 Alpha virt. eigenvalues --    0.34869   0.35284   0.36367   0.36580   0.38078
 Alpha virt. eigenvalues --    0.38160   0.38780   0.39132   0.39914   0.40628
 Alpha virt. eigenvalues --    0.41749   0.42149   0.43145   0.43753   0.44326
 Alpha virt. eigenvalues --    0.45277   0.45528   0.46154   0.47547   0.48137
 Alpha virt. eigenvalues --    0.48449   0.49556   0.50546   0.51698   0.52263
 Alpha virt. eigenvalues --    0.52710   0.53107   0.53280   0.53997   0.54347
 Alpha virt. eigenvalues --    0.54515   0.54887   0.55352   0.55433   0.55866
 Alpha virt. eigenvalues --    0.56444   0.56948   0.57633   0.58005   0.58119
 Alpha virt. eigenvalues --    0.58422   0.59198   0.59293   0.60136   0.60294
 Alpha virt. eigenvalues --    0.60740   0.61240   0.61939   0.62786   0.63209
 Alpha virt. eigenvalues --    0.63579   0.63908   0.64560   0.64904   0.65427
 Alpha virt. eigenvalues --    0.65749   0.66147   0.66739   0.67276   0.67992
 Alpha virt. eigenvalues --    0.68401   0.68934   0.69261   0.69477   0.69752
 Alpha virt. eigenvalues --    0.70130   0.70551   0.70837   0.71521   0.71654
 Alpha virt. eigenvalues --    0.71811   0.72336   0.72497   0.73382   0.73634
 Alpha virt. eigenvalues --    0.73761   0.74250   0.74472   0.74527   0.75184
 Alpha virt. eigenvalues --    0.75883   0.76417   0.76823   0.76887   0.77524
 Alpha virt. eigenvalues --    0.79132   0.80190   0.80901   0.81128   0.81928
 Alpha virt. eigenvalues --    0.82772   0.83512   0.84547   0.84701   0.86204
 Alpha virt. eigenvalues --    0.86951   0.87798   0.88317   0.88791   0.89823
 Alpha virt. eigenvalues --    0.90406   0.90922   0.91246   0.92239   0.92686
 Alpha virt. eigenvalues --    0.93338   0.93623   0.93856   0.94094   0.94357
 Alpha virt. eigenvalues --    0.94993   0.95333   0.95852   0.96865   0.97241
 Alpha virt. eigenvalues --    0.97497   0.98136   0.99156   0.99410   0.99908
 Alpha virt. eigenvalues --    1.01391   1.01587   1.01917   1.02770   1.03292
 Alpha virt. eigenvalues --    1.04562   1.04917   1.05563   1.06183   1.06585
 Alpha virt. eigenvalues --    1.07513   1.08890   1.09124   1.09900   1.10209
 Alpha virt. eigenvalues --    1.10585   1.10880   1.12939   1.13813   1.14518
 Alpha virt. eigenvalues --    1.15121   1.15494   1.16406   1.17565   1.18224
 Alpha virt. eigenvalues --    1.21261   1.21669   1.22191   1.24021   1.26394
[...]
 0004838,0.00000722,0.00002285,-0.00004657,-0.00001509,-0.00001832,0.00
 001700,0.00000080,0.00057371,-0.00050701,0.00023640,-0.00027623,-0.000
 20562,-0.00016593,0.00008440,0.00000818,0.00003486,-0.00003569,0.00000
 965,0.00000156,-0.00429350,-0.00174790,0.00099927,-0.00022285,0.000785
 41,-0.00003970,0.00003156,-0.00031382,-0.00001619,0.00009366,0.0001528
 3,-0.00002911,0.00000965,0.00001485,0.00000742,-0.00001932,0.00000011,
 -0.00000897,-0.00003180,0.00004708,-0.00001318,-0.00008481,0.00004321,
 0.00007408,-0.00184772,-0.00314471,-0.00144615,-0.00001858,0.00001138,
 0.00003120,0.00000954,-0.00000191,0.00000020,0.00000443,0.00000285,0.0
 0000034,0.00000438,0.00000417,-0.00000239,-0.00000080,0.00000472,-0.00
 000590,-0.00000006,0.00000357,0.00000259,0.00000023,0.00000355,-0.0000
 0484,-0.00000624,-0.00001781,0.00000022,0.00000297,0.00000352,0.000003
 80,-0.00004995,-0.00005224,-0.00004727,-0.00005272,0.00002889,0.000009
 64,0.00003080,0.05736739,0.00005295,-0.00005281,-0.00001431,-0.0000061
 8,-0.00001561,-0.00000299,-0.00010017,-0.00006633,0.00002784,-0.000094
 39,0.00009990,-0.00001318,-0.00002362,0.00004322,0.00000298,0.00004451
 ,-0.00001243,0.00000136,-0.00006574,0.00025301,-0.00000064,0.00014227,
 0.00003885,0.00000348,0.00003429,0.00001591,0.00001920,0.00005686,-0.0
 0003058,0.00000105,-0.00016721,-0.00016389,0.00010917,-0.00004849,0.00
 005724,-0.00006109,0.00002400,0.00001662,-0.00001320,-0.00003156,0.000
 02009,-0.00000028,0.00068699,0.00242024,0.00037342,0.00032622,-0.00047
 525,0.00039724,0.00021818,0.00005645,0.00001453,0.00005260,0.00006173,
 -0.00000796,-0.00002515,0.00004890,0.00001339,-0.00003126,-0.00002548,
 -0.00001183,0.00005574,-0.00006076,0.00001147,0.00002072,-0.00007764,-
 0.00001355,0.00129819,0.00159031,0.00074060,0.00000884,0.00000187,-0.0
 0000138,-0.00000163,-0.00000161,-0.00000188,-0.00000034,0.00000133,0.0
 0000146,-0.00000025,-0.00000066,-0.00000499,-0.00000042,-0.00000034,-0
 .00000141,0.00000113,-0.00000125,-0.00000348,0.00000184,-0.00000055,-0
 .00000047,0.00000130,0.00000412,-0.00000328,-0.00000190,0.00001364,0.0
 0000592,0.00021785,0.00005708,-0.00010911,0.00003166,-0.00003056,0.000
 00885,0.05691030,0.07076748,0.32964090,-0.00017145,-0.00009805,-0.0001
 7489,0.00000324,-0.00032066,-0.00040894,-0.00045493,-0.00003091,-0.000
 20442,0.00006539,-0.00005437,-0.00030261,-0.00002886,0.00004831,-0.000
 00067,0.00003356,0.00001755,0.00002089,-0.00053424,-0.00181802,0.00238
 240,-0.00109715,-0.00245223,0.00116617,-0.00026886,0.00075934,-0.00024
 581,-0.00013875,-0.00004657,-0.00005066,0.00724091,0.00865595,0.000772
 66,0.00108095,-0.00276630,-0.00054268,0.00033485,-0.00050365,-0.000166
 05,0.00052037,-0.00018658,0.00013682,-0.14515795,0.05851162,-0.0510746
 0,-0.03116061,0.01714150,-0.02065531,-0.00147263,-0.00329952,-0.002334
 79,-0.00093385,0.00014947,0.00038402,-0.00005412,-0.00009850,-0.000007
 39,0.00009184,0.00007359,-0.00006014,-0.00021549,0.00021216,0.00007126
 ,-0.00049468,-0.00107625,0.00069242,-0.02514708,-0.02317016,0.00906476
 ,-0.00008983,0.00003259,0.00012549,-0.00001773,0.00001225,0.00001381,-
 0.00000806,-0.00000724,0.00001624,-0.00001738,-0.00001203,-0.00000932,
 0.00000067,-0.00001443,0.00000991,-0.00001777,-0.00002641,0.00002919,-
 0.00003360,-0.00002484,0.00002850,0.00002085,-0.00026130,-0.00009327,0
 .00001375,0.00009232,0.00032824,0.00036931,0.00190432,0.00139835,-0.00
 059414,0.00050167,-0.00004981,0.00580103,-0.00570717,-0.00384287,0.399
 65496,-0.00002229,-0.00034573,-0.00016772,-0.00194594,-0.00000953,0.00
 006936,0.00055853,-0.00173809,-0.00015632,-0.00045131,0.00024770,0.000
 05312,-0.00008239,-0.00007112,-0.00001989,-0.00012031,-0.00028504,-0.0
 0001478,-0.00683953,-0.00164407,0.00091686,0.00199601,0.00197876,-0.00
 069251,0.00036287,-0.00072030,-0.00004804,0.00030283,0.00000248,-0.000
 01275,0.02303809,-0.02459663,0.01215386,-0.00326233,-0.00360089,0.0016
 8057,0.00157799,-0.00047776,0.00016696,-0.00026018,0.00041138,-0.00000
 939,0.05819860,-0.13320171,0.03396984,0.00009764,0.01274256,0.00371467
 ,-0.00401126,0.00078230,0.00117568,-0.00054064,-0.00074316,-0.00034524
 ,-0.00001155,-0.00028792,-0.00003728,0.00010231,0.00010834,-0.00002448
 ,0.00042001,-0.00029242,-0.00018652,0.00028847,-0.00536532,-0.00027339
 ,0.00831112,0.02035089,0.00145573,0.00011410,0.00013582,0.00008784,-0.
 00009911,0.00001252,0.00002423,-0.00004767,-0.00001440,0.00000515,-0.0
 0003701,-0.00011143,0.00001837,-0.00005595,-0.00005440,-0.00000372,0.0
 0006607,-0.00000953,0.00003974,0.00000365,-0.00001032,0.00001300,-0.00
 000337,-0.00035077,-0.00002025,0.00013039,0.00010823,-0.00024246,-0.00
 112443,0.00012485,-0.00226756,-0.00070846,0.00056074,-0.00051109,0.006
 80259,0.00028121,-0.00364804,-0.23828261,0.49486706,0.00017440,-0.0000
 5323,0.00001955,-0.00000476,-0.00017187,0.00019630,-0.00019930,-0.0001
 0492,0.00038296,-0.00030447,0.00013341,-0.00003165,-0.00014147,0.00003
 917,-0.00001112,0.00009415,0.00002363,-0.00003011,0.00015456,0.0016428
 8,0.00035402,0.00064666,-0.00124610,-0.00247137,-0.00008578,0.00014039
 ,0.00006404,-0.00004926,-0.00014993,0.00013290,-0.00230253,0.00399155,
 0.00137184,-0.00061689,-0.00034168,0.00544382,-0.00006202,0.00017455,0
 .00003719,-0.00003927,-0.00020933,-0.00015332,-0.05401990,0.03968778,-
 0.10908866,-0.01140629,0.00361414,0.00006407,-0.00083956,-0.00016606,0
 .00784295,0.00080481,0.00044230,-0.00076625,-0.00009212,0.00006755,0.0
 0002379,-0.00006585,-0.00003775,-0.00000678,0.00002746,-0.00004306,-0.
 00003151,0.00070451,0.00053599,0.00016878,0.01637993,0.01520253,-0.004
 83870,0.00011456,-0.00002394,-0.00006155,-0.00000595,0.00000239,0.0000
 0158,-0.00000919,-0.00000092,0.00000114,-0.00000581,0.00000701,-0.0000
 1157,-0.00000788,-0.00001259,-0.00000852,-0.00002700,-0.00003617,-0.00
 000078,-0.00001442,-0.00002892,0.00002204,0.00004561,-0.00004889,0.000
 01905,0.00022431,-0.00008368,-0.00084907,0.00126360,-0.00049068,-0.003
 86192,0.00010317,-0.00001986,0.00004835,0.01882949,-0.02031001,-0.0124
 9651,0.04631984,0.15685580,0.58220435,0.00036244,-0.00047716,-0.000210
 20,-0.00193954,-0.00003692,0.00037651,0.00004603,-0.00080169,-0.000111
 64,-0.00035886,0.00048881,0.00022466,-0.00017667,-0.00005584,-0.000042
 75,-0.00011088,-0.00015470,0.00003493,-0.00223167,0.00014882,-0.000522
 95,-0.00037078,0.00080875,0.00021350,0.00004323,-0.00011768,0.00003229
 ,0.00026965,-0.00004971,-0.00004963,-0.00194671,-0.00180497,0.00008113
 ,0.00074330,0.00033827,-0.00087957,-0.00000398,-0.00016717,-0.00011588
 ,-0.00001581,0.00014557,0.00001136,-0.01464458,0.02067320,0.00841782,0
 .00108263,0.00156369,0.00130581,0.00039076,0.00041825,-0.00115708,-0.0
 0063069,-0.00014239,-0.00006675,-0.00009469,-0.00010013,0.00002575,0.0
 0002305,0.00007843,-0.00006799,0.00050912,-0.00021888,-0.00031909,0.00
 098372,-0.00595178,0.00005645,0.01732883,0.03817596,-0.00360758,0.0001
 1520,0.00016820,0.00015593,-0.00007833,0.00001198,0.00003279,-0.000043
 19,-0.00000160,0.00000972,-0.00002753,-0.00009821,0.00001280,-0.000036
 25,-0.00003590,-0.00002199,0.00003179,-0.00002636,0.00001156,0.0000306
 6,-0.00000639,0.00000211,0.00002219,0.00005436,0.00002663,-0.00002707,
 0.00003742,0.00015393,0.00004080,0.00023062,0.00053075,-0.00007816,0.0
 0005444,-0.00016354,-0.05291384,0.00227083,-0.05510363,-0.14256115,0.1
 5571854,0.06095253,0.35125693,0.00011626,0.00010043,0.00006350,0.00108
 943,0.00009656,0.00005757,0.00040600,0.00033084,0.00075600,-0.00025355
 ,0.00022117,0.00006957,0.00000210,0.00010710,0.00001104,0.00015624,0.0
 0002796,-0.00004001,-0.00101555,-0.00029126,0.00009019,0.00025145,0.00
 001019,-0.00064176,-0.00028375,-0.00000632,-0.00010225,0.00018866,0.00
 010096,0.00007565,0.00104534,0.00245765,0.00104161,0.00010381,-0.00039
 602,0.00069621,-0.00003114,0.00007293,-0.00002363,0.00014726,-0.000161
 57,0.00000029,0.01878450,-0.01456350,-0.00538533,-0.00322387,-0.002984
 75,-0.00231851,0.00061972,0.00015701,0.00068497,0.00007525,0.00012777,
 -0.00006129,-0.00005555,0.00020688,0.00004966,-0.00008052,-0.00017169,
 -0.00003014,0.00009527,0.00022909,0.00000104,-0.00057891,0.00251977,0.
 00027328,0.00229185,-0.00191954,-0.00129919,-0.00000318,-0.00012252,-0
 .00010052,0.00004608,-0.00000033,-0.00000998,0.00001313,0.00000184,0.0
 0000088,0.00001026,0.00004856,-0.00000347,0.00000046,0.00001726,-0.000
 02253,-0.00001557,-0.00000585,-0.00000202,-0.00003001,-0.00000557,0.00
 000351,0.00000199,-0.00006887,-0.00000065,0.00002581,0.00000304,-0.000
 02572,0.00041539,0.00062330,-0.00001789,0.00018797,-0.00015327,0.00016
 732,-0.00211188,-0.06073290,-0.06315469,0.18214367,-0.28794753,-0.1564
 7129,-0.32282626,0.50059609,-0.00012905,0.00051300,0.00016654,0.000785
 91,0.00007294,-0.00010889,0.00046864,0.00091563,0.00039307,0.00064813,
 -0.00038616,0.00000018,0.00021076,-0.00027053,-0.00001171,-0.00025971,
 0.00019380,-0.00002240,0.00270262,-0.00132425,0.00040017,-0.00076288,0
 .00001020,0.00024813,-0.00004957,0.00013945,-0.00019045,-0.00024677,0.
 00019941,0.00002387,-0.00230794,0.00276971,-0.00060509,0.00002937,0.00
 065530,-0.00064887,-0.00026667,0.00009230,-0.00000656,0.00004042,-0.00
 007802,0.00001959,-0.00473504,0.00933365,0.01316758,-0.00200892,0.0010
 3886,-0.00202243,-0.00010893,-0.00042753,-0.00075035,-0.00009028,0.000
 32434,0.00005731,0.00017175,-0.00000469,-0.00000010,0.00002137,0.00006
 600,0.00000660,-0.00023307,0.00000174,-0.00005896,-0.00089406,0.003085
 08,0.00036430,-0.01334615,-0.02071842,-0.00205837,-0.00018990,-0.00002
 640,0.00009768,0.00006042,-0.00001245,0.00000397,0.00003909,0.00001381
 ,-0.00000619,0.00002967,0.00006649,-0.00001421,0.00002830,0.00004172,-
 0.00001326,-0.00001972,0.00003360,0.00001591,0.00000164,0.00002733,-0.
 00000173,-0.00003135,0.00007744,0.00001279,-0.00002638,0.00001277,0.00
 003398,-0.00019887,-0.00003876,0.00058307,-0.00017319,0.00005486,0.000
 02892,-0.05913271,-0.06228794,-0.31132878,0.06517529,-0.13533431,-0.17
 980936,0.09323364,0.15071486,0.62339364,0.00002291,0.00003491,0.000024
 02,0.00011155,-0.00002718,-0.00007192,0.00010037,-0.00011016,0.0000870
 1,-0.00003843,-0.00004073,-0.00004000,0.00000257,-0.00000624,0.0000020
 0,0.00001789,-0.00000736,-0.00001382,-0.00049470,-0.00013092,0.0001663
 6,-0.00014769,-0.00015346,-0.00002306,0.00004678,0.00013217,-0.0000043
 4,-0.00006735,-0.00002328,0.00001555,-0.00185170,0.00071798,-0.0003359
 4,0.00030022,0.00047717,-0.00005619,-0.00016678,0.00001354,-0.00003607
 ,0.00000760,-0.00000551,0.00000597,0.00631956,0.00661511,0.00009957,0.
 00099948,-0.00089169,0.00025341,0.00004741,0.00022310,0.00028971,-0.00
 000231,-0.00002325,0.00001737,0.00002181,0.00004363,0.00000898,-0.0000
 8590,0.00003014,-0.00003113,0.00002143,-0.00003841,-0.00002889,-0.0000
 5263,0.00036411,-0.00003399,0.00012186,-0.00464233,0.00142017,-0.00011
 889,0.00003750,0.00011348,0.00000769,-0.00000568,-0.00000273,0.0000084
 4,0.00001177,0.00000775,0.00000575,0.00000882,-0.00000024,-0.00000482,
 0.00000370,0.00000558,-0.00000084,0.00000612,-0.00000387,0.00000801,0.
 00000744,-0.00000136,-0.00000226,0.00005834,-0.00000464,-0.00000981,-0
 .00000497,-0.00003965,0.00005624,-0.00011678,-0.00009338,0.00003283,-0
 .00003592,0.00000448,-0.00061069,0.00304331,-0.00036379,-0.01038680,0.
 01037061,-0.00894074,-0.16066181,0.11435329,-0.09706841,0.16943330,0.0
 0007133,-0.00002537,0.00002861,0.00009087,-0.00020061,-0.00012844,0.00
 005999,-0.00003281,0.00013791,-0.00009402,-0.00006120,-0.00001553,-0.0
 0004158,0.00001508,0.00000929,0.00007171,0.00002085,-0.00002222,-0.000
 48326,-0.00027130,0.00011037,0.00000886,-0.00008128,-0.00016426,-0.000
 04801,0.00008396,0.00002680,-0.00002633,0.00001643,0.00001997,-0.00037
 884,0.00029234,-0.00010287,0.00006978,0.00026869,0.00027784,-0.0001189
 4,0.00004100,-0.00002102,0.00005022,-0.00006799,-0.00000276,0.00545067
 ,0.00361347,-0.00458313,0.00070118,-0.00122082,0.00031905,0.00006814,0
 .00015355,0.00049730,0.00020691,-0.00007963,0.00002210,-0.00001598,0.0
 0007100,0.00000396,-0.00007133,0.00004726,-0.00000088,-0.00013666,0.00
 005591,0.00000886,-0.00010931,0.00022996,-0.00006235,0.00003300,-0.003
 73458,0.00093926,-0.00007559,0.00008361,0.00006948,0.00001320,-0.00000
 183,0.00000234,0.00000474,0.00001151,0.00000252,0.00000159,0.00001122,
 0.00000161,-0.00000643,-0.00000058,0.00000537,-0.00000595,-0.00000257,
 -0.00000557,-0.00000464,-0.00000519,-0.00000207,0.00000368,0.00001162,
 0.00000264,0.00000943,-0.00001655,-0.00006233,0.00013824,-0.00001022,-
 0.00020692,0.00009752,-0.00006544,0.00004967,-0.00465964,0.00651100,-0
 .00434586,0.01209543,-0.00798253,0.01357707,0.11709732,-0.13803527,0.0
 7407678,-0.12670797,0.14232779,-0.00003611,-0.00002901,-0.00002589,-0.
 00001454,0.00009556,0.00005674,-0.00007058,-0.00007352,-0.00005844,-0.
 00001254,0.00002757,-0.00000016,0.00000299,0.00002271,-0.00000343,-0.0
 0000518,-0.00002722,0.00000039,0.00000358,0.00005539,-0.00002635,0.000
 12789,0.00004000,0.00001584,0.00003259,-0.00006616,-0.00000904,0.00001
 419,-0.00002645,-0.00000836,0.00065577,-0.00053541,0.00047032,-0.00022
 844,-0.00030500,-0.00004239,0.00013756,0.00000094,0.00000840,-0.000055
 58,0.00003354,-0.00000814,-0.00133139,-0.00316685,-0.00010620,-0.00006
 338,0.00026307,0.00014263,0.00011845,-0.00001817,0.00002588,0.00002302
 ,0.00009173,-0.00002843,-0.00002265,-0.00001835,-0.00000200,0.00003010
 ,-0.00011930,-0.00001914,0.00004361,0.00021454,0.00002277,0.00003972,-
 0.00010382,0.00005742,-0.00012872,0.00071074,-0.00019270,0.00016241,-0
 .00009757,-0.00005390,-0.00000261,0.00000539,0.00000288,-0.00000759,-0
 .00001626,-0.00000017,-0.00000356,-0.00000776,0.00000225,0.00000138,-0
 .00000396,-0.00000139,0.00000193,-0.00000426,0.00000405,-0.00000094,-0
 .00000271,0.00000197,0.00000236,-0.00002874,0.00000139,0.00000704,0.00
 000425,0.00000955,0.00004862,0.00005835,-0.00011418,0.00000789,-0.0000
 0411,0.00000311,-0.01653989,0.01567360,-0.00860619,0.01277691,-0.01152
 121,0.01031697,-0.09973786,0.07944373,-0.12768776,0.10284427,-0.082018
 53,0.12532621,0.00002529,-0.00001207,0.00004698,-0.00010256,0.00009080
 ,-0.00000348,0.00016389,-0.00000941,0.00003939,0.00001240,-0.00002812,
 0.00004991,0.00000955,-0.00000923,0.00000546,-0.00000899,-0.00001740,-
 0.00000053,-0.00020824,-0.00007683,-0.00032983,0.00074281,0.00025223,-
 0.00013177,0.00005547,-0.00018861,0.00003477,0.00006924,0.00000952,0.0
 0001200,-0.00082960,-0.00204019,-0.00033797,-0.00068374,0.00013711,0.0
 0031941,-0.00002967,-0.00000801,0.00005986,-0.00006461,0.00003475,-0.0
 0001793,-0.00579692,0.00078670,-0.02150350,0.00031208,0.00167779,0.000
 39566,-0.00076470,0.00067622,0.00108291,-0.00006197,0.00006077,-0.0001
 4518,0.00002041,0.00001998,-0.00000921,-0.00001736,-0.00001998,0.00002
 215,0.00002247,0.00003289,-0.00001753,-0.00007621,-0.00005831,-0.00025
 043,0.00079196,0.00102892,0.00057105,0.00001595,-0.00001073,-0.0000280
 6,0.00000802,-0.00000521,-0.00000104,0.00000501,0.00000120,-0.00000429
 ,0.00000720,-0.00000030,0.00000367,0.00000210,0.00000860,0.00000019,0.
 00000369,0.00001236,-0.00000682,0.00001031,0.00001603,-0.00000592,-0.0
 0001023,0.00001947,0.00000112,0.00002824,0.00000340,-0.00014792,0.0000
 2357,-0.00030445,-0.00070911,-0.00013443,0.00003469,-0.00009555,0.0035
 3947,0.00652726,-0.00027784,-0.05417455,-0.01055406,-0.06759912,0.0056
 7187,0.00793857,0.01863255,-0.00299028,-0.00335930,0.00117929,0.054413
 05,-0.00000534,-0.00002719,0.00004491,0.00007896,0.00000758,0.00003294
 ,-0.00008675,0.00014866,-0.00009640,-0.00004367,0.00002222,0.00008450,
 -0.00001669,0.00004046,0.00001536,0.00005462,0.00002031,0.00000499,0.0
 0004031,-0.00004972,-0.00034187,0.00068380,0.00056657,0.00016558,-0.00
 014639,-0.00053765,-0.00002795,0.00019245,0.00006839,0.00000590,0.0002
 1288,-0.00067978,-0.00034293,-0.00008610,-0.00000134,-0.00070255,0.000
 02991,0.00016331,0.00007937,-0.00009213,-0.00003856,-0.00002345,0.0047
 6855,0.00749669,0.01549119,0.00070110,-0.00100996,0.00139575,0.0003054
 0,0.00015410,-0.00070045,0.00036792,-0.00014614,0.00018359,0.00000286,
 0.00002426,-0.00000455,0.00000175,0.00000472,0.00004032,-0.00003132,0.
 00000623,0.00000268,0.00003523,0.00023008,-0.00026665,-0.00001259,0.00
 061418,0.00068810,-0.00001195,0.00000351,-0.00005088,0.00000934,-0.000
 00291,-0.00000523,0.00000599,0.00000317,-0.00000489,0.00000491,0.00000
 747,-0.00000140,0.00000700,0.00000632,0.00000177,0.00000078,0.00000525
 ,-0.00000173,-0.00001936,-0.00000036,-0.00000511,-0.00000155,-0.000016
 64,0.00001838,-0.00001647,-0.00001037,0.00004422,-0.00009575,0.0001573
 7,0.00011418,0.00013520,-0.00009481,-0.00002017,0.00677874,0.00179213,
 -0.00340364,-0.00209391,-0.06285424,-0.05608725,-0.00540973,-0.0004896
 2,-0.02362158,-0.00358095,-0.00197047,0.00145326,-0.00266705,0.0563867
 8,-0.00001795,0.00006788,-0.00004033,-0.00005482,-0.00000121,-0.000031
 25,0.00017191,0.00004819,0.00007756,0.00010281,-0.00005108,-0.00003557
 ,0.00003769,-0.00001958,-0.00000591,-0.00003696,-0.00001561,-0.0000046
 3,0.00007257,-0.00010848,0.00011264,0.00002294,0.00024890,-0.00011777,
 0.00004451,-0.00001962,-0.00001480,-0.00003352,-0.00003752,-0.00000515
 ,-0.00086894,-0.00065254,0.00093830,-0.00025144,0.00020492,0.00006503,
 0.00000426,-0.00006551,0.00001381,-0.00003739,0.00006632,0.00000317,-0
 .00435291,-0.00266891,-0.00836466,0.00025472,0.00121153,-0.00082870,-0
 .00038609,0.00013710,0.00022339,-0.00005285,-0.00002951,-0.00012638,-0
 .00000267,-0.00005115,0.00000646,0.00003151,0.00003536,-0.00001552,-0.
 00003046,-0.00002530,0.00000823,0.00014913,-0.00005879,0.00016977,-0.0
 0075881,-0.00074256,0.00013778,-0.00001216,0.00000916,0.00001298,-0.00
 000763,0.00000282,-0.00000218,-0.00000405,-0.00000090,0.00000084,-0.00
 000468,-0.00000524,0.00000082,-0.00000229,-0.00000373,-0.00000286,0.00
 000144,-0.00000159,0.00000289,0.00001348,0.00000022,-0.00000052,0.0000
 0169,0.00001852,-0.00000008,0.00001197,0.00001947,-0.00003525,0.000107
 84,-0.00008441,-0.00015956,-0.00011119,0.00009016,0.00003097,-0.000583
 38,-0.00356113,0.00132366,-0.06068893,-0.05686382,-0.29418695,-0.00372
 447,-0.00449002,-0.01367185,0.00182848,0.00155597,0.00052549,0.0691666
 5,0.06584170,0.31399614\\0.00000102,-0.00000213,-0.00000154,0.00000007
 ,-0.00000234,-0.00000141,0.00000055,-0.00000110,-0.00000062,0.00000163
 ,0.00000014,-0.00000255,-0.00000107,-0.00000126,-0.00000283,0.00000354
 ,-0.00000349,-0.00000357,0.00000078,-0.00000128,0.00000044,-0.00000026
 ,0.00000099,-0.00000139,0.00000193,0.00000128,-0.00000132,0.00000193,-
 0.00000038,-0.00000252,0.00000088,0.00000118,0.00000085,0.00000048,0.0
 0000300,0.00000065,0.00000327,0.00000206,-0.00000077,-0.00000020,-0.00
 000031,-0.00000169,-0.00000233,0.00000107,0.00000098,-0.00000064,0.000
 00351,0.00000277,0.00000007,0.00000442,0.00000284,0.00000004,0.0000006
 7,0.00000144,-0.00000106,-0.00000474,-0.00000110,-0.00000250,-0.000001
 82,0.00000053,-0.00000073,-0.00000183,0.00000172,-0.00000153,-0.000001
 46,0.00000049,-0.00000113,-0.00000201,-0.00000182,-0.00000241,-0.00000
 247,0.00000220,-0.00000187,-0.00000393,0.00000071,-0.00000021,-0.00000
 411,-0.00000173,0.00000156,-0.00000307,-0.00000405,0.00000262,-0.00000
 177,-0.00000469,0.00000247,-0.00000002,-0.00000437,0.00000279,0.000001
 38,-0.00000366,0.00000174,0.00000223,-0.00000148,0.00000045,0.00000301
 ,0.00000088,-0.00000147,0.00000275,0.00000413,-0.00000113,0.00000332,0
 .00000352,-0.00000293,0.,0.00000387,-0.00000453,0.00000149,0.00000539,
 0.00000144,0.00000375,0.00000331,-0.00000308,0.00000019,0.00000410,-0.
 00000016,0.00000310,0.00000229\\\@


 THE TEST OF A FIRST RATE INTELLIGENCE IS THE ABILITY TO HOLD TWO OPPOSED
 IDEAS IN THE MIND AT THE SAME TIME, AND STILL RETAIN THE ABILITY TO FUNCTION.
 ONE SHOULD, FOR EXAMPLE, BE ABLE TO SEE THAT THINGS ARE HOPELESS AND YET BE
 DETERMINED TO MAKE THEM OTHERWISE.

                                                       -- F. SCOTT FITZGERALD
 Job cpu time:       3 days  6 hours  9 minutes 15.2 seconds.
 File lengths (MBytes):  RWF=   9047 Int=      0 D2E=      0 Chk=     42 Scr=      1
 Normal termination of Gaussian 09 at Mon Feb  3 05:37:49 2020.
