 Entering Gaussian System, Link 0=g09
 Initial command:
 /usr/local/Cluster-Apps/gaussian/g09/l1.exe "/rds/user/am2145/hpc-work/scratch/19189932/Gau-162085.inp" -scrdir="/rds/user/am2145/hpc-work/scratch/19189932/"
 Entering Link 1 = /usr/local/Cluster-Apps/gaussian/g09/l1.exe PID=    162086.
  
 Copyright (c) 1988,1990,1992,1993,1995,1998,2003,2009,2013,
            Gaussian, Inc.  All Rights Reserved.
  
 This is part of the Gaussian(R) 09 program.  It is based on
 the Gaussian(R) 03 system (copyright 2003, Gaussian, Inc.),
 the Gaussian(R) 98 system (copyright 1998, Gaussian, Inc.),
 the Gaussian(R) 94 system (copyright 1995, Gaussian, Inc.),
 the Gaussian 92(TM) system (copyright 1992, Gaussian, Inc.),
 the Gaussian 90(TM) system (copyright 1990, Gaussian, Inc.),
 the Gaussian 88(TM) system (copyright 1988, Gaussian, Inc.),
 the Gaussian 86(TM) system (copyright 1986, Carnegie Mellon
 University), and the Gaussian 82(TM) system (copyright 1983,
 Carnegie Mellon University). Gaussian is a federally registered
 trademark of Gaussian, Inc.
  
 This software contains proprietary and confidential information,
 including trade secrets, belonging to Gaussian, Inc.
  
 This software is provided under written license and may be
 used, copied, transmitted, or stored only in accord with that
 written license.
  
 The following legend is applicable only to US Government
 contracts under FAR:
  
                    RESTRICTED RIGHTS LEGEND
  
 Use, reproduction and disclosure by the US Government is
 subject to restrictions as set forth in subparagraphs (a)
 and (c) of the Commercial Computer Software - Restricted
 Rights clause in FAR 52.227-19.
  
 Gaussian, Inc.
 340 Quinnipiac St., Bldg. 40, Wallingford CT 06492
  
  
 ---------------------------------------------------------------
 Warning -- This program may not be used in any manner that
 competes with the business of Gaussian, Inc. or will provide
 assistance to any competitor of Gaussian, Inc.  The licensee
 of this program is prohibited from giving any competitor of
 Gaussian, Inc. access to this program.  By using this program,
 the user acknowledges that Gaussian, Inc. is engaged in the
 business of creating and licensing software in the field of
 computational chemistry and represents and warrants to the
 licensee that it is not a competitor of Gaussian, Inc. and that
 it will not use this program in any manner prohibited above.
 ---------------------------------------------------------------
  

 Cite this work as:
 Gaussian 09, Revision D.01,
 M. J. Frisch, G. W. Trucks, H. B. Schlegel, G. E. Scuseria, 
 M. A. Robb, J. R. Cheeseman, G. Scalmani, V. Barone, B. Mennucci, 
 G. A. Petersson, H. Nakatsuji, M. Caricato, X. Li, H. P. Hratchian, 
 A. F. Izmaylov, J. Bloino, G. Zheng, J. L. Sonnenberg, M. Hada, 
 M. Ehara, K. Toyota, R. Fukuda, J. Hasegawa, M. Ishida, T. Nakajima, 
 Y. Honda, O. Kitao, H. Nakai, T. Vreven, J. A. Montgomery, Jr., 
 J. E. Peralta, F. Ogliaro, M. Bearpark, J. J. Heyd, E. Brothers, 
 K. N. Kudin, V. N. Staroverov, T. Keith, R. Kobayashi, J. Normand, 
 K. Raghavachari, A. Rendell, J. C. Burant, S. S. Iyengar, J. Tomasi, 
 M. Cossi, N. Rega, J. M. Millam, M. Klene, J. E. Knox, J. B. Cross, 
 V. Bakken, C. Adamo, J. Jaramillo, R. Gomperts, R. E. Stratmann, 
 O. Yazyev, A. J. Austin, R. Cammi, C. Pomelli, J. W. Ochterski, 
 R. L. Martin, K. Morokuma, V. G. Zakrzewski, G. A. Voth, 
 P. Salvador, J. J. Dannenberg, S. Dapprich, A. D. Daniels, 
 O. Farkas, J. B. Foresman, J. V. Ortiz, J. Cioslowski, 
 and D. J. Fox, Gaussian, Inc., Wallingford CT, 2013.
 
 ******************************************
 Gaussian 09:  ES64L-G09RevD.01 24-Apr-2013
                 2-Feb-2020 
 ******************************************
 %NProcShared=20
 Will use up to   20 processors via shared memory.
 %mem=64GB
 %Chk=BS7breakTS.chk
 --------------------------------------------------
 #n opt=(ts,calcfc,noeigen) freq b3lyp/6-311+g(d,p)
 --------------------------------------------------
 1/5=1,10=4,11=1,14=-1,18=20,26=3,38=1/1,3;
 2/9=110,12=2,17=6,18=5,40=1/2;
 3/5=4,6=6,7=111,11=2,16=1,25=1,30=1,71=2,74=-5,140=1/1,2,3;
 4//1;
 5/5=2,38=5/2;
 8/6=4,10=90,11=11/1;
 11/6=1,8=1,9=11,15=111,16=1/1,2,10;
 10/6=1,13=1/2;
 6/7=2,8=2,9=2,10=2,28=1/1;
 7/10=1,18=20,25=1/1,2,3,16;
 1/5=1,10=4,11=1,14=-1,18=20,26=3/3(2);
 2/9=110/2;
 99//99;
 2/9=110/2;
 3/5=4,6=6,7=111,11=2,16=1,25=1,30=1,71=1,74=-5/1,2,3;
 4/5=5,16=3,69=1/1;
 5/5=2,38=5/2;
 7//1,2,3,16;
 1/5=1,11=1,14=-1,18=20,26=3/3(-5);
 2/9=110/2;
 6/7=2,8=2,9=2,10=2,19=2,28=1/1;
 99/9=1/99;
 ----------
 BS7breakTS
 ----------
 Symbolic Z-matrix:
 Charge =  0 Multiplicity = 3
 C                    -3.56636   0.66575  -0.18159 
 C                    -2.41445  -0.04719   0.1886 
 C                    -1.17062   0.64383   0.22043 
 C                    -1.11405   2.05849   0.2153 
 C                    -3.51528   2.10198  -0.14098 
 C                    -2.35062   2.77309   0.09877 
 C                    -0.00136  -0.16084   0.10104 
 C                     1.276     0.44839   0.03129 
 C                     1.32581   1.88472   0.15299 
 C                     0.15527   2.64942   0.2249 
 C                     2.5283   -0.27915  -0.14438 
 C                     3.76226   0.43515  -0.1113 
 C                     3.7603    1.86068   0.06046 
 C                     2.60059   2.54868   0.17025 
 C                     2.58652  -1.67276  -0.36603 
 C                     3.78989  -2.33388  -0.522 
 C                     5.00014  -1.62755  -0.46109 
 C                     4.97838  -0.26228  -0.26255 
 C                    -4.67398  -0.05424  -0.71345 
 C                    -4.54548  -1.41537  -0.96608 
 C                    -3.43414  -2.13898  -0.5314 
 C                    -2.37744  -1.51616   0.22229 
 C                    -0.38329  -1.54444   0.14139 
 H                    -3.42733  -3.21871  -0.63744 
 H                    -5.35113  -1.94221  -1.46646 
 H                    -5.57326   0.47878  -1.00087 
 H                    -4.42775   2.65425  -0.34138 
 H                    -2.33581   3.85769   0.11713 
 H                     0.24216   3.73118   0.24997 
 H                     2.60912   3.62811   0.27814 
 H                     4.71365   2.37777   0.0846 
 H                     5.9058    0.29986  -0.22654 
 H                     1.66428  -2.23498  -0.43834 
 H                     3.79476  -3.40379  -0.69733 
 H                     5.94334  -2.1491   -0.57795 
 C                    -0.55373  -2.39827   1.2754 
 C                    -1.89749  -2.35746   1.39815 
 H                     0.20458  -2.82349   1.92531 
 H                    -2.55336  -2.82482   2.12883 
 

 GradGradGradGradGradGradGradGradGradGradGradGradGradGradGradGradGradGrad
 Berny optimization.
 Initialization pass.
                           ----------------------------
                           !    Initial Parameters    !
                           ! (Angstroms and Degrees)  !
 --------------------------                            --------------------------
 ! Name  Definition              Value          Derivative Info.                !
 --------------------------------------------------------------------------------
 ! R1    R(1,2)                  1.4044         calculate D2E/DX2 analytically  !
 ! R2    R(1,5)                  1.4377         calculate D2E/DX2 analytically  !
 ! R3    R(1,19)                 1.4241         calculate D2E/DX2 analytically  !
 ! R4    R(2,3)                  1.4232         calculate D2E/DX2 analytically  !
 ! R5    R(2,22)                 1.4698         calculate D2E/DX2 analytically  !
 ! R6    R(3,4)                  1.4158         calculate D2E/DX2 analytically  !
 ! R7    R(3,7)                  1.4244         calculate D2E/DX2 analytically  !
 ! R8    R(4,6)                  1.4329         calculate D2E/DX2 analytically  !
 ! R9    R(4,10)                 1.4002         calculate D2E/DX2 analytically  !
 ! R10   R(5,6)                  1.3654         calculate D2E/DX2 analytically  !
 ! R11   R(5,27)                 1.0852         calculate D2E/DX2 analytically  !
 ! R12   R(6,28)                 1.0849         calculate D2E/DX2 analytically  !
 ! R13   R(7,8)                  1.4169         calculate D2E/DX2 analytically  !
 ! R14   R(7,23)                 1.4359         calculate D2E/DX2 analytically  !
 ! R15   R(8,9)                  1.4423         calculate D2E/DX2 analytically  !
 ! R16   R(8,11)                 1.4589         calculate D2E/DX2 analytically  !
 ! R17   R(9,10)                 1.4            calculate D2E/DX2 analytically  !
 ! R18   R(9,14)                 1.4374         calculate D2E/DX2 analytically  !
 ! R19   R(10,29)                1.0855         calculate D2E/DX2 analytically  !
 ! R20   R(11,12)                1.4262         calculate D2E/DX2 analytically  !
 ! R21   R(11,15)                1.4123         calculate D2E/DX2 analytically  !
 ! R22   R(12,13)                1.4358         calculate D2E/DX2 analytically  !
 ! R23   R(12,18)                1.41           calculate D2E/DX2 analytically  !
 ! R24   R(13,14)                1.3529         calculate D2E/DX2 analytically  !
 ! R25   R(13,31)                1.0848         calculate D2E/DX2 analytically  !
 ! R26   R(14,30)                1.0848         calculate D2E/DX2 analytically  !
 ! R27   R(15,16)                1.3818         calculate D2E/DX2 analytically  !
 ! R28   R(15,33)                1.0825         calculate D2E/DX2 analytically  !
 ! R29   R(16,17)                1.4026         calculate D2E/DX2 analytically  !
 ! R30   R(16,34)                1.0842         calculate D2E/DX2 analytically  !
 ! R31   R(17,18)                1.3798         calculate D2E/DX2 analytically  !
 ! R32   R(17,35)                1.0841         calculate D2E/DX2 analytically  !
 ! R33   R(18,32)                1.0851         calculate D2E/DX2 analytically  !
 ! R34   R(19,20)                1.3903         calculate D2E/DX2 analytically  !
 ! R35   R(19,26)                1.0842         calculate D2E/DX2 analytically  !
 ! R36   R(20,21)                1.3956         calculate D2E/DX2 analytically  !
 ! R37   R(20,25)                1.0849         calculate D2E/DX2 analytically  !
 ! R38   R(21,22)                1.4396         calculate D2E/DX2 analytically  !
 ! R39   R(21,24)                1.0849         calculate D2E/DX2 analytically  !
 ! R40   R(22,37)                1.5234         calculate D2E/DX2 analytically  !
 ! R41   R(23,36)                1.4297         calculate D2E/DX2 analytically  !
 ! R42   R(36,37)                1.35           calculate D2E/DX2 analytically  !
 ! R43   R(36,38)                1.0855         calculate D2E/DX2 analytically  !
 ! R44   R(37,39)                1.0874         calculate D2E/DX2 analytically  !
 ! A1    A(2,1,5)              118.0701         calculate D2E/DX2 analytically  !
 ! A2    A(2,1,19)             118.6684         calculate D2E/DX2 analytically  !
 ! A3    A(5,1,19)             122.904          calculate D2E/DX2 analytically  !
 ! A4    A(1,2,3)              118.4409         calculate D2E/DX2 analytically  !
 ! A5    A(1,2,22)             122.2804         calculate D2E/DX2 analytically  !
 ! A6    A(3,2,22)             117.563          calculate D2E/DX2 analytically  !
 ! A7    A(2,3,4)              121.3303         calculate D2E/DX2 analytically  !
 ! A8    A(2,3,7)              116.1831         calculate D2E/DX2 analytically  !
 ! A9    A(4,3,7)              122.0974         calculate D2E/DX2 analytically  !
 ! A10   A(3,4,6)              117.6523         calculate D2E/DX2 analytically  !
 ! A11   A(3,4,10)             117.2517         calculate D2E/DX2 analytically  !
 ! A12   A(6,4,10)             124.9178         calculate D2E/DX2 analytically  !
 ! A13   A(1,5,6)              121.7539         calculate D2E/DX2 analytically  !
 ! A14   A(1,5,27)             118.2471         calculate D2E/DX2 analytically  !
 ! A15   A(6,5,27)             119.9658         calculate D2E/DX2 analytically  !
 ! A16   A(4,6,5)              120.3481         calculate D2E/DX2 analytically  !
 ! A17   A(4,6,28)             119.0398         calculate D2E/DX2 analytically  !
 ! A18   A(5,6,28)             120.3987         calculate D2E/DX2 analytically  !
 ! A19   A(3,7,8)              120.083          calculate D2E/DX2 analytically  !
 ! A20   A(3,7,23)             108.8833         calculate D2E/DX2 analytically  !
 ! A21   A(8,7,23)             130.9553         calculate D2E/DX2 analytically  !
 ! A22   A(7,8,9)              117.0749         calculate D2E/DX2 analytically  !
 ! A23   A(7,8,11)             124.4258         calculate D2E/DX2 analytically  !
 ! A24   A(9,8,11)             118.4978         calculate D2E/DX2 analytically  !
 ! A25   A(8,9,10)             121.2911         calculate D2E/DX2 analytically  !
 ! A26   A(8,9,14)             119.4474         calculate D2E/DX2 analytically  !
 ! A27   A(10,9,14)            119.2461         calculate D2E/DX2 analytically  !
 ! A28   A(4,10,9)             121.808          calculate D2E/DX2 analytically  !
 ! A29   A(4,10,29)            119.5576         calculate D2E/DX2 analytically  !
 ! A30   A(9,10,29)            118.5917         calculate D2E/DX2 analytically  !
 ! A31   A(8,11,12)            119.3491         calculate D2E/DX2 analytically  !
 ! A32   A(8,11,15)            123.1176         calculate D2E/DX2 analytically  !
 ! A33   A(12,11,15)           117.5282         calculate D2E/DX2 analytically  !
 ! A34   A(11,12,13)           119.9237         calculate D2E/DX2 analytically  !
 ! A35   A(11,12,18)           119.7365         calculate D2E/DX2 analytically  !
 ! A36   A(13,12,18)           120.3361         calculate D2E/DX2 analytically  !
 ! A37   A(12,13,14)           121.0486         calculate D2E/DX2 analytically  !
 ! A38   A(12,13,31)           118.3397         calculate D2E/DX2 analytically  !
 ! A39   A(14,13,31)           120.6048         calculate D2E/DX2 analytically  !
 ! A40   A(9,14,13)            121.6237         calculate D2E/DX2 analytically  !
 ! A41   A(9,14,30)            117.8897         calculate D2E/DX2 analytically  !
 ! A42   A(13,14,30)           120.4863         calculate D2E/DX2 analytically  !
 ! A43   A(11,15,16)           121.7156         calculate D2E/DX2 analytically  !
 ! A44   A(11,15,33)           119.199          calculate D2E/DX2 analytically  !
 ! A45   A(16,15,33)           119.0704         calculate D2E/DX2 analytically  !
 ! A46   A(15,16,17)           120.3697         calculate D2E/DX2 analytically  !
 ! A47   A(15,16,34)           119.6232         calculate D2E/DX2 analytically  !
 ! A48   A(17,16,34)           120.0063         calculate D2E/DX2 analytically  !
 ! A49   A(16,17,18)           119.401          calculate D2E/DX2 analytically  !
 ! A50   A(16,17,35)           120.2488         calculate D2E/DX2 analytically  !
 ! A51   A(18,17,35)           120.3479         calculate D2E/DX2 analytically  !
 ! A52   A(12,18,17)           121.2278         calculate D2E/DX2 analytically  !
 ! A53   A(12,18,32)           118.5125         calculate D2E/DX2 analytically  !
 ! A54   A(17,18,32)           120.2585         calculate D2E/DX2 analytically  !
 ! A55   A(1,19,20)            119.4019         calculate D2E/DX2 analytically  !
 ! A56   A(1,19,26)            119.7078         calculate D2E/DX2 analytically  !
 ! A57   A(20,19,26)           120.6509         calculate D2E/DX2 analytically  !
 ! A58   A(19,20,21)           121.6426         calculate D2E/DX2 analytically  !
 ! A59   A(19,20,25)           119.379          calculate D2E/DX2 analytically  !
 ! A60   A(21,20,25)           118.8961         calculate D2E/DX2 analytically  !
 ! A61   A(20,21,22)           121.5509         calculate D2E/DX2 analytically  !
 ! A62   A(20,21,24)           119.3778         calculate D2E/DX2 analytically  !
 ! A63   A(22,21,24)           118.4963         calculate D2E/DX2 analytically  !
 ! A64   A(2,22,21)            113.6963         calculate D2E/DX2 analytically  !
 ! A65   A(2,22,37)            125.2785         calculate D2E/DX2 analytically  !
 ! A66   A(21,22,37)           113.3547         calculate D2E/DX2 analytically  !
 ! A67   A(7,23,36)            129.0094         calculate D2E/DX2 analytically  !
 ! A68   A(23,36,37)            99.9468         calculate D2E/DX2 analytically  !
 ! A69   A(23,36,38)           128.7244         calculate D2E/DX2 analytically  !
 ! A70   A(37,36,38)           130.7524         calculate D2E/DX2 analytically  !
 ! A71   A(22,37,36)           105.0766         calculate D2E/DX2 analytically  !
 ! A72   A(22,37,39)           124.4698         calculate D2E/DX2 analytically  !
 ! A73   A(36,37,39)           130.4266         calculate D2E/DX2 analytically  !
 ! D1    D(5,1,2,3)            -17.2932         calculate D2E/DX2 analytically  !
 ! D2    D(5,1,2,22)           178.0028         calculate D2E/DX2 analytically  !
 ! D3    D(19,1,2,3)           156.045          calculate D2E/DX2 analytically  !
 ! D4    D(19,1,2,22)           -8.6591         calculate D2E/DX2 analytically  !
 ! D5    D(2,1,5,6)              7.3963         calculate D2E/DX2 analytically  !
 ! D6    D(2,1,5,27)          -174.7            calculate D2E/DX2 analytically  !
 ! D7    D(19,1,5,6)          -165.6402         calculate D2E/DX2 analytically  !
 ! D8    D(19,1,5,27)           12.2635         calculate D2E/DX2 analytically  !
 ! D9    D(2,1,19,20)           -5.8379         calculate D2E/DX2 analytically  !
 ! D10   D(2,1,19,26)          179.7456         calculate D2E/DX2 analytically  !
 ! D11   D(5,1,19,20)          167.1591         calculate D2E/DX2 analytically  !
 ! D12   D(5,1,19,26)           -7.2574         calculate D2E/DX2 analytically  !
 ! D13   D(1,2,3,4)             15.6994         calculate D2E/DX2 analytically  !
 ! D14   D(1,2,3,7)           -157.2832         calculate D2E/DX2 analytically  !
 ! D15   D(22,2,3,4)          -178.8721         calculate D2E/DX2 analytically  !
 ! D16   D(22,2,3,7)             8.1453         calculate D2E/DX2 analytically  !
 ! D17   D(1,2,22,21)           18.2864         calculate D2E/DX2 analytically  !
 ! D18   D(1,2,22,37)         -128.9401         calculate D2E/DX2 analytically  !
 ! D19   D(3,2,22,21)         -146.5447         calculate D2E/DX2 analytically  !
 ! D20   D(3,2,22,37)           66.2287         calculate D2E/DX2 analytically  !
 ! D21   D(2,3,4,6)             -3.5317         calculate D2E/DX2 analytically  !
 ! D22   D(2,3,4,10)          -178.9221         calculate D2E/DX2 analytically  !
 ! D23   D(7,3,4,6)            169.0324         calculate D2E/DX2 analytically  !
 ! D24   D(7,3,4,10)            -6.358          calculate D2E/DX2 analytically  !
 ! D25   D(2,3,7,8)            175.7153         calculate D2E/DX2 analytically  !
 ! D26   D(2,3,7,23)            -7.1634         calculate D2E/DX2 analytically  !
 ! D27   D(4,3,7,8)              2.7913         calculate D2E/DX2 analytically  !
 ! D28   D(4,3,7,23)           179.9126         calculate D2E/DX2 analytically  !
 ! D29   D(3,4,6,5)             -6.7819         calculate D2E/DX2 analytically  !
 ! D30   D(3,4,6,28)           178.5038         calculate D2E/DX2 analytically  !
 ! D31   D(10,4,6,5)           168.2195         calculate D2E/DX2 analytically  !
 ! D32   D(10,4,6,28)           -6.4948         calculate D2E/DX2 analytically  !
 ! D33   D(3,4,10,9)             4.1452         calculate D2E/DX2 analytically  !
 ! D34   D(3,4,10,29)         -178.2656         calculate D2E/DX2 analytically  !
 ! D35   D(6,4,10,9)          -170.8744         calculate D2E/DX2 analytically  !
 ! D36   D(6,4,10,29)            6.7149         calculate D2E/DX2 analytically  !
 ! D37   D(1,5,6,4)              4.8947         calculate D2E/DX2 analytically  !
 ! D38   D(1,5,6,28)           179.5367         calculate D2E/DX2 analytically  !
 ! D39   D(27,5,6,4)          -172.9737         calculate D2E/DX2 analytically  !
 ! D40   D(27,5,6,28)            1.6683         calculate D2E/DX2 analytically  !
 ! D41   D(3,7,8,9)              2.9722         calculate D2E/DX2 analytically  !
 ! D42   D(3,7,8,11)          -177.4717         calculate D2E/DX2 analytically  !
 ! D43   D(23,7,8,9)          -173.4203         calculate D2E/DX2 analytically  !
 ! D44   D(23,7,8,11)            6.1359         calculate D2E/DX2 analytically  !
 ! D45   D(3,7,23,36)          -87.6081         calculate D2E/DX2 analytically  !
 ! D46   D(8,7,23,36)           89.0931         calculate D2E/DX2 analytically  !
 ! D47   D(7,8,9,10)            -5.161          calculate D2E/DX2 analytically  !
 ! D48   D(7,8,9,14)           176.2784         calculate D2E/DX2 analytically  !
 ! D49   D(11,8,9,10)          175.2556         calculate D2E/DX2 analytically  !
 ! D50   D(11,8,9,14)           -3.305          calculate D2E/DX2 analytically  !
 ! D51   D(7,8,11,12)         -175.867          calculate D2E/DX2 analytically  !
 ! D52   D(7,8,11,15)            4.9751         calculate D2E/DX2 analytically  !
 ! D53   D(9,8,11,12)            3.6833         calculate D2E/DX2 analytically  !
 ! D54   D(9,8,11,15)         -175.4746         calculate D2E/DX2 analytically  !
 ! D55   D(8,9,10,4)             1.5856         calculate D2E/DX2 analytically  !
 ! D56   D(8,9,10,29)         -176.0261         calculate D2E/DX2 analytically  !
 ! D57   D(14,9,10,4)         -179.8508         calculate D2E/DX2 analytically  !
 ! D58   D(14,9,10,29)           2.5374         calculate D2E/DX2 analytically  !
 ! D59   D(8,9,14,13)            0.7243         calculate D2E/DX2 analytically  !
 ! D60   D(8,9,14,30)         -179.0758         calculate D2E/DX2 analytically  !
 ! D61   D(10,9,14,13)        -177.8661         calculate D2E/DX2 analytically  !
 ! D62   D(10,9,14,30)           2.3338         calculate D2E/DX2 analytically  !
 ! D63   D(8,11,12,13)          -1.5341         calculate D2E/DX2 analytically  !
 ! D64   D(8,11,12,18)         179.1659         calculate D2E/DX2 analytically  !
 ! D65   D(15,11,12,13)        177.6705         calculate D2E/DX2 analytically  !
 ! D66   D(15,11,12,18)         -1.6294         calculate D2E/DX2 analytically  !
 ! D67   D(8,11,15,16)        -179.6695         calculate D2E/DX2 analytically  !
 ! D68   D(8,11,15,33)           1.753          calculate D2E/DX2 analytically  !
 ! D69   D(12,11,15,16)          1.1582         calculate D2E/DX2 analytically  !
 ! D70   D(12,11,15,33)       -177.4193         calculate D2E/DX2 analytically  !
 ! D71   D(11,12,13,14)         -1.1191         calculate D2E/DX2 analytically  !
 ! D72   D(11,12,13,31)        179.8351         calculate D2E/DX2 analytically  !
 ! D73   D(18,12,13,14)        178.1765         calculate D2E/DX2 analytically  !
 ! D74   D(18,12,13,31)         -0.8692         calculate D2E/DX2 analytically  !
 ! D75   D(11,12,18,17)          0.883          calculate D2E/DX2 analytically  !
 ! D76   D(11,12,18,32)       -179.534          calculate D2E/DX2 analytically  !
 ! D77   D(13,12,18,17)       -178.414          calculate D2E/DX2 analytically  !
 ! D78   D(13,12,18,32)          1.169          calculate D2E/DX2 analytically  !
 ! D79   D(12,13,14,9)           1.5396         calculate D2E/DX2 analytically  !
 ! D80   D(12,13,14,30)       -178.6654         calculate D2E/DX2 analytically  !
 ! D81   D(31,13,14,9)        -179.4362         calculate D2E/DX2 analytically  !
 ! D82   D(31,13,14,30)          0.3587         calculate D2E/DX2 analytically  !
 ! D83   D(11,15,16,17)          0.1008         calculate D2E/DX2 analytically  !
 ! D84   D(11,15,16,34)       -179.5869         calculate D2E/DX2 analytically  !
 ! D85   D(33,15,16,17)        178.6801         calculate D2E/DX2 analytically  !
 ! D86   D(33,15,16,34)         -1.0076         calculate D2E/DX2 analytically  !
 ! D87   D(15,16,17,18)         -0.9034         calculate D2E/DX2 analytically  !
 ! D88   D(15,16,17,35)        179.6424         calculate D2E/DX2 analytically  !
 ! D89   D(34,16,17,18)        178.7831         calculate D2E/DX2 analytically  !
 ! D90   D(34,16,17,35)         -0.6711         calculate D2E/DX2 analytically  !
 ! D91   D(16,17,18,12)          0.4036         calculate D2E/DX2 analytically  !
 ! D92   D(16,17,18,32)       -179.1722         calculate D2E/DX2 analytically  !
 ! D93   D(35,17,18,12)        179.8573         calculate D2E/DX2 analytically  !
 ! D94   D(35,17,18,32)          0.2815         calculate D2E/DX2 analytically  !
 ! D95   D(1,19,20,21)           9.6938         calculate D2E/DX2 analytically  !
 ! D96   D(1,19,20,25)        -173.6431         calculate D2E/DX2 analytically  !
 ! D97   D(26,19,20,21)       -175.9435         calculate D2E/DX2 analytically  !
 ! D98   D(26,19,20,25)          0.7195         calculate D2E/DX2 analytically  !
 ! D99   D(19,20,21,22)          1.1871         calculate D2E/DX2 analytically  !
 ! D100  D(19,20,21,24)        172.3597         calculate D2E/DX2 analytically  !
 ! D101  D(25,20,21,22)       -175.4915         calculate D2E/DX2 analytically  !
 ! D102  D(25,20,21,24)         -4.3189         calculate D2E/DX2 analytically  !
 ! D103  D(20,21,22,2)         -14.4382         calculate D2E/DX2 analytically  !
 ! D104  D(20,21,22,37)        136.7886         calculate D2E/DX2 analytically  !
 ! D105  D(24,21,22,2)         174.3139         calculate D2E/DX2 analytically  !
 ! D106  D(24,21,22,37)        -34.4594         calculate D2E/DX2 analytically  !
 ! D107  D(2,22,37,36)         -82.9289         calculate D2E/DX2 analytically  !
 ! D108  D(2,22,37,39)          98.7924         calculate D2E/DX2 analytically  !
 ! D109  D(21,22,37,36)        129.749          calculate D2E/DX2 analytically  !
 ! D110  D(21,22,37,39)        -48.5297         calculate D2E/DX2 analytically  !
 ! D111  D(7,23,36,37)          99.7383         calculate D2E/DX2 analytically  !
 ! D112  D(7,23,36,38)         -72.2028         calculate D2E/DX2 analytically  !
 ! D113  D(23,36,37,22)          3.391          calculate D2E/DX2 analytically  !
 ! D114  D(23,36,37,39)       -178.4733         calculate D2E/DX2 analytically  !
 ! D115  D(38,36,37,22)        175.0897         calculate D2E/DX2 analytically  !
 ! D116  D(38,36,37,39)         -6.7746         calculate D2E/DX2 analytically  !
 --------------------------------------------------------------------------------
 Trust Radius=3.00D-01 FncErr=1.00D-07 GrdErr=1.00D-06
 Number of steps in this run=    234 maximum allowed number of steps=    234.
 Search for a saddle point of order  1.
 GradGradGradGradGradGradGradGradGradGradGradGradGradGradGradGradGradGrad

                          Input orientation:                          
 ---------------------------------------------------------------------
 Center     Atomic      Atomic             Coordinates (Angstroms)
 Number     Number       Type             X           Y           Z
 ---------------------------------------------------------------------
      1          6           0       -3.566360    0.665750   -0.181590
      2          6           0       -2.414450   -0.047190    0.188600
      3          6           0       -1.170620    0.643830    0.220430
      4          6           0       -1.114050    2.058490    0.215300
      5          6           0       -3.515280    2.101980   -0.140980
      6          6           0       -2.350620    2.773090    0.098770
      7          6           0       -0.001360   -0.160840    0.101040
      8          6           0        1.276000    0.448390    0.031290
      9          6           0        1.325810    1.884720    0.152990
     10          6           0        0.155270    2.649420    0.224900
     11          6           0        2.528300   -0.279150   -0.144380
     12          6           0        3.762260    0.435150   -0.111300
     13          6           0        3.760300    1.860680    0.060460
     14          6           0        2.600590    2.548680    0.170250
     15          6           0        2.586520   -1.672760   -0.366030
     16          6           0        3.789890   -2.333880   -0.522000
     17          6           0        5.000140   -1.627550   -0.461090
     18          6           0        4.978380   -0.262280   -0.262550
     19          6           0       -4.673980   -0.054240   -0.713450
     20          6           0       -4.545480   -1.415370   -0.966080
     21          6           0       -3.434140   -2.138980   -0.531400
     22          6           0       -2.377440   -1.516160    0.222290
     23          6           0       -0.383290   -1.544440    0.141390
     24          1           0       -3.427330   -3.218710   -0.637440
     25          1           0       -5.351130   -1.942210   -1.466460
     26          1           0       -5.573260    0.478780   -1.000870
     27          1           0       -4.427750    2.654250   -0.341380
     28          1           0       -2.335810    3.857690    0.117130
     29          1           0        0.242160    3.731180    0.249970
     30          1           0        2.609120    3.628110    0.278140
     31          1           0        4.713650    2.377770    0.084600
     32          1           0        5.905800    0.299860   -0.226540
     33          1           0        1.664280   -2.234980   -0.438340
     34          1           0        3.794760   -3.403790   -0.697330
     35          1           0        5.943340   -2.149100   -0.577950
     36          6           0       -0.553730   -2.398270    1.275400
     37          6           0       -1.897490   -2.357460    1.398150
     38          1           0        0.204580   -2.823490    1.925310
     39          1           0       -2.553360   -2.824820    2.128830
 ---------------------------------------------------------------------
                    Distance matrix (angstroms):
                    1          2          3          4          5
     1  C    0.000000
     2  C    1.404358   0.000000
     3  C    2.429335   1.423248   0.000000
     4  C    2.847994   2.475003   1.415800   0.000000
     5  C    1.437712   2.437085   2.784645   2.427907   0.000000
     6  C    2.448981   2.822432   2.437406   1.432947   1.365394
     7  C    3.670471   2.417351   1.424400   2.485269   4.186474
     8  C    4.851908   3.726898   2.461691   2.887667   5.071528
     9  C    5.052837   4.209880   2.788641   2.446834   4.854871
    10  C    4.236828   3.725115   2.404245   1.400166   3.729141
    11  C    6.167585   4.959381   3.829750   4.342884   6.495741
    12  C    7.332584   6.202769   4.948424   5.149786   7.466043
    13  C    7.427408   6.464049   5.081367   4.880819   7.282367
    14  C    6.457592   5.647079   4.225281   3.747114   6.140055
    15  C    6.584875   5.287702   4.452710   5.287191   7.178529
    16  C    7.951608   6.650394   5.833063   6.624587   8.554972
    17  C    8.872557   7.608928   6.610742   7.171312   9.301841
    18  C    8.595369   7.409705   6.234140   6.536973   8.817413
    19  C    1.424108   2.432945   3.692285   4.242559   2.513880
    20  C    2.430054   2.783252   4.127686   5.023751   3.756841
    21  C    2.829551   2.435930   3.665079   4.853775   4.259666
    22  C    2.517416   1.469822   2.474262   3.791349   3.810194
    23  C    3.888598   2.523806   2.326943   3.677034   4.815130
    24  H    3.913586   3.430278   4.554986   5.824712   5.344525
    25  H    3.411415   3.867094   5.197102   6.065209   4.634945
    26  H    2.175736   3.416074   4.571876   4.884578   2.758527
    27  H    2.172938   3.410577   3.868632   3.412540   1.085248
    28  H    3.433943   3.906326   3.420122   2.177029   2.130795
    29  H    4.907946   4.619245   3.395372   2.153694   4.114060
    30  H    6.864655   6.225119   4.816191   4.040996   6.325584
    31  H    8.459340   7.530010   6.135930   5.837903   8.236640
    32  H    9.479331   8.337826   7.098860   7.250262   9.592273
    33  H    5.986631   4.670708   4.093676   5.155604   6.762062
    34  H    8.426935   7.113784   6.471515   7.400393   9.168408
    35  H    9.925466   8.652068   7.684159   8.254684  10.379216
    36  C    4.537288   3.189199   3.278397   4.615244   5.570382
    37  C    3.797434   2.658497   3.305012   4.638268   4.987261
    38  H    5.552820   4.193247   4.101231   5.338225   6.509007
    39  H    4.306772   3.391020   4.193506   5.438743   5.509146
                    6          7          8          9         10
     6  C    0.000000
     7  C    3.758587   0.000000
     8  C    4.308266   1.416924   0.000000
     9  C    3.782629   2.438933   1.442337   0.000000
    10  C    2.512108   2.817345   2.477510   1.400036   0.000000
    11  C    5.760135   2.544289   1.458914   2.493340   3.787369
    12  C    6.548083   3.816429   2.490381   2.847348   4.245751
    13  C    6.178778   4.270629   2.857824   2.436366   3.693967
    14  C    4.956808   3.757184   2.486979   1.437430   2.448004
    15  C    6.660103   3.033345   2.524798   3.809782   4.994138
    16  C    8.010765   4.414052   3.790356   4.931925   6.213019
    17  C    8.585613   5.242350   4.291991   5.119945   6.498909
    18  C    7.940923   4.994026   3.781403   4.257176   5.654909
    19  C    3.748533   4.744274   6.017436   6.364571   5.613549
    20  C    4.847114   4.833386   6.193382   6.827515   6.327559
    21  C    5.069473   4.012106   5.403381   6.270221   6.031967
    22  C    4.291112   2.738129   4.152537   5.028404   4.875109
    23  C    4.744815   1.435914   2.595522   3.831487   4.229123
    24  H    6.132127   4.651150   6.001344   7.018698   6.929185
    25  H    5.804055   5.852382   7.202574   7.864448   7.366424
    26  H    4.105907   5.715714   6.926662   7.134790   6.247419
    27  H    2.126576   5.264351   6.126783   5.825807   4.617875
    28  H    1.084856   4.647419   4.967481   4.159490   2.770742
    29  H    2.768268   3.902474   3.448675   2.143156   1.085534
    30  H    5.036095   4.604575   3.456698   2.168399   2.642357
    31  H    7.075337   5.355010   3.942434   3.424213   4.568622
    32  H    8.625031   5.934146   4.639352   4.861289   6.228389
    33  H    6.441170   2.714285   2.751688   4.175663   5.155033
    34  H    8.749475   5.056149   4.659864   5.898059   7.123043
    35  H    9.668282   6.305051   5.376076   6.174752   7.561225
    36  C    5.599664   2.586567   3.605440   4.810039   5.204364
    37  C    5.311898   3.178513   4.451083   5.471396   5.537074
    38  H    6.417710   3.234204   3.929434   5.154175   5.731193
    39  H    5.958091   4.209682   5.456883   6.413398   6.397572
                   11         12         13         14         15
    11  C    0.000000
    12  C    1.426175   0.000000
    13  C    2.477631   1.435842   0.000000
    14  C    2.846198   2.428118   1.352895   0.000000
    15  C    1.412327   2.427043   3.747646   4.255391   0.000000
    16  C    2.440517   2.799458   4.234911   5.072774   1.381849
    17  C    2.833457   2.430932   3.738578   4.857708   2.415914
    18  C    2.452986   1.410047   2.468808   3.707114   2.778697
    19  C    7.228227   8.471849   8.683486   7.776599   7.446823
    20  C    7.211418   8.554158   8.987339   8.250531   7.161825
    21  C    6.257751   7.654463   8.252730   7.673619   6.040948
    22  C    5.072566   6.450954   7.007217   6.427007   5.001154
    23  C    3.187472   4.600893   5.363835   5.065373   3.015578
    24  H    6.659854   8.081938   8.828890   8.381585   6.215305
    25  H    8.160826   9.515365   9.990576   9.277756   8.018094
    26  H    8.181889   9.377909   9.494810   8.512804   8.462515
    27  H    7.551839   8.488440   8.236224   7.047728   8.241578
    28  H    6.390728   6.996600   6.415124   5.107286   7.419478
    29  H    4.633001   4.835849   3.988984   2.639480   5.922672
    30  H    3.930870   3.417073   2.120474   1.084842   5.339915
    31  H    3.447812   2.171933   1.084823   2.121690   4.597232
    32  H    3.427756   2.150895   2.668651   4.017343   3.863717
    33  H    2.158290   3.411461   4.627800   4.912277   1.082519
    34  H    3.416585   3.883548   5.318842   6.132751   2.136836
    35  H    3.917550   3.413681   4.609942   5.814028   3.397065
    36  C    4.000669   5.345931   6.182685   5.970210   3.616881
    37  C    5.127025   6.489213   7.182806   6.768358   4.866980
    38  H    4.019572   5.236755   6.169462   6.138510   3.499722
    39  H    6.121371   7.452023   8.129844   7.698944   5.828373
                   16         17         18         19         20
    16  C    0.000000
    17  C    1.402611   0.000000
    18  C    2.402363   1.379802   0.000000
    19  C    8.767583   9.804468   9.665125   0.000000
    20  C    8.397575   9.561323   9.619173   1.390327   0.000000
    21  C    7.226665   8.450064   8.623501   2.432383   1.395577
    22  C    6.265668   7.410000   7.477658   2.878700   2.474425
    23  C    4.298690   5.417676   5.527622   4.621847   4.308941
    24  H    7.272174   8.578178   8.918351   3.402026   2.147161
    25  H    9.198025  10.404738  10.534246   2.142425   1.084902
    26  H    9.788205  10.794664  10.603367   1.084170   2.155307
    27  H    9.614763  10.355349   9.848230   2.744992   4.118970
    28  H    8.733168   9.178146   8.403314   4.632505   5.819033
    29  H    7.068754   7.201386   6.216283   6.279014   7.133530
    30  H    6.130234   5.821117   4.587033   8.221101   8.841554
    31  H    4.839519   4.052461   2.675903   9.730321  10.060980
    32  H    3.391306   2.142462   1.085083  10.596896  10.616882
    33  H    2.129553   3.390789   3.860791   6.708566   6.285809
    34  H    1.084192   2.159578   3.385126   9.107102   8.578208
    35  H    2.162087   1.084111   2.142595  10.822859  10.521613
    36  C    4.701258   5.869828   6.126335   5.140667   4.682349
    37  C    6.002818   7.181006   7.377350   4.180021   3.672733
    38  H    4.368466   5.488404   5.842576   6.199367   5.736376
    39  H    6.892368   8.074435   8.307371   4.500189   3.941264
                   21         22         23         24         25
    21  C    0.000000
    22  C    1.439642   0.000000
    23  C    3.180222   1.995991   0.000000
    24  H    1.084946   2.177173   3.560328   0.000000
    25  H    2.141940   3.446190   5.236682   2.453107   0.000000
    26  H    3.413049   3.960956   5.686296   4.290516   2.475340
    27  H    4.898818   4.681219   5.849762   5.964910   4.821398
    28  H    6.130821   5.375040   5.744209   7.199738   6.725976
    29  H    6.970258   5.864951   5.313675   7.909085   8.149747
    30  H    8.392596   7.164664   5.977331   9.173656   9.871052
    31  H    9.336325   8.091057   6.431621   9.905427  11.061998
    32  H    9.657917   8.491846   6.564257   9.982810  11.544815
    33  H    5.100173   4.157960   2.237292   5.189591   7.096388
    34  H    7.340591   6.519578   4.649380   7.224709   9.293820
    35  H    9.377601   8.383101   6.396039   9.431705  11.331254
    36  C    3.410061   2.283216   1.429704   3.548190   5.544442
    37  C    2.476326   1.523412   2.129143   2.688083   4.506224
    38  H    4.443451   3.358008   2.272428   4.462584   6.568613
    39  H    2.884956   2.319145   3.209127   2.927665   4.640326
                   26         27         28         29         30
    26  H    0.000000
    27  H    2.545543   0.000000
    28  H    4.811241   2.456565   0.000000
    29  H    6.779514   4.828823   2.584488   0.000000
    30  H    8.860332   7.130901   4.952874   2.369371   0.000000
    31  H   10.516888   9.155495   7.203201   4.674750   2.455576
    32  H   11.506538  10.598990   8.983340   6.639114   4.711693
    33  H    7.750027   7.811965   7.309576   6.171812   5.981797
    34  H   10.145259  10.219404   9.538151   8.026590   7.197562
    35  H   11.820181  11.431870  10.252267   8.232047   6.725033
    36  C    6.217275   6.568863   6.607150   6.265389   6.878619
    37  C    5.225977   5.877535   6.360914   6.554995   7.575685
    38  H    7.269866   7.523430   7.373009   6.765491   7.079416
    39  H    5.461556   6.295672   6.982135   7.370630   8.468563
                   31         32         33         34         35
    31  H    0.000000
    32  H    2.415728   0.000000
    33  H    5.554240   4.945783   0.000000
    34  H    5.906116   4.288957   2.443796   0.000000
    35  H    4.737474   2.474329   4.282198   2.490963   0.000000
    36  C    7.209289   7.159697   2.807692   4.879764   6.760837
    37  C    8.237414   8.401923   4.009227   6.155287   8.088696
    38  H    7.125520   6.847604   2.839702   4.483791   6.297180
    39  H    9.168165   9.320342   4.972601   6.972877   8.942995
                   36         37         38         39
    36  C    0.000000
    37  C    1.349972   0.000000
    38  H    1.085463   2.216705   0.000000
    39  H    2.215583   1.087421   2.765439   0.000000
 Stoichiometry    C25H14(3)
 Framework group  C1[X(C25H14)]
 Deg. of freedom   111
 Full point group                 C1      NOp   1
 Largest Abelian subgroup         C1      NOp   1
 Largest concise Abelian subgroup C1      NOp   1
                         Standard orientation:                         
 ---------------------------------------------------------------------
 Center     Atomic      Atomic             Coordinates (Angstroms)
 Number     Number       Type             X           Y           Z
 ---------------------------------------------------------------------
      1          6           0       -3.566360    0.665750   -0.181591
      2          6           0       -2.414450   -0.047190    0.188599
      3          6           0       -1.170620    0.643829    0.220429
      4          6           0       -1.114050    2.058489    0.215299
      5          6           0       -3.515280    2.101980   -0.140981
      6          6           0       -2.350619    2.773090    0.098769
      7          6           0       -0.001360   -0.160841    0.101039
      8          6           0        1.276000    0.448388    0.031289
      9          6           0        1.325810    1.884718    0.152989
     10          6           0        0.155271    2.649419    0.224899
     11          6           0        2.528299   -0.279152   -0.144381
     12          6           0        3.762260    0.435147   -0.111301
     13          6           0        3.760300    1.860677    0.060459
     14          6           0        2.600591    2.548678    0.170249
     15          6           0        2.586519   -1.672762   -0.366031
     16          6           0        3.789889   -2.333883   -0.522001
     17          6           0        5.000139   -1.627553   -0.461091
     18          6           0        4.978379   -0.262283   -0.262551
     19          6           0       -4.673980   -0.054239   -0.713451
     20          6           0       -4.545481   -1.415369   -0.966081
     21          6           0       -3.434141   -2.138980   -0.531401
     22          6           0       -2.377441   -1.516160    0.222289
     23          6           0       -0.383291   -1.544441    0.141389
     24          1           0       -3.427332   -3.218710   -0.637441
     25          1           0       -5.351131   -1.942209   -1.466461
     26          1           0       -5.573260    0.478781   -1.000871
     27          1           0       -4.427749    2.654250   -0.341381
     28          1           0       -2.335809    3.857690    0.117129
     29          1           0        0.242161    3.731179    0.249969
     30          1           0        2.609121    3.628108    0.278139
     31          1           0        4.713650    2.377767    0.084599
     32          1           0        5.905800    0.299856   -0.226541
     33          1           0        1.664279   -2.234982   -0.438341
     34          1           0        3.794758   -3.403793   -0.697331
     35          1           0        5.943339   -2.149104   -0.577951
     36          6           0       -0.553731   -2.398271    1.275399
     37          6           0       -1.897491   -2.357460    1.398149
     38          1           0        0.204578   -2.823491    1.925309
     39          1           0       -2.553362   -2.824820    2.128829
 ---------------------------------------------------------------------
 Rotational constants (GHZ):      0.4774844      0.1721114      0.1324882
 Standard basis: 6-311+G(d,p) (5D, 7F)
 There are   659 symmetry adapted cartesian basis functions of A   symmetry.
 There are   634 symmetry adapted basis functions of A   symmetry.
   634 basis functions,  1012 primitive gaussians,   659 cartesian basis functions
    83 alpha electrons       81 beta electrons
       nuclear repulsion energy      1922.4848318222 Hartrees.
 NAtoms=   39 NActive=   39 NUniq=   39 SFac= 1.00D+00 NAtFMM=   60 NAOKFM=F Big=F
 Integral buffers will be    131072 words long.
 Raffenetti 2 integral format.
 Two-electron integral symmetry is turned on.
 One-electron integrals computed using PRISM.
 NBasis=   634 RedAO= T EigKep=  1.09D-06  NBF=   634
 NBsUse=   621 1.00D-06 EigRej=  7.77D-07 NBFU=   621
 ExpMin= 4.38D-02 ExpMax= 4.56D+03 ExpMxC= 6.82D+02 IAcc=2 IRadAn=         4 AccDes= 0.00D+00
 Harris functional with IExCor=  402 and IRadAn=       4 diagonalized for initial guess.
 HarFok:  IExCor=  402 AccDes= 0.00D+00 IRadAn=         4 IDoV= 1 UseB2=F ITyADJ=14
 ICtDFT=  3500011 ScaDFX=  1.000000  1.000000  1.000000  1.000000
 FoFCou: FMM=F IPFlag=           0 FMFlag=      100000 FMFlg1=           0
         NFxFlg=           0 DoJE=T BraDBF=F KetDBF=T FulRan=T
         wScrn=  0.000000 ICntrl=     500 IOpCl=  0 I1Cent=   200000004 NGrid=           0
         NMat0=    1 NMatS0=      1 NMatT0=    0 NMatD0=    1 NMtDS0=    0 NMtDT0=    0
 Petite list used in FoFCou.
 Initial guess <Sx>= 0.0000 <Sy>= 0.0000 <Sz>= 1.0000 <S**2>= 2.0000 S= 1.0000
 Requested convergence on RMS density matrix=1.00D-08 within 128 cycles.
 Requested convergence on MAX density matrix=1.00D-06.
 Requested convergence on             energy=1.00D-06.
 No special actions if energy rises.
 Restarting incremental Fock formation.
 SCF Done:  E(UB3LYP) =  -961.166314025     A.U. after   26 cycles
            NFock= 26  Conv=0.51D-08     -V/T= 2.0045
 <Sx>= 0.0000 <Sy>= 0.0000 <Sz>= 1.0000 <S**2>= 2.0696 S= 1.0230
 <L.S>= 0.000000000000E+00
 Annihilation of the first spin contaminant:
 S**2 before annihilation     2.0696,   after     2.0027
 DoSCS=F DFT=T ScalE2(SS,OS)=  1.000000  1.000000
 Range of M.O.s used for correlation:     1   621
 NBasis=   634 NAE=    83 NBE=    81 NFC=     0 NFV=     0
 NROrb=    621 NOA=    83 NOB=    81 NVA=   538 NVB=   540

 **** Warning!!: The largest alpha MO coefficient is  0.15340318D+03


 **** Warning!!: The largest beta MO coefficient is  0.15629407D+03


 **** Warning!!: The smallest beta delta epsilon is  0.91174617D-01

 Symmetrizing basis deriv contribution to polar:
 IMax=3 JMax=2 DiffMx= 0.00D+00
 G2DrvN: will do    40 centers at a time, making    1 passes.
 Calling FoFCou, ICntrl=  3107 FMM=F I1Cent=   0 AccDes= 0.00D+00.
 End of G2Drv F.D. properties file   721 does not exist.
 End of G2Drv F.D. properties file   722 does not exist.
 End of G2Drv F.D. properties file   788 does not exist.
          IDoAtm=111111111111111111111111111111111111111
          Differentiating once with respect to nuclear coordinates.
          There are   120 degrees of freedom in the 1st order CPHF.  IDoFFX=6 NUNeed=     0.
    116 vectors produced by pass  0 Test12= 8.84D-14 1.00D-09 XBig12= 6.09D-01 2.24D-01.
 AX will form   116 AO Fock derivatives at one time.
    114 vectors produced by pass  1 Test12= 8.84D-14 1.00D-09 XBig12= 9.77D-02 6.77D-02.
    114 vectors produced by pass  2 Test12= 8.84D-14 1.00D-09 XBig12= 3.90D-03 8.99D-03.
    114 vectors produced by pass  3 Test12= 8.84D-14 1.00D-09 XBig12= 6.24D-05 7.99D-04.
    114 vectors produced by pass  4 Test12= 8.84D-14 1.00D-09 XBig12= 5.55D-07 6.05D-05.
    114 vectors produced by pass  5 Test12= 8.84D-14 1.00D-09 XBig12= 4.31D-09 3.23D-06.
    114 vectors produced by pass  6 Test12= 8.84D-14 1.00D-09 XBig12= 9.94D-11 8.32D-07.
    114 vectors produced by pass  7 Test12= 8.84D-14 1.00D-09 XBig12= 2.85D-11 3.63D-07.
    114 vectors produced by pass  8 Test12= 8.84D-14 1.00D-09 XBig12= 3.19D-12 9.22D-08.
     97 vectors produced by pass  9 Test12= 8.84D-14 1.00D-09 XBig12= 5.86D-14 1.26D-08.
     49 vectors produced by pass 10 Test12= 8.84D-14 1.00D-09 XBig12= 1.29D-15 1.67D-09.
     29 vectors produced by pass 11 Test12= 8.84D-14 1.00D-09 XBig12= 7.65D-16 1.42D-09.
     29 vectors produced by pass 12 Test12= 8.84D-14 1.00D-09 XBig12= 9.37D-14 1.80D-08.
     29 vectors produced by pass 13 Test12= 8.84D-14 1.00D-09 XBig12= 3.40D-13 2.69D-08.
     29 vectors produced by pass 14 Test12= 8.84D-14 1.00D-09 XBig12= 4.63D-13 3.35D-08.
     29 vectors produced by pass 15 Test12= 8.84D-14 1.00D-09 XBig12= 3.46D-13 2.53D-08.
     29 vectors produced by pass 16 Test12= 8.84D-14 1.00D-09 XBig12= 9.42D-14 1.56D-08.
     29 vectors produced by pass 17 Test12= 8.84D-14 1.00D-09 XBig12= 2.14D-13 1.96D-08.
     29 vectors produced by pass 18 Test12= 8.84D-14 1.00D-09 XBig12= 1.44D-13 2.06D-08.
     29 vectors produced by pass 19 Test12= 8.84D-14 1.00D-09 XBig12= 1.96D-13 1.78D-08.
     29 vectors produced by pass 20 Test12= 8.84D-14 1.00D-09 XBig12= 1.60D-13 1.89D-08.
     29 vectors produced by pass 21 Test12= 8.84D-14 1.00D-09 XBig12= 3.59D-13 2.74D-08.
     29 vectors produced by pass 22 Test12= 8.84D-14 1.00D-09 XBig12= 1.13D-13 1.53D-08.
     29 vectors produced by pass 23 Test12= 8.84D-14 1.00D-09 XBig12= 2.02D-13 1.87D-08.
     29 vectors produced by pass 24 Test12= 8.84D-14 1.00D-09 XBig12= 5.95D-14 1.09D-08.
     29 vectors produced by pass 25 Test12= 8.84D-14 1.00D-09 XBig12= 3.12D-13 2.44D-08.
     29 vectors produced by pass 26 Test12= 8.84D-14 1.00D-09 XBig12= 1.55D-13 1.65D-08.
     29 vectors produced by pass 27 Test12= 8.84D-14 1.00D-09 XBig12= 1.32D-13 1.42D-08.
     29 vectors produced by pass 28 Test12= 8.84D-14 1.00D-09 XBig12= 1.29D-13 1.47D-08.
     29 vectors produced by pass 29 Test12= 8.84D-14 1.00D-09 XBig12= 1.27D-13 1.40D-08.
     29 vectors produced by pass 30 Test12= 8.84D-14 1.00D-09 XBig12= 1.78D-13 1.81D-08.
     29 vectors produced by pass 31 Test12= 8.84D-14 1.00D-09 XBig12= 1.13D-13 1.24D-08.
     29 vectors produced by pass 32 Test12= 8.84D-14 1.00D-09 XBig12= 8.93D-14 1.15D-08.
     29 vectors produced by pass 33 Test12= 8.84D-14 1.00D-09 XBig12= 1.53D-13 1.69D-08.
     27 vectors produced by pass 34 Test12= 8.84D-14 1.00D-09 XBig12= 9.06D-14 1.25D-08.
     27 vectors produced by pass 35 Test12= 8.84D-14 1.00D-09 XBig12= 1.67D-13 1.52D-08.
     23 vectors produced by pass 36 Test12= 8.84D-14 1.00D-09 XBig12= 6.43D-14 9.14D-09.
     22 vectors produced by pass 37 Test12= 8.84D-14 1.00D-09 XBig12= 5.65D-14 8.54D-09.
     21 vectors produced by pass 38 Test12= 8.84D-14 1.00D-09 XBig12= 3.41D-14 6.43D-09.
     21 vectors produced by pass 39 Test12= 8.84D-14 1.00D-09 XBig12= 6.14D-14 9.54D-09.
     21 vectors produced by pass 40 Test12= 8.84D-14 1.00D-09 XBig12= 7.01D-14 9.62D-09.
     21 vectors produced by pass 41 Test12= 8.84D-14 1.00D-09 XBig12= 5.12D-14 9.01D-09.
     21 vectors produced by pass 42 Test12= 8.84D-14 1.00D-09 XBig12= 1.24D-13 1.49D-08.
     21 vectors produced by pass 43 Test12= 8.84D-14 1.00D-09 XBig12= 6.86D-14 9.54D-09.
     21 vectors produced by pass 44 Test12= 8.84D-14 1.00D-09 XBig12= 8.46D-14 1.16D-08.
     21 vectors produced by pass 45 Test12= 8.84D-14 1.00D-09 XBig12= 6.92D-14 1.08D-08.
     21 vectors produced by pass 46 Test12= 8.84D-14 1.00D-09 XBig12= 6.29D-14 8.44D-09.
     21 vectors produced by pass 47 Test12= 8.84D-14 1.00D-09 XBig12= 9.86D-14 1.17D-08.
     19 vectors produced by pass 48 Test12= 8.84D-14 1.00D-09 XBig12= 2.87D-14 5.61D-09.
     19 vectors produced by pass 49 Test12= 8.84D-14 1.00D-09 XBig12= 4.40D-14 8.13D-09.
     19 vectors produced by pass 50 Test12= 8.84D-14 1.00D-09 XBig12= 9.71D-14 1.17D-08.
     19 vectors produced by pass 51 Test12= 8.84D-14 1.00D-09 XBig12= 3.96D-14 6.59D-09.
     17 vectors produced by pass 52 Test12= 8.84D-14 1.00D-09 XBig12= 2.01D-14 5.19D-09.
     17 vectors produced by pass 53 Test12= 8.84D-14 1.00D-09 XBig12= 3.72D-14 6.47D-09.
     17 vectors produced by pass 54 Test12= 8.84D-14 1.00D-09 XBig12= 5.62D-14 8.54D-09.
     17 vectors produced by pass 55 Test12= 8.84D-14 1.00D-09 XBig12= 3.96D-14 7.29D-09.
     17 vectors produced by pass 56 Test12= 8.84D-14 1.00D-09 XBig12= 4.51D-14 8.06D-09.
     15 vectors produced by pass 57 Test12= 8.84D-14 1.00D-09 XBig12= 1.42D-14 4.30D-09.
     15 vectors produced by pass 58 Test12= 8.84D-14 1.00D-09 XBig12= 3.69D-14 6.75D-09.
     15 vectors produced by pass 59 Test12= 8.84D-14 1.00D-09 XBig12= 3.91D-14 9.20D-09.
     15 vectors produced by pass 60 Test12= 8.84D-14 1.00D-09 XBig12= 3.67D-14 7.75D-09.
     15 vectors produced by pass 61 Test12= 8.84D-14 1.00D-09 XBig12= 3.90D-14 7.04D-09.
     15 vectors produced by pass 62 Test12= 8.84D-14 1.00D-09 XBig12= 3.22D-14 6.26D-09.
     14 vectors produced by pass 63 Test12= 8.84D-14 1.00D-09 XBig12= 1.51D-14 3.86D-09.
     14 vectors produced by pass 64 Test12= 8.84D-14 1.00D-09 XBig12= 3.14D-14 6.83D-09.
     14 vectors produced by pass 65 Test12= 8.84D-14 1.00D-09 XBig12= 2.27D-14 5.05D-09.
     14 vectors produced by pass 66 Test12= 8.84D-14 1.00D-09 XBig12= 4.18D-14 8.06D-09.
     14 vectors produced by pass 67 Test12= 8.84D-14 1.00D-09 XBig12= 2.47D-14 5.85D-09.
     14 vectors produced by pass 68 Test12= 8.84D-14 1.00D-09 XBig12= 3.48D-14 7.62D-09.
     14 vectors produced by pass 69 Test12= 8.84D-14 1.00D-09 XBig12= 2.44D-14 5.57D-09.
     14 vectors produced by pass 70 Test12= 8.84D-14 1.00D-09 XBig12= 2.21D-14 5.80D-09.
     14 vectors produced by pass 71 Test12= 8.84D-14 1.00D-09 XBig12= 1.95D-14 5.74D-09.
     14 vectors produced by pass 72 Test12= 8.84D-14 1.00D-09 XBig12= 1.85D-14 4.07D-09.
     13 vectors produced by pass 73 Test12= 8.84D-14 1.00D-09 XBig12= 1.46D-14 4.13D-09.
     13 vectors produced by pass 74 Test12= 8.84D-14 1.00D-09 XBig12= 3.62D-14 8.82D-09.
     13 vectors produced by pass 75 Test12= 8.84D-14 1.00D-09 XBig12= 1.97D-14 4.57D-09.
     13 vectors produced by pass 76 Test12= 8.84D-14 1.00D-09 XBig12= 2.66D-14 6.10D-09.
     13 vectors produced by pass 77 Test12= 8.84D-14 1.00D-09 XBig12= 1.78D-14 5.38D-09.
     13 vectors produced by pass 78 Test12= 8.84D-14 1.00D-09 XBig12= 1.69D-14 4.52D-09.
     13 vectors produced by pass 79 Test12= 8.84D-14 1.00D-09 XBig12= 1.82D-14 4.43D-09.
     13 vectors produced by pass 80 Test12= 8.84D-14 1.00D-09 XBig12= 4.02D-14 6.83D-09.
     13 vectors produced by pass 81 Test12= 8.84D-14 1.00D-09 XBig12= 1.76D-14 4.38D-09.
     13 vectors produced by pass 82 Test12= 8.84D-14 1.00D-09 XBig12= 2.76D-14 5.42D-09.
     12 vectors produced by pass 83 Test12= 8.84D-14 1.00D-09 XBig12= 1.93D-14 4.52D-09.
     12 vectors produced by pass 84 Test12= 8.84D-14 1.00D-09 XBig12= 4.32D-14 7.55D-09.
     12 vectors produced by pass 85 Test12= 8.84D-14 1.00D-09 XBig12= 2.16D-14 5.08D-09.
     12 vectors produced by pass 86 Test12= 8.84D-14 1.00D-09 XBig12= 1.61D-14 4.04D-09.
     12 vectors produced by pass 87 Test12= 8.84D-14 1.00D-09 XBig12= 1.66D-14 4.40D-09.
     12 vectors produced by pass 88 Test12= 8.84D-14 1.00D-09 XBig12= 2.12D-14 5.31D-09.
     12 vectors produced by pass 89 Test12= 8.84D-14 1.00D-09 XBig12= 3.07D-14 6.83D-09.
     11 vectors produced by pass 90 Test12= 8.84D-14 1.00D-09 XBig12= 1.08D-14 3.15D-09.
     11 vectors produced by pass 91 Test12= 8.84D-14 1.00D-09 XBig12= 2.17D-14 5.25D-09.
      8 vectors produced by pass 92 Test12= 8.84D-14 1.00D-09 XBig12= 7.02D-15 2.78D-09.
      8 vectors produced by pass 93 Test12= 8.84D-14 1.00D-09 XBig12= 2.29D-14 4.77D-09.
      8 vectors produced by pass 94 Test12= 8.84D-14 1.00D-09 XBig12= 2.71D-14 5.34D-09.
      8 vectors produced by pass 95 Test12= 8.84D-14 1.00D-09 XBig12= 3.11D-14 5.68D-09.
      8 vectors produced by pass 96 Test12= 8.84D-14 1.00D-09 XBig12= 1.73D-14 4.72D-09.
      8 vectors produced by pass 97 Test12= 8.84D-14 1.00D-09 XBig12= 2.47D-14 5.47D-09.
      8 vectors produced by pass 98 Test12= 8.84D-14 1.00D-09 XBig12= 2.60D-14 5.40D-09.
      8 vectors produced by pass 99 Test12= 8.84D-14 1.00D-09 XBig12= 1.71D-14 4.47D-09.
      8 vectors produced by pass100 Test12= 8.84D-14 1.00D-09 XBig12= 1.57D-14 4.32D-09.
      8 vectors produced by pass101 Test12= 8.84D-14 1.00D-09 XBig12= 2.07D-14 5.34D-09.
      8 vectors produced by pass102 Test12= 8.84D-14 1.00D-09 XBig12= 2.79D-14 5.63D-09.
      8 vectors produced by pass103 Test12= 8.84D-14 1.00D-09 XBig12= 1.10D-14 3.36D-09.
      8 vectors produced by pass104 Test12= 8.84D-14 1.00D-09 XBig12= 2.09D-14 5.13D-09.
      8 vectors produced by pass105 Test12= 8.84D-14 1.00D-09 XBig12= 2.20D-14 4.38D-09.
      8 vectors produced by pass106 Test12= 8.84D-14 1.00D-09 XBig12= 2.61D-14 5.52D-09.
      4 vectors produced by pass107 Test12= 8.84D-14 1.00D-09 XBig12= 6.06D-15 2.64D-09.
      4 vectors produced by pass108 Test12= 8.84D-14 1.00D-09 XBig12= 1.47D-14 4.28D-09.
      4 vectors produced by pass109 Test12= 8.84D-14 1.00D-09 XBig12= 1.45D-14 3.91D-09.
      4 vectors produced by pass110 Test12= 8.84D-14 1.00D-09 XBig12= 2.72D-14 4.81D-09.
      4 vectors produced by pass111 Test12= 8.84D-14 1.00D-09 XBig12= 1.55D-14 4.03D-09.
      4 vectors produced by pass112 Test12= 8.84D-14 1.00D-09 XBig12= 2.07D-14 4.64D-09.
      4 vectors produced by pass113 Test12= 8.84D-14 1.00D-09 XBig12= 1.89D-14 4.03D-09.
      4 vectors produced by pass114 Test12= 8.84D-14 1.00D-09 XBig12= 1.64D-14 4.48D-09.
      4 vectors produced by pass115 Test12= 8.84D-14 1.00D-09 XBig12= 1.28D-14 3.30D-09.
      4 vectors produced by pass116 Test12= 8.84D-14 1.00D-09 XBig12= 1.85D-14 4.40D-09.
      4 vectors produced by pass117 Test12= 8.84D-14 1.00D-09 XBig12= 1.41D-14 4.26D-09.
      4 vectors produced by pass118 Test12= 8.84D-14 1.00D-09 XBig12= 2.21D-14 4.47D-09.
      4 vectors produced by pass119 Test12= 8.84D-14 1.00D-09 XBig12= 2.02D-14 4.41D-09.
      4 vectors produced by pass120 Test12= 8.84D-14 1.00D-09 XBig12= 1.84D-14 4.57D-09.
      4 vectors produced by pass121 Test12= 8.84D-14 1.00D-09 XBig12= 1.29D-14 3.85D-09.
      4 vectors produced by pass122 Test12= 8.84D-14 1.00D-09 XBig12= 2.31D-14 5.21D-09.
      4 vectors produced by pass123 Test12= 8.84D-14 1.00D-09 XBig12= 1.29D-14 3.58D-09.
      4 vectors produced by pass124 Test12= 8.84D-14 1.00D-09 XBig12= 9.55D-15 3.37D-09.
      4 vectors produced by pass125 Test12= 8.84D-14 1.00D-09 XBig12= 3.07D-14 5.57D-09.
      4 vectors produced by pass126 Test12= 8.84D-14 1.00D-09 XBig12= 1.43D-14 3.97D-09.
      4 vectors produced by pass127 Test12= 8.84D-14 1.00D-09 XBig12= 1.40D-14 3.86D-09.
      4 vectors produced by pass128 Test12= 8.84D-14 1.00D-09 XBig12= 1.72D-14 4.15D-09.
      4 vectors produced by pass129 Test12= 8.84D-14 1.00D-09 XBig12= 1.03D-14 3.23D-09.
      4 vectors produced by pass130 Test12= 8.84D-14 1.00D-09 XBig12= 1.93D-14 4.54D-09.
      4 vectors produced by pass131 Test12= 8.84D-14 1.00D-09 XBig12= 2.18D-14 5.28D-09.
      4 vectors produced by pass132 Test12= 8.84D-14 1.00D-09 XBig12= 1.08D-14 3.56D-09.
      4 vectors produced by pass133 Test12= 8.84D-14 1.00D-09 XBig12= 6.03D-15 2.59D-09.
      4 vectors produced by pass134 Test12= 8.84D-14 1.00D-09 XBig12= 2.21D-14 5.05D-09.
      4 vectors produced by pass135 Test12= 8.84D-14 1.00D-09 XBig12= 1.32D-14 3.76D-09.
      4 vectors produced by pass136 Test12= 8.84D-14 1.00D-09 XBig12= 1.46D-14 3.97D-09.
      4 vectors produced by pass137 Test12= 8.84D-14 1.00D-09 XBig12= 1.80D-14 4.46D-09.
      4 vectors produced by pass138 Test12= 8.84D-14 1.00D-09 XBig12= 2.05D-14 4.36D-09.
      4 vectors produced by pass139 Test12= 8.84D-14 1.00D-09 XBig12= 1.87D-14 3.96D-09.
      4 vectors produced by pass140 Test12= 8.84D-14 1.00D-09 XBig12= 9.25D-15 2.84D-09.
      4 vectors produced by pass141 Test12= 8.84D-14 1.00D-09 XBig12= 2.04D-14 4.67D-09.
      4 vectors produced by pass142 Test12= 8.84D-14 1.00D-09 XBig12= 1.36D-14 3.40D-09.
      4 vectors produced by pass143 Test12= 8.84D-14 1.00D-09 XBig12= 1.07D-14 3.41D-09.
      4 vectors produced by pass144 Test12= 8.84D-14 1.00D-09 XBig12= 1.42D-14 3.97D-09.
      4 vectors produced by pass145 Test12= 8.84D-14 1.00D-09 XBig12= 1.11D-14 4.23D-09.
      4 vectors produced by pass146 Test12= 8.84D-14 1.00D-09 XBig12= 1.22D-14 3.77D-09.
      4 vectors produced by pass147 Test12= 8.84D-14 1.00D-09 XBig12= 1.04D-14 3.87D-09.
      4 vectors produced by pass148 Test12= 8.84D-14 1.00D-09 XBig12= 1.26D-14 3.43D-09.
      4 vectors produced by pass149 Test12= 8.84D-14 1.00D-09 XBig12= 8.71D-15 3.53D-09.
      4 vectors produced by pass150 Test12= 8.84D-14 1.00D-09 XBig12= 1.54D-14 3.92D-09.
      4 vectors produced by pass151 Test12= 8.84D-14 1.00D-09 XBig12= 7.53D-15 2.49D-09.
      4 vectors produced by pass152 Test12= 8.84D-14 1.00D-09 XBig12= 7.48D-15 2.94D-09.
      4 vectors produced by pass153 Test12= 8.84D-14 1.00D-09 XBig12= 1.73D-14 4.11D-09.
      4 vectors produced by pass154 Test12= 8.84D-14 1.00D-09 XBig12= 1.35D-14 3.45D-09.
      4 vectors produced by pass155 Test12= 8.84D-14 1.00D-09 XBig12= 1.43D-14 3.66D-09.
      4 vectors produced by pass156 Test12= 8.84D-14 1.00D-09 XBig12= 1.58D-14 4.13D-09.
      4 vectors produced by pass157 Test12= 8.84D-14 1.00D-09 XBig12= 1.04D-14 3.41D-09.
      4 vectors produced by pass158 Test12= 8.84D-14 1.00D-09 XBig12= 1.84D-14 4.19D-09.
      4 vectors produced by pass159 Test12= 8.84D-14 1.00D-09 XBig12= 1.33D-14 5.06D-09.
      4 vectors produced by pass160 Test12= 8.84D-14 1.00D-09 XBig12= 6.99D-15 2.71D-09.
      4 vectors produced by pass161 Test12= 8.84D-14 1.00D-09 XBig12= 2.13D-14 5.98D-09.
      4 vectors produced by pass162 Test12= 8.84D-14 1.00D-09 XBig12= 1.34D-14 3.37D-09.
      4 vectors produced by pass163 Test12= 8.84D-14 1.00D-09 XBig12= 1.66D-14 4.17D-09.
      4 vectors produced by pass164 Test12= 8.84D-14 1.00D-09 XBig12= 1.27D-14 3.63D-09.
      4 vectors produced by pass165 Test12= 8.84D-14 1.00D-09 XBig12= 7.17D-15 2.83D-09.
      4 vectors produced by pass166 Test12= 8.84D-14 1.00D-09 XBig12= 1.55D-14 3.87D-09.
      4 vectors produced by pass167 Test12= 8.84D-14 1.00D-09 XBig12= 8.41D-15 3.09D-09.
      4 vectors produced by pass168 Test12= 8.84D-14 1.00D-09 XBig12= 9.76D-15 3.24D-09.
      4 vectors produced by pass169 Test12= 8.84D-14 1.00D-09 XBig12= 1.67D-14 4.45D-09.
      4 vectors produced by pass170 Test12= 8.84D-14 1.00D-09 XBig12= 5.28D-15 2.32D-09.
      4 vectors produced by pass171 Test12= 8.84D-14 1.00D-09 XBig12= 1.31D-14 3.42D-09.
      4 vectors produced by pass172 Test12= 8.84D-14 1.00D-09 XBig12= 6.56D-15 2.56D-09.
      4 vectors produced by pass173 Test12= 8.84D-14 1.00D-09 XBig12= 1.79D-14 5.57D-09.
      4 vectors produced by pass174 Test12= 8.84D-14 1.00D-09 XBig12= 6.06D-15 2.32D-09.
      4 vectors produced by pass175 Test12= 8.84D-14 1.00D-09 XBig12= 1.24D-14 3.48D-09.
      4 vectors produced by pass176 Test12= 8.84D-14 1.00D-09 XBig12= 9.25D-15 3.17D-09.
      4 vectors produced by pass177 Test12= 8.84D-14 1.00D-09 XBig12= 1.35D-14 4.01D-09.
      4 vectors produced by pass178 Test12= 8.84D-14 1.00D-09 XBig12= 5.82D-15 2.58D-09.
      4 vectors produced by pass179 Test12= 8.84D-14 1.00D-09 XBig12= 1.78D-14 4.86D-09.
      4 vectors produced by pass180 Test12= 8.84D-14 1.00D-09 XBig12= 1.34D-14 3.39D-09.
      4 vectors produced by pass181 Test12= 8.84D-14 1.00D-09 XBig12= 1.12D-14 3.42D-09.
      4 vectors produced by pass182 Test12= 8.84D-14 1.00D-09 XBig12= 1.05D-14 3.57D-09.
      4 vectors produced by pass183 Test12= 8.84D-14 1.00D-09 XBig12= 1.17D-14 3.30D-09.
      4 vectors produced by pass184 Test12= 8.84D-14 1.00D-09 XBig12= 9.49D-15 2.83D-09.
      4 vectors produced by pass185 Test12= 8.84D-14 1.00D-09 XBig12= 5.31D-15 2.24D-09.
      4 vectors produced by pass186 Test12= 8.84D-14 1.00D-09 XBig12= 1.39D-14 4.07D-09.
      4 vectors produced by pass187 Test12= 8.84D-14 1.00D-09 XBig12= 1.16D-14 3.29D-09.
      4 vectors produced by pass188 Test12= 8.84D-14 1.00D-09 XBig12= 1.49D-14 3.98D-09.
      4 vectors produced by pass189 Test12= 8.84D-14 1.00D-09 XBig12= 4.93D-15 2.27D-09.
      4 vectors produced by pass190 Test12= 8.84D-14 1.00D-09 XBig12= 1.31D-14 3.81D-09.
      4 vectors produced by pass191 Test12= 8.84D-14 1.00D-09 XBig12= 8.43D-15 3.24D-09.
      4 vectors produced by pass192 Test12= 8.84D-14 1.00D-09 XBig12= 9.49D-15 3.26D-09.
      4 vectors produced by pass193 Test12= 8.84D-14 1.00D-09 XBig12= 1.01D-14 3.66D-09.
      4 vectors produced by pass194 Test12= 8.84D-14 1.00D-09 XBig12= 1.32D-14 4.22D-09.
      4 vectors produced by pass195 Test12= 8.84D-14 1.00D-09 XBig12= 1.31D-14 4.03D-09.
      4 vectors produced by pass196 Test12= 8.84D-14 1.00D-09 XBig12= 5.96D-15 2.49D-09.
      4 vectors produced by pass197 Test12= 8.84D-14 1.00D-09 XBig12= 7.26D-15 3.00D-09.
      4 vectors produced by pass198 Test12= 8.84D-14 1.00D-09 XBig12= 1.25D-14 3.39D-09.
      4 vectors produced by pass199 Test12= 8.84D-14 1.00D-09 XBig12= 6.17D-15 2.64D-09.
      4 vectors produced by pass200 Test12= 8.84D-14 1.00D-09 XBig12= 1.77D-14 4.20D-09.
      4 vectors produced by pass201 Test12= 8.84D-14 1.00D-09 XBig12= 6.10D-15 2.88D-09.
      4 vectors produced by pass202 Test12= 8.84D-14 1.00D-09 XBig12= 1.45D-14 3.54D-09.
      4 vectors produced by pass203 Test12= 8.84D-14 1.00D-09 XBig12= 9.75D-15 2.90D-09.
      4 vectors produced by pass204 Test12= 8.84D-14 1.00D-09 XBig12= 1.66D-14 4.19D-09.
      4 vectors produced by pass205 Test12= 8.84D-14 1.00D-09 XBig12= 5.62D-15 2.28D-09.
      4 vectors produced by pass206 Test12= 8.84D-14 1.00D-09 XBig12= 1.06D-14 3.56D-09.
      4 vectors produced by pass207 Test12= 8.84D-14 1.00D-09 XBig12= 1.24D-14 3.36D-09.
      4 vectors produced by pass208 Test12= 8.84D-14 1.00D-09 XBig12= 8.37D-15 3.36D-09.
      4 vectors produced by pass209 Test12= 8.84D-14 1.00D-09 XBig12= 6.40D-15 2.59D-09.
      4 vectors produced by pass210 Test12= 8.84D-14 1.00D-09 XBig12= 8.91D-15 3.34D-09.
      4 vectors produced by pass211 Test12= 8.84D-14 1.00D-09 XBig12= 1.23D-14 3.57D-09.
      4 vectors produced by pass212 Test12= 8.84D-14 1.00D-09 XBig12= 7.07D-15 2.85D-09.
      4 vectors produced by pass213 Test12= 8.84D-14 1.00D-09 XBig12= 1.00D-14 2.94D-09.
      4 vectors produced by pass214 Test12= 8.84D-14 1.00D-09 XBig12= 6.87D-15 2.74D-09.
      4 vectors produced by pass215 Test12= 8.84D-14 1.00D-09 XBig12= 1.11D-14 3.43D-09.
      4 vectors produced by pass216 Test12= 8.84D-14 1.00D-09 XBig12= 6.40D-15 2.60D-09.
      4 vectors produced by pass217 Test12= 8.84D-14 1.00D-09 XBig12= 8.77D-15 3.12D-09.
      4 vectors produced by pass218 Test12= 8.84D-14 1.00D-09 XBig12= 8.28D-15 2.99D-09.
      4 vectors produced by pass219 Test12= 8.84D-14 1.00D-09 XBig12= 1.52D-14 4.57D-09.
      4 vectors produced by pass220 Test12= 8.84D-14 1.00D-09 XBig12= 8.60D-15 3.04D-09.
      4 vectors produced by pass221 Test12= 8.84D-14 1.00D-09 XBig12= 1.62D-14 4.07D-09.
      4 vectors produced by pass222 Test12= 8.84D-14 1.00D-09 XBig12= 8.42D-15 2.81D-09.
      3 vectors produced by pass223 Test12= 8.84D-14 1.00D-09 XBig12= 5.49D-15 2.49D-09.
      3 vectors produced by pass224 Test12= 8.84D-14 1.00D-09 XBig12= 8.61D-15 2.71D-09.
      3 vectors produced by pass225 Test12= 8.84D-14 1.00D-09 XBig12= 1.37D-14 3.66D-09.
      3 vectors produced by pass226 Test12= 8.84D-14 1.00D-09 XBig12= 5.64D-15 2.60D-09.
      3 vectors produced by pass227 Test12= 8.84D-14 1.00D-09 XBig12= 1.60D-14 4.32D-09.
      3 vectors produced by pass228 Test12= 8.84D-14 1.00D-09 XBig12= 4.17D-15 2.15D-09.
      3 vectors produced by pass229 Test12= 8.84D-14 1.00D-09 XBig12= 1.10D-14 3.35D-09.
      3 vectors produced by pass230 Test12= 8.84D-14 1.00D-09 XBig12= 7.11D-15 2.67D-09.
      3 vectors produced by pass231 Test12= 8.84D-14 1.00D-09 XBig12= 9.05D-15 3.77D-09.
      3 vectors produced by pass232 Test12= 8.84D-14 1.00D-09 XBig12= 1.21D-14 3.52D-09.
      3 vectors produced by pass233 Test12= 8.84D-14 1.00D-09 XBig12= 1.09D-14 3.18D-09.
      3 vectors produced by pass234 Test12= 8.84D-14 1.00D-09 XBig12= 5.90D-15 2.36D-09.
      3 vectors produced by pass235 Test12= 8.84D-14 1.00D-09 XBig12= 1.00D-14 3.65D-09.
      3 vectors produced by pass236 Test12= 8.84D-14 1.00D-09 XBig12= 7.13D-15 2.46D-09.
      3 vectors produced by pass237 Test12= 8.84D-14 1.00D-09 XBig12= 1.38D-14 3.36D-09.
      3 vectors produced by pass238 Test12= 8.84D-14 1.00D-09 XBig12= 7.07D-15 2.45D-09.
      3 vectors produced by pass239 Test12= 8.84D-14 1.00D-09 XBig12= 1.24D-14 4.00D-09.
      3 vectors produced by pass240 Test12= 8.84D-14 1.00D-09 XBig12= 1.16D-14 3.52D-09.
      3 vectors produced by pass241 Test12= 8.84D-14 1.00D-09 XBig12= 2.42D-15 1.86D-09.
      3 vectors produced by pass242 Test12= 8.84D-14 1.00D-09 XBig12= 1.44D-14 4.38D-09.
      3 vectors produced by pass243 Test12= 8.84D-14 1.00D-09 XBig12= 6.28D-15 2.39D-09.
      3 vectors produced by pass244 Test12= 8.84D-14 1.00D-09 XBig12= 4.85D-15 2.29D-09.
      3 vectors produced by pass245 Test12= 8.84D-14 1.00D-09 XBig12= 7.84D-15 2.79D-09.
      3 vectors produced by pass246 Test12= 8.84D-14 1.00D-09 XBig12= 4.99D-15 2.28D-09.
      3 vectors produced by pass247 Test12= 8.84D-14 1.00D-09 XBig12= 1.61D-14 3.97D-09.
      3 vectors produced by pass248 Test12= 8.84D-14 1.00D-09 XBig12= 4.91D-15 2.28D-09.
      3 vectors produced by pass249 Test12= 8.84D-14 1.00D-09 XBig12= 7.44D-15 2.76D-09.
      3 vectors produced by pass250 Test12= 8.84D-14 1.00D-09 XBig12= 5.41D-15 2.77D-09.
      3 vectors produced by pass251 Test12= 8.84D-14 1.00D-09 XBig12= 5.73D-15 2.45D-09.
      3 vectors produced by pass252 Test12= 8.84D-14 1.00D-09 XBig12= 8.31D-15 2.77D-09.
      3 vectors produced by pass253 Test12= 8.84D-14 1.00D-09 XBig12= 8.11D-15 3.00D-09.
      3 vectors produced by pass254 Test12= 8.84D-14 1.00D-09 XBig12= 9.57D-15 3.10D-09.
      3 vectors produced by pass255 Test12= 8.84D-14 1.00D-09 XBig12= 9.34D-15 3.18D-09.
      3 vectors produced by pass256 Test12= 8.84D-14 1.00D-09 XBig12= 1.00D-14 2.94D-09.
      3 vectors produced by pass257 Test12= 8.84D-14 1.00D-09 XBig12= 1.54D-14 3.44D-09.
      3 vectors produced by pass258 Test12= 8.84D-14 1.00D-09 XBig12= 9.37D-15 3.13D-09.
      3 vectors produced by pass259 Test12= 8.84D-14 1.00D-09 XBig12= 6.78D-15 2.68D-09.
      3 vectors produced by pass260 Test12= 8.84D-14 1.00D-09 XBig12= 7.46D-15 3.01D-09.
      3 vectors produced by pass261 Test12= 8.84D-14 1.00D-09 XBig12= 1.15D-14 3.10D-09.
      3 vectors produced by pass262 Test12= 8.84D-14 1.00D-09 XBig12= 7.51D-15 2.58D-09.
      3 vectors produced by pass263 Test12= 8.84D-14 1.00D-09 XBig12= 9.98D-15 2.93D-09.
      3 vectors produced by pass264 Test12= 8.84D-14 1.00D-09 XBig12= 1.06D-14 3.65D-09.
      3 vectors produced by pass265 Test12= 8.84D-14 1.00D-09 XBig12= 8.51D-15 2.91D-09.
      3 vectors produced by pass266 Test12= 8.84D-14 1.00D-09 XBig12= 4.85D-15 2.15D-09.
      3 vectors produced by pass267 Test12= 8.84D-14 1.00D-09 XBig12= 1.12D-14 3.33D-09.
      3 vectors produced by pass268 Test12= 8.84D-14 1.00D-09 XBig12= 8.38D-15 2.86D-09.
      3 vectors produced by pass269 Test12= 8.84D-14 1.00D-09 XBig12= 3.16D-15 1.78D-09.
      3 vectors produced by pass270 Test12= 8.84D-14 1.00D-09 XBig12= 1.09D-14 3.66D-09.
      3 vectors produced by pass271 Test12= 8.84D-14 1.00D-09 XBig12= 9.18D-15 2.93D-09.
      3 vectors produced by pass272 Test12= 8.84D-14 1.00D-09 XBig12= 6.35D-15 2.68D-09.
      3 vectors produced by pass273 Test12= 8.84D-14 1.00D-09 XBig12= 9.04D-15 3.15D-09.
      3 vectors produced by pass274 Test12= 8.84D-14 1.00D-09 XBig12= 6.07D-15 2.63D-09.
      3 vectors produced by pass275 Test12= 8.84D-14 1.00D-09 XBig12= 1.21D-14 3.43D-09.
      3 vectors produced by pass276 Test12= 8.84D-14 1.00D-09 XBig12= 9.82D-15 2.96D-09.
      3 vectors produced by pass277 Test12= 8.84D-14 1.00D-09 XBig12= 7.18D-15 3.16D-09.
      3 vectors produced by pass278 Test12= 8.84D-14 1.00D-09 XBig12= 6.85D-15 3.27D-09.
      3 vectors produced by pass279 Test12= 8.84D-14 1.00D-09 XBig12= 8.14D-15 3.04D-09.
      3 vectors produced by pass280 Test12= 8.84D-14 1.00D-09 XBig12= 7.00D-15 2.34D-09.
      3 vectors produced by pass281 Test12= 8.84D-14 1.00D-09 XBig12= 1.05D-14 3.42D-09.
      3 vectors produced by pass282 Test12= 8.84D-14 1.00D-09 XBig12= 8.62D-15 2.87D-09.
      3 vectors produced by pass283 Test12= 8.84D-14 1.00D-09 XBig12= 8.42D-15 2.61D-09.
      3 vectors produced by pass284 Test12= 8.84D-14 1.00D-09 XBig12= 1.17D-14 5.00D-09.
      3 vectors produced by pass285 Test12= 8.84D-14 1.00D-09 XBig12= 4.50D-15 2.11D-09.
      3 vectors produced by pass286 Test12= 8.84D-14 1.00D-09 XBig12= 1.12D-14 2.83D-09.
      3 vectors produced by pass287 Test12= 8.84D-14 1.00D-09 XBig12= 8.15D-15 2.84D-09.
      3 vectors produced by pass288 Test12= 8.84D-14 1.00D-09 XBig12= 8.61D-15 3.01D-09.
      3 vectors produced by pass289 Test12= 8.84D-14 1.00D-09 XBig12= 6.89D-15 2.55D-09.
      3 vectors produced by pass290 Test12= 8.84D-14 1.00D-09 XBig12= 6.03D-15 2.73D-09.
      3 vectors produced by pass291 Test12= 8.84D-14 1.00D-09 XBig12= 8.94D-15 2.96D-09.
      3 vectors produced by pass292 Test12= 8.84D-14 1.00D-09 XBig12= 6.49D-15 2.28D-09.
      3 vectors produced by pass293 Test12= 8.84D-14 1.00D-09 XBig12= 6.39D-15 2.95D-09.
      3 vectors produced by pass294 Test12= 8.84D-14 1.00D-09 XBig12= 1.04D-14 3.19D-09.
      3 vectors produced by pass295 Test12= 8.84D-14 1.00D-09 XBig12= 5.39D-15 2.17D-09.
      3 vectors produced by pass296 Test12= 8.84D-14 1.00D-09 XBig12= 7.56D-15 2.65D-09.
      3 vectors produced by pass297 Test12= 8.84D-14 1.00D-09 XBig12= 5.96D-15 2.32D-09.
      3 vectors produced by pass298 Test12= 8.84D-14 1.00D-09 XBig12= 7.44D-15 2.86D-09.
      3 vectors produced by pass299 Test12= 8.84D-14 1.00D-09 XBig12= 3.61D-15 1.98D-09.
      3 vectors produced by pass300 Test12= 8.84D-14 1.00D-09 XBig12= 1.09D-14 4.60D-09.
      3 vectors produced by pass301 Test12= 8.84D-14 1.00D-09 XBig12= 8.44D-15 3.50D-09.
      3 vectors produced by pass302 Test12= 8.84D-14 1.00D-09 XBig12= 1.05D-14 4.75D-09.
      3 vectors produced by pass303 Test12= 8.84D-14 1.00D-09 XBig12= 4.55D-15 2.26D-09.
      3 vectors produced by pass304 Test12= 8.84D-14 1.00D-09 XBig12= 1.00D-14 2.97D-09.
      3 vectors produced by pass305 Test12= 8.84D-14 1.00D-09 XBig12= 6.66D-15 2.25D-09.
      3 vectors produced by pass306 Test12= 8.84D-14 1.00D-09 XBig12= 6.70D-15 2.96D-09.
      2 vectors produced by pass307 Test12= 8.84D-14 1.00D-09 XBig12= 1.80D-15 1.24D-09.
 InvSVY:  IOpt=1 It=  1 EMax= 2.00D-15
 Solved reduced A of dimension  3615 with   120 vectors.
 End of Minotr F.D. properties file   721 does not exist.
 End of Minotr F.D. properties file   722 does not exist.
 End of Minotr F.D. properties file   788 does not exist.

 **********************************************************************

            Population analysis using the SCF density.

 **********************************************************************

 Orbital symmetries:
 Alpha Orbitals:
       Occupied  (A) (A) (A) (A) (A) (A) (A) (A) (A) (A) (A) (A)
                 (A) (A) (A) (A) (A) (A) (A) (A) (A) (A) (A) (A)
                 (A) (A) (A) (A) (A) (A) (A) (A) (A) (A) (A) (A)
                 (A) (A) (A) (A) (A) (A) (A) (A) (A) (A) (A) (A)
                 (A) (A) (A) (A) (A) (A) (A) (A) (A) (A) (A) (A)
                 (A) (A) (A) (A) (A) (A) (A) (A) (A) (A) (A) (A)
                 (A) (A) (A) (A) (A) (A) (A) (A) (A) (A) (A)
       Virtual   (A) (A) (A) (A) (A) (A) (A) (A) (A) (A) (A) (A)
                 (A) (A) (A) (A) (A) (A) (A) (A) (A) (A) (A) (A)
                 (A) (A) (A) (A) (A) (A) (A) (A) (A) (A) (A) (A)
                 (A) (A) (A) (A) (A) (A) (A) (A) (A) (A) (A) (A)
                 (A) (A) (A) (A) (A) (A) (A) (A) (A) (A) (A) (A)
                 (A) (A) (A) (A) (A) (A) (A) (A) (A) (A) (A) (A)
                 (A) (A) (A) (A) (A) (A) (A) (A) (A) (A) (A) (A)
                 (A) (A) (A) (A) (A) (A) (A) (A) (A) (A) (A) (A)
                 (A) (A) (A) (A) (A) (A) (A) (A) (A) (A) (A) (A)
                 (A) (A) (A) (A) (A) (A) (A) (A) (A) (A) (A) (A)
                 (A) (A) (A) (A) (A) (A) (A) (A) (A) (A) (A) (A)
                 (A) (A) (A) (A) (A) (A) (A) (A) (A) (A) (A) (A)
                 (A) (A) (A) (A) (A) (A) (A) (A) (A) (A) (A) (A)
                 (A) (A) (A) (A) (A) (A) (A) (A) (A) (A) (A) (A)
                 (A) (A) (A) (A) (A) (A) (A) (A) (A) (A) (A) (A)
                 (A) (A) (A) (A) (A) (A) (A) (A) (A) (A) (A) (A)
                 (A) (A) (A) (A) (A) (A) (A) (A) (A) (A) (A) (A)
                 (A) (A) (A) (A) (A) (A) (A) (A) (A) (A) (A) (A)
                 (A) (A) (A) (A) (A) (A) (A) (A) (A) (A) (A) (A)
                 (A) (A) (A) (A) (A) (A) (A) (A) (A) (A) (A) (A)
                 (A) (A) (A) (A) (A) (A) (A) (A) (A) (A) (A) (A)
                 (A) (A) (A) (A) (A) (A) (A) (A) (A) (A) (A) (A)
                 (A) (A) (A) (A) (A) (A) (A) (A) (A) (A) (A) (A)
                 (A) (A) (A) (A) (A) (A) (A) (A) (A) (A) (A) (A)
                 (A) (A) (A) (A) (A) (A) (A) (A) (A) (A) (A) (A)
                 (A) (A) (A) (A) (A) (A) (A) (A) (A) (A) (A) (A)
                 (A) (A) (A) (A) (A) (A) (A) (A) (A) (A) (A) (A)
                 (A) (A) (A) (A) (A) (A) (A) (A) (A) (A) (A) (A)
                 (A) (A) (A) (A) (A) (A) (A) (A) (A) (A) (A) (A)
                 (A) (A) (A) (A) (A) (A) (A) (A) (A) (A) (A) (A)
                 (A) (A) (A) (A) (A) (A) (A) (A) (A) (A) (A) (A)
                 (A) (A) (A) (A) (A) (A) (A) (A) (A) (A) (A) (A)
                 (A) (A) (A) (A) (A) (A) (A) (A) (A) (A) (A) (A)
                 (A) (A) (A) (A) (A) (A) (A) (A) (A) (A) (A) (A)
                 (A) (A) (A) (A) (A) (A) (A) (A) (A) (A) (A) (A)
                 (A) (A) (A) (A) (A) (A) (A) (A) (A) (A) (A) (A)
                 (A) (A) (A) (A) (A) (A) (A) (A) (A) (A) (A) (A)
                 (A) (A) (A) (A) (A) (A) (A) (A) (A) (A) (A) (A)
                 (A) (A) (A) (A) (A) (A) (A) (A) (A) (A) (A) (A)
                 (A) (A) (A) (A) (A) (A) (A) (A) (A) (A) (A) (A)
                 (A) (A) (A) (A) (A) (A) (A) (A) (A) (A) (A) (A)
                 (A) (A) (A) (A) (A) (A) (A) (A) (A) (A) (A) (A)
                 (A) (A) (A) (A) (A) (A) (A) (A) (A) (A) (A) (A)
                 (A) (A) (A) (A) (A) (A) (A) (A) (A) (A) (A) (A)
                 (A) (A) (A) (A) (A) (A) (A) (A) (A) (A)
 Beta  Orbitals:
       Occupied  (A) (A) (A) (A) (A) (A) (A) (A) (A) (A) (A) (A)
                 (A) (A) (A) (A) (A) (A) (A) (A) (A) (A) (A) (A)
                 (A) (A) (A) (A) (A) (A) (A) (A) (A) (A) (A) (A)
                 (A) (A) (A) (A) (A) (A) (A) (A) (A) (A) (A) (A)
                 (A) (A) (A) (A) (A) (A) (A) (A) (A) (A) (A) (A)
                 (A) (A) (A) (A) (A) (A) (A) (A) (A) (A) (A) (A)
                 (A) (A) (A) (A) (A) (A) (A) (A) (A)
       Virtual   (A) (A) (A) (A) (A) (A) (A) (A) (A) (A) (A) (A)
                 (A) (A) (A) (A) (A) (A) (A) (A) (A) (A) (A) (A)
                 (A) (A) (A) (A) (A) (A) (A) (A) (A) (A) (A) (A)
                 (A) (A) (A) (A) (A) (A) (A) (A) (A) (A) (A) (A)
                 (A) (A) (A) (A) (A) (A) (A) (A) (A) (A) (A) (A)
                 (A) (A) (A) (A) (A) (A) (A) (A) (A) (A) (A) (A)
                 (A) (A) (A) (A) (A) (A) (A) (A) (A) (A) (A) (A)
                 (A) (A) (A) (A) (A) (A) (A) (A) (A) (A) (A) (A)
                 (A) (A) (A) (A) (A) (A) (A) (A) (A) (A) (A) (A)
                 (A) (A) (A) (A) (A) (A) (A) (A) (A) (A) (A) (A)
                 (A) (A) (A) (A) (A) (A) (A) (A) (A) (A) (A) (A)
[...]
 0.00000762,0.00000188,0.00014162,0.00001179,-0.00003321,-0.00012975,0.
 00014923,0.00018546,-0.00026077,-0.00003425,-0.00002401,0.00010991,0.0
 0000704,-0.00000735,-0.00048959,-0.00085473,0.00001263,-0.00160255,-0.
 00509988,-0.00183504,0.00143890,0.00017479,-0.00009615,0.00003979,-0.0
 0057734,0.00000688,-0.00325843,-0.00077433,-0.00096466,-0.01503764,0.0
 1151187,0.00196116,0.11512365,-0.12259565,-0.01796692,0.02892375,-0.00
 999339,-0.00336190,-0.00000786,0.00000642,-0.00000011,0.00001298,-0.00
 000902,0.00001095,-0.00001877,-0.00001006,-0.00001975,0.00004661,0.000
 00831,0.00000403,-0.00005306,-0.00001346,0.00004070,0.00000083,0.00000
 202,-0.00000306,0.00000235,0.00000143,0.00000121,0.00000306,-0.0000005
 8,0.00000043,0.00000317,-0.00000095,0.00000156,-0.00000085,-0.00000219
 ,0.00000014,-0.00000548,0.00000188,0.00000409,0.00014123,-0.00008467,-
 0.00000414,-0.00004646,-0.00003132,-0.00001706,-0.00034776,0.00089960,
 0.00080885,-0.00074256,0.00034792,0.00009704,0.00064104,0.00063518,0.0
 0059173,-0.12460774,0.12627300,-0.00000229,-0.00004339,0.00001064,-0.0
 0002509,0.00002673,-0.00002259,0.00003500,0.00007273,0.00004202,0.0000
 2718,-0.00005153,-0.00003635,0.00002764,0.00002253,0.00000580,-0.00005
 009,0.00001982,0.00001117,0.00003139,0.00005379,0.00009337,-0.00016870
 ,0.00017657,-0.00091656,-0.00001784,-0.00001401,0.00011176,0.00000975,
 0.00001326,0.00003303,-0.00010906,-0.00011507,-0.00083565,0.00016825,-
 0.00182124,0.00792441,0.00027004,-0.00003938,0.00017630,-0.00003075,-0
 .00004257,-0.00043004,-0.00020658,-0.00092125,0.00600667,-0.00133125,0
 .00060685,0.00323012,0.02743317,-0.01812922,-0.04060576,0.00429439,-0.
 00176197,0.00305425,0.00001760,0.00001259,-0.00000102,-0.00000744,0.00
 000553,-0.00000727,0.00004336,0.00002102,0.00000624,-0.00000579,-0.000
 02333,-0.00000007,0.00004980,-0.00017025,-0.00009874,0.00000074,0.,0.0
 0000545,-0.00000296,0.00000013,0.00000311,-0.00000208,-0.00000008,0.00
 000214,0.00000178,0.00000252,-0.00000475,-0.00000170,-0.00000043,0.000
 00039,-0.00000126,-0.00000323,-0.00000110,0.00002034,-0.00001317,-0.00
 001296,-0.00000632,-0.00001306,0.00007356,-0.00030843,0.00075114,-0.00
 437322,-0.00003833,0.00002915,0.00004647,-0.00007524,0.00068165,-0.003
 16969,-0.02998435,0.02064059,0.02959220,0.00187696,0.00073578,-0.00024
 076,-0.00232525,0.00020263,0.00257540,-0.00501865,0.00613769,0.0011629
 0,-0.00283706,-0.00241681,-0.00024272,-0.00063773,0.00002364,-0.000061
 66,0.00031099,0.00070176,0.00005604,-0.01199472,-0.02034798,0.01833982
 ,0.00430719,0.00056328,-0.00134176,0.00242370,-0.00157710,-0.00126447,
 -0.00017212,-0.00004569,-0.00024853,-0.00059776,0.00057994,0.00043964,
 -0.00021895,0.00100729,-0.00005189,0.00050111,-0.00043096,-0.00000798,
 -0.00045928,0.00013164,0.00015577,0.00116743,-0.00092489,-0.00038609,-
 0.00086275,0.00006998,0.00036685,0.00015980,0.00074424,0.00012443,0.00
 050284,-0.00026775,-0.00004414,-0.00072218,-0.00040004,-0.00035639,-0.
 00018168,-0.00045397,-0.00280604,0.00119806,0.00488374,-0.00047774,-0.
 04735304,0.00988650,-0.01717657,-0.01840003,0.00440722,-0.02739565,-0.
 00068406,-0.00080949,0.00079466,-0.00025485,0.00024232,-0.00020264,-0.
 00018389,-0.00008883,0.00034519,0.00005804,0.00014478,-0.00009499,-0.0
 0011599,0.00010004,0.00002268,0.00007641,0.00010724,0.00001105,0.00002
 208,0.00000509,0.00000133,-0.00004532,-0.00000800,0.00000375,-0.000024
 81,-0.00000849,0.00001509,-0.00246117,-0.00009581,0.00079346,-0.000056
 70,0.00007280,0.00004684,0.00003167,0.00003953,-0.00006887,0.73263464,
 0.00479682,0.00303794,0.00301849,-0.00267005,0.00243034,0.00231439,-0.
 00339922,0.00351114,-0.00138033,-0.00495101,-0.00248316,-0.00167975,-0
 .00136352,-0.00256153,-0.00052082,0.00263389,0.00009721,0.00067794,-0.
 00920813,-0.02869237,0.02464164,0.00681022,0.00113954,0.00141744,-0.00
 057287,-0.00018763,-0.00104552,0.00342231,0.00106504,0.00010899,-0.001
 26244,0.00104435,0.00070176,0.00045072,0.00004818,-0.00014721,-0.00016
 840,0.00014915,0.00001644,0.00042623,0.00003200,-0.00000311,-0.0002989
 8,-0.00058451,0.00035507,0.00011840,0.00013718,-0.00015661,0.00006062,
 -0.00027577,-0.00007964,-0.00016392,0.00032624,0.00001659,-0.00306425,
 -0.00273736,-0.00147704,-0.00011640,0.00106831,0.00119218,-0.00152241,
 -0.00557338,-0.00157888,0.04099770,0.00033190,0.01085980,-0.02521585,-
 0.12376939,0.09354019,0.00041486,0.00044172,-0.00059300,0.00033351,-0.
 00014087,0.00008670,-0.00000006,-0.00006198,-0.00001806,0.00000398,-0.
 00002596,-0.00005081,0.00000454,0.00001852,-0.00008030,0.00004008,-0.0
 0002702,0.00031356,-0.00001148,-0.00000822,-0.00000826,-0.00000087,0.0
 0001322,-0.00000364,0.00000843,0.00000811,0.00001013,0.00002020,0.0002
 4643,-0.00015252,-0.00001329,-0.00001366,-0.00003692,0.00002196,-0.000
 00527,0.00005788,-0.09901143,0.29047433,-0.00398540,-0.00084220,-0.002
 21112,0.00121913,-0.00329271,-0.00113807,0.00004334,-0.00369830,0.0031
 4477,0.00405973,0.00057948,0.00063099,0.00066719,0.00133958,0.00045789
 ,-0.00194050,-0.00056538,-0.00040861,0.01052499,-0.00291445,-0.0084831
 7,-0.00073170,0.00046802,-0.00059128,-0.00021860,-0.00106867,-0.000255
 87,-0.00200907,0.00035717,0.00018715,0.00029628,-0.00033645,0.00013920
 ,-0.00012575,0.00005657,0.00013887,0.00002116,-0.00032361,-0.00007617,
 -0.00016490,-0.00022026,-0.00006279,-0.00060887,0.00083364,0.00011629,
 -0.00035028,-0.00018424,-0.00036506,-0.00003887,0.00014159,-0.00003265
 ,-0.00000809,-0.00018498,-0.00004793,0.00273391,0.00101352,0.00094570,
 -0.00156698,0.00053619,-0.00116920,0.00203277,0.00528663,0.00218725,-0
 .04709167,0.01431203,-0.01032821,0.00985521,0.12446946,-0.16425087,0.0
 0006499,-0.00028780,0.00052980,-0.00042109,0.00012387,-0.00006177,-0.0
 0000494,0.00005579,-0.00001419,0.00001743,0.00004775,-0.00005397,0.000
 14856,-0.00010757,-0.00016618,-0.00004801,-0.00006401,0.00001101,-0.00
 006498,-0.00004009,-0.00000727,0.00000681,-0.00000873,0.00000697,-0.00
 000353,0.00000261,-0.00000259,0.00191591,-0.00038092,-0.00002734,-0.00
 001673,0.00003396,0.00010172,-0.00005577,-0.00002902,0.00007377,0.1154
 1032,-0.21727563,0.40196377,0.00139940,-0.00032762,0.00054216,-0.00048
 042,0.01703148,-0.00285972,-0.00348252,-0.00644004,0.00050358,0.003817
 77,0.00293988,0.00047548,0.00011169,0.00071569,-0.00027382,-0.00058201
 ,-0.00083732,-0.00037692,0.01402262,0.00616774,-0.00827042,-0.00391970
 ,0.00002959,-0.00065610,-0.00044882,-0.00003211,0.00014880,-0.00204061
 ,0.00023390,0.00039692,0.00081036,-0.00076554,-0.00013072,-0.00019915,
 -0.00032465,0.00008322,-0.00007158,-0.00009068,-0.00002905,-0.00019293
 ,-0.00006495,-0.00004998,-0.00058782,0.00125888,0.00016992,0.00011464,
 -0.00020440,-0.00011170,-0.00006250,-0.00006090,-0.00002269,-0.0000881
 9,-0.00006818,-0.00000825,0.00007175,0.00373584,0.00149791,0.00196907,
 -0.00845069,-0.00097057,-0.02423034,0.00957584,-0.03063459,-0.03950973
 ,0.01024559,-0.02826154,-0.06484649,-0.04016397,0.07196808,0.00079628,
 0.00057801,0.00039530,-0.00087612,0.00014718,0.00021637,0.00004733,0.0
 0013927,-0.00010102,-0.00002394,0.00005794,-0.00004570,0.00009359,-0.0
 0008208,0.00003325,-0.00006426,-0.00006603,-0.00012276,-0.00002868,-0.
 00001796,-0.00001827,0.00001654,0.00000438,0.00000873,0.00000590,0.000
 00261,-0.00000639,0.00030483,-0.00053418,0.00024808,-0.00001358,0.0000
 0179,0.00003097,-0.00003528,-0.00001980,0.00002200,-0.45176657,0.02957
 644,0.00189821,0.73177822,-0.00199681,-0.00182087,0.00060648,0.0048139
 0,-0.01240935,0.01888007,0.00150126,0.00260705,-0.00112729,-0.00061328
 ,-0.00157417,-0.00097717,0.00049397,0.00035750,-0.00026625,-0.00024647
 ,0.00008289,-0.00002317,-0.00057698,0.00007499,0.00416901,-0.00121683,
 -0.00066352,-0.00018687,-0.00013989,0.00075420,-0.00021071,0.00103906,
 -0.00005386,0.00000187,0.00049165,-0.00022219,-0.00000804,-0.00011979,
 -0.00011395,0.00001931,-0.00001471,0.00016544,0.00005798,0.00007418,0.
 00005601,0.00000962,0.00005414,-0.00031134,-0.00054705,0.00003107,0.00
 015975,0.00005460,-0.00001390,0.00004141,0.00005433,0.00007679,0.00002
 216,0.00000496,0.00075646,-0.00000389,0.00000214,-0.00333755,-0.001745
 64,-0.00040573,-0.00193067,0.01115738,-0.00624597,0.02250585,-0.100499
 84,0.04863677,-0.02978852,-0.00659969,0.02519155,0.00053930,0.00045593
 ,-0.00186918,-0.00095375,0.00029587,0.00028704,0.00005642,0.00019204,-
 0.00017543,-0.00002364,-0.00011061,-0.00000386,-0.00007926,0.00003851,
 0.00013864,0.00003819,0.00002370,0.00004415,0.00000865,0.00001027,-0.0
 0000587,-0.00000141,0.00001081,-0.00001189,-0.00000387,0.00000485,-0.0
 0000584,0.00029440,0.00018070,0.00016866,-0.00002904,0.00000764,0.0000
 0343,0.00002618,0.00001392,-0.00001077,0.01718354,-0.05475300,0.010045
 40,0.04675283,0.25013249,-0.00426940,-0.00458395,-0.00222838,0.0091811
 3,-0.00200955,0.00279757,0.00262248,0.00114635,0.00196611,0.00035830,0
 .00019604,0.00043331,0.00177294,0.00053638,0.00029731,-0.00098528,-0.0
 0010636,0.00005465,-0.00261305,0.00006555,0.00012395,0.00222303,0.0013
 9814,-0.00080141,0.00018679,-0.00089895,0.00004036,-0.00062703,0.00004
 909,-0.00002760,-0.00048720,0.00045816,0.00022857,0.00014255,0.0001391
 6,0.00009506,0.00001267,-0.00020485,-0.00005357,-0.00004723,-0.0000398
 2,0.00006889,-0.00013139,-0.00037513,0.00022076,0.00013011,0.00011183,
 -0.00013451,0.00013738,-0.00008070,-0.00008496,-0.00003830,-0.00005306
 ,-0.00003146,0.00125326,-0.00080417,0.00027215,-0.00193806,0.00184833,
 -0.00104486,-0.01075114,0.01266559,-0.01123116,-0.06769442,0.04066089,
 -0.12495085,0.07003188,0.02624080,-0.02085664,0.00053628,0.00104491,0.
 00100944,-0.00039773,0.00027634,0.00007690,0.00009249,0.00006361,0.000
 07092,0.00004082,-0.00044949,-0.00007438,-0.00001440,-0.00002822,-0.00
 010782,-0.00005936,-0.00003333,-0.00003892,-0.00000193,0.00000817,0.00
 000964,0.00000961,0.00000480,-0.00001919,0.00000561,-0.00000313,-0.000
 00142,0.00006775,0.00014430,-0.00009508,0.00002414,-0.00003384,-0.0000
 2197,0.00000011,-0.00000410,0.00004637,0.03328677,0.01328677,-0.077258
 02,-0.12384947,-0.18174546,0.39410988,0.00041737,0.00041217,0.00010324
 ,-0.00118606,-0.00018986,-0.00050472,0.00037118,-0.00000682,-0.0002313
 1,-0.00016959,-0.00004952,-0.00004619,-0.00018225,-0.00009586,-0.00004
 409,0.00012070,0.00001873,0.00001812,0.00031239,0.00066786,0.00045916,
 -0.00018872,-0.00013023,0.00015420,-0.00014981,0.00020669,-0.00000918,
 0.00023468,-0.00000626,0.00001261,0.00003158,-0.00007029,0.00002317,0.
 00003240,-0.00008475,0.00000252,-0.00004601,0.00005385,0.00001301,0.00
 007137,0.00002028,-0.00001661,-0.00000288,-0.00005400,-0.00015279,0.00
 005175,0.00007133,-0.00001509,-0.00004670,-0.00005790,0.00002329,-0.00
 001264,0.00005926,0.00000144,-0.00006759,-0.00020790,-0.00004130,-0.00
 024551,-0.00013610,-0.00017834,-0.00029994,0.00085900,-0.00040339,-0.0
 0143234,0.00172675,-0.00159667,0.00399862,-0.00275039,0.00267278,-0.00
 001402,-0.00006939,-0.00000813,-0.00009187,0.00004616,-0.00001333,-0.0
 0001675,0.00000788,-0.00001336,-0.00000864,0.00004145,0.00000060,-0.00
 000172,0.00001114,0.00000382,0.00000500,0.00000856,-0.00000012,0.00000
 073,0.00000878,0.00000122,0.00000654,0.00000533,0.00000144,0.00000532,
 0.00000603,-0.00000189,0.00017809,0.00006236,0.00011454,0.00000200,-0.
 00000242,0.,0.00001494,0.00000071,-0.00000217,-0.19565674,0.07455396,-
 0.10958335,-0.00269077,0.01051013,-0.01793710,0.19661766,-0.00033062,0
 .00014244,-0.00068974,-0.00217856,0.00014538,-0.00064124,0.00034226,-0
 .00028712,-0.00009615,0.00013719,0.00026421,-0.00015531,-0.00009558,0.
 00026914,0.00006242,-0.00019557,-0.00005828,-0.00002507,-0.00170916,0.
 00097639,0.00002263,0.00019879,-0.00028770,0.00022295,0.00005839,-0.00
 021617,0.00000611,-0.00032225,-0.00011714,0.00002445,-0.00018466,0.000
 03815,0.00001792,0.00000289,0.00001399,-0.00002383,-0.00001003,-0.0000
 7123,-0.00001248,-0.00002447,0.00001071,-0.00002831,-0.00001988,-0.000
 14890,0.00000583,-0.00002251,0.00010234,0.00000010,-0.00000339,0.00001
 039,0.00000686,0.00002718,0.00000978,0.00000416,0.00030817,-0.00003619
 ,0.00007258,0.00023950,0.00121141,-0.00001915,0.00334152,-0.00181333,0
 .00075510,-0.00030071,0.01045607,0.00438052,0.01285142,0.00011183,0.00
 242491,-0.00018026,-0.00019553,0.00025611,0.00016213,-0.00013241,0.000
 09732,-0.00001019,-0.00004189,0.00001743,-0.00000232,0.00003849,0.0000
 2366,-0.00001383,0.00000400,0.00000143,-0.00001161,0.00000088,0.000015
 50,-0.00000323,0.00000225,0.00000427,0.00000293,0.00000304,0.00000952,
 0.00000426,0.00000043,0.00000403,-0.00009903,0.00011689,0.00009164,0.0
 0001852,-0.00000796,-0.00001579,0.00001313,0.00000322,-0.00000004,0.07
 079142,-0.08985978,0.07420212,0.00216534,0.00356422,0.00239693,-0.0850
 8190,0.07726227,-0.00076613,-0.00016637,-0.00080300,-0.00153947,-0.000
 12109,0.00009677,-0.00037070,0.00080892,0.00046406,0.00035777,0.000068
 12,0.00009073,0.00019457,0.00036143,0.00009251,-0.00043853,0.00006946,
 -0.00003744,-0.00192957,-0.00088422,-0.00093131,0.00024523,0.00037933,
 -0.00011566,0.00036229,-0.00031990,-0.00006350,-0.00048072,-0.00001811
 ,-0.00002155,-0.00033267,0.00023842,0.00006386,0.00002114,0.00013387,-
 0.00004722,0.00014951,-0.00005755,-0.00000532,-0.00018251,-0.00012206,
 0.00001629,0.00049744,-0.00005820,0.00038646,0.00001763,-0.00010599,0.
 00008545,0.00011289,0.00001313,-0.00003944,-0.00003909,-0.00014165,-0.
 00000450,0.00028687,0.00008679,0.00009090,0.00003905,0.00099396,-0.000
 32281,0.00212144,-0.00021143,0.00217171,-0.00198893,0.00620858,0.00111
 605,-0.00814244,0.00745634,-0.00903067,-0.00020315,-0.00020317,0.00019
 530,0.00009930,-0.00001665,-0.00010212,-0.00003868,-0.00002402,0.00007
 414,-0.00000497,0.00004250,-0.00001412,-0.00000258,0.00002346,-0.00000
 960,0.00000675,0.00001477,0.00000163,0.00000859,0.00000685,-0.00000298
 ,0.00000398,-0.00001772,-0.00000615,-0.00000184,-0.00001232,0.00000224
 ,-0.00041068,0.00014195,-0.00046649,0.00005587,-0.00003733,-0.00003716
 ,-0.00001417,-0.00000444,-0.00001164,-0.12068870,0.07100404,-0.1473059
 8,0.00677985,-0.00212983,0.00788283,0.12670552,-0.08245968,0.14761276,
 -0.00108036,-0.00025813,-0.00030997,0.00046608,-0.00225734,-0.00086113
 ,0.00044905,0.00002728,0.00021826,0.00048372,-0.00004259,0.00010896,0.
 00016121,0.00037293,0.00016078,-0.00049078,0.00006738,-0.00010073,-0.0
 0036414,0.00097702,0.00064313,0.00006250,-0.00014450,-0.00003217,0.000
 14824,-0.00025129,-0.00008755,-0.00046468,-0.00012725,0.00000386,0.000
 03176,0.00000137,0.00001917,-0.00004650,0.00009904,0.00001197,0.000037
 19,-0.00008005,-0.00001029,-0.00005611,-0.00001486,-0.00002804,0.00007
 361,-0.00000471,-0.00005129,-0.00007899,-0.00002254,0.00003052,0.00001
 239,0.00008018,0.00002096,0.00004571,-0.00006383,-0.00000944,0.0006826
 9,0.00047883,0.00014348,0.00003196,0.00007323,0.00017771,0.00179163,0.
 00071728,0.00101586,0.00329597,0.00608417,-0.00779181,-0.00251775,-0.0
 0346745,0.00284595,-0.00007663,-0.00004349,0.00005399,-0.00001416,-0.0
 0000299,-0.00000255,0.00000376,0.00001044,-0.00001372,0.00001048,0.000
 01197,0.00001341,0.00000391,-0.00001134,-0.00001188,-0.00000329,-0.000
 00179,-0.00000846,-0.00000780,-0.00001007,0.00000175,-0.00000626,-0.00
 000339,0.00000612,-0.00000554,-0.00000270,-0.00000170,0.00001726,-0.00
 002359,-0.00003362,-0.00000254,0.00000829,0.00000015,-0.00000793,0.000
 00269,-0.00000585,-0.00223962,-0.01168031,0.01812313,-0.15911799,-0.06
 616157,0.10972638,0.00003822,0.00013472,-0.00049016,0.15873374,-0.0013
 0421,-0.00135100,-0.00068927,0.00078994,0.00158638,0.00004176,-0.00095
 124,-0.00091237,-0.00008088,0.00137145,0.00055719,0.00009872,0.0006779
 0,0.00100581,0.00014307,-0.00109857,-0.00015162,-0.00025653,0.00165474
 ,0.00159707,-0.00158836,-0.00030897,0.00024745,-0.00019981,0.00046522,
 -0.00056481,0.00010662,-0.00124645,-0.00022589,0.00000229,-0.00000786,
 -0.00008974,-0.00011603,-0.00005608,0.00016073,0.00002296,0.00008116,-
 0.00023289,-0.00004176,-0.00024763,0.00001661,0.00000487,-0.00009738,0
 .00021238,-0.00003611,-0.00012653,-0.00008346,0.00007349,0.00000433,0.
 00012025,0.00003667,0.00006950,-0.00011408,-0.00000506,0.00108796,0.00
 182368,0.00071164,0.00148491,-0.00180937,0.00023858,-0.00194110,0.0009
 5052,-0.00148134,-0.00764720,-0.00356140,0.00790305,-0.00304439,0.0026
 7875,0.00822460,-0.00011793,0.00018246,0.00003999,0.00001735,-0.000033
 75,0.00002698,0.00002146,0.00001902,0.00002780,0.00000440,-0.00002692,
 0.00008110,0.00000603,-0.00003338,0.00005317,-0.00002637,-0.00001707,-
 0.00002168,-0.00000433,-0.00001000,0.00000169,-0.00000645,-0.00000546,
 0.00001285,-0.00000670,-0.00000431,-0.00000364,0.00004468,-0.00013209,
 -0.00002485,-0.00000302,0.00001289,0.00000259,-0.00001874,0.00000289,-
 0.00002049,0.00812514,0.00614003,-0.00208037,-0.07280911,-0.08952780,0
 .08871198,-0.00036482,-0.00148425,-0.00094018,0.07552893,0.08305757,-0
 .00184179,-0.00100860,-0.00130204,0.00169701,-0.00241197,-0.00119548,-
 0.00008786,-0.00005451,0.00015452,0.00116422,0.00032591,0.00020980,0.0
 0068091,0.00083674,0.00032941,-0.00104588,0.00005253,-0.00015197,0.002
 14172,0.00054904,-0.00146354,0.00013918,0.00076350,-0.00011369,0.00075
 391,-0.00064569,0.00009773,-0.00115292,-0.00026334,-0.00003753,-0.0001
 6552,0.00004580,-0.00008347,-0.00003816,0.00025240,0.00002724,0.000170
 40,-0.00023057,-0.00003691,-0.00030125,-0.00000668,0.00002289,0.000116
 41,0.00000172,-0.00006497,-0.00016067,-0.00003715,0.00007691,0.0000728
 4,0.00014821,0.00004359,0.00009415,-0.00016484,-0.00001512,0.00084518,
 0.00056970,0.00026221,-0.00035411,0.00066916,0.00005402,0.00229392,0.0
 0126411,0.00257008,0.00231268,0.00468094,-0.00421173,0.00524481,0.0046
 3822,0.00346517,-0.00017580,-0.00031354,-0.00032496,-0.00007365,0.0000
 2333,-0.00009587,0.00003625,0.00000857,-0.00004026,-0.00000373,-0.0000
 0451,0.00005005,0.00001494,-0.00000035,0.00000819,-0.00001063,0.000018
 73,-0.00002570,0.00001173,0.00001423,-0.00000062,0.00000453,-0.0000069
 7,0.00000305,0.00000016,-0.00000157,-0.00000409,0.00001340,-0.00001832
 ,-0.00002677,0.00000393,-0.00000527,-0.00000884,0.,0.00000245,-0.00002
 184,-0.00079438,0.00266805,0.00368316,0.11138083,0.08758037,-0.1707424
 7,0.00048842,-0.00095968,-0.00106501,-0.12347515,-0.09898014,0.1699748
 5\\0.00000057,-0.00000004,0.00000033,-0.00000039,0.00000087,0.00000023
 ,0.00000060,-0.00000024,0.,0.00000062,0.00000057,-0.00000036,0.0000016
 3,0.00000088,0.00000130,-0.00000129,-0.00000088,-0.00000006,-0.0000015
 7,0.00000055,0.00000207,-0.00000095,-0.00000096,-0.00000038,-0.0000007
 4,0.00000066,-0.00000009,0.00000055,-0.00000090,-0.00000012,-0.0000000
 3,-0.00000037,-0.00000062,0.00000063,-0.00000051,-0.00000163,-0.000001
 86,0.00000076,-0.00000023,0.00000201,-0.00000136,-0.00000124,0.0000010
 7,-0.00000066,0.00000017,-0.00000006,0.00000076,-0.00000050,-0.0000012
 8,0.00000030,-0.00000064,-0.00000063,-0.00000136,-0.00000067,0.0000001
 4,-0.00000040,0.00000103,0.00000096,0.00000035,0.00000183,-0.00000160,
 0.00000108,0.00000043,0.00000196,0.00000069,0.00000124,0.00000153,-0.0
 0000084,-0.00000414,-0.00000032,0.00000024,0.00000093,-0.00000038,0.00
 000032,0.00000124,-0.00000008,0.00000036,0.00000104,0.00000017,0.00000
 028,0.00000061,0.00000036,0.00000012,0.00000009,0.00000033,-0.00000003
 ,-0.00000031,0.00000029,-0.00000018,-0.00000077,0.00000019,-0.00000043
 ,-0.00000115,-0.00000006,-0.00000044,-0.00000120,-0.00000030,-0.000000
 06,-0.00000030,-0.00000044,-0.00000030,-0.00000039,-0.00000030,-0.0000
 0049,-0.00000095,-0.00000354,0.00000167,0.00000180,0.00000195,-0.00000
 028,0.00000052,0.00000010,0.00000007,0.00000014,0.00000015,0.00000019,
 0.00000073\\\@


 ALL OUR THINKING ABOUT NATURE MUST NECESSARILY MOVE IN CIRCLES OR SPIRALS;
 FOR WE CAN ONLY UNDERSTAND NATURE IF WE THINK ABOUT HER, AND WE CAN ONLY
 THINK BECAUSE OUR BRAIN IS BUILT IN ACCORDANCE WITH NATURE'S LAWS.

                                             -- TIMOTHY FERRIS, "GALAXIES"
 Job cpu time:       3 days 11 hours 10 minutes 43.8 seconds.
 File lengths (MBytes):  RWF=   8995 Int=      0 D2E=      0 Chk=     42 Scr=      1
 Normal termination of Gaussian 09 at Mon Feb  3 03:10:53 2020.
