 Entering Gaussian System, Link 0=g09
 Initial command:
 /usr/local/Cluster-Apps/gaussian/g09/l1.exe "/rds/user/am2145/hpc-work/scratch/19190031/Gau-215418.inp" -scrdir="/rds/user/am2145/hpc-work/scratch/19190031/"
 Entering Link 1 = /usr/local/Cluster-Apps/gaussian/g09/l1.exe PID=    215419.
  
 Copyright (c) 1988,1990,1992,1993,1995,1998,2003,2009,2013,
            Gaussian, Inc.  All Rights Reserved.
  
 This is part of the Gaussian(R) 09 program.  It is based on
 the Gaussian(R) 03 system (copyright 2003, Gaussian, Inc.),
 the Gaussian(R) 98 system (copyright 1998, Gaussian, Inc.),
 the Gaussian(R) 94 system (copyright 1995, Gaussian, Inc.),
 the Gaussian 92(TM) system (copyright 1992, Gaussian, Inc.),
 the Gaussian 90(TM) system (copyright 1990, Gaussian, Inc.),
 the Gaussian 88(TM) system (copyright 1988, Gaussian, Inc.),
 the Gaussian 86(TM) system (copyright 1986, Carnegie Mellon
 University), and the Gaussian 82(TM) system (copyright 1983,
 Carnegie Mellon University). Gaussian is a federally registered
 trademark of Gaussian, Inc.
  
 This software contains proprietary and confidential information,
 including trade secrets, belonging to Gaussian, Inc.
  
 This software is provided under written license and may be
 used, copied, transmitted, or stored only in accord with that
 written license.
  
 The following legend is applicable only to US Government
 contracts under FAR:
  
                    RESTRICTED RIGHTS LEGEND
  
 Use, reproduction and disclosure by the US Government is
 subject to restrictions as set forth in subparagraphs (a)
 and (c) of the Commercial Computer Software - Restricted
 Rights clause in FAR 52.227-19.
  
 Gaussian, Inc.
 340 Quinnipiac St., Bldg. 40, Wallingford CT 06492
  
  
 ---------------------------------------------------------------
 Warning -- This program may not be used in any manner that
 competes with the business of Gaussian, Inc. or will provide
 assistance to any competitor of Gaussian, Inc.  The licensee
 of this program is prohibited from giving any competitor of
 Gaussian, Inc. access to this program.  By using this program,
 the user acknowledges that Gaussian, Inc. is engaged in the
 business of creating and licensing software in the field of
 computational chemistry and represents and warrants to the
 licensee that it is not a competitor of Gaussian, Inc. and that
 it will not use this program in any manner prohibited above.
 ---------------------------------------------------------------
  

 Cite this work as:
 Gaussian 09, Revision D.01,
 M. J. Frisch, G. W. Trucks, H. B. Schlegel, G. E. Scuseria, 
 M. A. Robb, J. R. Cheeseman, G. Scalmani, V. Barone, B. Mennucci, 
 G. A. Petersson, H. Nakatsuji, M. Caricato, X. Li, H. P. Hratchian, 
 A. F. Izmaylov, J. Bloino, G. Zheng, J. L. Sonnenberg, M. Hada, 
 M. Ehara, K. Toyota, R. Fukuda, J. Hasegawa, M. Ishida, T. Nakajima, 
 Y. Honda, O. Kitao, H. Nakai, T. Vreven, J. A. Montgomery, Jr., 
 J. E. Peralta, F. Ogliaro, M. Bearpark, J. J. Heyd, E. Brothers, 
 K. N. Kudin, V. N. Staroverov, T. Keith, R. Kobayashi, J. Normand, 
 K. Raghavachari, A. Rendell, J. C. Burant, S. S. Iyengar, J. Tomasi, 
 M. Cossi, N. Rega, J. M. Millam, M. Klene, J. E. Knox, J. B. Cross, 
 V. Bakken, C. Adamo, J. Jaramillo, R. Gomperts, R. E. Stratmann, 
 O. Yazyev, A. J. Austin, R. Cammi, C. Pomelli, J. W. Ochterski, 
 R. L. Martin, K. Morokuma, V. G. Zakrzewski, G. A. Voth, 
 P. Salvador, J. J. Dannenberg, S. Dapprich, A. D. Daniels, 
 O. Farkas, J. B. Foresman, J. V. Ortiz, J. Cioslowski, 
 and D. J. Fox, Gaussian, Inc., Wallingford CT, 2013.
 
 ******************************************
 Gaussian 09:  ES64L-G09RevD.01 24-Apr-2013
                 2-Feb-2020 
 ******************************************
 %NProcShared=20
 Will use up to   20 processors via shared memory.
 %mem=64GB
 %Chk=BS2a_Hmigcloseloss_guess.chk
 --------------------------------------------------
 #n opt=(ts,calcfc,noeigen) freq b3lyp/6-311+g(d,p)
 --------------------------------------------------
 1/5=1,10=4,11=1,14=-1,18=20,26=3,38=1/1,3;
 2/9=110,12=2,17=6,18=5,40=1/2;
 3/5=4,6=6,7=111,11=2,16=1,25=1,30=1,71=2,74=-5,140=1/1,2,3;
 4//1;
 5/5=2,38=5/2;
 8/6=4,10=90,11=11/1;
 11/6=1,8=1,9=11,15=111,16=1/1,2,10;
 10/6=1,13=1/2;
 6/7=2,8=2,9=2,10=2,28=1/1;
 7/10=1,18=20,25=1/1,2,3,16;
 1/5=1,10=4,11=1,14=-1,18=20,26=3/3(2);
 2/9=110/2;
 99//99;
 2/9=110/2;
 3/5=4,6=6,7=111,11=2,16=1,25=1,30=1,71=1,74=-5/1,2,3;
 4/5=5,16=3,69=1/1;
 5/5=2,38=5/2;
 7//1,2,3,16;
 1/5=1,11=1,14=-1,18=20,26=3/3(-5);
 2/9=110/2;
 6/7=2,8=2,9=2,10=2,19=2,28=1/1;
 99/9=1/99;
 ------------------------
 BS2a_Hmigcloseloss_guess
 ------------------------
 Symbolic Z-matrix:
 Charge =  0 Multiplicity = 3
 C                    -3.83228   0.36312  -0.01312 
 C                    -2.53075  -0.12405  -0.00749 
 C                    -1.40447   0.69696   0.02781 
 C                    -1.49605   2.08415   0.05071 
 C                    -3.94537   1.80197   0.02112 
 C                    -2.83702   2.61904   0.05064 
 C                    -0.23028  -0.09829   0.01947 
 C                     1.02823   0.56923   0.02243 
 C                     0.95631   2.02559   0.03266 
 C                    -0.25607   2.74739   0.0554 
 C                     2.32542  -0.08508  -0.00043 
 C                     3.49504   0.74864  -0.05871 
 C                     3.37697   2.17629  -0.05331 
 C                     2.17176   2.78244   0.00181 
 C                     2.54529  -1.51337   0.03573 
 C                     3.86075  -1.99863  -0.01585 
 C                     4.97249  -1.1704   -0.10404 
 C                     4.7858    0.19512  -0.11667 
 C                    -4.84475  -0.63063  -0.05596 
 C                    -4.48557  -1.97867  -0.09006 
 C                    -3.14485  -2.42861  -0.08485 
 C                    -2.12307  -1.47839  -0.04335 
 C                    -0.66574  -1.469    -0.02292 
 H                    -2.94419  -3.49422  -0.11297 
 H                    -5.27418  -2.72242  -0.12243 
 H                    -5.8934   -0.35329  -0.06307 
 H                    -4.93248   2.25323   0.02026 
 H                    -2.97349   3.69532   0.07148 
 H                    -0.20509   3.83112   0.06441 
 H                     2.09981   3.86459   0.01217 
 H                     4.28932   2.76123  -0.08959 
 H                     5.63489   0.86776  -0.16805 
 H                     2.01338  -3.57537   0.07818 
 H                     4.00875  -3.07157   0.0198 
 H                     5.96778  -1.59647  -0.1514 
 C                     0.18549  -2.60923  -0.02584 
 C                     1.54796  -2.59702   0.14606 
 H                    -0.29048  -3.58403  -0.05562 
 H                     1.76793  -2.64714   1.86917 
 
 Add virtual bond connecting atoms H39        and C37        Dist= 3.28D+00.

 GradGradGradGradGradGradGradGradGradGradGradGradGradGradGradGradGradGrad
 Berny optimization.
 Initialization pass.
                           ----------------------------
                           !    Initial Parameters    !
                           ! (Angstroms and Degrees)  !
 --------------------------                            --------------------------
 ! Name  Definition              Value          Derivative Info.                !
 --------------------------------------------------------------------------------
 ! R1    R(1,2)                  1.3897         calculate D2E/DX2 analytically  !
 ! R2    R(1,5)                  1.4437         calculate D2E/DX2 analytically  !
 ! R3    R(1,19)                 1.4193         calculate D2E/DX2 analytically  !
 ! R4    R(2,3)                  1.3942         calculate D2E/DX2 analytically  !
 ! R5    R(2,22)                 1.4148         calculate D2E/DX2 analytically  !
 ! R6    R(3,4)                  1.3904         calculate D2E/DX2 analytically  !
 ! R7    R(3,7)                  1.4182         calculate D2E/DX2 analytically  !
 ! R8    R(4,6)                  1.4437         calculate D2E/DX2 analytically  !
 ! R9    R(4,10)                 1.4062         calculate D2E/DX2 analytically  !
 ! R10   R(5,6)                  1.3773         calculate D2E/DX2 analytically  !
 ! R11   R(5,27)                 1.0854         calculate D2E/DX2 analytically  !
 ! R12   R(6,28)                 1.0851         calculate D2E/DX2 analytically  !
 ! R13   R(7,8)                  1.4246         calculate D2E/DX2 analytically  !
 ! R14   R(7,23)                 1.4388         calculate D2E/DX2 analytically  !
 ! R15   R(8,9)                  1.4582         calculate D2E/DX2 analytically  !
 ! R16   R(8,11)                 1.453          calculate D2E/DX2 analytically  !
 ! R17   R(9,10)                 1.4112         calculate D2E/DX2 analytically  !
 ! R18   R(9,14)                 1.4322         calculate D2E/DX2 analytically  !
 ! R19   R(10,29)                1.085          calculate D2E/DX2 analytically  !
 ! R20   R(11,12)                1.4375         calculate D2E/DX2 analytically  !
 ! R21   R(11,15)                1.4456         calculate D2E/DX2 analytically  !
 ! R22   R(12,13)                1.4325         calculate D2E/DX2 analytically  !
 ! R23   R(12,18)                1.4056         calculate D2E/DX2 analytically  !
 ! R24   R(13,14)                1.3502         calculate D2E/DX2 analytically  !
 ! R25   R(13,31)                1.0844         calculate D2E/DX2 analytically  !
 ! R26   R(14,30)                1.0846         calculate D2E/DX2 analytically  !
 ! R27   R(15,16)                1.4031         calculate D2E/DX2 analytically  !
 ! R28   R(15,37)                1.4769         calculate D2E/DX2 analytically  !
 ! R29   R(16,17)                1.3891         calculate D2E/DX2 analytically  !
 ! R30   R(16,34)                1.0837         calculate D2E/DX2 analytically  !
 ! R31   R(17,18)                1.3783         calculate D2E/DX2 analytically  !
 ! R32   R(17,35)                1.0837         calculate D2E/DX2 analytically  !
 ! R33   R(18,32)                1.0845         calculate D2E/DX2 analytically  !
 ! R34   R(19,20)                1.3955         calculate D2E/DX2 analytically  !
 ! R35   R(19,26)                1.0847         calculate D2E/DX2 analytically  !
 ! R36   R(20,21)                1.4142         calculate D2E/DX2 analytically  !
 ! R37   R(20,25)                1.0845         calculate D2E/DX2 analytically  !
 ! R38   R(21,22)                1.3959         calculate D2E/DX2 analytically  !
 ! R39   R(21,24)                1.0847         calculate D2E/DX2 analytically  !
 ! R40   R(22,23)                1.4575         calculate D2E/DX2 analytically  !
 ! R41   R(23,36)                1.4229         calculate D2E/DX2 analytically  !
 ! R42   R(33,37)                1.0855         calculate D2E/DX2 analytically  !
 ! R43   R(36,37)                1.3733         calculate D2E/DX2 analytically  !
 ! R44   R(36,38)                1.0852         calculate D2E/DX2 analytically  !
 ! R45   R(37,39)                1.7378         calculate D2E/DX2 analytically  !
 ! A1    A(2,1,5)              115.0014         calculate D2E/DX2 analytically  !
 ! A2    A(2,1,19)             115.0088         calculate D2E/DX2 analytically  !
 ! A3    A(5,1,19)             129.9895         calculate D2E/DX2 analytically  !
 ! A4    A(1,2,3)              123.383          calculate D2E/DX2 analytically  !
 ! A5    A(1,2,22)             127.2521         calculate D2E/DX2 analytically  !
 ! A6    A(3,2,22)             109.3638         calculate D2E/DX2 analytically  !
 ! A7    A(2,3,4)              122.3251         calculate D2E/DX2 analytically  !
 ! A8    A(2,3,7)              109.7847         calculate D2E/DX2 analytically  !
 ! A9    A(4,3,7)              127.8861         calculate D2E/DX2 analytically  !
 ! A10   A(3,4,6)              115.5195         calculate D2E/DX2 analytically  !
 ! A11   A(3,4,10)             114.3641         calculate D2E/DX2 analytically  !
 ! A12   A(6,4,10)             130.1121         calculate D2E/DX2 analytically  !
 ! A13   A(1,5,6)              121.9195         calculate D2E/DX2 analytically  !
 ! A14   A(1,5,27)             119.0515         calculate D2E/DX2 analytically  !
 ! A15   A(6,5,27)             119.0287         calculate D2E/DX2 analytically  !
 ! A16   A(4,6,5)              121.8482         calculate D2E/DX2 analytically  !
 ! A17   A(4,6,28)             118.9667         calculate D2E/DX2 analytically  !
 ! A18   A(5,6,28)             119.1848         calculate D2E/DX2 analytically  !
 ! A19   A(3,7,8)              117.9481         calculate D2E/DX2 analytically  !
 ! A20   A(3,7,23)             106.487          calculate D2E/DX2 analytically  !
 ! A21   A(8,7,23)             135.5457         calculate D2E/DX2 analytically  !
 ! A22   A(7,8,9)              115.1147         calculate D2E/DX2 analytically  !
 ! A23   A(7,8,11)             125.2843         calculate D2E/DX2 analytically  !
 ! A24   A(9,8,11)             119.5962         calculate D2E/DX2 analytically  !
 ! A25   A(8,9,10)             123.5968         calculate D2E/DX2 analytically  !
 ! A26   A(8,9,14)             119.0649         calculate D2E/DX2 analytically  !
 ! A27   A(10,9,14)            117.3337         calculate D2E/DX2 analytically  !
 ! A28   A(4,10,9)             121.0825         calculate D2E/DX2 analytically  !
 ! A29   A(4,10,29)            120.8352         calculate D2E/DX2 analytically  !
 ! A30   A(9,10,29)            118.0782         calculate D2E/DX2 analytically  !
 ! A31   A(8,11,12)            117.7644         calculate D2E/DX2 analytically  !
 ! A32   A(8,11,15)            125.4725         calculate D2E/DX2 analytically  !
 ! A33   A(12,11,15)           116.7627         calculate D2E/DX2 analytically  !
 ! A34   A(11,12,13)           120.7156         calculate D2E/DX2 analytically  !
 ! A35   A(11,12,18)           121.3609         calculate D2E/DX2 analytically  !
 ! A36   A(13,12,18)           117.923          calculate D2E/DX2 analytically  !
 ! A37   A(12,13,14)           121.4084         calculate D2E/DX2 analytically  !
 ! A38   A(12,13,31)           117.9122         calculate D2E/DX2 analytically  !
 ! A39   A(14,13,31)           120.6786         calculate D2E/DX2 analytically  !
 ! A40   A(9,14,13)            121.4119         calculate D2E/DX2 analytically  !
 ! A41   A(9,14,30)            118.0844         calculate D2E/DX2 analytically  !
 ! A42   A(13,14,30)           120.4999         calculate D2E/DX2 analytically  !
 ! A43   A(11,15,16)           118.9083         calculate D2E/DX2 analytically  !
 ! A44   A(11,15,37)           128.6188         calculate D2E/DX2 analytically  !
 ! A45   A(16,15,37)           112.4646         calculate D2E/DX2 analytically  !
 ! A46   A(15,16,17)           123.1251         calculate D2E/DX2 analytically  !
 ! A47   A(15,16,34)           117.9865         calculate D2E/DX2 analytically  !
 ! A48   A(17,16,34)           118.8878         calculate D2E/DX2 analytically  !
 ! A49   A(16,17,18)           118.8735         calculate D2E/DX2 analytically  !
 ! A50   A(16,17,35)           120.2244         calculate D2E/DX2 analytically  !
 ! A51   A(18,17,35)           120.8991         calculate D2E/DX2 analytically  !
 ! A52   A(12,18,17)           120.9403         calculate D2E/DX2 analytically  !
 ! A53   A(12,18,32)           118.469          calculate D2E/DX2 analytically  !
 ! A54   A(17,18,32)           120.5903         calculate D2E/DX2 analytically  !
 ! A55   A(1,19,20)            119.5699         calculate D2E/DX2 analytically  !
 ! A56   A(1,19,26)            120.7175         calculate D2E/DX2 analytically  !
 ! A57   A(20,19,26)           119.7126         calculate D2E/DX2 analytically  !
 ! A58   A(19,20,21)           123.4534         calculate D2E/DX2 analytically  !
 ! A59   A(19,20,25)           118.428          calculate D2E/DX2 analytically  !
 ! A60   A(21,20,25)           118.1186         calculate D2E/DX2 analytically  !
 ! A61   A(20,21,22)           118.5199         calculate D2E/DX2 analytically  !
 ! A62   A(20,21,24)           119.1985         calculate D2E/DX2 analytically  !
 ! A63   A(22,21,24)           122.2816         calculate D2E/DX2 analytically  !
 ! A64   A(2,22,21)            116.1957         calculate D2E/DX2 analytically  !
 ! A65   A(2,22,23)            106.3553         calculate D2E/DX2 analytically  !
 ! A66   A(21,22,23)           137.449          calculate D2E/DX2 analytically  !
 ! A67   A(7,23,22)            108.0086         calculate D2E/DX2 analytically  !
 ! A68   A(7,23,36)            125.619          calculate D2E/DX2 analytically  !
 ! A69   A(22,23,36)           126.3674         calculate D2E/DX2 analytically  !
 ! A70   A(23,36,37)           125.8817         calculate D2E/DX2 analytically  !
 ! A71   A(23,36,38)           117.2245         calculate D2E/DX2 analytically  !
 ! A72   A(37,36,38)           116.5228         calculate D2E/DX2 analytically  !
 ! A73   A(15,37,33)           111.5365         calculate D2E/DX2 analytically  !
 ! A74   A(15,37,36)           131.8464         calculate D2E/DX2 analytically  !
 ! A75   A(15,37,39)            90.559          calculate D2E/DX2 analytically  !
 ! A76   A(33,37,36)           114.1745         calculate D2E/DX2 analytically  !
 ! A77   A(33,37,39)            88.9537         calculate D2E/DX2 analytically  !
 ! A78   A(36,37,39)           104.4439         calculate D2E/DX2 analytically  !
 ! D1    D(5,1,2,3)             -0.0233         calculate D2E/DX2 analytically  !
 ! D2    D(5,1,2,22)          -179.6065         calculate D2E/DX2 analytically  !
 ! D3    D(19,1,2,3)           179.7842         calculate D2E/DX2 analytically  !
 ! D4    D(19,1,2,22)            0.201          calculate D2E/DX2 analytically  !
 ! D5    D(2,1,5,6)              0.2896         calculate D2E/DX2 analytically  !
 ! D6    D(2,1,5,27)          -179.9169         calculate D2E/DX2 analytically  !
 ! D7    D(19,1,5,6)          -179.4827         calculate D2E/DX2 analytically  !
 ! D8    D(19,1,5,27)            0.3108         calculate D2E/DX2 analytically  !
 ! D9    D(2,1,19,20)           -0.0779         calculate D2E/DX2 analytically  !
 ! D10   D(2,1,19,26)          179.9599         calculate D2E/DX2 analytically  !
 ! D11   D(5,1,19,20)          179.6944         calculate D2E/DX2 analytically  !
 ! D12   D(5,1,19,26)           -0.2678         calculate D2E/DX2 analytically  !
 ! D13   D(1,2,3,4)             -0.4794         calculate D2E/DX2 analytically  !
 ! D14   D(1,2,3,7)           -179.7979         calculate D2E/DX2 analytically  !
 ! D15   D(22,2,3,4)           179.169          calculate D2E/DX2 analytically  !
 ! D16   D(22,2,3,7)            -0.1496         calculate D2E/DX2 analytically  !
 ! D17   D(1,2,22,21)           -0.2122         calculate D2E/DX2 analytically  !
 ! D18   D(1,2,22,23)          179.8671         calculate D2E/DX2 analytically  !
 ! D19   D(3,2,22,21)         -179.8433         calculate D2E/DX2 analytically  !
 ! D20   D(3,2,22,23)            0.236          calculate D2E/DX2 analytically  !
 ! D21   D(2,3,4,6)              0.6662         calculate D2E/DX2 analytically  !
 ! D22   D(2,3,4,10)          -178.6626         calculate D2E/DX2 analytically  !
 ! D23   D(7,3,4,6)            179.8537         calculate D2E/DX2 analytically  !
 ! D24   D(7,3,4,10)             0.525          calculate D2E/DX2 analytically  !
 ! D25   D(2,3,7,8)            178.6504         calculate D2E/DX2 analytically  !
 ! D26   D(2,3,7,23)            -0.0022         calculate D2E/DX2 analytically  !
 ! D27   D(4,3,7,8)             -0.62           calculate D2E/DX2 analytically  !
 ! D28   D(4,3,7,23)          -179.2726         calculate D2E/DX2 analytically  !
 ! D29   D(3,4,6,5)             -0.3971         calculate D2E/DX2 analytically  !
 ! D30   D(3,4,6,28)           179.7877         calculate D2E/DX2 analytically  !
 ! D31   D(10,4,6,5)           178.8034         calculate D2E/DX2 analytically  !
 ! D32   D(10,4,6,28)           -1.0119         calculate D2E/DX2 analytically  !
 ! D33   D(3,4,10,9)             0.2439         calculate D2E/DX2 analytically  !
 ! D34   D(3,4,10,29)          179.4906         calculate D2E/DX2 analytically  !
 ! D35   D(6,4,10,9)          -178.964          calculate D2E/DX2 analytically  !
 ! D36   D(6,4,10,29)            0.2827         calculate D2E/DX2 analytically  !
 ! D37   D(1,5,6,4)             -0.0764         calculate D2E/DX2 analytically  !
 ! D38   D(1,5,6,28)           179.7384         calculate D2E/DX2 analytically  !
 ! D39   D(27,5,6,4)          -179.87           calculate D2E/DX2 analytically  !
 ! D40   D(27,5,6,28)           -0.0551         calculate D2E/DX2 analytically  !
 ! D41   D(3,7,8,9)             -0.0565         calculate D2E/DX2 analytically  !
 ! D42   D(3,7,8,11)          -179.256          calculate D2E/DX2 analytically  !
 ! D43   D(23,7,8,9)           178.0986         calculate D2E/DX2 analytically  !
 ! D44   D(23,7,8,11)           -1.1009         calculate D2E/DX2 analytically  !
 ! D45   D(3,7,23,22)            0.1476         calculate D2E/DX2 analytically  !
 ! D46   D(3,7,23,36)         -179.083          calculate D2E/DX2 analytically  !
 ! D47   D(8,7,23,22)         -178.1528         calculate D2E/DX2 analytically  !
 ! D48   D(8,7,23,36)            2.6166         calculate D2E/DX2 analytically  !
 ! D49   D(7,8,9,10)             0.7845         calculate D2E/DX2 analytically  !
 ! D50   D(7,8,9,14)          -178.4213         calculate D2E/DX2 analytically  !
 ! D51   D(11,8,9,10)         -179.9669         calculate D2E/DX2 analytically  !
 ! D52   D(11,8,9,14)            0.8273         calculate D2E/DX2 analytically  !
 ! D53   D(7,8,11,12)          177.0649         calculate D2E/DX2 analytically  !
 ! D54   D(7,8,11,15)           -3.187          calculate D2E/DX2 analytically  !
 ! D55   D(9,8,11,12)           -2.1016         calculate D2E/DX2 analytically  !
 ! D56   D(9,8,11,15)          177.6465         calculate D2E/DX2 analytically  !
 ! D57   D(8,9,10,4)            -0.9106         calculate D2E/DX2 analytically  !
 ! D58   D(8,9,10,29)          179.8225         calculate D2E/DX2 analytically  !
 ! D59   D(14,9,10,4)          178.3079         calculate D2E/DX2 analytically  !
 ! D60   D(14,9,10,29)          -0.959          calculate D2E/DX2 analytically  !
 ! D61   D(8,9,14,13)            0.8417         calculate D2E/DX2 analytically  !
 ! D62   D(8,9,14,30)         -179.8669         calculate D2E/DX2 analytically  !
 ! D63   D(10,9,14,13)        -178.4136         calculate D2E/DX2 analytically  !
 ! D64   D(10,9,14,30)           0.8778         calculate D2E/DX2 analytically  !
 ! D65   D(8,11,12,13)           1.8372         calculate D2E/DX2 analytically  !
 ! D66   D(8,11,12,18)        -178.4434         calculate D2E/DX2 analytically  !
 ! D67   D(15,11,12,13)       -177.9331         calculate D2E/DX2 analytically  !
 ! D68   D(15,11,12,18)          1.7863         calculate D2E/DX2 analytically  !
 ! D69   D(8,11,15,16)         178.929          calculate D2E/DX2 analytically  !
 ! D70   D(8,11,15,37)          -2.2097         calculate D2E/DX2 analytically  !
 ! D71   D(12,11,15,16)         -1.3206         calculate D2E/DX2 analytically  !
 ! D72   D(12,11,15,37)        177.5407         calculate D2E/DX2 analytically  !
 ! D73   D(11,12,13,14)         -0.2217         calculate D2E/DX2 analytically  !
 ! D74   D(11,12,13,31)        179.453          calculate D2E/DX2 analytically  !
 ! D75   D(18,12,13,14)       -179.9506         calculate D2E/DX2 analytically  !
 ! D76   D(18,12,13,31)         -0.2759         calculate D2E/DX2 analytically  !
 ! D77   D(11,12,18,17)         -0.7489         calculate D2E/DX2 analytically  !
 ! D78   D(11,12,18,32)        179.4728         calculate D2E/DX2 analytically  !
 ! D79   D(13,12,18,17)        178.9781         calculate D2E/DX2 analytically  !
 ! D80   D(13,12,18,32)         -0.8002         calculate D2E/DX2 analytically  !
 ! D81   D(12,13,14,9)          -1.1585         calculate D2E/DX2 analytically  !
 ! D82   D(12,13,14,30)        179.567          calculate D2E/DX2 analytically  !
 ! D83   D(31,13,14,9)         179.1757         calculate D2E/DX2 analytically  !
 ! D84   D(31,13,14,30)         -0.0987         calculate D2E/DX2 analytically  !
 ! D85   D(11,15,16,17)         -0.1688         calculate D2E/DX2 analytically  !
 ! D86   D(11,15,16,34)        179.5457         calculate D2E/DX2 analytically  !
 ! D87   D(37,15,16,17)       -179.2062         calculate D2E/DX2 analytically  !
 ! D88   D(37,15,16,34)          0.5083         calculate D2E/DX2 analytically  !
 ! D89   D(11,15,37,33)        176.0243         calculate D2E/DX2 analytically  !
 ! D90   D(11,15,37,36)         15.2159         calculate D2E/DX2 analytically  !
 ! D91   D(11,15,37,39)        -94.8799         calculate D2E/DX2 analytically  !
 ! D92   D(16,15,37,33)         -5.0543         calculate D2E/DX2 analytically  !
 ! D93   D(16,15,37,36)       -165.8627         calculate D2E/DX2 analytically  !
 ! D94   D(16,15,37,39)         84.0414         calculate D2E/DX2 analytically  !
 ! D95   D(15,16,17,18)          1.2673         calculate D2E/DX2 analytically  !
 ! D96   D(15,16,17,35)       -179.3615         calculate D2E/DX2 analytically  !
 ! D97   D(34,16,17,18)       -178.4447         calculate D2E/DX2 analytically  !
 ! D98   D(34,16,17,35)          0.9265         calculate D2E/DX2 analytically  !
 ! D99   D(16,17,18,12)         -0.7966         calculate D2E/DX2 analytically  !
 ! D100  D(16,17,18,32)        178.977          calculate D2E/DX2 analytically  !
 ! D101  D(35,17,18,12)        179.8366         calculate D2E/DX2 analytically  !
 ! D102  D(35,17,18,32)         -0.3898         calculate D2E/DX2 analytically  !
 ! D103  D(1,19,20,21)          -0.0159         calculate D2E/DX2 analytically  !
 ! D104  D(1,19,20,25)         179.9928         calculate D2E/DX2 analytically  !
 ! D105  D(26,19,20,21)        179.9466         calculate D2E/DX2 analytically  !
 ! D106  D(26,19,20,25)         -0.0447         calculate D2E/DX2 analytically  !
 ! D107  D(19,20,21,22)          0.0063         calculate D2E/DX2 analytically  !
 ! D108  D(19,20,21,24)       -179.998          calculate D2E/DX2 analytically  !
 ! D109  D(25,20,21,22)        179.9976         calculate D2E/DX2 analytically  !
 ! D110  D(25,20,21,24)         -0.0067         calculate D2E/DX2 analytically  !
 ! D111  D(20,21,22,2)           0.0951         calculate D2E/DX2 analytically  !
 ! D112  D(20,21,22,23)        179.9826         calculate D2E/DX2 analytically  !
 ! D113  D(24,21,22,2)        -179.9004         calculate D2E/DX2 analytically  !
 ! D114  D(24,21,22,23)         -0.0129         calculate D2E/DX2 analytically  !
 ! D115  D(2,22,23,7)           -0.2354         calculate D2E/DX2 analytically  !
 ! D116  D(2,22,23,36)         178.9879         calculate D2E/DX2 analytically  !
 ! D117  D(21,22,23,7)         179.8699         calculate D2E/DX2 analytically  !
 ! D118  D(21,22,23,36)         -0.9068         calculate D2E/DX2 analytically  !
 ! D119  D(7,23,36,37)           6.9806         calculate D2E/DX2 analytically  !
 ! D120  D(7,23,36,38)         179.7153         calculate D2E/DX2 analytically  !
 ! D121  D(22,23,36,37)       -172.1108         calculate D2E/DX2 analytically  !
 ! D122  D(22,23,36,38)          0.6239         calculate D2E/DX2 analytically  !
 ! D123  D(23,36,37,15)        -17.744          calculate D2E/DX2 analytically  !
 ! D124  D(23,36,37,33)       -178.1611         calculate D2E/DX2 analytically  !
 ! D125  D(23,36,37,39)         86.3904         calculate D2E/DX2 analytically  !
 ! D126  D(38,36,37,15)        169.4761         calculate D2E/DX2 analytically  !
 ! D127  D(38,36,37,33)          9.059          calculate D2E/DX2 analytically  !
 ! D128  D(38,36,37,39)        -86.3895         calculate D2E/DX2 analytically  !
 --------------------------------------------------------------------------------
 Trust Radius=3.00D-01 FncErr=1.00D-07 GrdErr=1.00D-06
 Number of steps in this run=    234 maximum allowed number of steps=    234.
 Search for a saddle point of order  1.
 GradGradGradGradGradGradGradGradGradGradGradGradGradGradGradGradGradGrad

                          Input orientation:                          
 ---------------------------------------------------------------------
 Center     Atomic      Atomic             Coordinates (Angstroms)
 Number     Number       Type             X           Y           Z
 ---------------------------------------------------------------------
      1          6           0       -3.832280    0.363120   -0.013120
      2          6           0       -2.530750   -0.124050   -0.007490
      3          6           0       -1.404470    0.696960    0.027810
      4          6           0       -1.496050    2.084150    0.050710
      5          6           0       -3.945370    1.801970    0.021120
      6          6           0       -2.837020    2.619040    0.050640
      7          6           0       -0.230280   -0.098290    0.019470
      8          6           0        1.028230    0.569230    0.022430
      9          6           0        0.956310    2.025590    0.032660
     10          6           0       -0.256070    2.747390    0.055400
     11          6           0        2.325420   -0.085080   -0.000430
     12          6           0        3.495040    0.748640   -0.058710
     13          6           0        3.376970    2.176290   -0.053310
     14          6           0        2.171760    2.782440    0.001810
     15          6           0        2.545290   -1.513370    0.035730
     16          6           0        3.860750   -1.998630   -0.015850
     17          6           0        4.972490   -1.170400   -0.104040
     18          6           0        4.785800    0.195120   -0.116670
     19          6           0       -4.844750   -0.630630   -0.055960
     20          6           0       -4.485570   -1.978670   -0.090060
     21          6           0       -3.144850   -2.428610   -0.084850
     22          6           0       -2.123070   -1.478390   -0.043350
     23          6           0       -0.665740   -1.469000   -0.022920
     24          1           0       -2.944190   -3.494220   -0.112970
     25          1           0       -5.274180   -2.722420   -0.122430
     26          1           0       -5.893400   -0.353290   -0.063070
     27          1           0       -4.932480    2.253230    0.020260
     28          1           0       -2.973490    3.695320    0.071480
     29          1           0       -0.205090    3.831120    0.064410
     30          1           0        2.099810    3.864590    0.012170
     31          1           0        4.289320    2.761230   -0.089590
     32          1           0        5.634890    0.867760   -0.168050
     33          1           0        2.013380   -3.575370    0.078180
     34          1           0        4.008750   -3.071570    0.019800
     35          1           0        5.967780   -1.596470   -0.151400
     36          6           0        0.185490   -2.609230   -0.025840
     37          6           0        1.547960   -2.597020    0.146060
     38          1           0       -0.290480   -3.584030   -0.055620
     39          1           0        1.767930   -2.647140    1.869170
 ---------------------------------------------------------------------
                    Distance matrix (angstroms):
                    1          2          3          4          5
     1  C    0.000000
     2  C    1.389729   0.000000
     3  C    2.450997   1.394206   0.000000
     4  C    2.902411   2.439291   1.390398   0.000000
     5  C    1.443694   2.389879   2.770788   2.465699   0.000000
     6  C    2.466533   2.760747   2.397314   1.443713   1.377285
     7  C    3.631579   2.300772   1.418173   2.523132   4.172875
     8  C    4.865008   3.625999   2.436057   2.944108   5.124095
     9  C    5.069171   4.096602   2.708978   2.453125   4.906792
    10  C    4.298688   3.663781   2.350287   1.406222   3.808665
    11  C    6.174003   4.856331   3.811097   4.394520   6.548605
    12  C    7.337597   6.088872   4.900546   5.167837   7.515023
    13  C    7.433874   6.339938   5.005713   4.875001   7.332279
    14  C    6.473162   5.528234   4.139967   3.734010   6.195238
    15  C    6.648082   5.262914   4.526171   5.410620   7.288372
    16  C    8.047396   6.660735   5.915290   6.735639   8.682248
    17  C    8.937781   7.576462   6.646054   7.242793   9.401004
    18  C    8.620339   7.324322   6.212259   6.561866   8.878867
    19  C    1.419320   2.369297   3.688501   4.312215   2.594681
    20  C    2.432424   2.695877   4.082409   5.046142   3.820656
    21  C    2.876015   2.386231   3.579218   4.806446   4.306956
    22  C    2.512662   1.414824   2.292073   3.618521   3.753091
    23  C    3.658379   2.299433   2.289034   3.649618   4.632187
    24  H    3.959513   3.397073   4.467275   5.765597   5.391657
    25  H    3.407577   3.780363   5.166177   6.116156   4.717674
    26  H    2.182648   3.370913   4.611049   5.028991   2.906382
    27  H    2.187252   3.379429   3.856020   3.440722   1.085367
    28  H    3.442126   3.845756   3.384360   2.186122   2.128817
    29  H    5.018918   4.588816   3.356011   2.172250   4.255469
    30  H    6.888441   6.111605   4.723781   4.012688   6.387385
    31  H    8.468599   7.405737   6.057577   5.826545   8.291113
    32  H    9.481876   8.227220   7.044155   7.237249   9.627560
    33  H    7.049240   5.706844   5.471475   6.659356   8.026565
    34  H    8.560370   7.173122   6.595819   7.542230   9.328420
    35  H    9.995013   8.626340   7.722824   8.324456  10.480921
    36  C    4.997750   3.681632   3.669025   4.986106   6.043583
    37  C    6.142862   4.772320   4.425057   5.584661   7.038707
    38  H    5.303409   4.122207   4.424343   5.795944   6.509463
    39  H    6.630764   5.326020   4.963641   6.028720   7.473397
                    6          7          8          9         10
     6  C    0.000000
     7  C    3.765627   0.000000
     8  C    4.375234   1.424584   0.000000
     9  C    3.839513   2.432907   1.458171   0.000000
    10  C    2.584144   2.846024   2.528813   1.411162   0.000000
    11  C    5.828007   2.555812   1.453047   2.516046   3.832766
    12  C    6.603434   3.821179   2.474656   2.843255   4.251923
    13  C    6.230610   4.265122   2.846921   2.426870   3.679260
    14  C    5.011682   3.750828   2.491262   1.432164   2.428674
    15  C    6.785742   3.115526   2.576601   3.879318   5.099224
    16  C    8.135565   4.510994   3.823420   4.963111   6.283151
    17  C    8.681718   5.313520   4.312713   5.134466   6.535468
    18  C    8.000673   5.026498   3.778709   4.247106   5.653684
    19  C    3.821348   4.645687   5.994806   6.380882   5.699070
    20  C    4.886354   4.653528   6.075067   6.757456   6.343932
    21  C    5.058842   3.733094   5.139373   6.055842   5.929224
    22  C    4.160227   2.343347   3.758692   4.665430   4.620894
    23  C    4.629464   1.438843   2.650655   3.853089   4.236969
    24  H    6.116388   4.349160   5.684196   6.760430   6.797943
    25  H    5.873746   5.687453   7.111703   7.834964   7.425084
    26  H    4.264872   5.669459   6.983360   7.251673   6.434885
    27  H    2.127368   5.257407   6.194023   5.893201   4.702578
    28  H    1.085098   4.681814   5.078248   4.269992   2.878055
    29  H    2.897651   3.929748   3.487516   2.147044   1.084966
    30  H    5.091676   4.597150   3.465225   2.165625   2.607715
    31  H    7.129138   5.349349   3.930919   3.415416   4.547723
    32  H    8.653789   5.947154   4.620251   4.823895   6.187596
    33  H    7.867519   4.138544   4.260439   5.700019   6.717754
    34  H    8.902166   5.177815   4.705203   5.941262   7.214586
    35  H    9.764008   6.378847   5.396261   6.186116   7.592641
    36  C    6.039555   2.545533   3.288639   4.698845   5.375403
    37  C    6.815016   3.069497   3.211003   4.661698   5.641406
    38  H    6.706283   3.487068   4.358286   5.747183   6.332487
    39  H    7.228089   3.729728   3.781883   5.085853   6.040471
                   11         12         13         14         15
    11  C    0.000000
    12  C    1.437531   0.000000
    13  C    2.494463   1.432534   0.000000
    14  C    2.871635   2.427154   1.350180   0.000000
    15  C    1.445567   2.455124   3.783280   4.312152   0.000000
    16  C    2.453396   2.771836   4.203023   5.070664   1.403058
    17  C    2.862802   2.422319   3.707909   4.845641   2.455293
    18  C    2.479011   1.405633   2.431841   3.679873   2.821710
    19  C    7.191109   8.453076   8.687663   7.802807   7.443140
    20  C    7.069887   8.433821   8.892951   8.185148   7.047363
    21  C    5.951732   7.360961   7.983748   7.445058   5.764538
    22  C    4.661783   6.043431   6.603577   6.049982   4.669161
    23  C    3.295873   4.715008   5.443580   5.111434   3.211872
    24  H    6.277236   7.711581   8.492073   8.098307   5.837831
    25  H    8.045146   9.431412   9.942059   9.260720   7.913970
    26  H    8.223434   9.452887   9.609299   8.653544   8.518629
    27  H    7.625302   8.561140   8.310132   7.123948   8.372847
    28  H    6.509612   7.109272   6.530801   5.226069   7.588719
    29  H    4.663079   4.817448   3.947591   2.598666   6.010739
    30  H    3.956128   3.414796   2.117967   1.084589   5.396430
    31  H    3.459239   2.163874   1.084368   2.119638   4.618393
    32  H    3.447984   2.145950   2.612206   3.960823   3.906013
    33  H    3.505092   4.572868   5.912551   6.360241   2.129924
    34  H    3.428284   3.855394   5.286258   6.135494   2.137746
    35  H    3.946375   3.409190   4.577733   5.797249   3.428609
    36  C    3.309272   4.714816   5.752174   5.745967   2.602567
    37  C    2.633580   3.876402   5.115615   5.417428   1.476867
    38  H    4.369054   5.753451   6.828725   6.826263   3.512488
    39  H    3.220303   4.269772   5.436029   5.755906   2.291555
                   16         17         18         19         20
    16  C    0.000000
    17  C    1.389139   0.000000
    18  C    2.382944   1.378281   0.000000
    19  C    8.812421   9.832185   9.666077   0.000000
    20  C    8.346674   9.492544   9.522834   1.395487   0.000000
    21  C    7.019122   8.214297   8.353453   2.474515   1.414215
    22  C    6.006456   7.102500   7.109043   2.850684   2.415340
    23  C    4.557375   5.646714   5.700647   4.262403   3.854267
    24  H    6.968029   8.250699   8.565278   3.437372   2.161774
    25  H    9.164179  10.363559  10.474506   2.136449   1.084490
    26  H    9.892058  10.896647  10.693406   1.084728   2.150482
    27  H    9.767319  10.480702   9.934764   2.886201   4.256862
    28  H    8.895815   9.319047   8.514305   4.715050   5.874236
    29  H    7.107987   7.200758   6.177562   6.438024   7.218035
    30  H    6.122013   5.798010   4.549302   8.272760   8.804622
    31  H    4.779684   3.990569   2.613837   9.743566   9.973232
    32  H    3.374452   2.144054   1.084453  10.586812  10.513418
    33  H    2.430582   3.817514   4.684109   7.464813   6.694334
    34  H    1.083686   2.135083   3.360609   9.184138   8.565044
    35  H    2.149345   1.083689   2.146643  10.856001  10.460515
    36  C    3.725650   4.999172   5.388458   5.405468   4.713866
    37  C    2.394427   3.718225   4.283536   6.691356   6.069728
    38  H    4.443848   5.790234   6.328848   5.428070   4.491898
    39  H    2.890287   4.042712   4.596688   7.176348   6.587237
                   21         22         23         24         25
    21  C    0.000000
    22  C    1.395949   0.000000
    23  C    2.659074   1.457503   0.000000
    24  H    1.084703   2.177764   3.049747   0.000000
    25  H    2.149833   3.388710   4.776891   2.454510   0.000000
    26  H    3.444119   3.934670   5.345545   4.308802   2.449435
    27  H    5.012614   4.671383   5.662326   6.083110   4.989410
    28  H    6.128321   5.244395   5.657280   7.191965   6.820422
    29  H    6.917275   5.646340   5.320817   7.822707   8.287308
    30  H    8.192694   6.810524   6.008051   8.922426   9.888506
    31  H    9.066496   7.687344   6.515513   9.563204  11.024157
    32  H    9.378529   8.105918   6.721566   9.624475  11.484741
    33  H    5.286679   4.639215   3.409501   4.961917   7.340048
    34  H    7.183199   6.335726   4.941752   6.967039   9.290583
    35  H    9.150787   8.092433   6.635988   9.111868  11.298242
    36  C    3.335756   2.570711   1.422928   3.253567   5.461697
    37  C    4.701505   3.842352   2.490271   4.588189   6.828573
    38  H    3.079493   2.791461   2.148311   2.655849   5.058073
    39  H    5.291631   4.490389   3.300116   5.181747   7.318706
                   26         27         28         29         30
    26  H    0.000000
    27  H    2.779255   0.000000
    28  H    4.993518   2.433082   0.000000
    29  H    7.062748   4.983965   2.771738   0.000000
    30  H    9.038118   7.214544   5.076470   2.305735   0.000000
    31  H   10.648414   9.236435   7.324403   4.622564   2.453918
    32  H   11.593250  10.659470   9.064032   6.552931   4.637915
    33  H    8.539258   9.067574   8.816567   7.731616   7.440755
    34  H   10.268811  10.406685   9.723433   8.087371   7.194055
    35  H   11.926479  11.561372  10.392258   8.222508   6.694111
    36  C    6.484100   7.059693   7.052374   6.452814   6.751030
    37  C    7.775082   8.095484   7.748717   6.663395   6.486514
    38  H    6.467646   7.458386   7.759100   7.416613   7.823044
    39  H    8.227471   8.504563   8.120317   7.008411   6.779471
                   31         32         33         34         35
    31  H    0.000000
    32  H    2.324208   0.000000
    33  H    6.735024   5.737366   0.000000
    34  H    5.840569   4.265904   2.058816   0.000000
    35  H    4.670182   2.486669   4.427870   2.458257   0.000000
    36  C    6.759240   6.465728   2.070128   3.851384   5.871654
    37  C    6.023407   5.367156   1.085538   2.509308   4.541409
    38  H    7.825474   7.412225   2.307758   4.330321   6.566992
    39  H    6.280495   5.608758   2.032118   2.936253   4.777588
                   36         37         38         39
    36  C    0.000000
    37  C    1.373326   0.000000
    38  H    1.085205   2.096360   0.000000
    39  H    2.469133   1.737817   2.969786   0.000000
 Stoichiometry    C25H14(3)
 Framework group  C1[X(C25H14)]
 Deg. of freedom   111
 Full point group                 C1      NOp   1
 Largest Abelian subgroup         C1      NOp   1
 Largest concise Abelian subgroup C1      NOp   1
                         Standard orientation:                         
 ---------------------------------------------------------------------
 Center     Atomic      Atomic             Coordinates (Angstroms)
 Number     Number       Type             X           Y           Z
 ---------------------------------------------------------------------
      1          6           0       -3.832280    0.363119   -0.013119
      2          6           0       -2.530750   -0.124051   -0.007489
      3          6           0       -1.404470    0.696959    0.027811
      4          6           0       -1.496050    2.084149    0.050711
      5          6           0       -3.945370    1.801969    0.021121
      6          6           0       -2.837020    2.619039    0.050641
      7          6           0       -0.230280   -0.098291    0.019471
      8          6           0        1.028230    0.569229    0.022431
      9          6           0        0.956310    2.025589    0.032661
     10          6           0       -0.256070    2.747389    0.055401
     11          6           0        2.325420   -0.085081   -0.000429
     12          6           0        3.495040    0.748639   -0.058709
     13          6           0        3.376970    2.176289   -0.053309
     14          6           0        2.171760    2.782439    0.001811
     15          6           0        2.545290   -1.513371    0.035731
     16          6           0        3.860750   -1.998631   -0.015849
     17          6           0        4.972490   -1.170400   -0.104039
     18          6           0        4.785800    0.195120   -0.116669
     19          6           0       -4.844750   -0.630632   -0.055959
     20          6           0       -4.485570   -1.978672   -0.090059
     21          6           0       -3.144850   -2.428611   -0.084849
     22          6           0       -2.123070   -1.478391   -0.043349
     23          6           0       -0.665740   -1.469001   -0.022919
     24          1           0       -2.944190   -3.494221   -0.112969
     25          1           0       -5.274180   -2.722422   -0.122429
     26          1           0       -5.893400   -0.353292   -0.063069
     27          1           0       -4.932480    2.253228    0.020261
     28          1           0       -2.973490    3.695319    0.071481
     29          1           0       -0.205090    3.831119    0.064411
     30          1           0        2.099810    3.864589    0.012171
     31          1           0        4.289320    2.761230   -0.089589
     32          1           0        5.634890    0.867760   -0.168049
     33          1           0        2.013380   -3.575371    0.078181
     34          1           0        4.008750   -3.071571    0.019801
     35          1           0        5.967780   -1.596470   -0.151399
     36          6           0        0.185490   -2.609231   -0.025839
     37          6           0        1.547960   -2.597021    0.146061
     38          1           0       -0.290480   -3.584031   -0.055619
     39          1           0        1.767930   -2.647141    1.869171
 ---------------------------------------------------------------------
 Rotational constants (GHZ):      0.4870598      0.1805059      0.1320181
 Standard basis: 6-311+G(d,p) (5D, 7F)
 There are   659 symmetry adapted cartesian basis functions of A   symmetry.
 There are   634 symmetry adapted basis functions of A   symmetry.
   634 basis functions,  1012 primitive gaussians,   659 cartesian basis functions
    83 alpha electrons       81 beta electrons
       nuclear repulsion energy      1937.7326942784 Hartrees.
 NAtoms=   39 NActive=   39 NUniq=   39 SFac= 1.00D+00 NAtFMM=   60 NAOKFM=F Big=F
 Integral buffers will be    131072 words long.
 Raffenetti 2 integral format.
 Two-electron integral symmetry is turned on.
 One-electron integrals computed using PRISM.
 NBasis=   634 RedAO= T EigKep=  1.18D-06  NBF=   634
 NBsUse=   616 1.00D-06 EigRej=  7.74D-07 NBFU=   616
 ExpMin= 4.38D-02 ExpMax= 4.56D+03 ExpMxC= 6.82D+02 IAcc=2 IRadAn=         4 AccDes= 0.00D+00
 Harris functional with IExCor=  402 and IRadAn=       4 diagonalized for initial guess.
 HarFok:  IExCor=  402 AccDes= 0.00D+00 IRadAn=         4 IDoV= 1 UseB2=F ITyADJ=14
 ICtDFT=  3500011 ScaDFX=  1.000000  1.000000  1.000000  1.000000
 FoFCou: FMM=F IPFlag=           0 FMFlag=      100000 FMFlg1=           0
         NFxFlg=           0 DoJE=T BraDBF=F KetDBF=T FulRan=T
         wScrn=  0.000000 ICntrl=     500 IOpCl=  0 I1Cent=   200000004 NGrid=           0
         NMat0=    1 NMatS0=      1 NMatT0=    0 NMatD0=    1 NMtDS0=    0 NMtDT0=    0
 Petite list used in FoFCou.
 Initial guess <Sx>= 0.0000 <Sy>= 0.0000 <Sz>= 1.0000 <S**2>= 2.0000 S= 1.0000
 Requested convergence on RMS density matrix=1.00D-08 within 128 cycles.
 Requested convergence on MAX density matrix=1.00D-06.
 Requested convergence on             energy=1.00D-06.
 No special actions if energy rises.
 EnCoef did     3 forward-backward iterations
 Restarting incremental Fock formation.
 SCF Done:  E(UB3LYP) =  -961.218646738     A.U. after   26 cycles
            NFock= 26  Conv=0.75D-08     -V/T= 2.0044
 <Sx>= 0.0000 <Sy>= 0.0000 <Sz>= 1.0000 <S**2>= 2.0260 S= 1.0086
 <L.S>= 0.000000000000E+00
 Annihilation of the first spin contaminant:
 S**2 before annihilation     2.0260,   after     2.0004
 DoSCS=F DFT=T ScalE2(SS,OS)=  1.000000  1.000000
 Range of M.O.s used for correlation:     1   616
 NBasis=   634 NAE=    83 NBE=    81 NFC=     0 NFV=     0
 NROrb=    616 NOA=    83 NOB=    81 NVA=   533 NVB=   535

 **** Warning!!: The largest alpha MO coefficient is  0.13346546D+03


 **** Warning!!: The smallest alpha delta epsilon is  0.79349423D-01


 **** Warning!!: The largest beta MO coefficient is  0.12676415D+03


 **** Warning!!: The smallest beta delta epsilon is  0.67217406D-01

 Symmetrizing basis deriv contribution to polar:
 IMax=3 JMax=2 DiffMx= 0.00D+00
 G2DrvN: will do    40 centers at a time, making    1 passes.
 Calling FoFCou, ICntrl=  3107 FMM=F I1Cent=   0 AccDes= 0.00D+00.
 End of G2Drv F.D. properties file   721 does not exist.
 End of G2Drv F.D. properties file   722 does not exist.
 End of G2Drv F.D. properties file   788 does not exist.
          IDoAtm=111111111111111111111111111111111111111
          Differentiating once with respect to nuclear coordinates.
          There are   120 degrees of freedom in the 1st order CPHF.  IDoFFX=6 NUNeed=     0.
    114 vectors produced by pass  0 Test12= 8.76D-14 1.00D-09 XBig12= 5.79D-01 1.86D-01.
 AX will form   114 AO Fock derivatives at one time.
    114 vectors produced by pass  1 Test12= 8.76D-14 1.00D-09 XBig12= 1.63D-01 5.87D-02.
    114 vectors produced by pass  2 Test12= 8.76D-14 1.00D-09 XBig12= 2.60D-03 7.52D-03.
    114 vectors produced by pass  3 Test12= 8.76D-14 1.00D-09 XBig12= 3.52D-05 9.42D-04.
    114 vectors produced by pass  4 Test12= 8.76D-14 1.00D-09 XBig12= 4.09D-07 5.93D-05.
    114 vectors produced by pass  5 Test12= 8.76D-14 1.00D-09 XBig12= 2.66D-09 4.14D-06.
    114 vectors produced by pass  6 Test12= 8.76D-14 1.00D-09 XBig12= 6.29D-11 5.46D-07.
    114 vectors produced by pass  7 Test12= 8.76D-14 1.00D-09 XBig12= 2.06D-11 2.55D-07.
    111 vectors produced by pass  8 Test12= 8.76D-14 1.00D-09 XBig12= 2.80D-12 7.52D-08.
     70 vectors produced by pass  9 Test12= 8.76D-14 1.00D-09 XBig12= 4.77D-14 1.18D-08.
     25 vectors produced by pass 10 Test12= 8.76D-14 1.00D-09 XBig12= 6.18D-16 1.25D-09.
     25 vectors produced by pass 11 Test12= 8.76D-14 1.00D-09 XBig12= 6.13D-14 1.63D-08.
     25 vectors produced by pass 12 Test12= 8.76D-14 1.00D-09 XBig12= 1.00D-12 6.13D-08.
     25 vectors produced by pass 13 Test12= 8.76D-14 1.00D-09 XBig12= 5.29D-13 3.55D-08.
     25 vectors produced by pass 14 Test12= 8.76D-14 1.00D-09 XBig12= 4.56D-13 3.74D-08.
     25 vectors produced by pass 15 Test12= 8.76D-14 1.00D-09 XBig12= 5.17D-13 3.42D-08.
     25 vectors produced by pass 16 Test12= 8.76D-14 1.00D-09 XBig12= 5.32D-13 3.72D-08.
     25 vectors produced by pass 17 Test12= 8.76D-14 1.00D-09 XBig12= 2.96D-13 2.55D-08.
     25 vectors produced by pass 18 Test12= 8.76D-14 1.00D-09 XBig12= 3.34D-13 2.71D-08.
     25 vectors produced by pass 19 Test12= 8.76D-14 1.00D-09 XBig12= 3.43D-13 3.13D-08.
     25 vectors produced by pass 20 Test12= 8.76D-14 1.00D-09 XBig12= 2.30D-13 2.22D-08.
     25 vectors produced by pass 21 Test12= 8.76D-14 1.00D-09 XBig12= 1.50D-13 1.82D-08.
     25 vectors produced by pass 22 Test12= 8.76D-14 1.00D-09 XBig12= 1.01D-13 1.47D-08.
     25 vectors produced by pass 23 Test12= 8.76D-14 1.00D-09 XBig12= 1.40D-13 1.76D-08.
     25 vectors produced by pass 24 Test12= 8.76D-14 1.00D-09 XBig12= 2.43D-13 1.98D-08.
     25 vectors produced by pass 25 Test12= 8.76D-14 1.00D-09 XBig12= 1.05D-13 1.57D-08.
     25 vectors produced by pass 26 Test12= 8.76D-14 1.00D-09 XBig12= 1.50D-13 1.56D-08.
     25 vectors produced by pass 27 Test12= 8.76D-14 1.00D-09 XBig12= 1.37D-13 1.55D-08.
     25 vectors produced by pass 28 Test12= 8.76D-14 1.00D-09 XBig12= 2.22D-13 1.90D-08.
     24 vectors produced by pass 29 Test12= 8.76D-14 1.00D-09 XBig12= 3.76D-14 8.19D-09.
     24 vectors produced by pass 30 Test12= 8.76D-14 1.00D-09 XBig12= 2.15D-13 2.00D-08.
     24 vectors produced by pass 31 Test12= 8.76D-14 1.00D-09 XBig12= 1.04D-13 1.30D-08.
     24 vectors produced by pass 32 Test12= 8.76D-14 1.00D-09 XBig12= 6.71D-14 1.00D-08.
     24 vectors produced by pass 33 Test12= 8.76D-14 1.00D-09 XBig12= 8.40D-14 1.29D-08.
     24 vectors produced by pass 34 Test12= 8.76D-14 1.00D-09 XBig12= 7.34D-14 1.00D-08.
     24 vectors produced by pass 35 Test12= 8.76D-14 1.00D-09 XBig12= 1.26D-13 1.42D-08.
     24 vectors produced by pass 36 Test12= 8.76D-14 1.00D-09 XBig12= 7.55D-14 1.08D-08.
     24 vectors produced by pass 37 Test12= 8.76D-14 1.00D-09 XBig12= 1.16D-13 1.22D-08.
     24 vectors produced by pass 38 Test12= 8.76D-14 1.00D-09 XBig12= 1.92D-13 1.95D-08.
     24 vectors produced by pass 39 Test12= 8.76D-14 1.00D-09 XBig12= 8.59D-14 1.03D-08.
     24 vectors produced by pass 40 Test12= 8.76D-14 1.00D-09 XBig12= 1.16D-13 1.46D-08.
     24 vectors produced by pass 41 Test12= 8.76D-14 1.00D-09 XBig12= 8.14D-14 1.38D-08.
     24 vectors produced by pass 42 Test12= 8.76D-14 1.00D-09 XBig12= 8.34D-14 1.22D-08.
     22 vectors produced by pass 43 Test12= 8.76D-14 1.00D-09 XBig12= 5.07D-14 8.55D-09.
     22 vectors produced by pass 44 Test12= 8.76D-14 1.00D-09 XBig12= 5.72D-14 9.88D-09.
     22 vectors produced by pass 45 Test12= 8.76D-14 1.00D-09 XBig12= 1.03D-13 1.19D-08.
     22 vectors produced by pass 46 Test12= 8.76D-14 1.00D-09 XBig12= 8.93D-14 1.25D-08.
     22 vectors produced by pass 47 Test12= 8.76D-14 1.00D-09 XBig12= 6.92D-14 1.02D-08.
     21 vectors produced by pass 48 Test12= 8.76D-14 1.00D-09 XBig12= 5.23D-14 8.70D-09.
     16 vectors produced by pass 49 Test12= 8.76D-14 1.00D-09 XBig12= 2.36D-14 6.40D-09.
     16 vectors produced by pass 50 Test12= 8.76D-14 1.00D-09 XBig12= 5.33D-14 8.08D-09.
     16 vectors produced by pass 51 Test12= 8.76D-14 1.00D-09 XBig12= 1.32D-13 1.36D-08.
     16 vectors produced by pass 52 Test12= 8.76D-14 1.00D-09 XBig12= 4.98D-14 8.79D-09.
     16 vectors produced by pass 53 Test12= 8.76D-14 1.00D-09 XBig12= 8.13D-14 1.04D-08.
     16 vectors produced by pass 54 Test12= 8.76D-14 1.00D-09 XBig12= 5.58D-14 1.02D-08.
     16 vectors produced by pass 55 Test12= 8.76D-14 1.00D-09 XBig12= 6.90D-14 1.16D-08.
     15 vectors produced by pass 56 Test12= 8.76D-14 1.00D-09 XBig12= 5.41D-14 7.82D-09.
     15 vectors produced by pass 57 Test12= 8.76D-14 1.00D-09 XBig12= 5.94D-14 8.50D-09.
     15 vectors produced by pass 58 Test12= 8.76D-14 1.00D-09 XBig12= 3.26D-14 6.24D-09.
     14 vectors produced by pass 59 Test12= 8.76D-14 1.00D-09 XBig12= 3.36D-14 7.42D-09.
     14 vectors produced by pass 60 Test12= 8.76D-14 1.00D-09 XBig12= 9.11D-14 1.18D-08.
     14 vectors produced by pass 61 Test12= 8.76D-14 1.00D-09 XBig12= 4.70D-14 8.31D-09.
     14 vectors produced by pass 62 Test12= 8.76D-14 1.00D-09 XBig12= 4.47D-14 7.64D-09.
     14 vectors produced by pass 63 Test12= 8.76D-14 1.00D-09 XBig12= 3.40D-14 6.74D-09.
     14 vectors produced by pass 64 Test12= 8.76D-14 1.00D-09 XBig12= 5.59D-14 9.85D-09.
     14 vectors produced by pass 65 Test12= 8.76D-14 1.00D-09 XBig12= 3.56D-14 7.37D-09.
     14 vectors produced by pass 66 Test12= 8.76D-14 1.00D-09 XBig12= 2.77D-14 6.55D-09.
     14 vectors produced by pass 67 Test12= 8.76D-14 1.00D-09 XBig12= 4.71D-14 7.19D-09.
     14 vectors produced by pass 68 Test12= 8.76D-14 1.00D-09 XBig12= 3.26D-14 6.05D-09.
     14 vectors produced by pass 69 Test12= 8.76D-14 1.00D-09 XBig12= 4.40D-14 7.12D-09.
     14 vectors produced by pass 70 Test12= 8.76D-14 1.00D-09 XBig12= 5.30D-14 8.27D-09.
     14 vectors produced by pass 71 Test12= 8.76D-14 1.00D-09 XBig12= 3.41D-14 5.65D-09.
     14 vectors produced by pass 72 Test12= 8.76D-14 1.00D-09 XBig12= 2.88D-14 5.93D-09.
     14 vectors produced by pass 73 Test12= 8.76D-14 1.00D-09 XBig12= 2.92D-14 5.51D-09.
     14 vectors produced by pass 74 Test12= 8.76D-14 1.00D-09 XBig12= 4.07D-14 7.51D-09.
     14 vectors produced by pass 75 Test12= 8.76D-14 1.00D-09 XBig12= 3.28D-14 6.41D-09.
     14 vectors produced by pass 76 Test12= 8.76D-14 1.00D-09 XBig12= 3.31D-14 6.95D-09.
     13 vectors produced by pass 77 Test12= 8.76D-14 1.00D-09 XBig12= 1.66D-14 3.96D-09.
     13 vectors produced by pass 78 Test12= 8.76D-14 1.00D-09 XBig12= 3.81D-14 7.12D-09.
     13 vectors produced by pass 79 Test12= 8.76D-14 1.00D-09 XBig12= 2.87D-14 7.37D-09.
     13 vectors produced by pass 80 Test12= 8.76D-14 1.00D-09 XBig12= 3.53D-14 6.65D-09.
     13 vectors produced by pass 81 Test12= 8.76D-14 1.00D-09 XBig12= 4.74D-14 8.26D-09.
     13 vectors produced by pass 82 Test12= 8.76D-14 1.00D-09 XBig12= 2.06D-14 4.70D-09.
     13 vectors produced by pass 83 Test12= 8.76D-14 1.00D-09 XBig12= 3.16D-14 7.58D-09.
     13 vectors produced by pass 84 Test12= 8.76D-14 1.00D-09 XBig12= 2.53D-14 5.26D-09.
     13 vectors produced by pass 85 Test12= 8.76D-14 1.00D-09 XBig12= 2.21D-14 5.44D-09.
     11 vectors produced by pass 86 Test12= 8.76D-14 1.00D-09 XBig12= 1.33D-14 3.98D-09.
     11 vectors produced by pass 87 Test12= 8.76D-14 1.00D-09 XBig12= 2.29D-14 5.50D-09.
     11 vectors produced by pass 88 Test12= 8.76D-14 1.00D-09 XBig12= 2.34D-14 6.05D-09.
     11 vectors produced by pass 89 Test12= 8.76D-14 1.00D-09 XBig12= 3.82D-14 6.72D-09.
     11 vectors produced by pass 90 Test12= 8.76D-14 1.00D-09 XBig12= 1.07D-14 3.22D-09.
     11 vectors produced by pass 91 Test12= 8.76D-14 1.00D-09 XBig12= 3.43D-14 6.40D-09.
     11 vectors produced by pass 92 Test12= 8.76D-14 1.00D-09 XBig12= 2.36D-14 5.38D-09.
     11 vectors produced by pass 93 Test12= 8.76D-14 1.00D-09 XBig12= 2.39D-14 5.48D-09.
     11 vectors produced by pass 94 Test12= 8.76D-14 1.00D-09 XBig12= 2.78D-14 5.66D-09.
     11 vectors produced by pass 95 Test12= 8.76D-14 1.00D-09 XBig12= 2.45D-14 4.52D-09.
     11 vectors produced by pass 96 Test12= 8.76D-14 1.00D-09 XBig12= 1.19D-14 3.77D-09.
     10 vectors produced by pass 97 Test12= 8.76D-14 1.00D-09 XBig12= 1.56D-14 3.95D-09.
     10 vectors produced by pass 98 Test12= 8.76D-14 1.00D-09 XBig12= 2.41D-14 5.04D-09.
     10 vectors produced by pass 99 Test12= 8.76D-14 1.00D-09 XBig12= 1.18D-14 3.78D-09.
     10 vectors produced by pass100 Test12= 8.76D-14 1.00D-09 XBig12= 2.95D-14 5.76D-09.
     10 vectors produced by pass101 Test12= 8.76D-14 1.00D-09 XBig12= 1.95D-14 5.90D-09.
     10 vectors produced by pass102 Test12= 8.76D-14 1.00D-09 XBig12= 2.15D-14 5.21D-09.
     10 vectors produced by pass103 Test12= 8.76D-14 1.00D-09 XBig12= 2.89D-14 6.08D-09.
      6 vectors produced by pass104 Test12= 8.76D-14 1.00D-09 XBig12= 5.71D-15 3.18D-09.
      6 vectors produced by pass105 Test12= 8.76D-14 1.00D-09 XBig12= 1.91D-14 4.69D-09.
      6 vectors produced by pass106 Test12= 8.76D-14 1.00D-09 XBig12= 1.48D-14 3.83D-09.
      6 vectors produced by pass107 Test12= 8.76D-14 1.00D-09 XBig12= 1.32D-14 3.62D-09.
      6 vectors produced by pass108 Test12= 8.76D-14 1.00D-09 XBig12= 2.03D-14 4.95D-09.
      6 vectors produced by pass109 Test12= 8.76D-14 1.00D-09 XBig12= 1.09D-14 4.38D-09.
      6 vectors produced by pass110 Test12= 8.76D-14 1.00D-09 XBig12= 2.53D-14 5.39D-09.
      6 vectors produced by pass111 Test12= 8.76D-14 1.00D-09 XBig12= 1.48D-14 4.18D-09.
      6 vectors produced by pass112 Test12= 8.76D-14 1.00D-09 XBig12= 1.53D-14 4.28D-09.
      6 vectors produced by pass113 Test12= 8.76D-14 1.00D-09 XBig12= 2.61D-14 5.77D-09.
      6 vectors produced by pass114 Test12= 8.76D-14 1.00D-09 XBig12= 9.26D-15 3.81D-09.
      6 vectors produced by pass115 Test12= 8.76D-14 1.00D-09 XBig12= 1.43D-14 3.72D-09.
      6 vectors produced by pass116 Test12= 8.76D-14 1.00D-09 XBig12= 2.43D-14 4.69D-09.
      4 vectors produced by pass117 Test12= 8.76D-14 1.00D-09 XBig12= 7.39D-15 2.70D-09.
      4 vectors produced by pass118 Test12= 8.76D-14 1.00D-09 XBig12= 3.14D-14 5.99D-09.
      4 vectors produced by pass119 Test12= 8.76D-14 1.00D-09 XBig12= 8.92D-15 3.30D-09.
      4 vectors produced by pass120 Test12= 8.76D-14 1.00D-09 XBig12= 2.21D-14 4.85D-09.
      4 vectors produced by pass121 Test12= 8.76D-14 1.00D-09 XBig12= 1.57D-14 4.24D-09.
      4 vectors produced by pass122 Test12= 8.76D-14 1.00D-09 XBig12= 1.67D-14 4.51D-09.
      4 vectors produced by pass123 Test12= 8.76D-14 1.00D-09 XBig12= 1.52D-14 3.56D-09.
      4 vectors produced by pass124 Test12= 8.76D-14 1.00D-09 XBig12= 1.44D-14 4.24D-09.
      4 vectors produced by pass125 Test12= 8.76D-14 1.00D-09 XBig12= 1.55D-14 4.54D-09.
      4 vectors produced by pass126 Test12= 8.76D-14 1.00D-09 XBig12= 2.07D-14 4.96D-09.
      4 vectors produced by pass127 Test12= 8.76D-14 1.00D-09 XBig12= 2.21D-14 5.17D-09.
      4 vectors produced by pass128 Test12= 8.76D-14 1.00D-09 XBig12= 2.35D-14 5.30D-09.
      4 vectors produced by pass129 Test12= 8.76D-14 1.00D-09 XBig12= 1.46D-14 4.00D-09.
      4 vectors produced by pass130 Test12= 8.76D-14 1.00D-09 XBig12= 1.98D-14 4.81D-09.
      4 vectors produced by pass131 Test12= 8.76D-14 1.00D-09 XBig12= 2.12D-14 4.54D-09.
      4 vectors produced by pass132 Test12= 8.76D-14 1.00D-09 XBig12= 1.41D-14 4.07D-09.
      4 vectors produced by pass133 Test12= 8.76D-14 1.00D-09 XBig12= 2.36D-14 4.45D-09.
      4 vectors produced by pass134 Test12= 8.76D-14 1.00D-09 XBig12= 1.50D-14 4.66D-09.
      4 vectors produced by pass135 Test12= 8.76D-14 1.00D-09 XBig12= 2.01D-14 4.40D-09.
      4 vectors produced by pass136 Test12= 8.76D-14 1.00D-09 XBig12= 2.37D-14 5.17D-09.
      4 vectors produced by pass137 Test12= 8.76D-14 1.00D-09 XBig12= 1.33D-14 3.70D-09.
      4 vectors produced by pass138 Test12= 8.76D-14 1.00D-09 XBig12= 2.35D-14 5.29D-09.
      4 vectors produced by pass139 Test12= 8.76D-14 1.00D-09 XBig12= 8.22D-15 2.91D-09.
      4 vectors produced by pass140 Test12= 8.76D-14 1.00D-09 XBig12= 2.35D-14 5.08D-09.
      4 vectors produced by pass141 Test12= 8.76D-14 1.00D-09 XBig12= 1.41D-14 3.83D-09.
      4 vectors produced by pass142 Test12= 8.76D-14 1.00D-09 XBig12= 1.77D-14 4.07D-09.
      4 vectors produced by pass143 Test12= 8.76D-14 1.00D-09 XBig12= 1.36D-14 3.89D-09.
      4 vectors produced by pass144 Test12= 8.76D-14 1.00D-09 XBig12= 1.77D-14 4.08D-09.
      4 vectors produced by pass145 Test12= 8.76D-14 1.00D-09 XBig12= 1.55D-14 4.24D-09.
      4 vectors produced by pass146 Test12= 8.76D-14 1.00D-09 XBig12= 2.09D-14 5.05D-09.
      4 vectors produced by pass147 Test12= 8.76D-14 1.00D-09 XBig12= 1.56D-14 3.60D-09.
      4 vectors produced by pass148 Test12= 8.76D-14 1.00D-09 XBig12= 1.67D-14 4.16D-09.
      4 vectors produced by pass149 Test12= 8.76D-14 1.00D-09 XBig12= 1.22D-14 3.75D-09.
      4 vectors produced by pass150 Test12= 8.76D-14 1.00D-09 XBig12= 1.93D-14 5.59D-09.
      4 vectors produced by pass151 Test12= 8.76D-14 1.00D-09 XBig12= 8.51D-15 3.24D-09.
      4 vectors produced by pass152 Test12= 8.76D-14 1.00D-09 XBig12= 1.50D-14 4.30D-09.
      4 vectors produced by pass153 Test12= 8.76D-14 1.00D-09 XBig12= 2.08D-14 4.48D-09.
      3 vectors produced by pass154 Test12= 8.76D-14 1.00D-09 XBig12= 6.29D-15 2.62D-09.
      3 vectors produced by pass155 Test12= 8.76D-14 1.00D-09 XBig12= 1.33D-14 3.40D-09.
      3 vectors produced by pass156 Test12= 8.76D-14 1.00D-09 XBig12= 9.34D-15 3.40D-09.
      3 vectors produced by pass157 Test12= 8.76D-14 1.00D-09 XBig12= 1.36D-14 3.53D-09.
      3 vectors produced by pass158 Test12= 8.76D-14 1.00D-09 XBig12= 1.08D-14 3.71D-09.
      3 vectors produced by pass159 Test12= 8.76D-14 1.00D-09 XBig12= 1.49D-14 4.02D-09.
      3 vectors produced by pass160 Test12= 8.76D-14 1.00D-09 XBig12= 9.63D-15 3.45D-09.
      3 vectors produced by pass161 Test12= 8.76D-14 1.00D-09 XBig12= 1.65D-14 4.27D-09.
      3 vectors produced by pass162 Test12= 8.76D-14 1.00D-09 XBig12= 1.06D-14 3.57D-09.
      3 vectors produced by pass163 Test12= 8.76D-14 1.00D-09 XBig12= 9.21D-15 3.43D-09.
      3 vectors produced by pass164 Test12= 8.76D-14 1.00D-09 XBig12= 8.75D-15 3.26D-09.
      3 vectors produced by pass165 Test12= 8.76D-14 1.00D-09 XBig12= 8.19D-15 2.73D-09.
      3 vectors produced by pass166 Test12= 8.76D-14 1.00D-09 XBig12= 1.41D-14 3.64D-09.
      3 vectors produced by pass167 Test12= 8.76D-14 1.00D-09 XBig12= 2.22D-14 5.95D-09.
      3 vectors produced by pass168 Test12= 8.76D-14 1.00D-09 XBig12= 9.01D-15 2.97D-09.
      3 vectors produced by pass169 Test12= 8.76D-14 1.00D-09 XBig12= 2.16D-14 5.22D-09.
      3 vectors produced by pass170 Test12= 8.76D-14 1.00D-09 XBig12= 1.64D-14 4.16D-09.
      3 vectors produced by pass171 Test12= 8.76D-14 1.00D-09 XBig12= 1.05D-14 3.05D-09.
      3 vectors produced by pass172 Test12= 8.76D-14 1.00D-09 XBig12= 1.58D-14 4.20D-09.
      2 vectors produced by pass173 Test12= 8.76D-14 1.00D-09 XBig12= 4.01D-15 1.94D-09.
 InvSVY:  IOpt=1 It=  1 EMax= 1.22D-15
 Solved reduced A of dimension  3037 with   120 vectors.
 End of Minotr F.D. properties file   721 does not exist.
 End of Minotr F.D. properties file   722 does not exist.
 End of Minotr F.D. properties file   788 does not exist.

 **********************************************************************

            Population analysis using the SCF density.

 **********************************************************************

 Orbital symmetries:
 Alpha Orbitals:
       Occupied  (A) (A) (A) (A) (A) (A) (A) (A) (A) (A) (A) (A)
                 (A) (A) (A) (A) (A) (A) (A) (A) (A) (A) (A) (A)
                 (A) (A) (A) (A) (A) (A) (A) (A) (A) (A) (A) (A)
                 (A) (A) (A) (A) (A) (A) (A) (A) (A) (A) (A) (A)
                 (A) (A) (A) (A) (A) (A) (A) (A) (A) (A) (A) (A)
                 (A) (A) (A) (A) (A) (A) (A) (A) (A) (A) (A) (A)
                 (A) (A) (A) (A) (A) (A) (A) (A) (A) (A) (A)
       Virtual   (A) (A) (A) (A) (A) (A) (A) (A) (A) (A) (A) (A)
                 (A) (A) (A) (A) (A) (A) (A) (A) (A) (A) (A) (A)
                 (A) (A) (A) (A) (A) (A) (A) (A) (A) (A) (A) (A)
                 (A) (A) (A) (A) (A) (A) (A) (A) (A) (A) (A) (A)
                 (A) (A) (A) (A) (A) (A) (A) (A) (A) (A) (A) (A)
                 (A) (A) (A) (A) (A) (A) (A) (A) (A) (A) (A) (A)
                 (A) (A) (A) (A) (A) (A) (A) (A) (A) (A) (A) (A)
                 (A) (A) (A) (A) (A) (A) (A) (A) (A) (A) (A) (A)
                 (A) (A) (A) (A) (A) (A) (A) (A) (A) (A) (A) (A)
                 (A) (A) (A) (A) (A) (A) (A) (A) (A) (A) (A) (A)
                 (A) (A) (A) (A) (A) (A) (A) (A) (A) (A) (A) (A)
                 (A) (A) (A) (A) (A) (A) (A) (A) (A) (A) (A) (A)
                 (A) (A) (A) (A) (A) (A) (A) (A) (A) (A) (A) (A)
                 (A) (A) (A) (A) (A) (A) (A) (A) (A) (A) (A) (A)
                 (A) (A) (A) (A) (A) (A) (A) (A) (A) (A) (A) (A)
                 (A) (A) (A) (A) (A) (A) (A) (A) (A) (A) (A) (A)
                 (A) (A) (A) (A) (A) (A) (A) (A) (A) (A) (A) (A)
                 (A) (A) (A) (A) (A) (A) (A) (A) (A) (A) (A) (A)
                 (A) (A) (A) (A) (A) (A) (A) (A) (A) (A) (A) (A)
                 (A) (A) (A) (A) (A) (A) (A) (A) (A) (A) (A) (A)
                 (A) (A) (A) (A) (A) (A) (A) (A) (A) (A) (A) (A)
                 (A) (A) (A) (A) (A) (A) (A) (A) (A) (A) (A) (A)
                 (A) (A) (A) (A) (A) (A) (A) (A) (A) (A) (A) (A)
                 (A) (A) (A) (A) (A) (A) (A) (A) (A) (A) (A) (A)
                 (A) (A) (A) (A) (A) (A) (A) (A) (A) (A) (A) (A)
                 (A) (A) (A) (A) (A) (A) (A) (A) (A) (A) (A) (A)
                 (A) (A) (A) (A) (A) (A) (A) (A) (A) (A) (A) (A)
                 (A) (A) (A) (A) (A) (A) (A) (A) (A) (A) (A) (A)
                 (A) (A) (A) (A) (A) (A) (A) (A) (A) (A) (A) (A)
                 (A) (A) (A) (A) (A) (A) (A) (A) (A) (A) (A) (A)
                 (A) (A) (A) (A) (A) (A) (A) (A) (A) (A) (A) (A)
                 (A) (A) (A) (A) (A) (A) (A) (A) (A) (A) (A) (A)
                 (A) (A) (A) (A) (A) (A) (A) (A) (A) (A) (A) (A)
                 (A) (A) (A) (A) (A) (A) (A) (A) (A) (A) (A) (A)
                 (A) (A) (A) (A) (A) (A) (A) (A) (A) (A) (A) (A)
                 (A) (A) (A) (A) (A) (A) (A) (A) (A) (A) (A) (A)
                 (A) (A) (A) (A) (A) (A) (A) (A) (A) (A) (A) (A)
                 (A) (A) (A) (A) (A) (A) (A) (A) (A) (A) (A) (A)
                 (A) (A) (A) (A) (A) (A) (A) (A) (A) (A) (A) (A)
                 (A) (A) (A) (A) (A) (A) (A) (A) (A) (A) (A) (A)
                 (A) (A) (A) (A) (A) (A) (A) (A) (A) (A) (A) (A)
                 (A) (A) (A) (A) (A) (A) (A) (A) (A) (A) (A) (A)
                 (A) (A) (A) (A) (A) (A) (A) (A) (A) (A) (A) (A)
                 (A) (A) (A) (A) (A) (A) (A) (A) (A) (A) (A) (A)
                 (A) (A) (A) (A) (A)
 Beta  Orbitals:
       Occupied  (A) (A) (A) (A) (A) (A) (A) (A) (A) (A) (A) (A)
                 (A) (A) (A) (A) (A) (A) (A) (A) (A) (A) (A) (A)
                 (A) (A) (A) (A) (A) (A) (A) (A) (A) (A) (A) (A)
                 (A) (A) (A) (A) (A) (A) (A) (A) (A) (A) (A) (A)
                 (A) (A) (A) (A) (A) (A) (A) (A) (A) (A) (A) (A)
                 (A) (A) (A) (A) (A) (A) (A) (A) (A) (A) (A) (A)
                 (A) (A) (A) (A) (A) (A) (A) (A) (A)
       Virtual   (A) (A) (A) (A) (A) (A) (A) (A) (A) (A) (A) (A)
                 (A) (A) (A) (A) (A) (A) (A) (A) (A) (A) (A) (A)
                 (A) (A) (A) (A) (A) (A) (A) (A) (A) (A) (A) (A)
                 (A) (A) (A) (A) (A) (A) (A) (A) (A) (A) (A) (A)
                 (A) (A) (A) (A) (A) (A) (A) (A) (A) (A) (A) (A)
                 (A) (A) (A) (A) (A) (A) (A) (A) (A) (A) (A) (A)
                 (A) (A) (A) (A) (A) (A) (A) (A) (A) (A) (A) (A)
                 (A) (A) (A) (A) (A) (A) (A) (A) (A) (A) (A) (A)
                 (A) (A) (A) (A) (A) (A) (A) (A) (A) (A) (A) (A)
                 (A) (A) (A) (A) (A) (A) (A) (A) (A) (A) (A) (A)
                 (A) (A) (A) (A) (A) (A) (A) (A) (A) (A) (A) (A)
                 (A) (A) (A) (A) (A) (A) (A) (A) (A) (A) (A) (A)
                 (A) (A) (A) (A) (A) (A) (A) (A) (A) (A) (A) (A)
                 (A) (A) (A) (A) (A) (A) (A) (A) (A) (A) (A) (A)
                 (A) (A) (A) (A) (A) (A) (A) (A) (A) (A) (A) (A)
                 (A) (A) (A) (A) (A) (A) (A) (A) (A) (A) (A) (A)
                 (A) (A) (A) (A) (A) (A) (A) (A) (A) (A) (A) (A)
                 (A) (A) (A) (A) (A) (A) (A) (A) (A) (A) (A) (A)
                 (A) (A) (A) (A) (A) (A) (A) (A) (A) (A) (A) (A)
                 (A) (A) (A) (A) (A) (A) (A) (A) (A) (A) (A) (A)
                 (A) (A) (A) (A) (A) (A) (A) (A) (A) (A) (A) (A)
                 (A) (A) (A) (A) (A) (A) (A) (A) (A) (A) (A) (A)
                 (A) (A) (A) (A) (A) (A) (A) (A) (A) (A) (A) (A)
                 (A) (A) (A) (A) (A) (A) (A) (A) (A) (A) (A) (A)
                 (A) (A) (A) (A) (A) (A) (A) (A) (A) (A) (A) (A)
                 (A) (A) (A) (A) (A) (A) (A) (A) (A) (A) (A) (A)
                 (A) (A) (A) (A) (A) (A) (A) (A) (A) (A) (A) (A)
                 (A) (A) (A) (A) (A) (A) (A) (A) (A) (A) (A) (A)
                 (A) (A) (A) (A) (A) (A) (A) (A) (A) (A) (A) (A)
                 (A) (A) (A) (A) (A) (A) (A) (A) (A) (A) (A) (A)
                 (A) (A) (A) (A) (A) (A) (A) (A) (A) (A) (A) (A)
                 (A) (A) (A) (A) (A) (A) (A) (A) (A) (A) (A) (A)
                 (A) (A) (A) (A) (A) (A) (A) (A) (A) (A) (A) (A)
                 (A) (A) (A) (A) (A) (A) (A) (A) (A) (A) (A) (A)
                 (A) (A) (A) (A) (A) (A) (A) (A) (A) (A) (A) (A)
                 (A) (A) (A) (A) (A) (A) (A) (A) (A) (A) (A) (A)
                 (A) (A) (A) (A) (A) (A) (A) (A) (A) (A) (A) (A)
                 (A) (A) (A) (A) (A) (A) (A) (A) (A) (A) (A) (A)
                 (A) (A) (A) (A) (A) (A) (A) (A) (A) (A) (A) (A)
                 (A) (A) (A) (A) (A) (A) (A) (A) (A) (A) (A) (A)
                 (A) (A) (A) (A) (A) (A) (A) (A) (A) (A) (A) (A)
                 (A) (A) (A) (A) (A) (A) (A) (A) (A) (A) (A) (A)
                 (A) (A) (A) (A) (A) (A) (A) (A) (A) (A) (A) (A)
                 (A) (A) (A) (A) (A) (A) (A) (A) (A) (A) (A) (A)
                 (A) (A) (A) (A) (A) (A) (A)
 The electronic state is 3-A.
 Alpha  occ. eigenvalues --  -10.21367 -10.21193 -10.21123 -10.20669 -10.19812
 Alpha  occ. eigenvalues --  -10.19787 -10.19743 -10.19328 -10.19171 -10.19015
 Alpha  occ. eigenvalues --  -10.19002 -10.18987 -10.18979 -10.18907 -10.18897
 Alpha  occ. eigenvalues --  -10.18808 -10.18723 -10.18643 -10.18634 -10.18306
 Alpha  occ. eigenvalues --  -10.18176 -10.18157 -10.18077 -10.16874 -10.16514
 Alpha  occ. eigenvalues --   -0.91759  -0.89194  -0.86180  -0.84864  -0.83445
 Alpha  occ. eigenvalues --   -0.81189  -0.79441  -0.78398  -0.75793  -0.75293
 Alpha  occ. eigenvalues --   -0.73665  -0.71482  -0.69181  -0.66475  -0.64745
 Alpha  occ. eigenvalues --   -0.63144  -0.62418  -0.59710  -0.59208  -0.56962
 Alpha  occ. eigenvalues --   -0.56012  -0.52817  -0.52517  -0.51533  -0.50428
 Alpha  occ. eigenvalues --   -0.49084  -0.48072  -0.47352  -0.46686  -0.45509
 Alpha  occ. eigenvalues --   -0.44428  -0.43972  -0.43684  -0.42422  -0.42091
 Alpha  occ. eigenvalues --   -0.41628  -0.41294  -0.41033  -0.39889  -0.39667
 Alpha  occ. eigenvalues --   -0.39054  -0.37589  -0.36939  -0.36624  -0.35843
 Alpha  occ. eigenvalues --   -0.35153  -0.34962  -0.33694  -0.33293  -0.32966
 Alpha  occ. eigenvalues --   -0.30312  -0.29771  -0.26359  -0.26114  -0.24864
 Alpha  occ. eigenvalues --   -0.22086  -0.21206  -0.15599
 Alpha virt. eigenvalues --   -0.07664  -0.06103  -0.03803  -0.02630  -0.00039
 Alpha virt. eigenvalues --    0.00341   0.00544   0.00575   0.01697   0.01711
 Alpha virt. eigenvalues --    0.01931   0.03123   0.03183   0.03350   0.03656
 Alpha virt. eigenvalues --    0.03857   0.04857   0.05085   0.05309   0.05696
 Alpha virt. eigenvalues --    0.06227   0.06711   0.07006   0.07462   0.07548
 Alpha virt. eigenvalues --    0.07872   0.08114   0.08512   0.08974   0.09592
 Alpha virt. eigenvalues --    0.10101   0.10157   0.10318   0.10814   0.11327
 Alpha virt. eigenvalues --    0.12236   0.12555   0.12725   0.12872   0.13126
 Alpha virt. eigenvalues --    0.13446   0.13782   0.14138   0.14367   0.14851
 Alpha virt. eigenvalues --    0.15342   0.15733   0.15855   0.16266   0.16372
 Alpha virt. eigenvalues --    0.16565   0.16895   0.17194   0.17279   0.17629
 Alpha virt. eigenvalues --    0.17711   0.18075   0.18125   0.18469   0.18601
 Alpha virt. eigenvalues --    0.19096   0.19312   0.19539   0.19980   0.20152
 Alpha virt. eigenvalues --    0.20286   0.20700   0.21078   0.21272   0.21747
 Alpha virt. eigenvalues --    0.21831   0.21994   0.22280   0.22492   0.22637
 Alpha virt. eigenvalues --    0.22930   0.23455   0.23618   0.23908   0.24070
 Alpha virt. eigenvalues --    0.24415   0.24721   0.25046   0.25129   0.25769
 Alpha virt. eigenvalues --    0.25891   0.26278   0.26647   0.26733   0.26869
 Alpha virt. eigenvalues --    0.27333   0.27719   0.28109   0.28482   0.28660
 Alpha virt. eigenvalues --    0.29001   0.29335   0.29530   0.30011   0.30425
 Alpha virt. eigenvalues --    0.30863   0.31017   0.31325   0.31512   0.31884
 Alpha virt. eigenvalues --    0.32792   0.33002   0.33261   0.33449   0.33853
 Alpha virt. eigenvalues --    0.34489   0.35180   0.35603   0.36975   0.37133
 Alpha virt. eigenvalues --    0.37758   0.38110   0.38790   0.39049   0.39719
 Alpha virt. eigenvalues --    0.40340   0.41236   0.42512   0.43235   0.44129
 Alpha virt. eigenvalues --    0.44402   0.44498   0.45046   0.46345   0.46960
 Alpha virt. eigenvalues --    0.47597   0.48510   0.48786   0.50264   0.51720
 Alpha virt. eigenvalues --    0.51807   0.52131   0.52936   0.53270   0.53729
 Alpha virt. eigenvalues --    0.53991   0.54139   0.54970   0.55063   0.55478
 Alpha virt. eigenvalues --    0.55999   0.56192   0.56512   0.56930   0.57259
 Alpha virt. eigenvalues --    0.57722   0.57861   0.58601   0.58692   0.59272
 Alpha virt. eigenvalues --    0.59591   0.60211   0.60275   0.60488   0.60593
 Alpha virt. eigenvalues --    0.61280   0.61563   0.62622   0.63347   0.63683
 Alpha virt. eigenvalues --    0.64027   0.64358   0.64610   0.64841   0.65076
 Alpha virt. eigenvalues --    0.65657   0.66548   0.66778   0.67094   0.67503
 Alpha virt. eigenvalues --    0.68767   0.70098   0.70204   0.70582   0.70915
 Alpha virt. eigenvalues --    0.71447   0.71584   0.71861   0.72289   0.72639
 Alpha virt. eigenvalues --    0.72768   0.73220   0.73546   0.74171   0.75057
 Alpha virt. eigenvalues --    0.75138   0.75835   0.76224   0.76876   0.77139
 Alpha virt. eigenvalues --    0.77635   0.78078   0.79885   0.80374   0.81450
 Alpha virt. eigenvalues --    0.82526   0.84063   0.84823   0.85062   0.86568
 Alpha virt. eigenvalues --    0.87380   0.87538   0.87796   0.88771   0.89485
 Alpha virt. eigenvalues --    0.89831   0.91028   0.91089   0.92163   0.92470
 Alpha virt. eigenvalues --    0.93074   0.93300   0.93949   0.94491   0.94836
 Alpha virt. eigenvalues --    0.95473   0.96193   0.96372   0.96504   0.97049
 Alpha virt. eigenvalues --    0.97864   0.98156   0.98881   0.99321   0.99768
 Alpha virt. eigenvalues --    1.00695   1.01093   1.01906   1.02572   1.02917
 Alpha virt. eigenvalues --    1.03433   1.03668   1.04183   1.05048   1.06107
 Alpha virt. eigenvalues --    1.06242   1.06863   1.07489   1.08631   1.09020
 Alpha virt. eigenvalues --    1.09893   1.10059   1.10780   1.12490   1.13240
 Alpha virt. eigenvalues --    1.13934   1.14354   1.14664   1.16134   1.16332
 Alpha virt. eigenvalues --    1.17641   1.18179   1.20409   1.21847   1.25494
 Alpha virt. eigenvalues --    1.26189   1.28528   1.29286   1.30699   1.32606
 Alpha virt. eigenvalues --    1.33610   1.36083   1.37443   1.39474   1.39914
 Alpha virt. eigenvalues --    1.41670   1.42529   1.44141   1.44643   1.45382
 Alpha virt. eigenvalues --    1.46637   1.47127   1.47871   1.48290   1.48681
 Alpha virt. eigenvalues --    1.49333   1.49601   1.50072   1.50231   1.50605
 Alpha virt. eigenvalues --    1.51040   1.53724   1.55070   1.55309   1.55606
 Alpha virt. eigenvalues --    1.55783   1.56291   1.57571   1.57714   1.58898
 Alpha virt. eigenvalues --    1.59752   1.59779   1.60693   1.62781   1.63120
 Alpha virt. eigenvalues --    1.63840   1.64717   1.65238   1.66566   1.67189
 Alpha virt. eigenvalues --    1.67724   1.69397   1.69562   1.71058   1.72077
 Alpha virt. eigenvalues --    1.72762   1.73315   1.73960   1.74399   1.74909
 Alpha virt. eigenvalues --    1.75462   1.75944   1.76929   1.78064   1.80009
 Alpha virt. eigenvalues --    1.80225   1.81578   1.82318   1.83098   1.83655
 Alpha virt. eigenvalues --    1.84966   1.85409   1.85956   1.86427   1.87532
 Alpha virt. eigenvalues --    1.88727   1.89197   1.89473   1.89859   1.90363
 Alpha virt. eigenvalues --    1.90998   1.92494   1.92950   1.93213   1.93431
 Alpha virt. eigenvalues --    1.93813   1.94638   1.95103   1.96740   1.98104
 Alpha virt. eigenvalues --    1.98777   1.99006   2.00119   2.00306   2.01252
 Alpha virt. eigenvalues --    2.02393   2.04342   2.05384   2.05426   2.06182
 Alpha virt. eigenvalues --    2.06262   2.06834   2.09724   2.10034   2.11335
 Alpha virt. eigenvalues --    2.11964   2.12861   2.13003   2.14226   2.15189
 Alpha virt. eigenvalues --    2.15512   2.16884   2.19927   2.20758   2.21345
 Alpha virt. eigenvalues --    2.22185   2.23017   2.24240   2.25927   2.26473
 Alpha virt. eigenvalues --    2.30354   2.31411   2.31982   2.33723   2.36257
 Alpha virt. eigenvalues --    2.36659   2.38096   2.39707   2.40853   2.43042
 Alpha virt. eigenvalues --    2.43839   2.44928   2.45420   2.45739   2.46214
 Alpha virt. eigenvalues --    2.48456   2.49406   2.53765   2.55125   2.56110
 Alpha virt. eigenvalues --    2.56611   2.57988   2.59473   2.60330   2.62883
 Alpha virt. eigenvalues --    2.64059   2.64322   2.65734   2.66822   2.68148
 Alpha virt. eigenvalues --    2.69328   2.69950   2.70501   2.70979   2.71618
 Alpha virt. eigenvalues --    2.72110   2.73234   2.73562   2.74069   2.74257
 Alpha virt. eigenvalues --    2.75462   2.75895   2.76298   2.76580   2.76614
[...]
 6,-0.10225505,-0.00445578,0.03052905,-0.00670266,-0.00147147,0.0000031
 9,0.00004487,0.00000045,0.00004129,-0.00002135,-0.00000033,-0.00004138
 ,-0.00001387,-0.00000006,0.00006554,0.00001979,0.00000095,0.00001814,-
 0.00013799,0.00000865,0.00000118,0.00000361,-0.00000023,0.00000097,0.0
 0000065,0.00000016,0.00000257,0.00000097,0.00000004,0.00000227,-0.0000
 0003,-0.00000039,0.00000083,-0.00000216,-0.00000002,-0.00000535,0.0000
 0234,-0.00000051,0.00014473,-0.00007533,-0.00000812,-0.00004670,-0.000
 03953,0.00000592,-0.00045562,0.00100342,-0.00003543,0.00001312,-0.0000
 5415,-0.00000097,0.00041501,0.00081115,-0.00015536,-0.10816664,0.10399
 143,-0.00001993,-0.00000299,-0.00000777,0.00001282,-0.00000202,-0.0000
 0120,-0.00002721,0.00000833,0.00006285,-0.00001883,-0.00001575,-0.0000
 0940,-0.00000355,-0.00001008,-0.00000366,0.00001040,0.00000216,0.00000
 383,-0.00004515,-0.00007146,0.00001069,0.00005810,-0.00003871,-0.00091
 483,0.00000621,0.00000751,0.00013785,0.00002347,0.00001134,0.00002853,
 -0.00011887,0.00017815,-0.00076078,0.00022576,0.00019355,0.00775807,-0
 .00001777,0.00002071,0.00014358,-0.00002035,0.00000066,-0.00043228,0.0
 0073840,0.00053534,0.00665249,0.00152550,-0.00106485,0.00325808,0.0125
 4816,-0.00419650,-0.03787551,-0.00034416,0.00015769,0.00362761,0.00000
 344,0.00000796,-0.00000094,-0.00000407,0.00000775,-0.00000407,0.000018
 43,0.00001462,-0.00000244,-0.00003277,0.00000025,0.00001650,0.00006879
 ,-0.00000203,-0.00000464,0.00000031,-0.00000021,0.00000324,-0.00000062
 ,-0.00000013,0.00000127,-0.00000012,0.00000012,0.00000208,-0.00000027,
 0.00000034,0.00000120,0.00000027,0.00000009,0.00000129,0.00000028,-0.0
 0000106,-0.00000393,-0.00000011,0.00000041,-0.00000048,0.00000521,-0.0
 0000262,0.00008053,-0.00022642,-0.00008615,-0.00409728,-0.00003968,0.0
 0000841,-0.00000349,-0.00024709,-0.00017770,-0.00363043,-0.01409518,0.
 00457922,0.02606797,-0.00344914,0.00218082,0.00007721,-0.00028577,-0.0
 0020935,-0.00032457,-0.00435438,-0.00825027,-0.00063944,-0.00019800,0.
 00193808,-0.00003828,-0.00206237,-0.00405729,-0.00008706,0.00440820,0.
 00058074,0.00008377,0.00920779,-0.00386996,0.00138405,0.00636703,-0.00
 165282,-0.00083114,0.00130749,0.00317470,-0.00016490,0.00005767,0.0023
 9152,0.00023110,-0.00559537,0.01024097,-0.00050067,0.00037368,0.002773
 48,0.00065172,0.00134679,-0.00136357,0.00006600,-0.00185030,-0.0011782
 6,-0.00002033,-0.03255390,-0.01879022,-0.00517672,0.01402040,-0.003290
 41,0.00029732,-0.00364719,-0.00686895,0.00078887,-0.00104076,0.0036594
 0,-0.00022944,-0.00017731,0.00343615,0.00009605,0.00206187,-0.00269438
 ,-0.00001773,-0.00098636,0.00079338,-0.00000191,-0.01637116,0.03108359
 ,-0.00053071,-0.16438508,0.07598989,0.00251639,-0.00003189,-0.00053560
 ,-0.00002445,-0.00002264,-0.00004765,0.00000380,-0.00003254,0.00003438
 ,-0.00000928,-0.00009160,0.00019916,0.00000504,0.00020574,-0.00002895,
 0.00000449,0.00001136,-0.00019063,-0.00000685,-0.00006848,-0.00010427,
 -0.00000858,0.00000997,-0.00009644,-0.00001402,-0.00009636,-0.00003183
 ,-0.00004327,-0.01516221,-0.00071898,-0.00691904,0.00009789,0.00024875
 ,-0.00040739,-0.00021754,-0.00019233,-0.00008303,0.71032668,0.00443582
 ,0.00103521,-0.00009395,-0.00705496,0.00422676,0.00023802,-0.00670944,
 0.00193360,0.00017624,-0.00010095,-0.00502423,-0.00011549,-0.00004072,
 0.00199372,0.00002784,-0.00242995,-0.00087473,-0.00005299,0.02028294,-
 0.03914331,-0.00145484,0.00059364,0.00455750,-0.00010385,0.00065342,-0
 .00427836,0.00023506,0.00091886,0.00094367,-0.00004324,0.00038628,-0.0
 0590436,-0.00024037,0.00153951,-0.00091724,0.00000212,-0.00006068,0.00
 056159,-0.00000774,0.00067761,0.00048057,-0.00001992,-0.00531850,0.023
 23676,-0.00845431,-0.01114930,-0.00224686,-0.00225960,0.00151536,0.004
 94810,0.00030484,-0.00052319,-0.00165440,0.00038749,-0.00054737,-0.002
 57968,-0.00006809,-0.00183107,0.00103990,-0.00002690,0.00033665,0.0001
 9020,0.00012967,0.00986425,0.00481981,0.00138129,0.08800553,-0.2159652
 6,-0.00415472,-0.00064301,-0.00050407,-0.00003513,-0.00017236,0.000038
 50,-0.00001111,-0.00006209,-0.00008900,-0.00000034,-0.00000990,0.00010
 274,0.00000845,0.00002839,0.00000601,0.00000634,-0.00001755,0.00011877
 ,-0.00001068,0.00007695,0.00009684,-0.00001137,0.00002162,0.00002448,-
 0.00001238,0.00007463,0.00002921,-0.00005150,0.03008290,0.00103955,0.0
 0217157,-0.00008494,0.00047915,0.00001990,-0.00032168,-0.00023182,0.00
 000359,0.01058346,0.62813620,0.00001219,0.00057570,0.00131979,0.000160
 31,0.00070791,0.00252945,-0.00131827,-0.00002478,0.00368858,-0.0010879
 3,-0.00072495,0.00080689,-0.00050937,-0.00093134,-0.00019171,0.0010130
 3,0.00021070,-0.00021195,-0.00054813,-0.00392743,0.00123833,0.00187951
 ,-0.00005879,-0.00100051,-0.00058815,0.00055332,-0.00015898,0.00126920
 ,0.00036991,0.00007859,-0.00133620,0.00024478,-0.00078927,0.00136768,-
 0.00011530,0.00000763,-0.00009740,0.00020544,0.00003159,0.00026515,-0.
 00000877,-0.00001366,0.00470761,0.00120673,0.00125489,0.00166177,0.001
 08361,0.00142993,-0.00041455,-0.00119479,0.00059107,-0.00072828,0.0014
 0857,-0.00003755,-0.00034939,-0.00005279,-0.00003225,0.00003124,-0.000
 02043,-0.00018896,-0.00034457,-0.00019516,-0.00107891,0.00142695,0.001
 22997,0.00209149,-0.00506281,0.00262640,-0.04697563,0.00005638,0.00000
 030,0.00010620,-0.00001886,0.00000738,-0.00001215,-0.00000989,0.000000
 20,0.00004319,-0.00000982,0.00002437,-0.00025570,0.00000538,0.00001256
 ,-0.00013884,0.00002036,-0.00000218,0.00002219,-0.00000059,0.00000370,
 -0.00000120,0.00000476,-0.00000324,-0.00002123,-0.00001885,0.00001905,
 0.00000562,0.00160124,-0.00078013,0.00228522,0.00006983,0.00000656,-0.
 00026352,0.00002828,-0.00002349,-0.00022097,0.04813011,0.00544010,0.12
 163087,0.00240380,-0.00058735,-0.00006117,-0.00469154,-0.00169849,0.00
 021516,0.00330031,0.00190404,0.00036533,0.00113426,-0.00141743,-0.0000
 0827,0.00093352,0.00310308,0.00005603,-0.00343706,-0.00083308,-0.00005
 823,0.00509061,0.00189049,-0.00082139,-0.00628078,0.00101150,0.0003576
 2,-0.00188860,-0.00255218,0.00015224,0.00050112,-0.00201830,-0.0001916
 7,0.01591482,-0.00895068,0.00024680,0.00110078,0.00175923,-0.00074813,
 -0.00034144,0.00159390,0.00000949,0.00207226,0.00112626,-0.00000419,-0
 .14440193,-0.04396467,0.01784988,-0.05793077,-0.02624835,0.00477574,0.
 00060210,0.00953165,-0.00044470,-0.00082701,-0.00267858,0.00021091,0.0
 0067103,-0.00253792,-0.00003353,-0.00196458,0.00233253,-0.00001444,0.0
 0311528,0.00051690,0.00015265,-0.00156188,-0.00054937,0.00015125,-0.03
 058298,0.02256330,-0.00596956,0.00004844,-0.00001894,0.00000623,-0.000
 02148,0.00002407,-0.00000703,-0.00001102,-0.00004573,0.00000867,0.0000
 6236,-0.00002018,0.00000055,-0.00005552,-0.00001884,0.00000429,-0.0000
 2831,0.00012985,0.00001340,0.00002164,0.00006777,-0.00000247,0.0000002
 8,0.00041986,0.00000572,0.00020294,-0.00014883,0.00005964,-0.10197806,
 0.10483944,0.01258264,-0.00131609,-0.00396880,0.00030206,-0.00086466,-
 0.00066428,0.00009058,-0.38510384,-0.02080024,-0.03223253,0.72179164,0
 .00248068,0.00186358,0.00004150,0.00066466,0.00114167,-0.00000267,-0.0
 0234526,0.00325482,-0.00006410,-0.00423154,-0.00423276,-0.00003138,-0.
 00129261,-0.00122765,-0.00004962,0.00147702,0.00013997,0.00000328,-0.0
 0143246,-0.00727182,-0.00023258,0.00197489,0.00307917,0.00011263,-0.00
 145645,-0.00145367,-0.00009360,0.00376225,0.00052381,-0.00002715,-0.02
 039188,-0.02304210,0.00226782,0.00640905,-0.00487033,-0.00013292,-0.00
 215147,0.00068830,0.00019096,0.00163029,0.00092642,-0.00003786,-0.0608
 3329,-0.16671092,0.01220898,-0.01325509,0.00934028,-0.00113257,0.00475
 663,0.00179178,-0.00027229,-0.00100733,-0.00004937,0.00016254,-0.00092
 612,-0.00261832,-0.00010156,-0.00188564,0.00185469,0.00009619,0.001803
 42,-0.00021688,-0.00001438,0.00086518,-0.00447216,0.00007540,0.0304644
 6,0.01919157,0.00456857,0.00039977,0.00037798,-0.00003954,0.00006052,0
 .00005690,0.00000272,-0.00000625,-0.00004581,-0.00001330,0.00003121,-0
 .00006227,0.00002462,-0.00006894,0.00001614,0.00000015,0.00000154,0.00
 008513,0.00001410,0.00004885,0.00005431,0.00000181,0.00003963,-0.00030
 629,-0.00003411,-0.00003080,0.00004586,0.00001262,0.10670035,-0.277388
 62,-0.02001781,0.00342036,-0.00035832,-0.00000224,0.00085448,0.0005436
 6,-0.00011783,0.01118381,-0.12137331,-0.00205956,-0.03681434,0.5742581
 5,-0.00573615,-0.00740422,-0.00051016,-0.00297182,-0.01265590,0.000033
 86,0.02175820,-0.01072143,-0.00021418,0.01440047,0.01433341,0.00040710
 ,0.00539017,0.00754537,0.00021889,-0.00830034,-0.00147231,-0.00010979,
 0.01278065,0.04270735,-0.00023969,-0.01980335,-0.00607242,-0.00063987,
 -0.00293841,0.00225042,-0.00006258,-0.00910886,-0.00653444,-0.00018247
 ,0.01054004,0.00420547,0.00139960,-0.01012756,-0.00367141,0.00467282,-
 0.00078393,0.00147174,0.00013789,0.00058480,-0.00032700,-0.00007121,-0
 .02490183,-0.01158139,-0.03943871,0.01252372,-0.00258813,0.00883136,-0
 .00041921,-0.00152095,0.00551675,0.00261799,-0.00319047,-0.00118988,0.
 00430706,0.00360197,0.00019270,0.00275304,-0.00043036,0.00015872,0.000
 48538,0.00139839,-0.00006398,-0.01474458,-0.00143913,0.00092588,0.0158
 1040,-0.05061212,0.00277834,-0.00000813,0.00009859,-0.00008781,0.00001
 070,-0.00011963,-0.00002182,0.00006771,0.00013510,-0.00001337,0.000072
 10,-0.00005292,0.00006872,0.00010128,-0.00012819,0.00001143,-0.0001411
 9,-0.00004185,-0.00002033,0.00002002,-0.00008400,0.00004911,-0.0000129
 7,0.00008788,0.00005119,0.00005668,-0.00010838,-0.00073113,0.00544484,
 -0.01351877,-0.02221615,-0.00031596,0.00040281,-0.00335864,-0.00021271
 ,0.00000711,0.00035776,-0.01041205,0.03277642,-0.03061618,-0.01692323,
 0.02372773,-0.02163279,0.00003059,-0.00010524,-0.00001410,0.00012569,-
 0.00002848,-0.00000365,0.00056810,0.00075765,0.00005678,-0.00018212,0.
 00016196,0.00002302,0.00002325,0.00003543,0.00000040,0.00001864,0.0000
 6097,-0.00000585,-0.00215333,0.00260673,-0.00020888,-0.00051339,-0.000
 05201,-0.00007736,0.00015647,0.00004606,0.00002117,-0.00010081,-0.0000
 3970,-0.00000055,-0.00007639,0.00006777,0.00006274,0.00003110,-0.00009
 611,0.00010263,-0.00001057,-0.00002047,-0.00000766,-0.00007139,-0.0000
 1094,0.00000597,-0.00328671,0.00216684,-0.00209952,-0.00039383,-0.0012
 5390,0.00019032,-0.00033394,0.00035449,0.00015368,0.00008498,-0.000062
 25,-0.00001996,0.00004011,0.00000659,-0.00000311,-0.00007745,-0.000188
 12,-0.00001205,0.00008573,0.00038571,0.00002772,0.00024527,-0.00032032
 ,0.00009795,0.01162912,0.01740575,0.00041913,-0.00053907,-0.00018013,-
 0.00000988,0.00002284,0.00000473,-0.00000043,0.00001044,-0.00003324,0.
 00000056,0.00000455,-0.00000999,0.00000212,-0.00002998,0.00000888,0.00
 000116,0.00000477,-0.00000109,-0.00000364,0.00001363,0.00000048,0.0000
 0036,-0.00000392,-0.00002566,0.00000168,-0.00000945,-0.00001588,-0.000
 01373,0.00030660,-0.00038438,0.00066238,-0.00002771,0.00012327,-0.0000
 4913,-0.00011429,-0.00008054,0.00000518,-0.10753186,-0.10548478,-0.005
 46185,-0.01517161,-0.02975193,-0.00072539,0.11712728,-0.00014499,0.000
 12340,-0.00000908,0.00016898,-0.00031877,-0.00000027,-0.00082654,-0.00
 124702,-0.00001300,0.00033161,-0.00008652,0.00001653,-0.00000719,-0.00
 009230,-0.00000216,-0.00000131,-0.00008445,-0.00000607,0.00404412,-0.0
 0097898,-0.00010871,0.00030394,0.00018296,-0.00002525,-0.00007101,-0.0
 0008616,0.00000751,0.00004668,0.00002825,0.00000030,0.00020372,-0.0001
 0987,0.00000878,-0.00000923,0.00008412,-0.00000967,-0.00000977,-0.0000
 2193,0.00000904,0.00004070,-0.00002058,-0.00000274,0.00085691,0.001695
 77,-0.00012114,-0.00024115,-0.00012584,-0.00004627,-0.00005292,0.00010
 726,0.00002484,0.00002640,0.00000073,0.,-0.00000373,0.00002098,0.00000
 777,0.00014845,0.00034497,-0.00000175,0.00043488,-0.00028275,0.0000230
 0,-0.00124281,0.00100722,-0.00000202,-0.01264421,-0.02074084,-0.000543
 27,0.00034863,0.00049698,0.00002517,0.00001904,-0.00000433,0.00000159,
 0.00000063,0.00003383,0.00000015,0.00001082,0.00000317,0.00000073,0.00
 005133,-0.00002613,0.00000017,-0.00000464,-0.00001905,-0.00000111,-0.0
 0001467,-0.00001798,0.00000077,-0.00001001,0.00000152,0.00000044,-0.00
 001079,-0.00000283,-0.00000473,0.00031395,0.00152638,0.00007453,-0.000
 02887,-0.00002354,-0.00000289,-0.00000298,-0.00000808,0.00000436,-0.10
 809872,-0.27985993,-0.00693089,0.00189969,0.00143817,0.00005238,0.1140
 9863,0.29710606,-0.00002458,-0.00000734,0.00007166,0.00006128,0.000025
 06,0.00006784,-0.00001888,-0.00001833,-0.00041921,0.00003739,0.0000608
 4,-0.00030902,0.00000024,0.00000210,-0.00001774,0.00000475,-0.00001122
 ,0.00010107,0.00002674,0.00020649,0.00330944,-0.00007009,-0.00013340,0
 .00028097,-0.00001690,0.00009096,-0.00008173,-0.00001735,-0.00003585,-
 0.00000610,-0.00004386,0.00006002,0.00002277,0.00002905,-0.00008581,-0
 .00051600,-0.00003735,-0.00003432,-0.00000884,-0.00001542,0.00000116,-
 0.00002007,-0.00033975,0.00114765,0.00749956,0.00000782,-0.00044542,0.
 00012255,-0.00025101,0.00012195,-0.00048885,0.00014583,0.00008824,0.00
 008597,0.00000122,0.00002804,0.00003429,0.00002973,-0.00004539,-0.0001
 4348,-0.00006394,0.00001024,-0.00006256,-0.00006291,0.00002496,-0.0012
 9610,0.00066247,-0.00046810,0.00381006,-0.00002016,-0.00001738,0.00029
 035,-0.00000165,-0.00000225,0.00002396,-0.00000022,-0.00000154,0.00001
 391,-0.00000094,-0.00000110,-0.00003025,-0.00000089,0.00000076,0.00003
 631,0.00000028,-0.00000018,0.00001390,-0.00000218,0.00000127,0.0000006
 8,0.00000107,-0.00000810,-0.00000901,-0.00000182,-0.00000159,0.0000618
 2,0.00003484,0.00048078,-0.00493736,0.00001175,0.00005259,0.00005776,-
 0.00002137,-0.00003349,-0.00002757,-0.00353649,-0.00396964,-0.03345151
 ,-0.00340534,-0.00439322,0.00381262,0.00632301,0.00715667,0.02155628,0
 .00155671,0.00116553,0.00004410,-0.00006307,0.00192160,-0.00005801,-0.
 00307261,0.00187911,-0.00010795,-0.00194932,-0.00209216,-0.00003126,-0
 .00064094,-0.00078332,-0.00002829,0.00087336,0.00018896,0.00000498,-0.
 00134202,-0.00623637,0.00028817,0.00219783,0.00215735,-0.00024208,0.00
 136867,-0.00175026,-0.00006838,0.00043331,0.00112179,0.00005810,-0.000
 71874,-0.00116507,0.00011045,0.00015852,0.00059197,0.00000895,0.000183
 69,-0.00019872,0.00000955,-0.00029099,0.00008606,-0.00000534,0.0053998
 7,0.00060168,-0.00048642,-0.00577120,-0.00032955,0.00082611,0.00135777
 ,0.00262431,0.00018420,0.00058755,-0.00131958,-0.00004687,-0.00078132,
 -0.00098778,-0.00003269,-0.00063437,0.00023582,-0.00002260,0.00017180,
 -0.00031092,-0.00008883,0.00215974,0.00005310,0.00038620,-0.00338988,0
 .00892287,0.00146629,-0.00000872,-0.00000624,0.00000788,0.00001267,0.0
 0002621,0.00000430,-0.00000041,-0.00002706,0.00000142,0.00000259,0.000
 00221,0.00000776,-0.00001900,0.00001031,0.00000054,-0.00000153,0.00002
 357,0.00000765,0.00001108,0.00002575,-0.00000097,-0.00001051,-0.000007
 00,0.00000512,-0.00000214,-0.00000201,-0.00005417,0.00014858,0.0004663
 6,0.00054375,0.00003642,-0.00005846,-0.00014065,0.00007400,0.00005764,
 0.00000387,-0.00448651,-0.00671516,-0.01357358,-0.00050804,-0.00114769
 ,0.01886245,0.00009861,0.00007648,0.00057563,0.00685857,0.00044202,0.0
 0028921,0.00001183,0.00001548,0.00049292,0.00003186,-0.00057803,0.0000
 6893,0.00006977,-0.00024735,-0.00006618,0.00000498,-0.00012234,-0.0002
 2150,-0.00001925,0.00025571,0.00009525,0.00000864,-0.00026759,-0.00073
 439,-0.00044920,-0.00051445,0.00058549,0.00042751,0.00079494,-0.000349
 49,-0.00000764,-0.00050492,0.00017717,-0.00002454,0.00076407,-0.001303
 57,0.00057816,-0.00065513,0.00065388,-0.00015593,0.00011562,-0.0004069
 9,-0.00003311,-0.00033866,0.00008622,0.00003624,-0.00146360,-0.0018886
 1,0.00340015,-0.00233797,-0.00042212,0.00092779,0.00088908,0.00156681,
 -0.00016212,0.00068354,-0.00132362,-0.00009571,-0.00027271,-0.00017255
 ,-0.00000831,-0.00000010,-0.00012231,-0.00003845,-0.00033141,-0.000256
 09,-0.00002189,0.00109395,0.00010812,0.00014032,-0.00171883,0.00185205
 ,-0.00042261,-0.00002168,-0.00000692,0.00003151,0.00001435,0.00000760,
 0.00000213,0.00000765,-0.00000683,0.00000652,0.00000514,0.00000042,-0.
 00000341,-0.00000096,-0.00000362,-0.00000198,-0.00000344,-0.00000008,0
 .00000159,-0.00000854,-0.00000093,-0.00000108,-0.00000415,0.00000994,0
 .00001176,0.00000856,-0.00000420,-0.00001120,-0.00002857,-0.00015197,-
 0.00581297,-0.00005406,-0.00005017,0.00002634,0.00003084,0.00004656,0.
 00004755,0.00177862,0.00060770,0.00111676,0.00182302,-0.00497173,-0.00
 052671,-0.00014677,-0.00004389,0.00015390,0.00089864,0.00585949,0.0031
 7641,0.00410740,0.00001156,0.00183518,0.00822556,0.00017138,-0.0143920
 6,0.00768833,-0.00002755,-0.00873555,-0.00987216,-0.00020474,-0.003163
 66,-0.00405237,-0.00012332,0.00438177,0.00064239,0.00001227,-0.0079000
 2,-0.02763675,0.00014861,0.01273334,0.00317756,-0.00061905,0.00152758,
 -0.00103933,-0.00010863,0.00612540,0.00416850,0.00019430,-0.00802958,-
 0.00227133,-0.00174585,0.00763846,0.00224368,0.00048661,0.00073046,-0.
 00101998,0.00010032,-0.00043106,-0.00001969,0.00001322,0.02314938,0.01
 642679,-0.01433381,-0.00406065,0.00280171,-0.00254576,-0.00012659,-0.0
 0081395,0.00075113,-0.00289034,0.00292048,0.00029642,-0.00221928,-0.00
 182453,-0.00007456,-0.00173567,0.00022190,-0.00006769,0.00031958,-0.00
 044865,-0.00003080,0.00838698,0.00030300,0.00109554,-0.00804156,0.0321
 7844,0.00225606,0.00000108,-0.00007851,-0.00000427,-0.00001452,0.00005
 741,0.00000305,-0.00006199,-0.00007853,0.00000404,-0.00005649,0.000031
 33,0.00001053,-0.00006811,0.00009312,-0.00000787,0.00010828,0.00001621
 ,-0.00000453,-0.00000694,0.00004271,-0.00002224,0.00002052,-0.00009578
 ,-0.00003761,-0.00006154,0.00005312,-0.00010548,0.00054101,-0.00010328
 ,-0.01461047,0.00017724,-0.00040361,-0.00024680,0.00000317,-0.00006619
 ,-0.00021378,-0.02430858,-0.02211078,-0.02350084,0.02330899,-0.0146413
 3,0.09179599,0.00055879,0.00041630,0.00055165,-0.00841938,0.00076081,-
 0.03926706\\-0.00000024,-0.00000294,0.00000107,0.00000028,-0.00000067,
 0.00000036,-0.00000057,-0.00000206,0.00000078,-0.00000073,-0.00000020,
 0.00000150,0.00000052,-0.00000140,0.00000221,-0.00000319,-0.00000300,0
 .00000235,0.00000015,0.00000020,-0.00000018,-0.00000131,-0.00000071,0.
 00000028,-0.00000240,0.00000230,0.00000140,-0.00000144,-0.00000092,0.0
 0000187,-0.00000017,0.00000089,-0.00000039,-0.00000014,0.00000195,-0.0
 0000021,-0.00000334,0.00000319,0.00000066,-0.00000017,0.00000012,0.000
 00160,0.00000071,0.00000096,-0.00000174,0.00000146,0.00000280,-0.00000
 259,-0.00000039,0.00000395,-0.00000154,-0.00000086,0.00000187,-0.00000
 083,0.00000114,-0.00000379,0.00000049,0.00000259,-0.00000245,-0.000000
 04,-0.00000085,-0.00000196,-0.00000076,0.00000398,-0.00000141,-0.00000
 038,-0.00000296,0.00000276,-0.00000031,0.00000219,-0.00000180,-0.00000
 127,0.00000168,-0.00000332,-0.00000041,0.00000019,-0.00000372,0.000001
 04,-0.00000150,-0.00000321,0.00000238,-0.00000235,-0.00000201,0.000002
 77,-0.00000249,-0.00000025,0.00000213,-0.00000258,0.00000125,0.0000017
 1,-0.00000186,0.00000273,0.00000084,-0.00000070,0.00000370,-0.00000065
 ,0.00000177,0.00000200,0.00000071,0.00000196,0.00000262,-0.00000248,0.
 00000090,0.00000387,-0.00000207,0.00001473,-0.00000270,-0.00000160,-0.
 00001056,0.00000308,-0.00001248,0.00000241,-0.00000006,-0.00000178,0.0
 0000412,-0.00000169,0.00000557\\\@


 I (ERNEST RUTHERFORD) CAME INTO THE ROOM, WHICH WAS HALF DARK, AND PRESENTLY
 SPOTTED LORD KELVIN IN THE AUDIENCE AND REALIZED I WAS IN TROUBLE AT
 THE LAST PART OF MY SPEECH DEALING THE AGE OF THE EARTH, WHERE MY VIEWS
 CONFLICTED WITH HIS.  TO MY RELIEF KELVIN FELL FAST ASLEEP, BUT AS I CAME
 TO THE IMPORTANT POINT, I SAW THE OLD BIRD SIT UP AND COCK A BALEFUL GLANCE
 AT ME! THEN A SUDDEN INSPIRATION CAME AND I SAID LORD KELVIN HAD LIMITED
 THE AGE OF THE EARTH PROVIDED NO NEW SOURCE WAS DISCOVERED. THAT
 PROPHETIC UTTERANCE REFERS TO WHAT WE ARE NOW CONSIDERING TONIGHT, RADIUM!
 BEHOLD!  THE OLD BOY BEAMED UPON ME.
 Job cpu time:       3 days  9 hours 22 minutes  9.6 seconds.
 File lengths (MBytes):  RWF=   9052 Int=      0 D2E=      0 Chk=     42 Scr=      1
 Normal termination of Gaussian 09 at Mon Feb  3 02:25:58 2020.
