 Entering Gaussian System, Link 0=g09
 Initial command:
 /usr/local/Cluster-Apps/gaussian/g09/l1.exe "/rds/user/am2145/hpc-work/scratch/19190191/Gau-74442.inp" -scrdir="/rds/user/am2145/hpc-work/scratch/19190191/"
 Entering Link 1 = /usr/local/Cluster-Apps/gaussian/g09/l1.exe PID=     74443.
  
 Copyright (c) 1988,1990,1992,1993,1995,1998,2003,2009,2013,
            Gaussian, Inc.  All Rights Reserved.
  
 This is part of the Gaussian(R) 09 program.  It is based on
 the Gaussian(R) 03 system (copyright 2003, Gaussian, Inc.),
 the Gaussian(R) 98 system (copyright 1998, Gaussian, Inc.),
 the Gaussian(R) 94 system (copyright 1995, Gaussian, Inc.),
 the Gaussian 92(TM) system (copyright 1992, Gaussian, Inc.),
 the Gaussian 90(TM) system (copyright 1990, Gaussian, Inc.),
 the Gaussian 88(TM) system (copyright 1988, Gaussian, Inc.),
 the Gaussian 86(TM) system (copyright 1986, Carnegie Mellon
 University), and the Gaussian 82(TM) system (copyright 1983,
 Carnegie Mellon University). Gaussian is a federally registered
 trademark of Gaussian, Inc.
  
 This software contains proprietary and confidential information,
 including trade secrets, belonging to Gaussian, Inc.
  
 This software is provided under written license and may be
 used, copied, transmitted, or stored only in accord with that
 written license.
  
 The following legend is applicable only to US Government
 contracts under FAR:
  
                    RESTRICTED RIGHTS LEGEND
  
 Use, reproduction and disclosure by the US Government is
 subject to restrictions as set forth in subparagraphs (a)
 and (c) of the Commercial Computer Software - Restricted
 Rights clause in FAR 52.227-19.
  
 Gaussian, Inc.
 340 Quinnipiac St., Bldg. 40, Wallingford CT 06492
  
  
 ---------------------------------------------------------------
 Warning -- This program may not be used in any manner that
 competes with the business of Gaussian, Inc. or will provide
 assistance to any competitor of Gaussian, Inc.  The licensee
 of this program is prohibited from giving any competitor of
 Gaussian, Inc. access to this program.  By using this program,
 the user acknowledges that Gaussian, Inc. is engaged in the
 business of creating and licensing software in the field of
 computational chemistry and represents and warrants to the
 licensee that it is not a competitor of Gaussian, Inc. and that
 it will not use this program in any manner prohibited above.
 ---------------------------------------------------------------
  

 Cite this work as:
 Gaussian 09, Revision D.01,
 M. J. Frisch, G. W. Trucks, H. B. Schlegel, G. E. Scuseria, 
 M. A. Robb, J. R. Cheeseman, G. Scalmani, V. Barone, B. Mennucci, 
 G. A. Petersson, H. Nakatsuji, M. Caricato, X. Li, H. P. Hratchian, 
 A. F. Izmaylov, J. Bloino, G. Zheng, J. L. Sonnenberg, M. Hada, 
 M. Ehara, K. Toyota, R. Fukuda, J. Hasegawa, M. Ishida, T. Nakajima, 
 Y. Honda, O. Kitao, H. Nakai, T. Vreven, J. A. Montgomery, Jr., 
 J. E. Peralta, F. Ogliaro, M. Bearpark, J. J. Heyd, E. Brothers, 
 K. N. Kudin, V. N. Staroverov, T. Keith, R. Kobayashi, J. Normand, 
 K. Raghavachari, A. Rendell, J. C. Burant, S. S. Iyengar, J. Tomasi, 
 M. Cossi, N. Rega, J. M. Millam, M. Klene, J. E. Knox, J. B. Cross, 
 V. Bakken, C. Adamo, J. Jaramillo, R. Gomperts, R. E. Stratmann, 
 O. Yazyev, A. J. Austin, R. Cammi, C. Pomelli, J. W. Ochterski, 
 R. L. Martin, K. Morokuma, V. G. Zakrzewski, G. A. Voth, 
 P. Salvador, J. J. Dannenberg, S. Dapprich, A. D. Daniels, 
 O. Farkas, J. B. Foresman, J. V. Ortiz, J. Cioslowski, 
 and D. J. Fox, Gaussian, Inc., Wallingford CT, 2013.
 
 ******************************************
 Gaussian 09:  ES64L-G09RevD.01 24-Apr-2013
                 2-Feb-2020 
 ******************************************
 %NProcShared=20
 Will use up to   20 processors via shared memory.
 %mem=64GB
 %Chk=BS2b_Hmigcloseloss_guess.chk
 --------------------------------------------------
 #n opt=(ts,calcfc,noeigen) freq b3lyp/6-311+g(d,p)
 --------------------------------------------------
 1/5=1,10=4,11=1,14=-1,18=20,26=3,38=1/1,3;
 2/9=110,12=2,17=6,18=5,40=1/2;
 3/5=4,6=6,7=111,11=2,16=1,25=1,30=1,71=2,74=-5,140=1/1,2,3;
 4//1;
 5/5=2,38=5/2;
 8/6=4,10=90,11=11/1;
 11/6=1,8=1,9=11,15=111,16=1/1,2,10;
 10/6=1,13=1/2;
 6/7=2,8=2,9=2,10=2,28=1/1;
 7/10=1,18=20,25=1/1,2,3,16;
 1/5=1,10=4,11=1,14=-1,18=20,26=3/3(2);
 2/9=110/2;
 99//99;
 2/9=110/2;
 3/5=4,6=6,7=111,11=2,16=1,25=1,30=1,71=1,74=-5/1,2,3;
 4/5=5,16=3,69=1/1;
 5/5=2,38=5/2;
 7//1,2,3,16;
 1/5=1,11=1,14=-1,18=20,26=3/3(-5);
 2/9=110/2;
 6/7=2,8=2,9=2,10=2,19=2,28=1/1;
 99/9=1/99;
 ------------------------
 BS2b_Hmigcloseloss_guess
 ------------------------
 Symbolic Z-matrix:
 Charge =  0 Multiplicity = 3
 C                     3.81697   0.38286  -0.02287 
 C                     2.51884  -0.11501  -0.0171 
 C                     1.38104   0.70548  -0.0073 
 C                     1.46956   2.09829  -0.00055 
 C                     3.9207    1.82685  -0.01835 
 C                     2.8121    2.6376   -0.00737 
 C                     0.21549  -0.08105  -0.00254 
 C                    -1.03921   0.56987   0.0052 
 C                    -0.977     2.0251    0.01958 
 C                     0.23342   2.75241   0.01626 
 C                    -2.33746  -0.09694  -0.00649 
 C                    -3.50695   0.72692   0.00715 
 C                    -3.39851   2.15636   0.03522 
 C                    -2.19755   2.77332   0.03849 
 C                    -2.54085  -1.53263  -0.04243 
 C                    -3.86385  -2.01995  -0.06744 
 C                    -4.98141  -1.19575  -0.05135 
 C                    -4.80209   0.16929  -0.01223 
 C                     4.83516  -0.60136  -0.02865 
 C                     4.48927  -1.95299  -0.02627 
 C                     3.153    -2.41357  -0.01877 
 C                     2.12885  -1.46974  -0.01583 
 C                     0.66281  -1.4719   -0.00759 
 H                     2.95851  -3.48043  -0.01294 
 H                     5.28488  -2.68998  -0.02862 
 H                     5.88146  -0.31496  -0.03346 
 H                     4.90628   2.28134  -0.02235 
 H                     2.94339   3.71471  -0.00284 
 H                     0.17688   3.83608   0.02694 
 H                    -2.13418   3.85595   0.05468 
 H                    -4.3161    2.7341    0.04912 
 H                    -5.65426   0.83962   0.00099 
 H                    -4.00588  -3.09388  -0.09662 
 H                    -5.97599  -1.62607  -0.06859 
 H                     0.30424  -3.56532  -0.08152 
 C                    -1.55844  -2.59142  -0.06043 
 C                    -0.17334  -2.59486   0.01071 
 H                     0.07242  -3.0352    2.00105 
 H                    -2.00485  -3.57921  -0.1002 
 
 Add virtual bond connecting atoms H38        and H35        Dist= 4.08D+00.
 Add virtual bond connecting atoms H38        and C37        Dist= 3.88D+00.

 GradGradGradGradGradGradGradGradGradGradGradGradGradGradGradGradGradGrad
 Berny optimization.
 Initialization pass.
                           ----------------------------
                           !    Initial Parameters    !
                           ! (Angstroms and Degrees)  !
 --------------------------                            --------------------------
 ! Name  Definition              Value          Derivative Info.                !
 --------------------------------------------------------------------------------
 ! R1    R(1,2)                  1.3903         calculate D2E/DX2 analytically  !
 ! R2    R(1,5)                  1.4477         calculate D2E/DX2 analytically  !
 ! R3    R(1,19)                 1.4161         calculate D2E/DX2 analytically  !
 ! R4    R(2,3)                  1.4028         calculate D2E/DX2 analytically  !
 ! R5    R(2,22)                 1.4097         calculate D2E/DX2 analytically  !
 ! R6    R(3,4)                  1.3956         calculate D2E/DX2 analytically  !
 ! R7    R(3,7)                  1.4061         calculate D2E/DX2 analytically  !
 ! R8    R(4,6)                  1.4468         calculate D2E/DX2 analytically  !
 ! R9    R(4,10)                 1.3986         calculate D2E/DX2 analytically  !
 ! R10   R(5,6)                  1.3735         calculate D2E/DX2 analytically  !
 ! R11   R(5,27)                 1.0853         calculate D2E/DX2 analytically  !
 ! R12   R(6,28)                 1.0851         calculate D2E/DX2 analytically  !
 ! R13   R(7,8)                  1.4135         calculate D2E/DX2 analytically  !
 ! R14   R(7,23)                 1.461          calculate D2E/DX2 analytically  !
 ! R15   R(8,9)                  1.4566         calculate D2E/DX2 analytically  !
 ! R16   R(8,11)                 1.4595         calculate D2E/DX2 analytically  !
 ! R17   R(9,10)                 1.4121         calculate D2E/DX2 analytically  !
 ! R18   R(9,14)                 1.4318         calculate D2E/DX2 analytically  !
 ! R19   R(10,29)                1.0852         calculate D2E/DX2 analytically  !
 ! R20   R(11,12)                1.4306         calculate D2E/DX2 analytically  !
 ! R21   R(11,15)                1.4505         calculate D2E/DX2 analytically  !
 ! R22   R(12,13)                1.4338         calculate D2E/DX2 analytically  !
 ! R23   R(12,18)                1.4102         calculate D2E/DX2 analytically  !
 ! R24   R(13,14)                1.3502         calculate D2E/DX2 analytically  !
 ! R25   R(13,31)                1.0844         calculate D2E/DX2 analytically  !
 ! R26   R(14,30)                1.0846         calculate D2E/DX2 analytically  !
 ! R27   R(15,16)                1.4101         calculate D2E/DX2 analytically  !
 ! R28   R(15,36)                1.4445         calculate D2E/DX2 analytically  !
 ! R29   R(16,17)                1.3887         calculate D2E/DX2 analytically  !
 ! R30   R(16,33)                1.0837         calculate D2E/DX2 analytically  !
 ! R31   R(17,18)                1.3773         calculate D2E/DX2 analytically  !
 ! R32   R(17,34)                1.0838         calculate D2E/DX2 analytically  !
 ! R33   R(18,32)                1.0843         calculate D2E/DX2 analytically  !
 ! R34   R(19,20)                1.3952         calculate D2E/DX2 analytically  !
 ! R35   R(19,26)                1.0848         calculate D2E/DX2 analytically  !
 ! R36   R(20,21)                1.4134         calculate D2E/DX2 analytically  !
 ! R37   R(20,25)                1.0845         calculate D2E/DX2 analytically  !
 ! R38   R(21,22)                1.3927         calculate D2E/DX2 analytically  !
 ! R39   R(21,24)                1.0845         calculate D2E/DX2 analytically  !
 ! R40   R(22,23)                1.4661         calculate D2E/DX2 analytically  !
 ! R41   R(23,37)                1.4002         calculate D2E/DX2 analytically  !
 ! R42   R(35,37)                1.0855         calculate D2E/DX2 analytically  !
 ! R43   R(35,38)                2.1614         calculate D2E/DX2 analytically  !
 ! R44   R(36,37)                1.3869         calculate D2E/DX2 analytically  !
 ! R45   R(36,39)                1.0847         calculate D2E/DX2 analytically  !
 ! R46   R(37,38)                2.0532         calculate D2E/DX2 analytically  !
 ! A1    A(2,1,5)              115.0909         calculate D2E/DX2 analytically  !
 ! A2    A(2,1,19)             114.9893         calculate D2E/DX2 analytically  !
 ! A3    A(5,1,19)             129.9196         calculate D2E/DX2 analytically  !
 ! A4    A(1,2,3)              123.2214         calculate D2E/DX2 analytically  !
 ! A5    A(1,2,22)             127.0428         calculate D2E/DX2 analytically  !
 ! A6    A(3,2,22)             109.7355         calculate D2E/DX2 analytically  !
 ! A7    A(2,3,4)              122.1606         calculate D2E/DX2 analytically  !
 ! A8    A(2,3,7)              110.1926         calculate D2E/DX2 analytically  !
 ! A9    A(4,3,7)              127.6466         calculate D2E/DX2 analytically  !
 ! A10   A(3,4,6)              115.5202         calculate D2E/DX2 analytically  !
 ! A11   A(3,4,10)             114.2511         calculate D2E/DX2 analytically  !
 ! A12   A(6,4,10)             130.2283         calculate D2E/DX2 analytically  !
 ! A13   A(1,5,6)              122.0706         calculate D2E/DX2 analytically  !
 ! A14   A(1,5,27)             118.864          calculate D2E/DX2 analytically  !
 ! A15   A(6,5,27)             119.0654         calculate D2E/DX2 analytically  !
 ! A16   A(4,6,5)              121.9362         calculate D2E/DX2 analytically  !
 ! A17   A(4,6,28)             118.8334         calculate D2E/DX2 analytically  !
 ! A18   A(5,6,28)             119.2304         calculate D2E/DX2 analytically  !
 ! A19   A(3,7,8)              118.5689         calculate D2E/DX2 analytically  !
 ! A20   A(3,7,23)             106.1825         calculate D2E/DX2 analytically  !
 ! A21   A(8,7,23)             135.2486         calculate D2E/DX2 analytically  !
 ! A22   A(7,8,9)              114.9735         calculate D2E/DX2 analytically  !
 ! A23   A(7,8,11)             125.3893         calculate D2E/DX2 analytically  !
 ! A24   A(9,8,11)             119.6365         calculate D2E/DX2 analytically  !
 ! A25   A(8,9,10)             123.4449         calculate D2E/DX2 analytically  !
 ! A26   A(8,9,14)             119.0654         calculate D2E/DX2 analytically  !
 ! A27   A(10,9,14)            117.4897         calculate D2E/DX2 analytically  !
 ! A28   A(4,10,9)             121.1126         calculate D2E/DX2 analytically  !
 ! A29   A(4,10,29)            120.8766         calculate D2E/DX2 analytically  !
 ! A30   A(9,10,29)            118.0108         calculate D2E/DX2 analytically  !
 ! A31   A(8,11,12)            117.6435         calculate D2E/DX2 analytically  !
 ! A32   A(8,11,15)            125.2495         calculate D2E/DX2 analytically  !
 ! A33   A(12,11,15)           117.1048         calculate D2E/DX2 analytically  !
 ! A34   A(11,12,13)           120.8293         calculate D2E/DX2 analytically  !
 ! A35   A(11,12,18)           121.5285         calculate D2E/DX2 analytically  !
 ! A36   A(13,12,18)           117.6416         calculate D2E/DX2 analytically  !
 ! A37   A(12,13,14)           121.5252         calculate D2E/DX2 analytically  !
 ! A38   A(12,13,31)           117.8654         calculate D2E/DX2 analytically  !
 ! A39   A(14,13,31)           120.6088         calculate D2E/DX2 analytically  !
 ! A40   A(9,14,13)            121.2951         calculate D2E/DX2 analytically  !
 ! A41   A(9,14,30)            118.1659         calculate D2E/DX2 analytically  !
 ! A42   A(13,14,30)           120.539          calculate D2E/DX2 analytically  !
 ! A43   A(11,15,16)           118.2986         calculate D2E/DX2 analytically  !
 ! A44   A(11,15,36)           129.0846         calculate D2E/DX2 analytically  !
 ! A45   A(16,15,36)           112.6167         calculate D2E/DX2 analytically  !
 ! A46   A(15,16,17)           123.3477         calculate D2E/DX2 analytically  !
 ! A47   A(15,16,33)           117.77           calculate D2E/DX2 analytically  !
 ! A48   A(17,16,33)           118.8818         calculate D2E/DX2 analytically  !
 ! A49   A(16,17,18)           118.9315         calculate D2E/DX2 analytically  !
 ! A50   A(16,17,34)           120.1761         calculate D2E/DX2 analytically  !
 ! A51   A(18,17,34)           120.8923         calculate D2E/DX2 analytically  !
 ! A52   A(12,18,17)           120.7875         calculate D2E/DX2 analytically  !
 ! A53   A(12,18,32)           118.5001         calculate D2E/DX2 analytically  !
 ! A54   A(17,18,32)           120.7121         calculate D2E/DX2 analytically  !
 ! A55   A(1,19,20)            119.673          calculate D2E/DX2 analytically  !
 ! A56   A(1,19,26)            120.6641         calculate D2E/DX2 analytically  !
 ! A57   A(20,19,26)           119.6628         calculate D2E/DX2 analytically  !
 ! A58   A(19,20,21)           123.3721         calculate D2E/DX2 analytically  !
 ! A59   A(19,20,25)           118.4549         calculate D2E/DX2 analytically  !
 ! A60   A(21,20,25)           118.1728         calculate D2E/DX2 analytically  !
 ! A61   A(20,21,22)           118.3195         calculate D2E/DX2 analytically  !
 ! A62   A(20,21,24)           119.3504         calculate D2E/DX2 analytically  !
 ! A63   A(22,21,24)           122.3298         calculate D2E/DX2 analytically  !
 ! A64   A(2,22,21)            116.603          calculate D2E/DX2 analytically  !
 ! A65   A(2,22,23)            106.1441         calculate D2E/DX2 analytically  !
 ! A66   A(21,22,23)           137.2526         calculate D2E/DX2 analytically  !
 ! A67   A(7,23,22)            107.745          calculate D2E/DX2 analytically  !
 ! A68   A(7,23,37)            125.4933         calculate D2E/DX2 analytically  !
 ! A69   A(22,23,37)           126.7565         calculate D2E/DX2 analytically  !
 ! A70   A(15,36,37)           132.8749         calculate D2E/DX2 analytically  !
 ! A71   A(15,36,39)           112.8337         calculate D2E/DX2 analytically  !
 ! A72   A(37,36,39)           114.2442         calculate D2E/DX2 analytically  !
 ! A73   A(23,37,35)           116.9463         calculate D2E/DX2 analytically  !
 ! A74   A(23,37,36)           126.4217         calculate D2E/DX2 analytically  !
 ! A75   A(23,37,38)            96.4993         calculate D2E/DX2 analytically  !
 ! A76   A(35,37,36)           115.9272         calculate D2E/DX2 analytically  !
 ! A77   A(36,37,38)            99.7756         calculate D2E/DX2 analytically  !
 ! D1    D(5,1,2,3)             -0.0139         calculate D2E/DX2 analytically  !
 ! D2    D(5,1,2,22)          -179.8059         calculate D2E/DX2 analytically  !
 ! D3    D(19,1,2,3)           179.8244         calculate D2E/DX2 analytically  !
 ! D4    D(19,1,2,22)            0.0324         calculate D2E/DX2 analytically  !
 ! D5    D(2,1,5,6)              0.0821         calculate D2E/DX2 analytically  !
 ! D6    D(2,1,5,27)           179.9934         calculate D2E/DX2 analytically  !
 ! D7    D(19,1,5,6)          -179.7268         calculate D2E/DX2 analytically  !
 ! D8    D(19,1,5,27)            0.1845         calculate D2E/DX2 analytically  !
 ! D9    D(2,1,19,20)           -0.0924         calculate D2E/DX2 analytically  !
 ! D10   D(2,1,19,26)          179.9967         calculate D2E/DX2 analytically  !
 ! D11   D(5,1,19,20)          179.7167         calculate D2E/DX2 analytically  !
 ! D12   D(5,1,19,26)           -0.1943         calculate D2E/DX2 analytically  !
 ! D13   D(1,2,3,4)             -0.0978         calculate D2E/DX2 analytically  !
 ! D14   D(1,2,3,7)           -179.9626         calculate D2E/DX2 analytically  !
 ! D15   D(22,2,3,4)           179.7259         calculate D2E/DX2 analytically  !
 ! D16   D(22,2,3,7)            -0.139          calculate D2E/DX2 analytically  !
 ! D17   D(1,2,22,21)            0.0978         calculate D2E/DX2 analytically  !
 ! D18   D(1,2,22,23)          179.9386         calculate D2E/DX2 analytically  !
 ! D19   D(3,2,22,21)         -179.7174         calculate D2E/DX2 analytically  !
 ! D20   D(3,2,22,23)            0.1235         calculate D2E/DX2 analytically  !
 ! D21   D(2,3,4,6)              0.133          calculate D2E/DX2 analytically  !
 ! D22   D(2,3,4,10)          -179.6681         calculate D2E/DX2 analytically  !
 ! D23   D(7,3,4,6)            179.9728         calculate D2E/DX2 analytically  !
 ! D24   D(7,3,4,10)             0.1717         calculate D2E/DX2 analytically  !
 ! D25   D(2,3,7,8)           -179.8965         calculate D2E/DX2 analytically  !
 ! D26   D(2,3,7,23)             0.0926         calculate D2E/DX2 analytically  !
 ! D27   D(4,3,7,8)              0.248          calculate D2E/DX2 analytically  !
 ! D28   D(4,3,7,23)          -179.7629         calculate D2E/DX2 analytically  !
 ! D29   D(3,4,6,5)             -0.0646         calculate D2E/DX2 analytically  !
 ! D30   D(3,4,6,28)           179.9857         calculate D2E/DX2 analytically  !
 ! D31   D(10,4,6,5)           179.6979         calculate D2E/DX2 analytically  !
 ! D32   D(10,4,6,28)           -0.2518         calculate D2E/DX2 analytically  !
 ! D33   D(3,4,10,9)            -0.2646         calculate D2E/DX2 analytically  !
 ! D34   D(3,4,10,29)          179.7485         calculate D2E/DX2 analytically  !
 ! D35   D(6,4,10,9)           179.9705         calculate D2E/DX2 analytically  !
 ! D36   D(6,4,10,29)           -0.0165         calculate D2E/DX2 analytically  !
 ! D37   D(1,5,6,4)             -0.0432         calculate D2E/DX2 analytically  !
 ! D38   D(1,5,6,28)           179.9063         calculate D2E/DX2 analytically  !
 ! D39   D(27,5,6,4)          -179.9543         calculate D2E/DX2 analytically  !
 ! D40   D(27,5,6,28)           -0.0048         calculate D2E/DX2 analytically  !
 ! D41   D(3,7,8,9)             -0.5279         calculate D2E/DX2 analytically  !
 ! D42   D(3,7,8,11)           179.1642         calculate D2E/DX2 analytically  !
 ! D43   D(23,7,8,9)           179.487          calculate D2E/DX2 analytically  !
 ! D44   D(23,7,8,11)           -0.821          calculate D2E/DX2 analytically  !
 ! D45   D(3,7,23,22)           -0.0153         calculate D2E/DX2 analytically  !
 ! D46   D(3,7,23,37)          179.1984         calculate D2E/DX2 analytically  !
 ! D47   D(8,7,23,22)          179.9711         calculate D2E/DX2 analytically  !
 ! D48   D(8,7,23,37)           -0.8152         calculate D2E/DX2 analytically  !
 ! D49   D(7,8,9,10)             0.4524         calculate D2E/DX2 analytically  !
 ! D50   D(7,8,9,14)          -179.5312         calculate D2E/DX2 analytically  !
 ! D51   D(11,8,9,10)         -179.2587         calculate D2E/DX2 analytically  !
 ! D52   D(11,8,9,14)            0.7576         calculate D2E/DX2 analytically  !
 ! D53   D(7,8,11,12)          179.8538         calculate D2E/DX2 analytically  !
 ! D54   D(7,8,11,15)           -0.7034         calculate D2E/DX2 analytically  !
 ! D55   D(9,8,11,12)           -0.4674         calculate D2E/DX2 analytically  !
 ! D56   D(9,8,11,15)          178.9754         calculate D2E/DX2 analytically  !
 ! D57   D(8,9,10,4)            -0.0438         calculate D2E/DX2 analytically  !
 ! D58   D(8,9,10,29)          179.9435         calculate D2E/DX2 analytically  !
 ! D59   D(14,9,10,4)          179.9401         calculate D2E/DX2 analytically  !
 ! D60   D(14,9,10,29)          -0.0726         calculate D2E/DX2 analytically  !
 ! D61   D(8,9,14,13)           -0.3959         calculate D2E/DX2 analytically  !
 ! D62   D(8,9,14,30)          179.6615         calculate D2E/DX2 analytically  !
 ! D63   D(10,9,14,13)         179.6195         calculate D2E/DX2 analytically  !
 ! D64   D(10,9,14,30)          -0.3231         calculate D2E/DX2 analytically  !
 ! D65   D(8,11,12,13)          -0.1761         calculate D2E/DX2 analytically  !
 ! D66   D(8,11,12,18)         179.5452         calculate D2E/DX2 analytically  !
 ! D67   D(15,11,12,13)       -179.6649         calculate D2E/DX2 analytically  !
 ! D68   D(15,11,12,18)          0.0564         calculate D2E/DX2 analytically  !
 ! D69   D(8,11,15,16)        -179.1686         calculate D2E/DX2 analytically  !
 ! D70   D(8,11,15,36)           0.6749         calculate D2E/DX2 analytically  !
 ! D71   D(12,11,15,16)          0.2769         calculate D2E/DX2 analytically  !
 ! D72   D(12,11,15,36)       -179.8796         calculate D2E/DX2 analytically  !
 ! D73   D(11,12,13,14)          0.5586         calculate D2E/DX2 analytically  !
 ! D74   D(11,12,13,31)       -179.729          calculate D2E/DX2 analytically  !
 ! D75   D(18,12,13,14)       -179.1732         calculate D2E/DX2 analytically  !
 ! D76   D(18,12,13,31)          0.5392         calculate D2E/DX2 analytically  !
 ! D77   D(11,12,18,17)         -0.3013         calculate D2E/DX2 analytically  !
 ! D78   D(11,12,18,32)        179.9015         calculate D2E/DX2 analytically  !
 ! D79   D(13,12,18,17)        179.4285         calculate D2E/DX2 analytically  !
 ! D80   D(13,12,18,32)         -0.3687         calculate D2E/DX2 analytically  !
 ! D81   D(12,13,14,9)          -0.2609         calculate D2E/DX2 analytically  !
 ! D82   D(12,13,14,30)        179.6803         calculate D2E/DX2 analytically  !
 ! D83   D(31,13,14,9)        -179.9655         calculate D2E/DX2 analytically  !
 ! D84   D(31,13,14,30)         -0.0243         calculate D2E/DX2 analytically  !
 ! D85   D(11,15,16,17)         -0.3983         calculate D2E/DX2 analytically  !
 ! D86   D(11,15,16,33)        179.8567         calculate D2E/DX2 analytically  !
 ! D87   D(36,15,16,17)        179.7333         calculate D2E/DX2 analytically  !
 ! D88   D(36,15,16,33)         -0.0117         calculate D2E/DX2 analytically  !
 ! D89   D(11,15,36,37)          3.4295         calculate D2E/DX2 analytically  !
 ! D90   D(11,15,36,39)       -179.27           calculate D2E/DX2 analytically  !
 ! D91   D(16,15,36,37)       -176.7198         calculate D2E/DX2 analytically  !
 ! D92   D(16,15,36,39)          0.5807         calculate D2E/DX2 analytically  !
 ! D93   D(15,16,17,18)          0.1609         calculate D2E/DX2 analytically  !
 ! D94   D(15,16,17,34)       -179.7868         calculate D2E/DX2 analytically  !
 ! D95   D(33,16,17,18)        179.9032         calculate D2E/DX2 analytically  !
 ! D96   D(33,16,17,34)         -0.0445         calculate D2E/DX2 analytically  !
 ! D97   D(16,17,18,12)          0.1942         calculate D2E/DX2 analytically  !
 ! D98   D(16,17,18,32)        179.9868         calculate D2E/DX2 analytically  !
 ! D99   D(34,17,18,12)       -179.8585         calculate D2E/DX2 analytically  !
 ! D100  D(34,17,18,32)         -0.0658         calculate D2E/DX2 analytically  !
 ! D101  D(1,19,20,21)           0.0252         calculate D2E/DX2 analytically  !
 ! D102  D(1,19,20,25)        -179.8693         calculate D2E/DX2 analytically  !
 ! D103  D(26,19,20,21)        179.937          calculate D2E/DX2 analytically  !
 ! D104  D(26,19,20,25)          0.0425         calculate D2E/DX2 analytically  !
 ! D105  D(19,20,21,22)          0.1097         calculate D2E/DX2 analytically  !
 ! D106  D(19,20,21,24)       -179.7344         calculate D2E/DX2 analytically  !
 ! D107  D(25,20,21,22)       -179.9956         calculate D2E/DX2 analytically  !
 ! D108  D(25,20,21,24)          0.1604         calculate D2E/DX2 analytically  !
 ! D109  D(20,21,22,2)          -0.1619         calculate D2E/DX2 analytically  !
 ! D110  D(20,21,22,23)       -179.9366         calculate D2E/DX2 analytically  !
 ! D111  D(24,21,22,2)         179.6772         calculate D2E/DX2 analytically  !
 ! D112  D(24,21,22,23)         -0.0975         calculate D2E/DX2 analytically  !
 ! D113  D(2,22,23,7)           -0.0654         calculate D2E/DX2 analytically  !
 ! D114  D(2,22,23,37)        -179.2664         calculate D2E/DX2 analytically  !
 ! D115  D(21,22,23,7)         179.7249         calculate D2E/DX2 analytically  !
 ! D116  D(21,22,23,37)          0.5239         calculate D2E/DX2 analytically  !
 ! D117  D(7,23,37,35)         174.9251         calculate D2E/DX2 analytically  !
 ! D118  D(7,23,37,36)           4.9863         calculate D2E/DX2 analytically  !
 ! D119  D(7,23,37,38)        -102.257          calculate D2E/DX2 analytically  !
 ! D120  D(22,23,37,35)         -6.0096         calculate D2E/DX2 analytically  !
 ! D121  D(22,23,37,36)       -175.9484         calculate D2E/DX2 analytically  !
 ! D122  D(22,23,37,38)         76.8083         calculate D2E/DX2 analytically  !
 ! D123  D(15,36,37,23)         -6.815          calculate D2E/DX2 analytically  !
 ! D124  D(15,36,37,35)       -176.8433         calculate D2E/DX2 analytically  !
 ! D125  D(15,36,37,38)         98.8413         calculate D2E/DX2 analytically  !
 ! D126  D(39,36,37,23)        175.9136         calculate D2E/DX2 analytically  !
 ! D127  D(39,36,37,35)          5.8853         calculate D2E/DX2 analytically  !
 ! D128  D(39,36,37,38)        -78.4301         calculate D2E/DX2 analytically  !
 --------------------------------------------------------------------------------
 Trust Radius=3.00D-01 FncErr=1.00D-07 GrdErr=1.00D-06
 Number of steps in this run=    234 maximum allowed number of steps=    234.
 Search for a saddle point of order  1.
 GradGradGradGradGradGradGradGradGradGradGradGradGradGradGradGradGradGrad

                          Input orientation:                          
 ---------------------------------------------------------------------
 Center     Atomic      Atomic             Coordinates (Angstroms)
 Number     Number       Type             X           Y           Z
 ---------------------------------------------------------------------
      1          6           0        3.816970    0.382860   -0.022870
      2          6           0        2.518840   -0.115010   -0.017100
      3          6           0        1.381040    0.705480   -0.007300
      4          6           0        1.469560    2.098290   -0.000550
      5          6           0        3.920700    1.826850   -0.018350
      6          6           0        2.812100    2.637600   -0.007370
      7          6           0        0.215490   -0.081050   -0.002540
      8          6           0       -1.039210    0.569870    0.005200
      9          6           0       -0.977000    2.025100    0.019580
     10          6           0        0.233420    2.752410    0.016260
     11          6           0       -2.337460   -0.096940   -0.006490
     12          6           0       -3.506950    0.726920    0.007150
     13          6           0       -3.398510    2.156360    0.035220
     14          6           0       -2.197550    2.773320    0.038490
     15          6           0       -2.540850   -1.532630   -0.042430
     16          6           0       -3.863850   -2.019950   -0.067440
     17          6           0       -4.981410   -1.195750   -0.051350
     18          6           0       -4.802090    0.169290   -0.012230
     19          6           0        4.835160   -0.601360   -0.028650
     20          6           0        4.489270   -1.952990   -0.026270
     21          6           0        3.153000   -2.413570   -0.018770
     22          6           0        2.128850   -1.469740   -0.015830
     23          6           0        0.662810   -1.471900   -0.007590
     24          1           0        2.958510   -3.480430   -0.012940
     25          1           0        5.284880   -2.689980   -0.028620
     26          1           0        5.881460   -0.314960   -0.033460
     27          1           0        4.906280    2.281340   -0.022350
     28          1           0        2.943390    3.714710   -0.002840
     29          1           0        0.176880    3.836080    0.026940
     30          1           0       -2.134180    3.855950    0.054680
     31          1           0       -4.316100    2.734100    0.049120
     32          1           0       -5.654260    0.839620    0.000990
     33          1           0       -4.005880   -3.093880   -0.096620
     34          1           0       -5.975990   -1.626070   -0.068590
     35          1           0        0.304240   -3.565320   -0.081520
     36          6           0       -1.558440   -2.591420   -0.060430
     37          6           0       -0.173340   -2.594860    0.010710
     38          1           0        0.072420   -3.035200    2.001050
     39          1           0       -2.004850   -3.579210   -0.100200
 ---------------------------------------------------------------------
                    Distance matrix (angstroms):
                    1          2          3          4          5
     1  C    0.000000
     2  C    1.390341   0.000000
     3  C    2.457251   1.402815   0.000000
     4  C    2.907496   2.449481   1.395636   0.000000
     5  C    1.447718   2.395002   2.776232   2.466188   0.000000
     6  C    2.468574   2.768205   2.404375   1.446829   1.373474
     7  C    3.631292   2.303646   1.406115   2.514402   4.167603
     8  C    4.859861   3.623435   2.424078   2.937691   5.116763
     9  C    5.067633   4.099063   2.702309   2.447737   4.901858
    10  C    4.296292   3.666927   2.346808   1.398641   3.801828
    11  C    6.173126   4.856345   3.804093   4.394596   6.547188
    12  C    7.332059   6.084372   4.888058   5.162012   7.508694
    13  C    7.430466   6.338524   4.995093   4.868548   7.326819
    14  C    6.472443   5.530811   4.133324   3.728925   6.191286
    15  C    6.640133   5.254593   4.515705   5.410058   7.282741
    16  C    8.048011   6.661086   5.911045   6.738667   8.683288
    17  C    8.938921   7.577791   6.640586   7.243500   9.401317
    18  C    8.621712   7.326450   6.206337   6.561613   8.878886
    19  C    1.416133   2.366856   3.693133   4.314645   2.594715
    20  C    2.430678   2.694596   4.090100   5.052938   3.822372
    21  C    2.874177   2.384437   3.587262   4.815722   4.309353
    22  C    2.506377   1.409747   2.300190   3.628462   3.752098
    23  C    3.659111   2.299149   2.292780   3.660212   4.636347
    24  H    3.957532   3.394021   4.473286   5.774014   5.393798
    25  H    3.405457   3.779098   5.173932   6.122498   4.718352
    26  H    2.179262   3.368599   4.614733   5.028889   2.903818
    27  H    2.188795   3.382660   3.861461   3.441660   1.085332
    28  H    3.444527   3.853207   3.390637   2.187463   2.125886
    29  H    5.017715   4.593237   3.354375   2.166031   4.249146
    30  H    6.890904   6.117538   4.720813   4.009908   6.386247
    31  H    8.466424   7.405283   6.047800   5.820703   8.286889
    32  H    9.482267   8.228682   7.036584   7.234160   9.625739
    33  H    8.560966   7.173002   6.592573   7.546410   9.330079
    34  H    9.996997   8.628331   7.717887   8.325365  10.481873
    35  H    5.284963   4.100395   4.405081   5.782820   6.492940
    36  C    6.143516   4.770608   4.417343   5.582629   7.038740
    37  C    4.979008   3.660364   3.648104   4.972414   6.026071
    38  H    5.459033   4.311080   4.442819   5.684287   6.521255
    39  H    7.042554   5.698365   5.461817   6.656986   8.021492
                    6          7          8          9         10
     6  C    0.000000
     7  C    3.759450   0.000000
     8  C    4.371299   1.413516   0.000000
     9  C    3.838380   2.420411   1.456630   0.000000
    10  C    2.581343   2.833579   2.526498   1.412129   0.000000
    11  C    5.830581   2.553003   1.459529   2.520830   3.837804
    12  C    6.601614   3.809130   2.472733   2.843602   4.253594
    13  C    6.229373   4.250697   2.843264   2.425115   3.680564
    14  C    5.011698   3.737897   2.489589   1.431759   2.431162
    15  C    6.785729   3.115459   2.584124   3.886761   5.105055
    16  C    8.140313   4.517141   3.832889   4.970302   6.290473
    17  C    8.685350   5.315328   4.319902   5.139475   6.541177
    18  C    8.004278   5.023831   3.784182   4.251630   5.659477
    19  C    3.818912   4.648952   5.990088   6.378230   5.694366
    20  C    4.887410   4.665824   6.076998   6.760726   6.344672
    21  C    5.062673   3.750984   5.145494   6.063016   5.934014
    22  C    4.163790   2.364230   3.767898   4.675625   4.628200
    23  C    4.637611   1.461022   2.658169   3.862476   4.246144
    24  H    6.119784   4.368072   5.690960   6.767581   6.802592
    25  H    5.873517   5.701396   7.114905   7.838714   7.425555
    26  H    4.259021   5.670881   6.977112   7.246873   6.427409
    27  H    2.124320   5.252122   6.186981   5.889007   4.696703
    28  H    1.085091   4.674316   5.074563   4.269045   2.875817
    29  H    2.895154   3.917431   3.485323   2.147357   1.085197
    30  H    5.094498   4.585215   3.464063   2.166174   2.612433
    31  H    7.129077   5.335077   3.927318   3.413670   4.549676
    32  H    8.655175   5.941516   4.622929   4.825191   6.190620
    33  H    8.907451   5.187096   4.715354   5.949082   7.222431
    34  H    9.767966   6.381683   5.403646   6.191019   7.598359
    35  H    6.691119   3.486295   4.348813   5.736253   6.318884
    36  C    6.815210   3.074433   3.204319   4.653679   5.636769
    37  C    6.024269   2.543738   3.281048   4.689347   5.362721
    38  H    6.612130   3.572372   4.267982   5.534812   6.120600
    39  H    7.865135   4.144463   4.261271   5.699045   6.716608
                   11         12         13         14         15
    11  C    0.000000
    12  C    1.430608   0.000000
    13  C    2.490969   1.433822   0.000000
    14  C    2.874020   2.429663   1.350169   0.000000
    15  C    1.450471   2.457921   3.788173   4.320371   0.000000
    16  C    2.455921   2.770963   4.203409   5.075748   1.410119
    17  C    2.863541   2.423657   3.708060   4.848862   2.463717
    18  C    2.478974   1.410218   2.433256   3.683364   2.830309
    19  C    7.190369   8.447272   8.683457   7.800768   7.434580
    20  C    7.074571   8.433420   8.894246   8.188758   7.042695
    21  C    5.959201   7.363307   7.988082   7.452214   5.761644
    22  C    4.672536   6.048809   6.610818   6.060053   4.670199
    23  C    3.300324   4.714014   5.446138   5.119148   3.204425
    24  H    6.284532   7.713908   8.496318   8.105368   5.834188
    25  H    8.051361   9.432537   9.944463   9.264929   7.910860
    26  H    8.221855   9.446132   9.603644   8.649454   8.509883
    27  H    7.624188   8.555672   8.305930   7.121106   8.366990
    28  H    6.512762   7.108718   6.530666   5.226585   7.590325
    29  H    4.668155   4.820567   3.950309   2.601444   6.017800
    30  H    3.958586   3.417248   2.118376   1.084604   5.404776
    31  H    3.454402   2.164545   1.084411   2.118940   4.622216
    32  H    3.446500   2.150274   2.612161   3.960991   3.914432
    33  H    3.431239   3.854635   5.286899   6.141038   2.141670
    34  H    3.947277   3.411518   4.578314   5.800233   3.436510
    35  H    4.360489   5.740763   6.816275   6.815549   3.496841
    36  C    2.613850   3.848719   5.092781   5.403580   1.444469
    37  C    3.305044   4.706080   5.742509   5.737208   2.595431
    38  H    4.297803   5.562470   6.547071   6.537837   3.641800
    39  H    3.499374   4.561862   5.904015   6.356965   2.116394
                   16         17         18         19         20
    16  C    0.000000
    17  C    1.388706   0.000000
    18  C    2.382460   1.377324   0.000000
    19  C    8.814005   9.834575   9.668028   0.000000
    20  C    8.353490   9.500938   9.530668   1.395188   0.000000
    21  C    7.028050   8.225131   8.363891   2.472623   1.413438
    22  C    6.018127   7.115626   7.122104   2.842246   2.409403
    23  C    4.560109   5.651141   5.706019   4.262252   3.856630
    24  H    6.977146   8.262177   8.575976   3.436729   2.162516
    25  H    9.173315  10.374486  10.484401   2.136488   1.084507
    26  H    9.893392  10.898535  10.694540   1.084800   2.149741
    27  H    9.768230  10.481289   9.935457   2.883584   4.254816
    28  H    8.901068   9.322952   8.518366   4.712528   5.874787
    29  H    7.115441   7.206483   6.183609   6.433781   7.218924
    30  H    6.126408   5.799796   4.551229   8.273225   8.810246
    31  H    4.776935   3.987036   2.611168   9.740477   9.975422
    32  H    3.374521   2.144341   1.084302  10.587976  10.520961
    33  H    1.083674   2.134621   3.359963   9.185928   8.571707
    34  H    2.148553   1.083818   2.145818  10.859677  10.470451
    35  H    4.445373   5.792570   6.326667   5.414526   4.485213
    36  C    2.375193   3.696580   4.259708   6.696228   6.081411
    37  C    3.735839   5.007884   5.391324   5.390794   4.706729
    38  H    4.561097   5.756485   6.171134   5.720747   4.978932
    39  H    2.426571   3.813552   4.677985   7.460459   6.695047
                   21         22         23         24         25
    21  C    0.000000
    22  C    1.392734   0.000000
    23  C    2.662314   1.466065   0.000000
    24  H    1.084459   2.175136   3.050321   0.000000
    25  H    2.149747   3.383737   4.779926   2.457042   0.000000
    26  H    3.442219   3.926310   5.345417   4.308626   2.448806
    27  H    5.011605   4.667415   5.665162   6.082096   4.985720
    28  H    6.131884   5.248063   5.665862   7.195163   6.819332
    29  H    6.922247   5.653649   5.330288   7.827539   8.287594
    30  H    8.201619   6.822124   6.017725   8.930987   9.894372
    31  H    9.071415   7.695055   6.517914   9.567873  11.027489
    32  H    9.388901   8.118511   6.726706   9.635499  11.494509
    33  H    7.191554   6.346595   4.943219   6.975611   9.299784
    34  H    9.163029   8.106519   6.640870   9.125077  11.311087
    35  H    3.073418   2.779383   2.125193   2.656513   5.057252
    36  C    4.714980   3.854382   2.487985   4.603850   6.844104
    37  C    3.331407   2.562553   1.400186   3.254732   5.459190
    38  H    3.735782   3.278319   2.612872   3.547379   5.604327
    39  H    5.288550   4.641601   3.400844   4.965110   7.344114
                   26         27         28         29         30
    26  H    0.000000
    27  H    2.773423   0.000000
    28  H    4.987127   2.430610   0.000000
    29  H    7.055283   4.978641   2.769331   0.000000
    30  H    9.036301   7.214805   5.079860   2.311312   0.000000
    31  H   10.643957   9.233764   7.325605   4.626199   2.453437
    32  H   11.593407  10.658523   9.065635   6.556038   4.635956
    33  H   10.270632  10.407935   9.729237   8.095375   7.199048
    34  H   11.929768  11.562603  10.396326   8.228124   6.695315
    35  H    6.455427   7.440814   7.744039   7.403290   7.812790
    36  C    7.780431   8.095545   7.748359   6.658207   6.474049
    37  C    6.469969   7.041375   7.037390   6.440490   6.742387
    38  H    6.729330   7.464981   7.603902   7.150001   7.493023
    39  H    8.535436   9.061778   8.814524   7.730630   7.437897
                   31         32         33         34         35
    31  H    0.000000
    32  H    2.319923   0.000000
    33  H    5.838050   4.266041   0.000000
    34  H    4.666923   2.487565   2.456946   0.000000
    35  H    7.813277   7.410400   4.335853   6.572834   0.000000
    36  C    5.998154   5.343365   2.498747   4.521804   2.102023
    37  C    6.749944   6.468093   3.866381   5.883501   1.085533
    38  H    7.506928   7.197870   4.586523   6.546168   2.161450
    39  H    6.724735   5.731884   2.059048   4.425574   2.309207
                   36         37         38         39
    36  C    0.000000
    37  C    1.386930   0.000000
    38  H    2.665773   2.053229   0.000000
    39  H    1.084709   2.082228   3.004372   0.000000
 Stoichiometry    C25H14(3)
 Framework group  C1[X(C25H14)]
 Deg. of freedom   111
 Full point group                 C1      NOp   1
 Largest Abelian subgroup         C1      NOp   1
 Largest concise Abelian subgroup C1      NOp   1
                         Standard orientation:                         
 ---------------------------------------------------------------------
 Center     Atomic      Atomic             Coordinates (Angstroms)
 Number     Number       Type             X           Y           Z
 ---------------------------------------------------------------------
      1          6           0        3.816969    0.382861   -0.022870
      2          6           0        2.518839   -0.115009   -0.017100
      3          6           0        1.381039    0.705481   -0.007300
      4          6           0        1.469560    2.098291   -0.000550
      5          6           0        3.920700    1.826851   -0.018350
      6          6           0        2.812100    2.637601   -0.007370
      7          6           0        0.215489   -0.081049   -0.002540
      8          6           0       -1.039211    0.569871    0.005200
      9          6           0       -0.977000    2.025101    0.019580
     10          6           0        0.233420    2.752411    0.016260
     11          6           0       -2.337461   -0.096939   -0.006490
     12          6           0       -3.506951    0.726921    0.007150
     13          6           0       -3.398510    2.156361    0.035220
     14          6           0       -2.197550    2.773321    0.038490
     15          6           0       -2.540851   -1.532629   -0.042430
     16          6           0       -3.863851   -2.019949   -0.067440
     17          6           0       -4.981411   -1.195749   -0.051350
     18          6           0       -4.802091    0.169291   -0.012230
     19          6           0        4.835159   -0.601359   -0.028650
     20          6           0        4.489269   -1.952989   -0.026270
     21          6           0        3.152999   -2.413569   -0.018770
     22          6           0        2.128849   -1.469739   -0.015830
     23          6           0        0.662809   -1.471899   -0.007590
     24          1           0        2.958509   -3.480429   -0.012940
     25          1           0        5.284879   -2.689979   -0.028620
     26          1           0        5.881459   -0.314959   -0.033460
     27          1           0        4.906280    2.281341   -0.022350
     28          1           0        2.943390    3.714711   -0.002840
     29          1           0        0.176880    3.836081    0.026940
     30          1           0       -2.134180    3.855951    0.054680
     31          1           0       -4.316100    2.734101    0.049120
     32          1           0       -5.654261    0.839621    0.000990
     33          1           0       -4.005881   -3.093879   -0.096620
     34          1           0       -5.975991   -1.626069   -0.068590
     35          1           0        0.304239   -3.565319   -0.081520
     36          6           0       -1.558441   -2.591419   -0.060430
     37          6           0       -0.173341   -2.594859    0.010710
     38          1           0        0.072419   -3.035199    2.001050
     39          1           0       -2.004851   -3.579209   -0.100200
 ---------------------------------------------------------------------
 Rotational constants (GHZ):      0.4862908      0.1806574      0.1320173
 Standard basis: 6-311+G(d,p) (5D, 7F)
 There are   659 symmetry adapted cartesian basis functions of A   symmetry.
 There are   634 symmetry adapted basis functions of A   symmetry.
   634 basis functions,  1012 primitive gaussians,   659 cartesian basis functions
    83 alpha electrons       81 beta electrons
       nuclear repulsion energy      1937.1830619184 Hartrees.
 NAtoms=   39 NActive=   39 NUniq=   39 SFac= 1.00D+00 NAtFMM=   60 NAOKFM=F Big=F
 Integral buffers will be    131072 words long.
 Raffenetti 2 integral format.
 Two-electron integral symmetry is turned on.
 One-electron integrals computed using PRISM.
 NBasis=   634 RedAO= T EigKep=  1.04D-06  NBF=   634
 NBsUse=   616 1.00D-06 EigRej=  6.29D-07 NBFU=   616
 ExpMin= 4.38D-02 ExpMax= 4.56D+03 ExpMxC= 6.82D+02 IAcc=2 IRadAn=         4 AccDes= 0.00D+00
 Harris functional with IExCor=  402 and IRadAn=       4 diagonalized for initial guess.
 HarFok:  IExCor=  402 AccDes= 0.00D+00 IRadAn=         4 IDoV= 1 UseB2=F ITyADJ=14
 ICtDFT=  3500011 ScaDFX=  1.000000  1.000000  1.000000  1.000000
 FoFCou: FMM=F IPFlag=           0 FMFlag=      100000 FMFlg1=           0
         NFxFlg=           0 DoJE=T BraDBF=F KetDBF=T FulRan=T
         wScrn=  0.000000 ICntrl=     500 IOpCl=  0 I1Cent=   200000004 NGrid=           0
         NMat0=    1 NMatS0=      1 NMatT0=    0 NMatD0=    1 NMtDS0=    0 NMtDT0=    0
 Petite list used in FoFCou.
 Initial guess <Sx>= 0.0000 <Sy>= 0.0000 <Sz>= 1.0000 <S**2>= 2.0000 S= 1.0000
 Requested convergence on RMS density matrix=1.00D-08 within 128 cycles.
 Requested convergence on MAX density matrix=1.00D-06.
 Requested convergence on             energy=1.00D-06.
 No special actions if energy rises.
 Restarting incremental Fock formation.
 SCF Done:  E(UB3LYP) =  -961.231763497     A.U. after   26 cycles
            NFock= 26  Conv=0.16D-08     -V/T= 2.0044
 <Sx>= 0.0000 <Sy>= 0.0000 <Sz>= 1.0000 <S**2>= 2.0425 S= 1.0141
 <L.S>= 0.000000000000E+00
 Annihilation of the first spin contaminant:
 S**2 before annihilation     2.0425,   after     2.0009
 DoSCS=F DFT=T ScalE2(SS,OS)=  1.000000  1.000000
 Range of M.O.s used for correlation:     1   616
 NBasis=   634 NAE=    83 NBE=    81 NFC=     0 NFV=     0
 NROrb=    616 NOA=    83 NOB=    81 NVA=   533 NVB=   535

 **** Warning!!: The largest alpha MO coefficient is  0.14370983D+03


 **** Warning!!: The largest beta MO coefficient is  0.14496620D+03


 **** Warning!!: The smallest beta delta epsilon is  0.94709744D-01

 Symmetrizing basis deriv contribution to polar:
 IMax=3 JMax=2 DiffMx= 0.00D+00
 G2DrvN: will do    40 centers at a time, making    1 passes.
 Calling FoFCou, ICntrl=  3107 FMM=F I1Cent=   0 AccDes= 0.00D+00.
 End of G2Drv F.D. properties file   721 does not exist.
 End of G2Drv F.D. properties file   722 does not exist.
 End of G2Drv F.D. properties file   788 does not exist.
          IDoAtm=111111111111111111111111111111111111111
          Differentiating once with respect to nuclear coordinates.
          There are   120 degrees of freedom in the 1st order CPHF.  IDoFFX=6 NUNeed=     0.
    114 vectors produced by pass  0 Test12= 8.76D-14 1.00D-09 XBig12= 6.04D-01 1.86D-01.
 AX will form   114 AO Fock derivatives at one time.
    114 vectors produced by pass  1 Test12= 8.76D-14 1.00D-09 XBig12= 1.70D-01 7.62D-02.
    114 vectors produced by pass  2 Test12= 8.76D-14 1.00D-09 XBig12= 2.31D-03 9.65D-03.
    114 vectors produced by pass  3 Test12= 8.76D-14 1.00D-09 XBig12= 3.75D-05 1.05D-03.
    114 vectors produced by pass  4 Test12= 8.76D-14 1.00D-09 XBig12= 3.92D-07 6.25D-05.
    114 vectors produced by pass  5 Test12= 8.76D-14 1.00D-09 XBig12= 2.23D-09 3.73D-06.
    114 vectors produced by pass  6 Test12= 8.76D-14 1.00D-09 XBig12= 8.05D-11 6.01D-07.
    114 vectors produced by pass  7 Test12= 8.76D-14 1.00D-09 XBig12= 1.43D-11 2.95D-07.
    110 vectors produced by pass  8 Test12= 8.76D-14 1.00D-09 XBig12= 2.13D-12 9.31D-08.
     69 vectors produced by pass  9 Test12= 8.76D-14 1.00D-09 XBig12= 2.82D-14 8.91D-09.
     29 vectors produced by pass 10 Test12= 8.76D-14 1.00D-09 XBig12= 6.45D-16 1.60D-09.
     29 vectors produced by pass 11 Test12= 8.76D-14 1.00D-09 XBig12= 1.69D-13 2.80D-08.
     29 vectors produced by pass 12 Test12= 8.76D-14 1.00D-09 XBig12= 4.36D-12 9.85D-08.
     29 vectors produced by pass 13 Test12= 8.76D-14 1.00D-09 XBig12= 7.14D-13 4.09D-08.
     29 vectors produced by pass 14 Test12= 8.76D-14 1.00D-09 XBig12= 8.20D-13 4.56D-08.
     29 vectors produced by pass 15 Test12= 8.76D-14 1.00D-09 XBig12= 6.04D-13 3.55D-08.
     29 vectors produced by pass 16 Test12= 8.76D-14 1.00D-09 XBig12= 6.31D-13 4.83D-08.
     29 vectors produced by pass 17 Test12= 8.76D-14 1.00D-09 XBig12= 5.03D-13 3.87D-08.
     29 vectors produced by pass 18 Test12= 8.76D-14 1.00D-09 XBig12= 2.38D-13 2.56D-08.
     29 vectors produced by pass 19 Test12= 8.76D-14 1.00D-09 XBig12= 4.06D-13 2.75D-08.
     29 vectors produced by pass 20 Test12= 8.76D-14 1.00D-09 XBig12= 3.15D-13 2.84D-08.
     29 vectors produced by pass 21 Test12= 8.76D-14 1.00D-09 XBig12= 2.58D-13 2.29D-08.
     28 vectors produced by pass 22 Test12= 8.76D-14 1.00D-09 XBig12= 1.61D-13 1.69D-08.
     28 vectors produced by pass 23 Test12= 8.76D-14 1.00D-09 XBig12= 2.62D-13 2.43D-08.
     28 vectors produced by pass 24 Test12= 8.76D-14 1.00D-09 XBig12= 1.70D-13 1.53D-08.
     26 vectors produced by pass 25 Test12= 8.76D-14 1.00D-09 XBig12= 1.62D-13 1.56D-08.
     26 vectors produced by pass 26 Test12= 8.76D-14 1.00D-09 XBig12= 2.07D-13 1.94D-08.
     26 vectors produced by pass 27 Test12= 8.76D-14 1.00D-09 XBig12= 2.26D-13 1.91D-08.
     26 vectors produced by pass 28 Test12= 8.76D-14 1.00D-09 XBig12= 1.92D-13 1.76D-08.
     26 vectors produced by pass 29 Test12= 8.76D-14 1.00D-09 XBig12= 1.54D-13 1.64D-08.
     25 vectors produced by pass 30 Test12= 8.76D-14 1.00D-09 XBig12= 1.48D-13 1.62D-08.
     25 vectors produced by pass 31 Test12= 8.76D-14 1.00D-09 XBig12= 1.83D-13 1.72D-08.
     23 vectors produced by pass 32 Test12= 8.76D-14 1.00D-09 XBig12= 9.76D-14 1.42D-08.
     20 vectors produced by pass 33 Test12= 8.76D-14 1.00D-09 XBig12= 8.59D-14 1.02D-08.
     20 vectors produced by pass 34 Test12= 8.76D-14 1.00D-09 XBig12= 1.39D-13 1.46D-08.
     20 vectors produced by pass 35 Test12= 8.76D-14 1.00D-09 XBig12= 1.25D-13 1.71D-08.
     20 vectors produced by pass 36 Test12= 8.76D-14 1.00D-09 XBig12= 2.07D-13 1.75D-08.
     20 vectors produced by pass 37 Test12= 8.76D-14 1.00D-09 XBig12= 1.16D-13 1.43D-08.
     20 vectors produced by pass 38 Test12= 8.76D-14 1.00D-09 XBig12= 1.14D-13 1.21D-08.
     19 vectors produced by pass 39 Test12= 8.76D-14 1.00D-09 XBig12= 1.05D-13 1.19D-08.
     17 vectors produced by pass 40 Test12= 8.76D-14 1.00D-09 XBig12= 7.28D-14 1.14D-08.
     16 vectors produced by pass 41 Test12= 8.76D-14 1.00D-09 XBig12= 6.63D-14 1.06D-08.
     16 vectors produced by pass 42 Test12= 8.76D-14 1.00D-09 XBig12= 1.09D-13 1.28D-08.
     16 vectors produced by pass 43 Test12= 8.76D-14 1.00D-09 XBig12= 9.53D-14 1.08D-08.
     16 vectors produced by pass 44 Test12= 8.76D-14 1.00D-09 XBig12= 1.31D-13 1.26D-08.
     13 vectors produced by pass 45 Test12= 8.76D-14 1.00D-09 XBig12= 4.66D-14 8.12D-09.
     13 vectors produced by pass 46 Test12= 8.76D-14 1.00D-09 XBig12= 9.08D-14 1.15D-08.
     13 vectors produced by pass 47 Test12= 8.76D-14 1.00D-09 XBig12= 7.72D-14 9.30D-09.
     13 vectors produced by pass 48 Test12= 8.76D-14 1.00D-09 XBig12= 1.05D-13 1.31D-08.
     13 vectors produced by pass 49 Test12= 8.76D-14 1.00D-09 XBig12= 1.30D-13 1.36D-08.
     13 vectors produced by pass 50 Test12= 8.76D-14 1.00D-09 XBig12= 6.12D-14 9.83D-09.
     13 vectors produced by pass 51 Test12= 8.76D-14 1.00D-09 XBig12= 8.70D-14 1.19D-08.
     13 vectors produced by pass 52 Test12= 8.76D-14 1.00D-09 XBig12= 6.74D-14 1.14D-08.
     13 vectors produced by pass 53 Test12= 8.76D-14 1.00D-09 XBig12= 8.65D-14 1.07D-08.
     13 vectors produced by pass 54 Test12= 8.76D-14 1.00D-09 XBig12= 7.77D-14 1.05D-08.
     13 vectors produced by pass 55 Test12= 8.76D-14 1.00D-09 XBig12= 9.72D-14 1.10D-08.
     13 vectors produced by pass 56 Test12= 8.76D-14 1.00D-09 XBig12= 7.03D-14 9.97D-09.
     13 vectors produced by pass 57 Test12= 8.76D-14 1.00D-09 XBig12= 5.64D-14 1.06D-08.
     13 vectors produced by pass 58 Test12= 8.76D-14 1.00D-09 XBig12= 5.84D-14 9.49D-09.
     13 vectors produced by pass 59 Test12= 8.76D-14 1.00D-09 XBig12= 3.62D-14 6.70D-09.
     13 vectors produced by pass 60 Test12= 8.76D-14 1.00D-09 XBig12= 4.73D-14 8.30D-09.
     13 vectors produced by pass 61 Test12= 8.76D-14 1.00D-09 XBig12= 7.97D-14 9.28D-09.
     13 vectors produced by pass 62 Test12= 8.76D-14 1.00D-09 XBig12= 7.36D-14 1.05D-08.
     13 vectors produced by pass 63 Test12= 8.76D-14 1.00D-09 XBig12= 6.58D-14 9.16D-09.
     13 vectors produced by pass 64 Test12= 8.76D-14 1.00D-09 XBig12= 4.44D-14 6.96D-09.
     13 vectors produced by pass 65 Test12= 8.76D-14 1.00D-09 XBig12= 7.19D-14 9.13D-09.
     12 vectors produced by pass 66 Test12= 8.76D-14 1.00D-09 XBig12= 5.44D-14 8.33D-09.
     12 vectors produced by pass 67 Test12= 8.76D-14 1.00D-09 XBig12= 6.81D-14 9.86D-09.
     12 vectors produced by pass 68 Test12= 8.76D-14 1.00D-09 XBig12= 6.18D-14 8.68D-09.
     10 vectors produced by pass 69 Test12= 8.76D-14 1.00D-09 XBig12= 4.09D-14 7.33D-09.
     10 vectors produced by pass 70 Test12= 8.76D-14 1.00D-09 XBig12= 4.61D-14 7.45D-09.
     10 vectors produced by pass 71 Test12= 8.76D-14 1.00D-09 XBig12= 4.07D-14 7.07D-09.
     10 vectors produced by pass 72 Test12= 8.76D-14 1.00D-09 XBig12= 5.16D-14 7.96D-09.
     10 vectors produced by pass 73 Test12= 8.76D-14 1.00D-09 XBig12= 4.14D-14 7.13D-09.
      9 vectors produced by pass 74 Test12= 8.76D-14 1.00D-09 XBig12= 2.36D-14 5.39D-09.
      9 vectors produced by pass 75 Test12= 8.76D-14 1.00D-09 XBig12= 3.06D-14 5.85D-09.
      9 vectors produced by pass 76 Test12= 8.76D-14 1.00D-09 XBig12= 4.05D-14 6.62D-09.
      8 vectors produced by pass 77 Test12= 8.76D-14 1.00D-09 XBig12= 1.99D-14 4.76D-09.
      8 vectors produced by pass 78 Test12= 8.76D-14 1.00D-09 XBig12= 4.65D-14 7.31D-09.
      8 vectors produced by pass 79 Test12= 8.76D-14 1.00D-09 XBig12= 4.14D-14 9.75D-09.
      8 vectors produced by pass 80 Test12= 8.76D-14 1.00D-09 XBig12= 4.58D-14 7.59D-09.
      8 vectors produced by pass 81 Test12= 8.76D-14 1.00D-09 XBig12= 5.76D-14 8.40D-09.
      8 vectors produced by pass 82 Test12= 8.76D-14 1.00D-09 XBig12= 4.22D-14 7.56D-09.
      8 vectors produced by pass 83 Test12= 8.76D-14 1.00D-09 XBig12= 4.04D-14 6.92D-09.
      8 vectors produced by pass 84 Test12= 8.76D-14 1.00D-09 XBig12= 2.58D-14 5.60D-09.
      8 vectors produced by pass 85 Test12= 8.76D-14 1.00D-09 XBig12= 4.71D-14 7.93D-09.
      8 vectors produced by pass 86 Test12= 8.76D-14 1.00D-09 XBig12= 2.79D-14 5.84D-09.
      8 vectors produced by pass 87 Test12= 8.76D-14 1.00D-09 XBig12= 4.79D-14 8.16D-09.
      8 vectors produced by pass 88 Test12= 8.76D-14 1.00D-09 XBig12= 2.99D-14 6.72D-09.
      8 vectors produced by pass 89 Test12= 8.76D-14 1.00D-09 XBig12= 4.92D-14 7.57D-09.
      7 vectors produced by pass 90 Test12= 8.76D-14 1.00D-09 XBig12= 2.16D-14 5.26D-09.
      7 vectors produced by pass 91 Test12= 8.76D-14 1.00D-09 XBig12= 3.83D-14 8.23D-09.
      7 vectors produced by pass 92 Test12= 8.76D-14 1.00D-09 XBig12= 4.11D-14 7.03D-09.
      7 vectors produced by pass 93 Test12= 8.76D-14 1.00D-09 XBig12= 2.09D-14 4.95D-09.
      7 vectors produced by pass 94 Test12= 8.76D-14 1.00D-09 XBig12= 4.65D-14 6.73D-09.
      7 vectors produced by pass 95 Test12= 8.76D-14 1.00D-09 XBig12= 3.87D-14 8.39D-09.
      7 vectors produced by pass 96 Test12= 8.76D-14 1.00D-09 XBig12= 3.83D-14 6.12D-09.
      7 vectors produced by pass 97 Test12= 8.76D-14 1.00D-09 XBig12= 3.11D-14 6.40D-09.
      7 vectors produced by pass 98 Test12= 8.76D-14 1.00D-09 XBig12= 2.13D-14 5.03D-09.
      7 vectors produced by pass 99 Test12= 8.76D-14 1.00D-09 XBig12= 3.57D-14 7.62D-09.
      7 vectors produced by pass100 Test12= 8.76D-14 1.00D-09 XBig12= 2.91D-14 6.04D-09.
      6 vectors produced by pass101 Test12= 8.76D-14 1.00D-09 XBig12= 3.82D-14 6.07D-09.
      6 vectors produced by pass102 Test12= 8.76D-14 1.00D-09 XBig12= 3.23D-14 5.74D-09.
      6 vectors produced by pass103 Test12= 8.76D-14 1.00D-09 XBig12= 3.48D-14 6.22D-09.
      6 vectors produced by pass104 Test12= 8.76D-14 1.00D-09 XBig12= 2.77D-14 5.39D-09.
      6 vectors produced by pass105 Test12= 8.76D-14 1.00D-09 XBig12= 2.21D-14 4.78D-09.
      6 vectors produced by pass106 Test12= 8.76D-14 1.00D-09 XBig12= 2.61D-14 5.09D-09.
      6 vectors produced by pass107 Test12= 8.76D-14 1.00D-09 XBig12= 3.14D-14 5.34D-09.
      6 vectors produced by pass108 Test12= 8.76D-14 1.00D-09 XBig12= 3.88D-14 7.22D-09.
      6 vectors produced by pass109 Test12= 8.76D-14 1.00D-09 XBig12= 5.12D-14 7.54D-09.
      6 vectors produced by pass110 Test12= 8.76D-14 1.00D-09 XBig12= 1.98D-14 4.87D-09.
      6 vectors produced by pass111 Test12= 8.76D-14 1.00D-09 XBig12= 3.86D-14 7.11D-09.
      6 vectors produced by pass112 Test12= 8.76D-14 1.00D-09 XBig12= 2.21D-14 5.11D-09.
      6 vectors produced by pass113 Test12= 8.76D-14 1.00D-09 XBig12= 2.36D-14 5.12D-09.
      6 vectors produced by pass114 Test12= 8.76D-14 1.00D-09 XBig12= 4.69D-14 6.74D-09.
      6 vectors produced by pass115 Test12= 8.76D-14 1.00D-09 XBig12= 1.99D-14 4.46D-09.
      6 vectors produced by pass116 Test12= 8.76D-14 1.00D-09 XBig12= 3.45D-14 6.63D-09.
      6 vectors produced by pass117 Test12= 8.76D-14 1.00D-09 XBig12= 1.76D-14 4.40D-09.
      6 vectors produced by pass118 Test12= 8.76D-14 1.00D-09 XBig12= 3.27D-14 5.65D-09.
      6 vectors produced by pass119 Test12= 8.76D-14 1.00D-09 XBig12= 1.69D-14 4.86D-09.
      6 vectors produced by pass120 Test12= 8.76D-14 1.00D-09 XBig12= 2.50D-14 5.09D-09.
      6 vectors produced by pass121 Test12= 8.76D-14 1.00D-09 XBig12= 1.50D-14 4.06D-09.
      6 vectors produced by pass122 Test12= 8.76D-14 1.00D-09 XBig12= 2.26D-14 5.88D-09.
      6 vectors produced by pass123 Test12= 8.76D-14 1.00D-09 XBig12= 3.21D-14 7.86D-09.
      6 vectors produced by pass124 Test12= 8.76D-14 1.00D-09 XBig12= 1.97D-14 4.79D-09.
      6 vectors produced by pass125 Test12= 8.76D-14 1.00D-09 XBig12= 2.68D-14 4.77D-09.
      6 vectors produced by pass126 Test12= 8.76D-14 1.00D-09 XBig12= 1.43D-14 4.33D-09.
      6 vectors produced by pass127 Test12= 8.76D-14 1.00D-09 XBig12= 1.74D-14 4.28D-09.
      6 vectors produced by pass128 Test12= 8.76D-14 1.00D-09 XBig12= 1.80D-14 4.48D-09.
      6 vectors produced by pass129 Test12= 8.76D-14 1.00D-09 XBig12= 2.44D-14 5.55D-09.
      6 vectors produced by pass130 Test12= 8.76D-14 1.00D-09 XBig12= 2.03D-14 5.12D-09.
      6 vectors produced by pass131 Test12= 8.76D-14 1.00D-09 XBig12= 1.77D-14 4.79D-09.
      6 vectors produced by pass132 Test12= 8.76D-14 1.00D-09 XBig12= 1.56D-14 4.00D-09.
      6 vectors produced by pass133 Test12= 8.76D-14 1.00D-09 XBig12= 3.06D-14 5.47D-09.
      6 vectors produced by pass134 Test12= 8.76D-14 1.00D-09 XBig12= 2.04D-14 4.53D-09.
      6 vectors produced by pass135 Test12= 8.76D-14 1.00D-09 XBig12= 2.88D-14 5.37D-09.
      6 vectors produced by pass136 Test12= 8.76D-14 1.00D-09 XBig12= 1.21D-14 3.73D-09.
      6 vectors produced by pass137 Test12= 8.76D-14 1.00D-09 XBig12= 1.98D-14 4.81D-09.
      6 vectors produced by pass138 Test12= 8.76D-14 1.00D-09 XBig12= 1.57D-14 4.28D-09.
      6 vectors produced by pass139 Test12= 8.76D-14 1.00D-09 XBig12= 1.73D-14 5.71D-09.
      6 vectors produced by pass140 Test12= 8.76D-14 1.00D-09 XBig12= 1.94D-14 4.65D-09.
      6 vectors produced by pass141 Test12= 8.76D-14 1.00D-09 XBig12= 1.91D-14 4.48D-09.
      6 vectors produced by pass142 Test12= 8.76D-14 1.00D-09 XBig12= 1.92D-14 4.48D-09.
      6 vectors produced by pass143 Test12= 8.76D-14 1.00D-09 XBig12= 1.81D-14 4.45D-09.
      6 vectors produced by pass144 Test12= 8.76D-14 1.00D-09 XBig12= 1.29D-14 3.66D-09.
      6 vectors produced by pass145 Test12= 8.76D-14 1.00D-09 XBig12= 1.84D-14 4.95D-09.
      6 vectors produced by pass146 Test12= 8.76D-14 1.00D-09 XBig12= 2.91D-14 5.82D-09.
      6 vectors produced by pass147 Test12= 8.76D-14 1.00D-09 XBig12= 1.88D-14 4.40D-09.
      6 vectors produced by pass148 Test12= 8.76D-14 1.00D-09 XBig12= 2.17D-14 5.19D-09.
      6 vectors produced by pass149 Test12= 8.76D-14 1.00D-09 XBig12= 1.75D-14 4.79D-09.
      6 vectors produced by pass150 Test12= 8.76D-14 1.00D-09 XBig12= 8.99D-15 2.86D-09.
      6 vectors produced by pass151 Test12= 8.76D-14 1.00D-09 XBig12= 2.09D-14 4.72D-09.
      6 vectors produced by pass152 Test12= 8.76D-14 1.00D-09 XBig12= 1.16D-14 3.92D-09.
      6 vectors produced by pass153 Test12= 8.76D-14 1.00D-09 XBig12= 2.73D-14 6.98D-09.
      6 vectors produced by pass154 Test12= 8.76D-14 1.00D-09 XBig12= 1.44D-14 4.04D-09.
      6 vectors produced by pass155 Test12= 8.76D-14 1.00D-09 XBig12= 1.70D-14 4.99D-09.
      6 vectors produced by pass156 Test12= 8.76D-14 1.00D-09 XBig12= 1.36D-14 3.69D-09.
      6 vectors produced by pass157 Test12= 8.76D-14 1.00D-09 XBig12= 2.12D-14 4.92D-09.
      6 vectors produced by pass158 Test12= 8.76D-14 1.00D-09 XBig12= 1.33D-14 3.64D-09.
      6 vectors produced by pass159 Test12= 8.76D-14 1.00D-09 XBig12= 2.32D-14 5.51D-09.
      5 vectors produced by pass160 Test12= 8.76D-14 1.00D-09 XBig12= 8.34D-15 3.12D-09.
      5 vectors produced by pass161 Test12= 8.76D-14 1.00D-09 XBig12= 1.53D-14 3.63D-09.
      5 vectors produced by pass162 Test12= 8.76D-14 1.00D-09 XBig12= 2.10D-14 4.26D-09.
      5 vectors produced by pass163 Test12= 8.76D-14 1.00D-09 XBig12= 5.13D-15 2.48D-09.
      5 vectors produced by pass164 Test12= 8.76D-14 1.00D-09 XBig12= 1.82D-14 3.98D-09.
      5 vectors produced by pass165 Test12= 8.76D-14 1.00D-09 XBig12= 1.41D-14 4.54D-09.
      5 vectors produced by pass166 Test12= 8.76D-14 1.00D-09 XBig12= 8.83D-15 2.75D-09.
      5 vectors produced by pass167 Test12= 8.76D-14 1.00D-09 XBig12= 2.15D-14 4.67D-09.
      5 vectors produced by pass168 Test12= 8.76D-14 1.00D-09 XBig12= 1.07D-14 3.07D-09.
      5 vectors produced by pass169 Test12= 8.76D-14 1.00D-09 XBig12= 1.21D-14 4.28D-09.
      5 vectors produced by pass170 Test12= 8.76D-14 1.00D-09 XBig12= 1.72D-14 3.94D-09.
      5 vectors produced by pass171 Test12= 8.76D-14 1.00D-09 XBig12= 1.55D-14 3.69D-09.
      5 vectors produced by pass172 Test12= 8.76D-14 1.00D-09 XBig12= 1.63D-14 3.91D-09.
      5 vectors produced by pass173 Test12= 8.76D-14 1.00D-09 XBig12= 2.16D-14 5.38D-09.
      5 vectors produced by pass174 Test12= 8.76D-14 1.00D-09 XBig12= 1.13D-14 3.50D-09.
      5 vectors produced by pass175 Test12= 8.76D-14 1.00D-09 XBig12= 1.32D-14 3.37D-09.
      5 vectors produced by pass176 Test12= 8.76D-14 1.00D-09 XBig12= 1.73D-14 4.28D-09.
      5 vectors produced by pass177 Test12= 8.76D-14 1.00D-09 XBig12= 1.42D-14 4.08D-09.
      5 vectors produced by pass178 Test12= 8.76D-14 1.00D-09 XBig12= 1.19D-14 3.28D-09.
      5 vectors produced by pass179 Test12= 8.76D-14 1.00D-09 XBig12= 1.60D-14 3.87D-09.
      5 vectors produced by pass180 Test12= 8.76D-14 1.00D-09 XBig12= 1.59D-14 4.09D-09.
      5 vectors produced by pass181 Test12= 8.76D-14 1.00D-09 XBig12= 1.75D-14 4.84D-09.
      5 vectors produced by pass182 Test12= 8.76D-14 1.00D-09 XBig12= 1.57D-14 4.21D-09.
      5 vectors produced by pass183 Test12= 8.76D-14 1.00D-09 XBig12= 1.64D-14 4.04D-09.
      5 vectors produced by pass184 Test12= 8.76D-14 1.00D-09 XBig12= 1.34D-14 3.43D-09.
      5 vectors produced by pass185 Test12= 8.76D-14 1.00D-09 XBig12= 1.21D-14 3.71D-09.
      5 vectors produced by pass186 Test12= 8.76D-14 1.00D-09 XBig12= 7.80D-15 2.78D-09.
      5 vectors produced by pass187 Test12= 8.76D-14 1.00D-09 XBig12= 1.21D-14 4.01D-09.
      5 vectors produced by pass188 Test12= 8.76D-14 1.00D-09 XBig12= 1.92D-14 4.66D-09.
      5 vectors produced by pass189 Test12= 8.76D-14 1.00D-09 XBig12= 9.15D-15 3.06D-09.
      5 vectors produced by pass190 Test12= 8.76D-14 1.00D-09 XBig12= 1.01D-14 3.26D-09.
      5 vectors produced by pass191 Test12= 8.76D-14 1.00D-09 XBig12= 1.80D-14 4.52D-09.
      5 vectors produced by pass192 Test12= 8.76D-14 1.00D-09 XBig12= 9.71D-15 3.26D-09.
      5 vectors produced by pass193 Test12= 8.76D-14 1.00D-09 XBig12= 1.41D-14 3.55D-09.
      5 vectors produced by pass194 Test12= 8.76D-14 1.00D-09 XBig12= 1.35D-14 4.14D-09.
      5 vectors produced by pass195 Test12= 8.76D-14 1.00D-09 XBig12= 1.21D-14 3.70D-09.
      5 vectors produced by pass196 Test12= 8.76D-14 1.00D-09 XBig12= 1.64D-14 5.01D-09.
      5 vectors produced by pass197 Test12= 8.76D-14 1.00D-09 XBig12= 1.01D-14 3.09D-09.
      5 vectors produced by pass198 Test12= 8.76D-14 1.00D-09 XBig12= 2.09D-14 5.06D-09.
      5 vectors produced by pass199 Test12= 8.76D-14 1.00D-09 XBig12= 1.10D-14 3.21D-09.
      5 vectors produced by pass200 Test12= 8.76D-14 1.00D-09 XBig12= 8.18D-15 2.82D-09.
      5 vectors produced by pass201 Test12= 8.76D-14 1.00D-09 XBig12= 1.32D-14 3.41D-09.
      5 vectors produced by pass202 Test12= 8.76D-14 1.00D-09 XBig12= 1.74D-14 4.16D-09.
      5 vectors produced by pass203 Test12= 8.76D-14 1.00D-09 XBig12= 8.69D-15 2.67D-09.
      5 vectors produced by pass204 Test12= 8.76D-14 1.00D-09 XBig12= 1.41D-14 4.02D-09.
      5 vectors produced by pass205 Test12= 8.76D-14 1.00D-09 XBig12= 1.64D-14 4.52D-09.
      5 vectors produced by pass206 Test12= 8.76D-14 1.00D-09 XBig12= 7.38D-15 2.98D-09.
      5 vectors produced by pass207 Test12= 8.76D-14 1.00D-09 XBig12= 8.74D-15 2.93D-09.
      5 vectors produced by pass208 Test12= 8.76D-14 1.00D-09 XBig12= 8.24D-15 2.84D-09.
      5 vectors produced by pass209 Test12= 8.76D-14 1.00D-09 XBig12= 1.28D-14 3.52D-09.
      5 vectors produced by pass210 Test12= 8.76D-14 1.00D-09 XBig12= 1.37D-14 4.75D-09.
      5 vectors produced by pass211 Test12= 8.76D-14 1.00D-09 XBig12= 1.27D-14 3.80D-09.
      5 vectors produced by pass212 Test12= 8.76D-14 1.00D-09 XBig12= 6.74D-15 2.95D-09.
      5 vectors produced by pass213 Test12= 8.76D-14 1.00D-09 XBig12= 1.24D-14 3.55D-09.
      5 vectors produced by pass214 Test12= 8.76D-14 1.00D-09 XBig12= 1.13D-14 3.66D-09.
      5 vectors produced by pass215 Test12= 8.76D-14 1.00D-09 XBig12= 1.52D-14 4.16D-09.
      5 vectors produced by pass216 Test12= 8.76D-14 1.00D-09 XBig12= 1.43D-14 3.82D-09.
      5 vectors produced by pass217 Test12= 8.76D-14 1.00D-09 XBig12= 1.17D-14 3.34D-09.
      5 vectors produced by pass218 Test12= 8.76D-14 1.00D-09 XBig12= 1.17D-14 3.40D-09.
      5 vectors produced by pass219 Test12= 8.76D-14 1.00D-09 XBig12= 6.05D-15 2.14D-09.
      5 vectors produced by pass220 Test12= 8.76D-14 1.00D-09 XBig12= 1.52D-14 4.32D-09.
      5 vectors produced by pass221 Test12= 8.76D-14 1.00D-09 XBig12= 5.15D-15 2.59D-09.
      5 vectors produced by pass222 Test12= 8.76D-14 1.00D-09 XBig12= 1.18D-14 3.11D-09.
      5 vectors produced by pass223 Test12= 8.76D-14 1.00D-09 XBig12= 8.21D-15 3.73D-09.
      5 vectors produced by pass224 Test12= 8.76D-14 1.00D-09 XBig12= 9.74D-15 2.75D-09.
      5 vectors produced by pass225 Test12= 8.76D-14 1.00D-09 XBig12= 4.95D-15 2.40D-09.
      5 vectors produced by pass226 Test12= 8.76D-14 1.00D-09 XBig12= 1.15D-14 3.69D-09.
      5 vectors produced by pass227 Test12= 8.76D-14 1.00D-09 XBig12= 5.80D-15 2.18D-09.
      5 vectors produced by pass228 Test12= 8.76D-14 1.00D-09 XBig12= 1.58D-14 3.95D-09.
      5 vectors produced by pass229 Test12= 8.76D-14 1.00D-09 XBig12= 6.48D-15 2.61D-09.
      5 vectors produced by pass230 Test12= 8.76D-14 1.00D-09 XBig12= 1.48D-14 3.39D-09.
      5 vectors produced by pass231 Test12= 8.76D-14 1.00D-09 XBig12= 1.22D-14 3.33D-09.
      5 vectors produced by pass232 Test12= 8.76D-14 1.00D-09 XBig12= 1.03D-14 2.97D-09.
      5 vectors produced by pass233 Test12= 8.76D-14 1.00D-09 XBig12= 9.90D-15 3.08D-09.
      5 vectors produced by pass234 Test12= 8.76D-14 1.00D-09 XBig12= 1.20D-14 3.92D-09.
      5 vectors produced by pass235 Test12= 8.76D-14 1.00D-09 XBig12= 8.03D-15 2.67D-09.
      5 vectors produced by pass236 Test12= 8.76D-14 1.00D-09 XBig12= 1.33D-14 3.97D-09.
      5 vectors produced by pass237 Test12= 8.76D-14 1.00D-09 XBig12= 7.24D-15 2.37D-09.
      5 vectors produced by pass238 Test12= 8.76D-14 1.00D-09 XBig12= 1.19D-14 3.61D-09.
      5 vectors produced by pass239 Test12= 8.76D-14 1.00D-09 XBig12= 4.79D-15 2.16D-09.
      5 vectors produced by pass240 Test12= 8.76D-14 1.00D-09 XBig12= 9.05D-15 2.83D-09.
      5 vectors produced by pass241 Test12= 8.76D-14 1.00D-09 XBig12= 5.42D-15 2.40D-09.
      5 vectors produced by pass242 Test12= 8.76D-14 1.00D-09 XBig12= 1.06D-14 2.93D-09.
      5 vectors produced by pass243 Test12= 8.76D-14 1.00D-09 XBig12= 8.67D-15 3.12D-09.
      5 vectors produced by pass244 Test12= 8.76D-14 1.00D-09 XBig12= 4.93D-15 2.30D-09.
      5 vectors produced by pass245 Test12= 8.76D-14 1.00D-09 XBig12= 9.58D-15 3.53D-09.
      5 vectors produced by pass246 Test12= 8.76D-14 1.00D-09 XBig12= 5.14D-15 2.16D-09.
      5 vectors produced by pass247 Test12= 8.76D-14 1.00D-09 XBig12= 9.81D-15 3.09D-09.
      5 vectors produced by pass248 Test12= 8.76D-14 1.00D-09 XBig12= 7.76D-15 2.74D-09.
      5 vectors produced by pass249 Test12= 8.76D-14 1.00D-09 XBig12= 1.16D-14 3.34D-09.
      5 vectors produced by pass250 Test12= 8.76D-14 1.00D-09 XBig12= 7.39D-15 2.69D-09.
      5 vectors produced by pass251 Test12= 8.76D-14 1.00D-09 XBig12= 9.06D-15 2.83D-09.
      5 vectors produced by pass252 Test12= 8.76D-14 1.00D-09 XBig12= 1.35D-14 3.53D-09.
      5 vectors produced by pass253 Test12= 8.76D-14 1.00D-09 XBig12= 8.15D-15 3.17D-09.
      5 vectors produced by pass254 Test12= 8.76D-14 1.00D-09 XBig12= 1.01D-14 3.04D-09.
      5 vectors produced by pass255 Test12= 8.76D-14 1.00D-09 XBig12= 6.86D-15 2.39D-09.
      5 vectors produced by pass256 Test12= 8.76D-14 1.00D-09 XBig12= 5.78D-15 2.10D-09.
      5 vectors produced by pass257 Test12= 8.76D-14 1.00D-09 XBig12= 1.07D-14 3.25D-09.
      5 vectors produced by pass258 Test12= 8.76D-14 1.00D-09 XBig12= 1.01D-14 2.81D-09.
      5 vectors produced by pass259 Test12= 8.76D-14 1.00D-09 XBig12= 7.24D-15 2.70D-09.
      5 vectors produced by pass260 Test12= 8.76D-14 1.00D-09 XBig12= 9.74D-15 2.99D-09.
      5 vectors produced by pass261 Test12= 8.76D-14 1.00D-09 XBig12= 8.78D-15 3.02D-09.
      5 vectors produced by pass262 Test12= 8.76D-14 1.00D-09 XBig12= 9.33D-15 2.73D-09.
      5 vectors produced by pass263 Test12= 8.76D-14 1.00D-09 XBig12= 5.58D-15 2.37D-09.
      5 vectors produced by pass264 Test12= 8.76D-14 1.00D-09 XBig12= 1.09D-14 2.89D-09.
      5 vectors produced by pass265 Test12= 8.76D-14 1.00D-09 XBig12= 8.71D-15 2.69D-09.
      5 vectors produced by pass266 Test12= 8.76D-14 1.00D-09 XBig12= 6.31D-15 2.67D-09.
      5 vectors produced by pass267 Test12= 8.76D-14 1.00D-09 XBig12= 9.89D-15 2.70D-09.
      5 vectors produced by pass268 Test12= 8.76D-14 1.00D-09 XBig12= 4.07D-15 1.95D-09.
      5 vectors produced by pass269 Test12= 8.76D-14 1.00D-09 XBig12= 8.69D-15 3.40D-09.
      5 vectors produced by pass270 Test12= 8.76D-14 1.00D-09 XBig12= 6.02D-15 2.32D-09.
      5 vectors produced by pass271 Test12= 8.76D-14 1.00D-09 XBig12= 6.43D-15 2.31D-09.
      5 vectors produced by pass272 Test12= 8.76D-14 1.00D-09 XBig12= 1.05D-14 3.56D-09.
      5 vectors produced by pass273 Test12= 8.76D-14 1.00D-09 XBig12= 9.10D-15 2.73D-09.
      5 vectors produced by pass274 Test12= 8.76D-14 1.00D-09 XBig12= 9.18D-15 2.92D-09.
      5 vectors produced by pass275 Test12= 8.76D-14 1.00D-09 XBig12= 1.08D-14 3.14D-09.
      5 vectors produced by pass276 Test12= 8.76D-14 1.00D-09 XBig12= 6.67D-15 2.26D-09.
      5 vectors produced by pass277 Test12= 8.76D-14 1.00D-09 XBig12= 5.65D-15 2.45D-09.
      5 vectors produced by pass278 Test12= 8.76D-14 1.00D-09 XBig12= 6.11D-15 2.26D-09.
      5 vectors produced by pass279 Test12= 8.76D-14 1.00D-09 XBig12= 5.86D-15 2.20D-09.
      5 vectors produced by pass280 Test12= 8.76D-14 1.00D-09 XBig12= 7.94D-15 3.27D-09.
      5 vectors produced by pass281 Test12= 8.76D-14 1.00D-09 XBig12= 6.31D-15 2.39D-09.
      5 vectors produced by pass282 Test12= 8.76D-14 1.00D-09 XBig12= 7.42D-15 2.82D-09.
      5 vectors produced by pass283 Test12= 8.76D-14 1.00D-09 XBig12= 9.46D-15 2.76D-09.
      5 vectors produced by pass284 Test12= 8.76D-14 1.00D-09 XBig12= 8.85D-15 2.90D-09.
      5 vectors produced by pass285 Test12= 8.76D-14 1.00D-09 XBig12= 8.48D-15 2.64D-09.
      5 vectors produced by pass286 Test12= 8.76D-14 1.00D-09 XBig12= 7.89D-15 2.58D-09.
      5 vectors produced by pass287 Test12= 8.76D-14 1.00D-09 XBig12= 4.69D-15 2.21D-09.
      4 vectors produced by pass288 Test12= 8.76D-14 1.00D-09 XBig12= 5.81D-15 2.36D-09.
      4 vectors produced by pass289 Test12= 8.76D-14 1.00D-09 XBig12= 7.34D-15 2.55D-09.
      1 vectors produced by pass290 Test12= 8.76D-14 1.00D-09 XBig12= 3.03D-15 1.62D-09.
 InvSVY:  IOpt=1 It=  1 EMax= 1.67D-15
 Solved reduced A of dimension  3516 with   120 vectors.
 End of Minotr F.D. properties file   721 does not exist.
 End of Minotr F.D. properties file   722 does not exist.
 End of Minotr F.D. properties file   788 does not exist.

 **********************************************************************

            Population analysis using the SCF density.

 **********************************************************************

 Orbital symmetries:
 Alpha Orbitals:
       Occupied  (A) (A) (A) (A) (A) (A) (A) (A) (A) (A) (A) (A)
                 (A) (A) (A) (A) (A) (A) (A) (A) (A) (A) (A) (A)
                 (A) (A) (A) (A) (A) (A) (A) (A) (A) (A) (A) (A)
                 (A) (A) (A) (A) (A) (A) (A) (A) (A) (A) (A) (A)
                 (A) (A) (A) (A) (A) (A) (A) (A) (A) (A) (A) (A)
                 (A) (A) (A) (A) (A) (A) (A) (A) (A) (A) (A) (A)
                 (A) (A) (A) (A) (A) (A) (A) (A) (A) (A) (A)
       Virtual   (A) (A) (A) (A) (A) (A) (A) (A) (A) (A) (A) (A)
                 (A) (A) (A) (A) (A) (A) (A) (A) (A) (A) (A) (A)
                 (A) (A) (A) (A) (A) (A) (A) (A) (A) (A) (A) (A)
                 (A) (A) (A) (A) (A) (A) (A) (A) (A) (A) (A) (A)
                 (A) (A) (A) (A) (A) (A) (A) (A) (A) (A) (A) (A)
                 (A) (A) (A) (A) (A) (A) (A) (A) (A) (A) (A) (A)
                 (A) (A) (A) (A) (A) (A) (A) (A) (A) (A) (A) (A)
                 (A) (A) (A) (A) (A) (A) (A) (A) (A) (A) (A) (A)
                 (A) (A) (A) (A) (A) (A) (A) (A) (A) (A) (A) (A)
                 (A) (A) (A) (A) (A) (A) (A) (A) (A) (A) (A) (A)
                 (A) (A) (A) (A) (A) (A) (A) (A) (A) (A) (A) (A)
                 (A) (A) (A) (A) (A) (A) (A) (A) (A) (A) (A) (A)
                 (A) (A) (A) (A) (A) (A) (A) (A) (A) (A) (A) (A)
                 (A) (A) (A) (A) (A) (A) (A) (A) (A) (A) (A) (A)
                 (A) (A) (A) (A) (A) (A) (A) (A) (A) (A) (A) (A)
                 (A) (A) (A) (A) (A) (A) (A) (A) (A) (A) (A) (A)
                 (A) (A) (A) (A) (A) (A) (A) (A) (A) (A) (A) (A)
                 (A) (A) (A) (A) (A) (A) (A) (A) (A) (A) (A) (A)
                 (A) (A) (A) (A) (A) (A) (A) (A) (A) (A) (A) (A)
                 (A) (A) (A) (A) (A) (A) (A) (A) (A) (A) (A) (A)
                 (A) (A) (A) (A) (A) (A) (A) (A) (A) (A) (A) (A)
                 (A) (A) (A) (A) (A) (A) (A) (A) (A) (A) (A) (A)
                 (A) (A) (A) (A) (A) (A) (A) (A) (A) (A) (A) (A)
                 (A) (A) (A) (A) (A) (A) (A) (A) (A) (A) (A) (A)
                 (A) (A) (A) (A) (A) (A) (A) (A) (A) (A) (A) (A)
                 (A) (A) (A) (A) (A) (A) (A) (A) (A) (A) (A) (A)
                 (A) (A) (A) (A) (A) (A) (A) (A) (A) (A) (A) (A)
                 (A) (A) (A) (A) (A) (A) (A) (A) (A) (A) (A) (A)
                 (A) (A) (A) (A) (A) (A) (A) (A) (A) (A) (A) (A)
                 (A) (A) (A) (A) (A) (A) (A) (A) (A) (A) (A) (A)
                 (A) (A) (A) (A) (A) (A) (A) (A) (A) (A) (A) (A)
                 (A) (A) (A) (A) (A) (A) (A) (A) (A) (A) (A) (A)
                 (A) (A) (A) (A) (A) (A) (A) (A) (A) (A) (A) (A)
                 (A) (A) (A) (A) (A) (A) (A) (A) (A) (A) (A) (A)
                 (A) (A) (A) (A) (A) (A) (A) (A) (A) (A) (A) (A)
                 (A) (A) (A) (A) (A) (A) (A) (A) (A) (A) (A) (A)
                 (A) (A) (A) (A) (A) (A) (A) (A) (A) (A) (A) (A)
                 (A) (A) (A) (A) (A) (A) (A) (A) (A) (A) (A) (A)
                 (A) (A) (A) (A) (A) (A) (A) (A) (A) (A) (A) (A)
                 (A) (A) (A) (A) (A) (A) (A) (A) (A) (A) (A) (A)
                 (A) (A) (A) (A) (A) (A) (A) (A) (A) (A) (A) (A)
                 (A) (A) (A) (A) (A) (A) (A) (A) (A) (A) (A) (A)
                 (A) (A) (A) (A) (A) (A) (A) (A) (A) (A) (A) (A)
                 (A) (A) (A) (A) (A) (A) (A) (A) (A) (A) (A) (A)
                 (A) (A) (A) (A) (A)
 Beta  Orbitals:
       Occupied  (A) (A) (A) (A) (A) (A) (A) (A) (A) (A) (A) (A)
                 (A) (A) (A) (A) (A) (A) (A) (A) (A) (A) (A) (A)
                 (A) (A) (A) (A) (A) (A) (A) (A) (A) (A) (A) (A)
                 (A) (A) (A) (A) (A) (A) (A) (A) (A) (A) (A) (A)
                 (A) (A) (A) (A) (A) (A) (A) (A) (A) (A) (A) (A)
                 (A) (A) (A) (A) (A) (A) (A) (A) (A) (A) (A) (A)
                 (A) (A) (A) (A) (A) (A) (A) (A) (A)
       Virtual   (A) (A) (A) (A) (A) (A) (A) (A) (A) (A) (A) (A)
                 (A) (A) (A) (A) (A) (A) (A) (A) (A) (A) (A) (A)
                 (A) (A) (A) (A) (A) (A) (A) (A) (A) (A) (A) (A)
                 (A) (A) (A) (A) (A) (A) (A) (A) (A) (A) (A) (A)
                 (A) (A) (A) (A) (A) (A) (A) (A) (A) (A) (A) (A)
                 (A) (A) (A) (A) (A) (A) (A) (A) (A) (A) (A) (A)
                 (A) (A) (A) (A) (A) (A) (A) (A) (A) (A) (A) (A)
                 (A) (A) (A) (A) (A) (A) (A) (A) (A) (A) (A) (A)
[...]
 662,-0.00132469,0.00003389,-0.00036562,-0.00009210,0.00004451,-0.00001
 781,-0.00006748,-0.00001032,0.00003302,-0.00008248,-0.00000356,-0.0040
 7762,-0.00076536,-0.00030246,-0.00030334,0.00004256,-0.00001421,0.0001
 7301,0.00002455,0.00001459,-0.00010663,0.00000474,-0.00000980,-0.00010
 286,-0.00017561,-0.00002890,-0.00017855,0.00004923,0.00002115,0.000035
 33,0.00002300,0.00000758,-0.00008525,-0.00004025,-0.00000220,-0.000961
 63,0.00185271,-0.00041653,0.00021193,-0.00009916,0.00000294,0.00011411
 ,0.00002729,0.00002242,0.00008942,0.00010294,-0.00000305,0.00002178,0.
 00013340,-0.00000682,-0.00023375,0.00022757,0.00004005,-0.00038727,-0.
 00023779,0.00000950,0.00102719,0.00107809,0.00036388,0.01252809,-0.022
 04419,-0.00175030,-0.00034044,0.00043704,-0.00007354,-0.00001313,-0.00
 000760,-0.00000053,-0.00000029,0.00003098,-0.00000648,-0.00000827,0.00
 000636,0.00000094,-0.00005278,-0.00002397,-0.00000140,0.00000255,-0.00
 001951,-0.00000065,0.00001636,-0.00001877,-0.00000041,0.00000883,-0.00
 000079,0.00000066,0.00001163,-0.00000116,-0.00000204,0.00002621,-0.000
 02116,0.00000165,0.00000379,-0.00001119,-0.00000296,-0.11355333,0.2942
 1650,-0.00022207,0.00004062,0.00014968,0.00022117,0.00006331,0.0002554
 6,0.00007492,0.00029479,-0.00045158,0.00009327,-0.00013134,-0.00055709
 ,-0.00000516,0.00006766,0.00003082,0.00006979,0.00001247,0.00004822,0.
 00023249,-0.00038161,0.00561123,-0.00013574,0.00016930,0.00015623,-0.0
 0018374,-0.00020337,-0.00034231,0.00006737,0.00003232,0.00006309,-0.00
 013193,0.00024291,0.00022148,0.00033348,0.00004854,-0.00042647,-0.0000
 5811,-0.00006261,-0.00003273,0.00007141,0.00002041,-0.00000919,0.00013
 202,-0.00085622,0.00677225,-0.00024081,0.00003335,-0.00023040,-0.00006
 107,0.00000227,-0.00042485,-0.00018825,-0.00008600,0.00003234,0.000046
 27,-0.00015298,0.00002241,0.00008583,0.00015005,-0.00011020,-0.0001454
 0,-0.00016757,0.00000341,-0.00020288,-0.00000501,-0.00277620,0.0013409
 7,0.00361685,0.00311640,-0.00005947,0.00008312,0.00034199,-0.00000265,
 0.00000049,-0.00000245,0.00000292,0.00000603,0.00002126,-0.00000291,0.
 00000190,-0.00002209,0.00000266,-0.00000063,0.00000725,0.00000182,0.00
 000399,0.00005703,-0.00000140,0.00000303,-0.00000509,0.00000083,0.0000
 0414,0.00000211,-0.00000168,-0.00000241,0.00003938,0.00000519,-0.00001
 362,0.00001610,-0.00000856,0.00000481,0.00007806,-0.00984916,0.0218963
 1,0.02988399,0.00408933,-0.00230500,-0.00001235,-0.00088428,-0.0079175
 2,0.00029840,-0.01080615,-0.00595776,0.00022854,-0.00406747,0.00691752
 ,0.00001147,-0.00100399,0.00150542,-0.00001041,0.00102976,-0.00038846,
 -0.00001622,-0.00151758,0.02135170,0.00028925,0.00089210,-0.00524344,-
 0.00010338,-0.00081008,0.00257668,-0.00003710,0.00416722,-0.00189677,-
 0.00004904,0.00974629,0.02058958,0.00130092,0.01001625,-0.00477246,-0.
 00007185,-0.00017806,-0.00221474,-0.00006013,0.00242636,-0.00048937,-0
 .00000867,-0.13217667,0.04232521,-0.00005012,-0.07767060,0.02412534,-0
 .00068513,0.00453455,-0.01579030,-0.00067891,-0.00617237,0.00622669,0.
 00016681,-0.00202609,0.00150099,0.00000042,-0.00058909,0.00018970,0.00
 002750,-0.00201578,0.00190102,0.00014093,0.01598828,-0.00008786,-0.000
 76013,-0.05145294,-0.05731338,-0.00529865,-0.00005428,0.00010187,0.000
 02634,-0.00001564,-0.00003322,-0.00000103,-0.00004661,0.00006220,0.000
 00342,-0.00003092,-0.00005876,-0.00000801,-0.00003486,-0.00003904,-0.0
 0000039,0.00006554,-0.00003978,0.00001294,0.00004584,-0.00000145,0.000
 00125,-0.00001504,-0.00031768,-0.00000898,0.00020041,0.00012346,0.0000
 4278,-0.00133501,0.00387594,0.00022105,-0.00084027,0.00046035,0.000085
 30,-0.01382992,-0.00101038,-0.00493910,0.67049283,-0.00133367,0.000725
 61,0.00000567,-0.00078385,0.00067528,0.00003049,0.00170267,0.00293061,
 -0.00000287,0.00225225,-0.00337280,-0.00004657,0.00043709,-0.00035048,
 0.00000083,-0.00019375,-0.00003059,0.00000126,-0.00106051,-0.00353196,
 0.00012830,0.00218832,0.00291146,0.00002073,0.00244505,-0.00118679,0.0
 0001644,-0.00322687,0.00015831,0.00001510,0.02149801,-0.03262756,-0.00
 107720,-0.00984155,-0.00430866,-0.00028691,0.00213250,0.00132651,0.000
 01656,-0.00209800,0.00064310,0.00001633,0.06930191,-0.18079977,-0.0031
 4260,0.02291868,0.01037894,0.00067004,-0.00761855,0.00518713,-0.000028
 95,0.00376523,-0.00268872,-0.00002616,0.00034018,-0.00149192,0.0000004
 9,0.00115958,0.00134472,-0.00002762,-0.00160512,0.00002334,0.00001010,
 0.00025651,-0.00451232,-0.00000004,-0.03214104,0.01507146,-0.00093425,
 -0.00038499,0.00035688,0.00002698,-0.00005301,0.00002369,0.00000071,0.
 00001398,-0.00001895,0.00000403,-0.00001479,-0.00004733,-0.00000357,0.
 00005087,0.00001110,0.00000191,0.00000561,0.00005788,-0.00000080,-0.00
 007648,0.00002065,-0.00000029,-0.00003760,-0.00033537,-0.00000312,-0.0
 0001040,0.00005166,0.00002238,-0.00347868,-0.00041748,0.00006288,-0.00
 085468,0.00067402,-0.00000488,0.02986002,0.00128352,0.00248816,0.03089
 109,0.59325537,0.00020280,-0.00021312,-0.00088870,0.00004692,0.0001355
 3,0.00043888,0.00007531,0.00008612,0.00019599,-0.00031205,0.00012151,0
 .00001066,-0.00010577,0.00012155,0.00009834,0.00017883,0.00000192,-0.0
 0003764,-0.00009693,-0.00053312,-0.00203798,0.00020117,0.00030248,-0.0
 0141609,-0.00015516,-0.00022240,-0.00002475,0.00027430,0.00018114,0.00
 009590,0.00090752,-0.00105990,0.00088805,0.00017214,-0.00003984,0.0047
 7162,-0.00017762,-0.00009652,0.00036377,0.00017424,-0.00005333,-0.0000
 5347,-0.00132482,-0.00231837,-0.05445349,0.00038492,0.00048664,0.00747
 807,-0.00084641,0.00014132,0.00605697,0.00016780,-0.00061770,-0.001134
 50,-0.00006708,0.00013342,0.00008991,0.00000130,0.00005718,-0.00010374
 ,-0.00011633,-0.00001265,0.00001880,-0.00001753,0.00009605,0.00463675,
 0.00074701,0.00090184,0.00380238,-0.00004995,-0.00001171,-0.00006762,0
 .00001858,-0.00000489,-0.00000421,0.00000561,0.00000742,0.00001153,0.0
 0000520,0.00000938,0.00005206,0.00000490,0.00000244,0.00001179,0.00000
 456,0.00000017,-0.00005009,-0.00001057,-0.00000012,0.00002386,-0.00000
 998,-0.00000579,-0.00001164,-0.00001196,0.00002716,-0.00079639,-0.0000
 8293,0.00014621,-0.00344231,-0.00003945,0.00005059,0.00000111,0.002268
 23,0.00007657,0.00271674,0.02049315,0.01455195,0.11671040,-0.00439262,
 0.00117943,-0.00005897,-0.00669460,0.01302904,-0.00018274,0.01327269,0
 .01218524,-0.00028808,0.00581782,-0.00781096,-0.00007165,0.00076872,-0
 .00218695,0.00000477,-0.00200334,0.00094656,0.00004626,0.01955524,-0.0
 2546042,-0.00079727,-0.00612313,0.00504205,0.00022558,-0.00031629,-0.0
 0157371,0.00007267,-0.00421386,0.00359254,0.00005881,0.00524450,-0.011
 21263,-0.00071173,-0.00755533,0.00152545,-0.00001011,-0.00003462,0.000
 98663,0.00003894,-0.00074513,-0.00026288,-0.00000832,-0.04943124,0.027
 15185,-0.00093220,0.01866263,0.00356680,0.00039123,-0.00515411,0.00650
 561,0.00036287,0.00486927,-0.00392807,-0.00010480,0.00274026,-0.000760
 49,-0.00001079,-0.00057457,-0.00180958,0.00001482,0.00699385,-0.004295
 42,-0.00003073,-0.04027816,-0.02972700,0.00144400,-0.15741885,-0.05644
 268,0.00669071,0.00009031,0.00042835,-0.00004934,-0.00004480,0.0000382
 6,0.00000326,0.00004260,-0.00004049,-0.00000971,0.00006113,-0.00009922
 ,0.00001232,0.00018431,0.00012155,0.00000538,-0.00011360,0.00002513,-0
 .00001237,-0.00009262,0.00000743,-0.00000067,-0.00001181,-0.00006079,0
 .00000176,-0.00006154,0.00004484,-0.00002470,0.00022903,-0.00005226,-0
 .00010951,-0.00010028,0.00024272,-0.00001924,-0.11008080,0.10683897,0.
 01286663,-0.31235170,-0.02391405,-0.01187370,0.64523674,-0.00382440,0.
 00138002,0.00002180,0.00440931,0.00761549,-0.00011303,0.01075420,-0.00
 002617,-0.00005064,0.00065808,-0.00373653,-0.00003203,0.00048207,-0.00
 040569,0.00000024,-0.00003054,0.00004637,-0.00000960,-0.01645511,-0.04
 453124,0.00035238,-0.00378086,0.00569619,0.00024869,-0.00281707,-0.003
 74443,-0.00000782,0.00025540,0.00226890,-0.00001244,0.00096905,-0.0027
 0470,-0.00010314,-0.00025373,0.00134789,-0.00002712,-0.00078844,-0.000
 18875,-0.00001065,0.00058435,-0.00016907,-0.00001674,0.01132515,0.0176
 7216,0.00163557,0.00994850,-0.00432269,0.00020318,-0.00192151,0.005667
 82,0.00014042,0.00032383,-0.00344479,-0.00010685,0.00192690,-0.0003701
 2,-0.00001529,-0.00054890,-0.00140492,-0.00002746,0.00462784,-0.001281
 91,-0.00007026,-0.01927951,0.00497685,-0.00005739,-0.09803090,-0.23806
 996,0.00112739,0.00075787,-0.00043254,0.00011596,0.00013945,0.00002343
 ,0.00000727,0.00002925,-0.00004448,0.00000631,0.00003760,0.00014531,0.
 00001168,-0.00009827,-0.00000620,-0.00000421,0.00000561,0.00002389,0.0
 0001557,-0.00007282,0.00001859,-0.00000067,0.00000616,-0.00002143,0.00
 000206,-0.00004755,-0.00000991,0.00000434,0.00037989,0.00082494,-0.000
 01576,0.00038898,-0.00018587,-0.00001772,0.10470897,-0.27624539,-0.026
 17962,0.04090012,-0.11733904,-0.00417711,-0.01407337,0.65019559,0.0011
 4076,-0.00004323,0.00097578,-0.00134781,-0.00009756,0.00207247,0.00042
 276,-0.00118122,0.00234429,-0.00016735,0.00041479,0.00084405,0.0000727
 4,-0.00065118,-0.00020937,-0.00056232,0.00009119,-0.00014144,-0.000357
 36,0.00149483,0.00232244,0.00024928,-0.00053725,-0.00071344,0.00099072
 ,0.00109927,0.00009787,-0.00064472,-0.00001127,-0.00022974,0.00101416,
 -0.00171783,-0.00097349,-0.00223665,-0.00003516,-0.00019434,0.00033782
 ,0.00052084,0.00003915,-0.00052849,-0.00017545,-0.00005639,-0.00427628
 ,0.00438752,0.00190938,0.00182089,0.00010381,0.00340983,0.00009843,-0.
 00003832,0.00020757,0.00153253,0.00037290,0.00000313,-0.00003373,0.000
 90063,-0.00008906,-0.00065832,-0.00059347,-0.00013366,0.00099890,0.000
 13518,-0.00068507,0.00001428,0.00039702,0.00200666,-0.00555968,-0.0113
 6738,-0.04470472,0.00012043,-0.00006046,0.00004371,0.00000642,-0.00001
 862,-0.00000265,0.00000211,0.00000532,0.00005680,0.00002136,0.00000555
 ,-0.00013535,-0.00002711,0.00000921,-0.00009344,-0.00001958,-0.0000279
 0,0.00006382,0.00000374,-0.00002523,-0.00000170,0.00000111,-0.00002402
 ,-0.00000017,0.00001118,0.00001098,0.00004992,0.00004941,0.00002829,-0
 .00006931,0.00002605,-0.00000187,-0.00025060,0.00941180,-0.02127989,-0
 .03198166,0.01005185,-0.00692455,-0.04367764,-0.01487852,0.04145120,0.
 07909001,-0.00047032,0.00026245,0.00001914,0.00038703,-0.00009147,-0.0
 0009625,-0.00044941,0.00000462,-0.00002588,0.00034131,-0.00015576,0.00
 001364,0.00010812,-0.00000118,-0.00000120,-0.00008048,-0.00003090,-0.0
 0000018,-0.00009382,0.00077374,-0.00012198,0.00004059,-0.00017463,-0.0
 0007025,0.00010814,0.00002925,-0.00000425,-0.00023176,-0.00021504,0.00
 000140,-0.00040615,0.00009439,0.00019175,0.00005739,-0.00021202,-0.000
 02350,0.00018131,0.00004126,0.00000745,-0.00017109,0.00013798,-0.00000
 523,0.00097615,-0.00103569,-0.00015389,-0.00033279,0.00002912,0.000192
 80,0.00030412,-0.00002709,-0.00003997,-0.00029748,0.00030645,0.0000019
 4,0.00008629,-0.00036826,0.00000441,0.00019936,0.00008753,-0.00002302,
 -0.00008538,-0.00003321,-0.00009133,0.00013500,-0.00017532,0.00032522,
 0.00039258,-0.00067921,0.00171327,-0.00001577,-0.00000986,0.00001626,-
 0.00001321,0.00001088,-0.00000027,-0.00000640,-0.00000944,0.00000492,-
 0.00001184,-0.00000890,-0.00000158,0.00000589,-0.00000792,0.00000200,0
 .00000180,0.00000551,-0.00000055,0.00000672,0.00000401,0.00000248,0.00
 000880,0.00000661,0.00000025,0.00001136,0.00000378,0.00000315,0.000006
 94,0.00000952,0.00000520,-0.00001826,-0.00000395,-0.00000142,0.0003749
 6,0.00006048,0.00057338,-0.00449730,0.00155899,-0.00574400,-0.00083035
 ,-0.00104664,0.00403067,0.00419468,-0.00004205,0.00010199,0.00002585,0
 .00009259,-0.00018719,-0.00011702,-0.00022718,-0.00007734,-0.00014514,
 0.00009770,0.00009603,0.00001003,0.00002492,-0.00004269,-0.00000430,-0
 .00006460,0.00001283,0.00001204,-0.00016499,0.00081832,0.00013543,0.00
 008071,-0.00005660,-0.00004501,-0.00003746,0.00000642,0.00002245,0.000
 02736,-0.00010271,0.00000842,-0.00022648,-0.00013429,-0.00009814,0.000
 01290,-0.00003940,0.00001308,0.00007124,-0.00000913,0.00000176,-0.0000
 3607,0.00005315,-0.00000119,-0.00035038,0.00016177,0.00013979,0.000093
 88,0.00008112,-0.00004553,0.00007688,0.00018875,0.00000561,-0.00020151
 ,0.00001899,0.00000946,0.00003622,-0.00005396,0.00000948,0.00000159,0.
 00000357,-0.00002116,0.00006559,0.00002502,-0.00010942,0.00055125,0.00
 008563,0.00024036,-0.00228844,-0.00430227,0.00498506,-0.00002076,0.000
 01696,0.00000677,-0.00000476,0.00000253,-0.00000031,-0.00000276,0.0000
 0116,0.00000215,-0.00000365,-0.00000031,-0.00000183,0.00000037,-0.0000
 0238,0.00000103,0.00000136,0.00000256,-0.00000688,0.00000458,0.0000018
 2,-0.00000123,0.00000355,0.00000205,-0.00000190,0.00000518,0.00000111,
 -0.00000391,0.00001508,0.00001044,-0.00000052,-0.00001625,0.00000324,-
 0.00000195,-0.00000979,0.00039580,-0.00131372,0.00295347,0.00000310,0.
 00163297,-0.00128354,-0.00002395,-0.00658897,0.00079953,0.00296151,-0.
 00069453,0.00007298,0.00000389,0.00049812,0.00023241,0.00017260,0.0003
 1890,0.00071353,0.00011017,0.00025503,-0.00063041,-0.00001402,0.000021
 39,0.00028756,-0.00001258,0.00023118,-0.00007201,-0.00000275,0.0000771
 3,-0.00215118,-0.00037606,-0.00067767,0.00020367,0.00009753,-0.0002515
 0,-0.00037583,-0.00000616,-0.00006745,0.00005233,-0.00000146,-0.000211
 06,0.00127682,0.00012124,0.00079760,-0.00009840,-0.00000402,-0.0000824
 7,-0.00019311,0.00000286,0.00014571,0.00008704,-0.00000045,0.00379287,
 -0.00279589,-0.00002779,-0.00146375,-0.00024299,0.00006957,0.00031205,
 -0.00045242,-0.00003337,-0.00055405,0.00027057,-0.00001599,0.00000614,
 -0.00054572,-0.00001238,0.00041449,0.00033511,0.00000989,-0.00062921,-
 0.00005769,0.00006816,-0.00041098,-0.00024076,-0.00031115,0.00633772,0
 .01096178,-0.00584416,0.00000580,0.00001010,0.00002458,-0.00001802,0.0
 0001225,0.00000772,-0.00000240,-0.00001331,-0.00000076,-0.00001302,-0.
 00000973,-0.00000022,0.00000857,-0.00000704,0.00000216,0.00000452,0.00
 000917,0.00000114,0.00000198,0.00000775,0.00000156,0.00000202,0.000006
 47,0.00000292,0.00000138,-0.00000205,0.00000258,-0.00002539,-0.0000054
 7,0.00000244,0.00001081,-0.00001510,0.00000924,-0.00014777,0.00090817,
 -0.00819294,-0.01686177,0.00322487,-0.00706480,0.00970782,-0.01216050,
 0.02411959,-0.00095011,0.00129052,-0.00326823,0.00008604,-0.00015113,0
 .00000271,-0.00053697,-0.00009255,0.00003220,-0.00015673,-0.00021455,-
 0.00000472,-0.00007597,0.00011654,0.00000250,-0.00004880,0.00003788,-0
 .00000375,0.00001651,-0.00002730,0.00000211,0.00012383,0.00063502,0.00
 005235,-0.00029794,-0.00027227,-0.00002750,0.00002717,0.00003434,0.000
 01835,0.00007510,-0.00004253,-0.00000267,-0.00293578,0.00189164,-0.000
 05190,0.00049003,0.00089496,0.00002462,-0.00030956,0.00002913,0.000002
 47,0.00004590,-0.00002582,-0.00000284,0.00666861,0.01856159,0.00066875
 ,-0.00222491,0.00503385,0.00014943,0.00019034,-0.00022726,0.00000886,-
 0.00008690,0.00017407,0.00000407,-0.00004297,0.00002790,0.00000115,-0.
 00004717,0.00002745,-0.00000436,-0.00002423,-0.00009297,0.00000460,0.0
 0012067,-0.00115293,0.00004158,-0.00509590,0.00166018,-0.00071073,-0.0
 0002542,0.00003539,0.00000046,-0.00003387,-0.00000221,-0.00000119,-0.0
 0001139,-0.00000031,0.00000093,-0.00000889,-0.00002118,-0.00000200,-0.
 00000289,-0.00000889,-0.00000061,0.00000867,-0.00000409,-0.00000175,0.
 00000993,-0.00000069,-0.00000052,0.00002364,0.00009791,0.00000039,-0.0
 0001133,-0.00004953,-0.00000271,-0.00180293,0.00057661,-0.00000780,-0.
 00000063,-0.00001380,-0.00000878,0.00034438,-0.00039032,0.00021768,-0.
 09927207,-0.10405094,-0.00529225,-0.01514576,-0.03054894,-0.00113147,0
 .00008323,-0.00003524,0.00010991,0.11988495,0.00002676,-0.00003679,0.0
 0000864,-0.00013048,0.00008964,0.00001434,0.00008548,0.00006700,-0.000
 00410,-0.00003934,-0.00000770,-0.00000417,-0.00003575,0.00000964,-0.00
 000143,0.00003032,0.00001588,0.00000284,0.00015037,0.00010193,0.000025
 53,0.00035078,0.00031013,-0.00000931,-0.00010750,-0.00008587,0.0000073
 0,0.00006076,-0.00001883,0.00000137,0.00372823,-0.00028203,-0.00013096
 ,-0.00088509,-0.00112898,-0.00000847,0.00044009,-0.00002011,0.00000684
 ,-0.00003881,0.00001841,0.00000047,-0.00909524,-0.02315477,-0.00085933
 ,-0.00304505,-0.00026808,0.00002226,0.00053796,0.00074856,0.00002790,-
 0.00008528,0.00022074,0.00000505,0.00000075,0.00004292,0.00000131,-0.0
 0005450,-0.00001372,0.00000097,0.00003377,-0.00006569,-0.00000205,-0.0
 0003208,-0.00010055,-0.00004356,0.00036943,0.00174317,-0.00021727,0.00
 000849,0.00000747,-0.00000145,-0.00001115,0.00000025,-0.00000084,-0.00
 000632,-0.00000024,-0.00000033,-0.00000514,-0.00000277,-0.00000150,-0.
 00000228,-0.00000632,0.00000013,-0.00001233,-0.00001695,-0.00000067,-0
 .00000966,-0.00001969,-0.00000146,0.00000702,-0.00013724,-0.00000359,0
 .00005785,0.00008962,0.00000115,0.00094278,0.00154211,0.00002399,0.000
 06245,-0.00005977,-0.00000550,0.00021628,0.00143273,0.00026988,-0.1027
 0100,-0.28405462,-0.00990499,0.00153606,0.00080635,-0.00002770,0.00006
 039,-0.00002365,0.00010652,0.10759096,0.30225780,0.00004426,-0.0000484
 4,-0.00009817,-0.00007742,0.00001338,-0.00029543,0.00001554,-0.0000269
 8,0.00001901,-0.00006474,0.00003913,-0.00006126,-0.00001764,0.00002321
 ,0.00001619,0.00002630,-0.00001167,0.00000660,-0.00003638,0.00007724,-
 0.00016398,0.00006318,0.00002712,0.00000098,-0.00001901,-0.00004409,-0
 .00019778,0.00006389,0.00000796,0.00000179,0.00002690,-0.00013379,0.00
 383336,-0.00004345,-0.00000861,-0.00002068,0.00000364,-0.00000303,-0.0
 0026853,0.00001234,-0.00000661,0.00004904,-0.00039244,-0.00038937,0.00
 328524,0.00006743,0.00011032,-0.00211489,-0.00004869,0.00012188,0.0001
 2060,-0.00002380,-0.00005753,0.00015330,-0.00000485,0.00004274,0.00000
 108,-0.00003006,-0.00001413,-0.00000023,0.00002101,-0.00000438,-0.0000
 4470,0.00002514,-0.00014313,0.00029526,-0.00030167,0.00022095,0.006205
 70,0.00000093,0.00000265,-0.00000170,0.00000025,-0.00000242,0.00001551
 ,0.00000015,0.00000098,-0.00000381,0.00000142,-0.00000182,0.00002398,-
 0.00000050,0.00000120,0.00000334,0.00000118,0.00000046,0.00001489,0.00
 000041,0.00000062,0.00002919,-0.00000175,-0.00000340,0.00000083,-0.000
 00068,0.00000106,-0.00001591,0.00000459,0.00002048,0.00037820,-0.00000
 146,-0.00000230,0.00003217,0.00003168,0.00046616,-0.00408168,-0.003740
 96,-0.00880586,-0.03320852,-0.00176269,-0.00212801,0.00468678,0.000245
 54,-0.00004415,0.00035945,0.00591241,0.01070217,0.02104477\\0.00000076
 ,-0.00000309,-0.00000073,-0.00000022,-0.00000215,-0.00000027,0.0000005
 0,-0.00000142,-0.00000073,0.00000135,-0.00000065,-0.00000113,-0.000000
 36,-0.00000192,-0.00000108,0.00000357,-0.00000355,-0.00000139,-0.00000
 008,0.00000023,-0.00000010,0.00000046,0.00000038,-0.00000005,0.0000017
 5,0.00000115,-0.00000048,0.00000231,-0.00000075,-0.00000120,0.00000006
 ,0.00000184,0.00000026,0.00000053,0.00000267,-0.00000034,0.00000318,0.
 00000317,-0.00000055,0.00000090,0.00000065,-0.00000091,-0.00000147,0.0
 0000173,0.00000110,-0.00000123,0.00000353,0.00000110,-0.00000008,0.000
 00468,0.00000092,0.00000028,0.00000236,0.00000038,-0.00000122,-0.00000
 506,-0.00000037,-0.00000206,-0.00000226,0.00000042,-0.00000107,-0.0000
 0153,0.00000079,-0.00000051,-0.00000177,0.00000028,-0.00000170,-0.0000
 0082,0.00000058,-0.00000254,-0.00000226,0.00000144,-0.00000201,-0.0000
 0404,0.00000075,-0.00000023,-0.00000449,-0.00000055,0.00000176,-0.0000
 0381,-0.00000166,0.00000286,-0.00000230,-0.00000223,0.00000297,-0.0000
 0019,-0.00000214,0.00000303,0.00000158,-0.00000186,0.00000216,0.000003
 20,-0.00000082,0.00000076,0.00000423,0.00000009,-0.00000227,0.00000297
 ,0.00000196,-0.00000115,0.00000444,0.00000138,-0.00000307,-0.00000009,
 0.00000314,-0.00000136,0.00000117,0.00000082,-0.00000210,0.00000064,0.
 00000034,-0.00000172,0.00000004,0.00000100,-0.00000275,0.00000147,0.00
 000183\\\@


 MORNING PEOPLE ARE USUALLY ADMIRED AS EARLY BIRDS.
 RECALL BEN FRANKLIN'S APHORISM THAT THE EARLY BIRD GETS THE WORM.
 I IDENTIFY WITH THE WORM. --  CRAIG JAGGER, MINNEAPOLIS, KS.
 Job cpu time:       2 days 23 hours 41 minutes 23.3 seconds.
 File lengths (MBytes):  RWF=   9046 Int=      0 D2E=      0 Chk=     42 Scr=      1
 Normal termination of Gaussian 09 at Mon Feb  3 07:54:25 2020.
