 Entering Gaussian System, Link 0=/share/apps/gaussian16/g16/g16
 Initial command:
 /share/apps/gaussian16/g16/l1.exe "/home/amen01//scratch/643/Gau-13021.inp" -scrdir="/home/amen01//scratch/643/"
 Entering Link 1 = /share/apps/gaussian16/g16/l1.exe PID=     13022.
  
 Copyright (c) 1988-2017, Gaussian, Inc.  All Rights Reserved.
  
 This is part of the Gaussian(R) 16 program.  It is based on
 the Gaussian(R) 09 system (copyright 2009, Gaussian, Inc.),
 the Gaussian(R) 03 system (copyright 2003, Gaussian, Inc.),
 the Gaussian(R) 98 system (copyright 1998, Gaussian, Inc.),
 the Gaussian(R) 94 system (copyright 1995, Gaussian, Inc.),
 the Gaussian 92(TM) system (copyright 1992, Gaussian, Inc.),
 the Gaussian 90(TM) system (copyright 1990, Gaussian, Inc.),
 the Gaussian 88(TM) system (copyright 1988, Gaussian, Inc.),
 the Gaussian 86(TM) system (copyright 1986, Carnegie Mellon
 University), and the Gaussian 82(TM) system (copyright 1983,
 Carnegie Mellon University). Gaussian is a federally registered
 trademark of Gaussian, Inc.
  
 This software contains proprietary and confidential information,
 including trade secrets, belonging to Gaussian, Inc.
  
 This software is provided under written license and may be
 used, copied, transmitted, or stored only in accord with that
 written license.
  
 The following legend is applicable only to US Government
 contracts under FAR:
  
                    RESTRICTED RIGHTS LEGEND
  
 Use, reproduction and disclosure by the US Government is
 subject to restrictions as set forth in subparagraphs (a)
 and (c) of the Commercial Computer Software - Restricted
 Rights clause in FAR 52.227-19.
  
 Gaussian, Inc.
 340 Quinnipiac St., Bldg. 40, Wallingford CT 06492
  
  
 ---------------------------------------------------------------
 Warning -- This program may not be used in any manner that
 competes with the business of Gaussian, Inc. or will provide
 assistance to any competitor of Gaussian, Inc.  The licensee
 of this program is prohibited from giving any competitor of
 Gaussian, Inc. access to this program.  By using this program,
 the user acknowledges that Gaussian, Inc. is engaged in the
 business of creating and licensing software in the field of
 computational chemistry and represents and warrants to the
 licensee that it is not a competitor of Gaussian, Inc. and that
 it will not use this program in any manner prohibited above.
 ---------------------------------------------------------------
  

 Cite this work as:
 Gaussian 16, Revision B.01,
 M. J. Frisch, G. W. Trucks, H. B. Schlegel, G. E. Scuseria, 
 M. A. Robb, J. R. Cheeseman, G. Scalmani, V. Barone, 
 G. A. Petersson, H. Nakatsuji, X. Li, M. Caricato, A. V. Marenich, 
 J. Bloino, B. G. Janesko, R. Gomperts, B. Mennucci, H. P. Hratchian, 
 J. V. Ortiz, A. F. Izmaylov, J. L. Sonnenberg, D. Williams-Young, 
 F. Ding, F. Lipparini, F. Egidi, J. Goings, B. Peng, A. Petrone, 
 T. Henderson, D. Ranasinghe, V. G. Zakrzewski, J. Gao, N. Rega, 
 G. Zheng, W. Liang, M. Hada, M. Ehara, K. Toyota, R. Fukuda, 
 J. Hasegawa, M. Ishida, T. Nakajima, Y. Honda, O. Kitao, H. Nakai, 
 T. Vreven, K. Throssell, J. A. Montgomery, Jr., J. E. Peralta, 
 F. Ogliaro, M. J. Bearpark, J. J. Heyd, E. N. Brothers, K. N. Kudin, 
 V. N. Staroverov, T. A. Keith, R. Kobayashi, J. Normand, 
 K. Raghavachari, A. P. Rendell, J. C. Burant, S. S. Iyengar, 
 J. Tomasi, M. Cossi, J. M. Millam, M. Klene, C. Adamo, R. Cammi, 
 J. W. Ochterski, R. L. Martin, K. Morokuma, O. Farkas, 
 J. B. Foresman, and D. J. Fox, Gaussian, Inc., Wallingford CT, 2016.
 
 ******************************************
 Gaussian 16:  ES64L-G16RevB.01 20-Dec-2017
                28-Jun-2019 
 ******************************************
 %nprocshared=20
 Will use up to   20 processors via shared memory.
 %mem=100GB
 %chk=7-HACAsite2TSguess-4a.chk
 ---------------------------------------------------------------
 # opt=(ts,calcfc,noeigen) freq b3lyp/6-311+g(d,p) int=grid=fine
 ---------------------------------------------------------------
 1/5=1,10=4,11=1,18=20,26=3,38=1/1,3;
 2/9=110,12=2,17=6,18=5,40=1/2;
 3/5=4,6=6,7=111,11=2,25=1,30=1,71=2,74=-5,75=-4,140=1/1,2,3;
 4//1;
 5/5=2,38=5/2;
 8/6=4,10=90,11=11/1;
 11/6=1,8=1,9=11,15=111,16=1/1,2,10;
 10/6=1,13=1/2;
 6/7=2,8=2,9=2,10=2,28=1/1;
 7/10=1,18=20,25=1/1,2,3,16;
 1/5=1,10=4,11=1,18=20,26=3/3(2);
 2/9=110/2;
 99//99;
 2/9=110/2;
 3/5=4,6=6,7=111,11=2,25=1,30=1,71=1,74=-5,75=-4/1,2,3;
 4/5=5,16=3,69=1/1;
 5/5=2,38=5/2;
 7//1,2,3,16;
 1/5=1,11=1,18=20,26=3/3(-5);
 2/9=110/2;
 6/7=2,8=2,9=2,10=2,19=2,28=1/1;
 99/9=1/99;
 ---------------------
 7-HACAsite2TSguess-4a
 ---------------------
 Symbolic Z-matrix:
 Charge =  0 Multiplicity = 3
 C                     3.83235   0.35585   0.00554 
 C                     2.53121  -0.13586   0.01006 
 C                     1.39648   0.69076   0.02886 
 C                     1.49273   2.08465   0.02956 
 C                     3.94368   1.7998    0.02276 
 C                     2.83868   2.61659   0.03239 
 C                     0.22812  -0.08782   0.01869 
 C                    -1.02283   0.57101   0.00714 
 C                    -0.95328   2.02702  -0.00314 
 C                     0.26172   2.74732   0.01277 
 C                    -2.32052  -0.08468  -0.00188 
 C                    -3.48659   0.73523  -0.03904 
 C                    -3.37459   2.16454  -0.06052 
 C                    -2.1707    2.77883  -0.03561 
 C                    -2.52726  -1.53307   0.10434 
 C                    -3.86519  -2.02071  -0.0059 
 C                    -4.97003  -1.19081  -0.06186 
 C                    -4.78546   0.17869  -0.05934 
 C                     4.84624  -0.63205  -0.02303 
 C                     4.4941   -1.98323  -0.04868 
 C                     3.1556   -2.43736  -0.04939 
 C                     2.13529  -1.48837  -0.02038 
 C                     0.66763  -1.48645  -0.01575 
 H                     2.9562   -3.50319  -0.07308 
 H                     5.28648  -2.72338  -0.0709 
 H                     5.8939   -0.35054  -0.02725 
 H                     4.93147   2.24955   0.02315 
 H                     2.97616   3.69298   0.03908 
 H                     0.21239   3.83144   0.00441 
 H                    -2.10501   3.86148  -0.04328 
 H                    -4.28983   2.74545  -0.08989 
 H                    -5.63571   0.8505   -0.09249 
 H                    -2.42528  -1.58512   1.90904 
 H                    -4.008    -3.09462  -0.00191 
 H                    -5.96623  -1.61506  -0.11225 
 C                    -0.16509  -2.59927  -0.05539 
 C                    -1.53945  -2.60374  -0.01159 
 H                     0.3126   -3.57316  -0.11843 
 H                    -1.99603  -3.58754  -0.02974 
 
 Add virtual bond connecting atoms H33        and C15        Dist= 3.42D+00.

 GradGradGradGradGradGradGradGradGradGradGradGradGradGradGradGradGradGrad
 Berny optimization.
 Initialization pass.
                           ----------------------------
                           !    Initial Parameters    !
                           ! (Angstroms and Degrees)  !
 --------------------------                            --------------------------
 ! Name  Definition              Value          Derivative Info.                !
 --------------------------------------------------------------------------------
 ! R1    R(1,2)                  1.391          calculate D2E/DX2 analytically  !
 ! R2    R(1,5)                  1.4483         calculate D2E/DX2 analytically  !
 ! R3    R(1,19)                 1.4159         calculate D2E/DX2 analytically  !
 ! R4    R(2,3)                  1.404          calculate D2E/DX2 analytically  !
 ! R5    R(2,22)                 1.4096         calculate D2E/DX2 analytically  !
 ! R6    R(3,4)                  1.3972         calculate D2E/DX2 analytically  !
 ! R7    R(3,7)                  1.404          calculate D2E/DX2 analytically  !
 ! R8    R(4,6)                  1.4473         calculate D2E/DX2 analytically  !
 ! R9    R(4,10)                 1.3981         calculate D2E/DX2 analytically  !
 ! R10   R(5,6)                  1.3741         calculate D2E/DX2 analytically  !
 ! R11   R(5,27)                 1.0854         calculate D2E/DX2 analytically  !
 ! R12   R(6,28)                 1.0852         calculate D2E/DX2 analytically  !
 ! R13   R(7,8)                  1.4139         calculate D2E/DX2 analytically  !
 ! R14   R(7,23)                 1.4665         calculate D2E/DX2 analytically  !
 ! R15   R(8,9)                  1.4577         calculate D2E/DX2 analytically  !
 ! R16   R(8,11)                 1.454          calculate D2E/DX2 analytically  !
 ! R17   R(9,10)                 1.4125         calculate D2E/DX2 analytically  !
 ! R18   R(9,14)                 1.4312         calculate D2E/DX2 analytically  !
 ! R19   R(10,29)                1.0853         calculate D2E/DX2 analytically  !
 ! R20   R(11,12)                1.426          calculate D2E/DX2 analytically  !
 ! R21   R(11,15)                1.4669         calculate D2E/DX2 analytically  !
 ! R22   R(12,13)                1.4339         calculate D2E/DX2 analytically  !
 ! R23   R(12,18)                1.4132         calculate D2E/DX2 analytically  !
 ! R24   R(13,14)                1.3518         calculate D2E/DX2 analytically  !
 ! R25   R(13,31)                1.0844         calculate D2E/DX2 analytically  !
 ! R26   R(14,30)                1.0847         calculate D2E/DX2 analytically  !
 ! R27   R(15,16)                1.4283         calculate D2E/DX2 analytically  !
 ! R28   R(15,33)                1.8083         calculate D2E/DX2 analytically  !
 ! R29   R(15,37)                1.4614         calculate D2E/DX2 analytically  !
 ! R30   R(16,17)                1.3829         calculate D2E/DX2 analytically  !
 ! R31   R(16,34)                1.0834         calculate D2E/DX2 analytically  !
 ! R32   R(17,18)                1.3819         calculate D2E/DX2 analytically  !
 ! R33   R(17,35)                1.0839         calculate D2E/DX2 analytically  !
 ! R34   R(18,32)                1.0841         calculate D2E/DX2 analytically  !
 ! R35   R(19,20)                1.3966         calculate D2E/DX2 analytically  !
 ! R36   R(19,26)                1.0848         calculate D2E/DX2 analytically  !
 ! R37   R(20,21)                1.4134         calculate D2E/DX2 analytically  !
 ! R38   R(20,25)                1.0845         calculate D2E/DX2 analytically  !
 ! R39   R(21,22)                1.3937         calculate D2E/DX2 analytically  !
 ! R40   R(21,24)                1.0846         calculate D2E/DX2 analytically  !
 ! R41   R(22,23)                1.4677         calculate D2E/DX2 analytically  !
 ! R42   R(23,36)                1.3905         calculate D2E/DX2 analytically  !
 ! R43   R(36,37)                1.3751         calculate D2E/DX2 analytically  !
 ! R44   R(36,38)                1.0866         calculate D2E/DX2 analytically  !
 ! R45   R(37,39)                1.0847         calculate D2E/DX2 analytically  !
 ! A1    A(2,1,5)              115.1063         calculate D2E/DX2 analytically  !
 ! A2    A(2,1,19)             115.0402         calculate D2E/DX2 analytically  !
 ! A3    A(5,1,19)             129.8524         calculate D2E/DX2 analytically  !
 ! A4    A(1,2,3)              123.2249         calculate D2E/DX2 analytically  !
 ! A5    A(1,2,22)             127.003          calculate D2E/DX2 analytically  !
 ! A6    A(3,2,22)             109.7672         calculate D2E/DX2 analytically  !
 ! A7    A(2,3,4)              122.1197         calculate D2E/DX2 analytically  !
 ! A8    A(2,3,7)              110.2402         calculate D2E/DX2 analytically  !
 ! A9    A(4,3,7)              127.6281         calculate D2E/DX2 analytically  !
 ! A10   A(3,4,6)              115.5149         calculate D2E/DX2 analytically  !
 ! A11   A(3,4,10)             114.3419         calculate D2E/DX2 analytically  !
 ! A12   A(6,4,10)             130.1392         calculate D2E/DX2 analytically  !
 ! A13   A(1,5,6)              122.0646         calculate D2E/DX2 analytically  !
 ! A14   A(1,5,27)             118.8869         calculate D2E/DX2 analytically  !
 ! A15   A(6,5,27)             119.0479         calculate D2E/DX2 analytically  !
 ! A16   A(4,6,5)              121.9623         calculate D2E/DX2 analytically  !
 ! A17   A(4,6,28)             118.8434         calculate D2E/DX2 analytically  !
 ! A18   A(5,6,28)             119.194          calculate D2E/DX2 analytically  !
 ! A19   A(3,7,8)              118.549          calculate D2E/DX2 analytically  !
 ! A20   A(3,7,23)             106.2393         calculate D2E/DX2 analytically  !
 ! A21   A(8,7,23)             135.1853         calculate D2E/DX2 analytically  !
 ! A22   A(7,8,9)              115.0412         calculate D2E/DX2 analytically  !
 ! A23   A(7,8,11)             125.4211         calculate D2E/DX2 analytically  !
 ! A24   A(9,8,11)             119.5369         calculate D2E/DX2 analytically  !
 ! A25   A(8,9,10)             123.3874         calculate D2E/DX2 analytically  !
 ! A26   A(8,9,14)             118.9633         calculate D2E/DX2 analytically  !
 ! A27   A(10,9,14)            117.6489         calculate D2E/DX2 analytically  !
 ! A28   A(4,10,9)             121.0489         calculate D2E/DX2 analytically  !
 ! A29   A(4,10,29)            120.902          calculate D2E/DX2 analytically  !
 ! A30   A(9,10,29)            118.0476         calculate D2E/DX2 analytically  !
 ! A31   A(8,11,12)            118.0806         calculate D2E/DX2 analytically  !
 ! A32   A(8,11,15)            124.7926         calculate D2E/DX2 analytically  !
 ! A33   A(12,11,15)           117.0242         calculate D2E/DX2 analytically  !
 ! A34   A(11,12,13)           120.6429         calculate D2E/DX2 analytically  !
 ! A35   A(11,12,18)           121.7026         calculate D2E/DX2 analytically  !
 ! A36   A(13,12,18)           117.6543         calculate D2E/DX2 analytically  !
 ! A37   A(12,13,14)           121.485          calculate D2E/DX2 analytically  !
 ! A38   A(12,13,31)           117.935          calculate D2E/DX2 analytically  !
 ! A39   A(14,13,31)           120.5784         calculate D2E/DX2 analytically  !
 ! A40   A(9,14,13)            121.2835         calculate D2E/DX2 analytically  !
 ! A41   A(9,14,30)            118.2262         calculate D2E/DX2 analytically  !
 ! A42   A(13,14,30)           120.4899         calculate D2E/DX2 analytically  !
 ! A43   A(11,15,16)           117.6153         calculate D2E/DX2 analytically  !
 ! A44   A(11,15,33)            95.3208         calculate D2E/DX2 analytically  !
 ! A45   A(11,15,37)           128.491          calculate D2E/DX2 analytically  !
 ! A46   A(16,15,33)            96.8936         calculate D2E/DX2 analytically  !
 ! A47   A(16,15,37)           112.1438         calculate D2E/DX2 analytically  !
 ! A48   A(33,15,37)            91.1438         calculate D2E/DX2 analytically  !
 ! A49   A(15,16,17)           123.1344         calculate D2E/DX2 analytically  !
 ! A50   A(15,16,34)           117.4919         calculate D2E/DX2 analytically  !
 ! A51   A(17,16,34)           119.3208         calculate D2E/DX2 analytically  !
 ! A52   A(16,17,18)           119.2055         calculate D2E/DX2 analytically  !
 ! A53   A(16,17,35)           120.0823         calculate D2E/DX2 analytically  !
 ! A54   A(18,17,35)           120.7114         calculate D2E/DX2 analytically  !
 ! A55   A(12,18,17)           120.8677         calculate D2E/DX2 analytically  !
 ! A56   A(12,18,32)           118.5032         calculate D2E/DX2 analytically  !
 ! A57   A(17,18,32)           120.6184         calculate D2E/DX2 analytically  !
 ! A58   A(1,19,20)            119.6614         calculate D2E/DX2 analytically  !
 ! A59   A(1,19,26)            120.7014         calculate D2E/DX2 analytically  !
 ! A60   A(20,19,26)           119.6371         calculate D2E/DX2 analytically  !
 ! A61   A(19,20,21)           123.3428         calculate D2E/DX2 analytically  !
 ! A62   A(19,20,25)           118.4536         calculate D2E/DX2 analytically  !
 ! A63   A(21,20,25)           118.2035         calculate D2E/DX2 analytically  !
 ! A64   A(20,21,22)           118.3255         calculate D2E/DX2 analytically  !
 ! A65   A(20,21,24)           119.3311         calculate D2E/DX2 analytically  !
 ! A66   A(22,21,24)           122.3434         calculate D2E/DX2 analytically  !
 ! A67   A(2,22,21)            116.6255         calculate D2E/DX2 analytically  !
 ! A68   A(2,22,23)            106.2334         calculate D2E/DX2 analytically  !
 ! A69   A(21,22,23)           137.1408         calculate D2E/DX2 analytically  !
 ! A70   A(7,23,22)            107.519          calculate D2E/DX2 analytically  !
 ! A71   A(7,23,36)            125.7672         calculate D2E/DX2 analytically  !
 ! A72   A(22,23,36)           126.7083         calculate D2E/DX2 analytically  !
 ! A73   A(23,36,37)           126.8889         calculate D2E/DX2 analytically  !
 ! A74   A(23,36,38)           117.11           calculate D2E/DX2 analytically  !
 ! A75   A(37,36,38)           115.9985         calculate D2E/DX2 analytically  !
 ! A76   A(15,37,36)           132.5131         calculate D2E/DX2 analytically  !
 ! A77   A(15,37,39)           112.4133         calculate D2E/DX2 analytically  !
 ! A78   A(36,37,39)           115.0314         calculate D2E/DX2 analytically  !
 ! D1    D(5,1,2,3)              0.0441         calculate D2E/DX2 analytically  !
 ! D2    D(5,1,2,22)           179.1499         calculate D2E/DX2 analytically  !
 ! D3    D(19,1,2,3)          -179.6058         calculate D2E/DX2 analytically  !
 ! D4    D(19,1,2,22)           -0.5001         calculate D2E/DX2 analytically  !
 ! D5    D(2,1,5,6)             -0.4775         calculate D2E/DX2 analytically  !
 ! D6    D(2,1,5,27)           179.8276         calculate D2E/DX2 analytically  !
 ! D7    D(19,1,5,6)           179.1095         calculate D2E/DX2 analytically  !
 ! D8    D(19,1,5,27)           -0.5855         calculate D2E/DX2 analytically  !
 ! D9    D(2,1,19,20)            0.2178         calculate D2E/DX2 analytically  !
 ! D10   D(2,1,19,26)         -179.9072         calculate D2E/DX2 analytically  !
 ! D11   D(5,1,19,20)         -179.3693         calculate D2E/DX2 analytically  !
 ! D12   D(5,1,19,26)            0.5057         calculate D2E/DX2 analytically  !
 ! D13   D(1,2,3,4)              0.7277         calculate D2E/DX2 analytically  !
 ! D14   D(1,2,3,7)            179.5552         calculate D2E/DX2 analytically  !
 ! D15   D(22,2,3,4)          -178.5135         calculate D2E/DX2 analytically  !
 ! D16   D(22,2,3,7)             0.314          calculate D2E/DX2 analytically  !
 ! D17   D(1,2,22,21)            0.4515         calculate D2E/DX2 analytically  !
 ! D18   D(1,2,22,23)         -179.3829         calculate D2E/DX2 analytically  !
 ! D19   D(3,2,22,21)          179.6566         calculate D2E/DX2 analytically  !
 ! D20   D(3,2,22,23)           -0.1778         calculate D2E/DX2 analytically  !
 ! D21   D(2,3,4,6)             -0.998          calculate D2E/DX2 analytically  !
 ! D22   D(2,3,4,10)           178.344          calculate D2E/DX2 analytically  !
 ! D23   D(7,3,4,6)           -179.6089         calculate D2E/DX2 analytically  !
 ! D24   D(7,3,4,10)            -0.267          calculate D2E/DX2 analytically  !
 ! D25   D(2,3,7,8)           -178.722          calculate D2E/DX2 analytically  !
 ! D26   D(2,3,7,23)            -0.3104         calculate D2E/DX2 analytically  !
 ! D27   D(4,3,7,8)              0.0241         calculate D2E/DX2 analytically  !
 ! D28   D(4,3,7,23)           178.4358         calculate D2E/DX2 analytically  !
 ! D29   D(3,4,6,5)              0.5646         calculate D2E/DX2 analytically  !
 ! D30   D(3,4,6,28)          -179.637          calculate D2E/DX2 analytically  !
 ! D31   D(10,4,6,5)          -178.6511         calculate D2E/DX2 analytically  !
 ! D32   D(10,4,6,28)            1.1472         calculate D2E/DX2 analytically  !
 ! D33   D(3,4,10,9)             0.0041         calculate D2E/DX2 analytically  !
 ! D34   D(3,4,10,29)         -179.5547         calculate D2E/DX2 analytically  !
 ! D35   D(6,4,10,9)           179.2273         calculate D2E/DX2 analytically  !
 ! D36   D(6,4,10,29)           -0.3315         calculate D2E/DX2 analytically  !
 ! D37   D(1,5,6,4)              0.1696         calculate D2E/DX2 analytically  !
 ! D38   D(1,5,6,28)          -179.628          calculate D2E/DX2 analytically  !
 ! D39   D(27,5,6,4)           179.8641         calculate D2E/DX2 analytically  !
 ! D40   D(27,5,6,28)            0.0665         calculate D2E/DX2 analytically  !
 ! D41   D(3,7,8,9)              0.4446         calculate D2E/DX2 analytically  !
 ! D42   D(3,7,8,11)          -179.8855         calculate D2E/DX2 analytically  !
 ! D43   D(23,7,8,9)          -177.3915         calculate D2E/DX2 analytically  !
 ! D44   D(23,7,8,11)            2.2784         calculate D2E/DX2 analytically  !
 ! D45   D(3,7,23,22)            0.1954         calculate D2E/DX2 analytically  !
 ! D46   D(3,7,23,36)         -178.996          calculate D2E/DX2 analytically  !
 ! D47   D(8,7,23,22)          178.2158         calculate D2E/DX2 analytically  !
 ! D48   D(8,7,23,36)           -0.9757         calculate D2E/DX2 analytically  !
 ! D49   D(7,8,9,10)            -0.7111         calculate D2E/DX2 analytically  !
 ! D50   D(7,8,9,14)           179.0657         calculate D2E/DX2 analytically  !
 ! D51   D(11,8,9,10)          179.5981         calculate D2E/DX2 analytically  !
 ! D52   D(11,8,9,14)           -0.6251         calculate D2E/DX2 analytically  !
 ! D53   D(7,8,11,12)         -178.8189         calculate D2E/DX2 analytically  !
 ! D54   D(7,8,11,15)            4.9843         calculate D2E/DX2 analytically  !
 ! D55   D(9,8,11,12)            0.8373         calculate D2E/DX2 analytically  !
 ! D56   D(9,8,11,15)         -175.3595         calculate D2E/DX2 analytically  !
 ! D57   D(8,9,10,4)             0.4945         calculate D2E/DX2 analytically  !
 ! D58   D(8,9,10,29)         -179.9345         calculate D2E/DX2 analytically  !
 ! D59   D(14,9,10,4)         -179.2851         calculate D2E/DX2 analytically  !
 ! D60   D(14,9,10,29)           0.2859         calculate D2E/DX2 analytically  !
 ! D61   D(8,9,14,13)           -0.1877         calculate D2E/DX2 analytically  !
 ! D62   D(8,9,14,30)         -179.9806         calculate D2E/DX2 analytically  !
 ! D63   D(10,9,14,13)         179.6019         calculate D2E/DX2 analytically  !
 ! D64   D(10,9,14,30)          -0.1909         calculate D2E/DX2 analytically  !
 ! D65   D(8,11,12,13)          -0.2808         calculate D2E/DX2 analytically  !
 ! D66   D(8,11,12,18)         179.5607         calculate D2E/DX2 analytically  !
 ! D67   D(15,11,12,13)        176.2136         calculate D2E/DX2 analytically  !
 ! D68   D(15,11,12,18)         -3.945          calculate D2E/DX2 analytically  !
 ! D69   D(8,11,15,16)        -176.1269         calculate D2E/DX2 analytically  !
 ! D70   D(8,11,15,33)          83.2256         calculate D2E/DX2 analytically  !
 ! D71   D(8,11,15,37)         -12.4947         calculate D2E/DX2 analytically  !
 ! D72   D(12,11,15,16)          7.6398         calculate D2E/DX2 analytically  !
 ! D73   D(12,11,15,33)        -93.0076         calculate D2E/DX2 analytically  !
 ! D74   D(12,11,15,37)        171.272          calculate D2E/DX2 analytically  !
 ! D75   D(11,12,13,14)         -0.5371         calculate D2E/DX2 analytically  !
 ! D76   D(11,12,13,31)        179.926          calculate D2E/DX2 analytically  !
 ! D77   D(18,12,13,14)        179.6152         calculate D2E/DX2 analytically  !
 ! D78   D(18,12,13,31)          0.0783         calculate D2E/DX2 analytically  !
 ! D79   D(11,12,18,17)         -0.8763         calculate D2E/DX2 analytically  !
 ! D80   D(11,12,18,32)       -179.6996         calculate D2E/DX2 analytically  !
 ! D81   D(13,12,18,17)        178.9697         calculate D2E/DX2 analytically  !
 ! D82   D(13,12,18,32)          0.1463         calculate D2E/DX2 analytically  !
 ! D83   D(12,13,14,9)           0.7739         calculate D2E/DX2 analytically  !
 ! D84   D(12,13,14,30)       -179.4379         calculate D2E/DX2 analytically  !
 ! D85   D(31,13,14,9)        -179.7013         calculate D2E/DX2 analytically  !
 ! D86   D(31,13,14,30)          0.0868         calculate D2E/DX2 analytically  !
 ! D87   D(11,15,16,17)         -7.1525         calculate D2E/DX2 analytically  !
 ! D88   D(11,15,16,34)        175.5138         calculate D2E/DX2 analytically  !
 ! D89   D(33,15,16,17)         92.5576         calculate D2E/DX2 analytically  !
 ! D90   D(33,15,16,34)        -84.776          calculate D2E/DX2 analytically  !
 ! D91   D(37,15,16,17)       -173.3762         calculate D2E/DX2 analytically  !
 ! D92   D(37,15,16,34)          9.2902         calculate D2E/DX2 analytically  !
 ! D93   D(11,15,37,36)         10.6762         calculate D2E/DX2 analytically  !
 ! D94   D(11,15,37,39)       -171.8614         calculate D2E/DX2 analytically  !
 ! D95   D(16,15,37,36)        175.0367         calculate D2E/DX2 analytically  !
 ! D96   D(16,15,37,39)         -7.5008         calculate D2E/DX2 analytically  !
 ! D97   D(33,15,37,36)        -87.0464         calculate D2E/DX2 analytically  !
 ! D98   D(33,15,37,39)         90.416          calculate D2E/DX2 analytically  !
 ! D99   D(15,16,17,18)          2.3569         calculate D2E/DX2 analytically  !
 ! D100  D(15,16,17,35)       -177.9635         calculate D2E/DX2 analytically  !
 ! D101  D(34,16,17,18)        179.6441         calculate D2E/DX2 analytically  !
 ! D102  D(34,16,17,35)         -0.6763         calculate D2E/DX2 analytically  !
 ! D103  D(16,17,18,12)          1.8185         calculate D2E/DX2 analytically  !
 ! D104  D(16,17,18,32)       -179.3831         calculate D2E/DX2 analytically  !
 ! D105  D(35,17,18,12)       -177.8591         calculate D2E/DX2 analytically  !
 ! D106  D(35,17,18,32)          0.9394         calculate D2E/DX2 analytically  !
 ! D107  D(1,19,20,21)           0.073          calculate D2E/DX2 analytically  !
 ! D108  D(1,19,20,25)         179.9669         calculate D2E/DX2 analytically  !
 ! D109  D(26,19,20,21)       -179.8033         calculate D2E/DX2 analytically  !
 ! D110  D(26,19,20,25)          0.0906         calculate D2E/DX2 analytically  !
 ! D111  D(19,20,21,22)         -0.1292         calculate D2E/DX2 analytically  !
 ! D112  D(19,20,21,24)        179.8215         calculate D2E/DX2 analytically  !
 ! D113  D(25,20,21,22)        179.9767         calculate D2E/DX2 analytically  !
 ! D114  D(25,20,21,24)         -0.0727         calculate D2E/DX2 analytically  !
 ! D115  D(20,21,22,2)          -0.1108         calculate D2E/DX2 analytically  !
 ! D116  D(20,21,22,23)        179.6554         calculate D2E/DX2 analytically  !
 ! D117  D(24,21,22,2)         179.9402         calculate D2E/DX2 analytically  !
 ! D118  D(24,21,22,23)         -0.2936         calculate D2E/DX2 analytically  !
 ! D119  D(2,22,23,7)           -0.0131         calculate D2E/DX2 analytically  !
 ! D120  D(2,22,23,36)         179.1686         calculate D2E/DX2 analytically  !
 ! D121  D(21,22,23,7)        -179.7954         calculate D2E/DX2 analytically  !
 ! D122  D(21,22,23,36)         -0.6137         calculate D2E/DX2 analytically  !
 ! D123  D(7,23,36,37)          -3.0291         calculate D2E/DX2 analytically  !
 ! D124  D(7,23,36,38)         177.5816         calculate D2E/DX2 analytically  !
 ! D125  D(22,23,36,37)        177.9326         calculate D2E/DX2 analytically  !
 ! D126  D(22,23,36,38)         -1.4566         calculate D2E/DX2 analytically  !
 ! D127  D(23,36,37,15)         -1.0845         calculate D2E/DX2 analytically  !
 ! D128  D(23,36,37,39)       -178.4954         calculate D2E/DX2 analytically  !
 ! D129  D(38,36,37,15)        178.3106         calculate D2E/DX2 analytically  !
 ! D130  D(38,36,37,39)          0.8997         calculate D2E/DX2 analytically  !
 --------------------------------------------------------------------------------
 Trust Radius=3.00D-01 FncErr=1.00D-07 GrdErr=1.00D-06 EigMax=2.50D+02 EigMin=1.00D-04
 Number of steps in this run=    234 maximum allowed number of steps=    234.
 Search for a saddle point of order  1.
 GradGradGradGradGradGradGradGradGradGradGradGradGradGradGradGradGradGrad

                          Input orientation:                          
 ---------------------------------------------------------------------
 Center     Atomic      Atomic             Coordinates (Angstroms)
 Number     Number       Type             X           Y           Z
 ---------------------------------------------------------------------
      1          6           0        3.832350    0.355851    0.005542
      2          6           0        2.531205   -0.135864    0.010057
      3          6           0        1.396480    0.690758    0.028855
      4          6           0        1.492730    2.084648    0.029560
      5          6           0        3.943676    1.799801    0.022760
      6          6           0        2.838680    2.616591    0.032390
      7          6           0        0.228122   -0.087819    0.018691
      8          6           0       -1.022830    0.571009    0.007137
      9          6           0       -0.953276    2.027021   -0.003141
     10          6           0        0.261717    2.747320    0.012768
     11          6           0       -2.320523   -0.084680   -0.001878
     12          6           0       -3.486592    0.735234   -0.039038
     13          6           0       -3.374592    2.164543   -0.060522
     14          6           0       -2.170705    2.778825   -0.035614
     15          6           0       -2.527263   -1.533069    0.104335
     16          6           0       -3.865193   -2.020708   -0.005904
     17          6           0       -4.970027   -1.190813   -0.061857
     18          6           0       -4.785461    0.178694   -0.059341
     19          6           0        4.846236   -0.632050   -0.023031
     20          6           0        4.494097   -1.983233   -0.048684
     21          6           0        3.155605   -2.437363   -0.049388
     22          6           0        2.135288   -1.488367   -0.020378
     23          6           0        0.667626   -1.486449   -0.015752
     24          1           0        2.956203   -3.503190   -0.073079
     25          1           0        5.286476   -2.723383   -0.070896
     26          1           0        5.893901   -0.350538   -0.027246
     27          1           0        4.931470    2.249551    0.023153
     28          1           0        2.976157    3.692980    0.039080
     29          1           0        0.212390    3.831443    0.004412
     30          1           0       -2.105013    3.861476   -0.043278
     31          1           0       -4.289825    2.745452   -0.089886
     32          1           0       -5.635707    0.850502   -0.092494
     33          1           0       -2.425284   -1.585120    1.909044
     34          1           0       -4.007995   -3.094617   -0.001912
     35          1           0       -5.966225   -1.615055   -0.112248
     36          6           0       -0.165091   -2.599274   -0.055391
     37          6           0       -1.539447   -2.603741   -0.011594
     38          1           0        0.312600   -3.573155   -0.118427
     39          1           0       -1.996030   -3.587537   -0.029735
 ---------------------------------------------------------------------
                    Distance matrix (angstroms):
                    1          2          3          4          5
     1  C    0.000000
     2  C    1.390965   0.000000
     3  C    2.458896   1.404015   0.000000
     4  C    2.909147   2.451425   1.397209   0.000000
     5  C    1.448338   2.396254   2.778169   2.467452   0.000000
     6  C    2.469625   2.769666   2.405990   1.447257   1.374138
     7  C    3.631456   2.303600   1.404046   2.513755   4.167549
     8  C    4.859945   3.623650   2.422369   2.935924   5.116283
     9  C    5.069034   4.101201   2.703327   2.446903   4.902289
    10  C    4.297510   3.669241   2.348913   1.398145   3.801936
    11  C    6.168628   4.852013   3.797152   4.387240   6.541564
    12  C    7.328904   6.080716   4.883746   5.159387   7.506398
    13  C    7.430730   6.338398   4.994313   4.868811   7.327825
    14  C    6.473729   5.532220   4.133883   3.729194   6.192540
    15  C    6.634942   5.248730   4.510750   5.408679   7.279267
    16  C    8.056074   6.668343   5.919329   6.750003   8.693420
    17  C    8.937480   7.575392   6.639349   7.245980   9.402395
    18  C    8.619876   7.323753   6.203739   6.561726   8.878770
    19  C    1.415885   2.367839   3.695041   4.316158   2.594342
    20  C    2.431494   2.696139   4.092856   5.055886   3.823534
    21  C    2.874551   2.385436   3.589677   4.818710   4.310432
    22  C    2.506358   1.409589   2.301488   3.630676   3.752889
    23  C    3.661967   2.301667   2.296399   3.665458   4.640412
    24  H    3.958031   3.395058   4.475749   5.777216   5.394998
    25  H    3.406172   3.780652   5.176715   6.125338   4.719224
    26  H    2.179462   3.369748   4.616735   5.030275   2.903418
    27  H    2.189629   3.384028   3.863421   3.442698   1.085363
    28  H    3.445377   3.854721   3.392465   2.188008   2.126143
    29  H    5.018351   4.595265   3.356571   2.165917   4.248576
    30  H    6.895221   6.121772   4.724310   4.013250   6.390736
    31  H    8.466937   7.405297   6.047308   5.821415   8.288395
    32  H    9.481476   8.226900   7.035048   7.235512   9.626995
    33  H    6.822659   5.502116   4.829142   5.687749   7.455160
    34  H    8.566026   7.177430   6.598360   7.555379   9.337291
    35  H    9.995520   8.626081   7.716613   8.327300  10.482634
    36  C    4.971520   3.652764   3.642789   4.969377   6.019961
    37  C    6.133162   4.760367   4.413052   5.583617   7.032567
    38  H    5.276466   4.093127   4.401982   5.781465   6.486394
    39  H    7.037156   5.693109   5.460436   6.659478   8.019119
                    6          7          8          9         10
     6  C    0.000000
     7  C    3.758861   0.000000
     8  C    4.369932   1.413884   0.000000
     9  C    3.837680   2.422545   1.457709   0.000000
    10  C    2.580351   2.835344   2.527137   1.412548   0.000000
    11  C    5.823694   2.548730   1.453966   2.515680   3.832545
    12  C    6.599521   3.805240   2.469661   2.843887   4.254526
    13  C    6.230388   4.249583   2.841604   2.425897   3.683442
    14  C    5.012473   3.738311   2.488754   1.431222   2.433107
    15  C    6.783671   3.112592   2.588419   3.893999   5.109650
    16  C    8.151559   4.526797   3.846582   4.986319   6.306015
    17  C    8.687987   5.314493   4.323094   5.147057   6.548710
    18  C    8.004954   5.021268   3.783612   4.255010   5.663660
    19  C    3.819296   4.650259   5.991177   6.380078   5.695545
    20  C    4.889311   4.668584   6.079782   6.764472   6.347830
    21  C    5.064541   3.754351   5.149060   6.067600   5.937962
    22  C    4.165120   2.366504   3.770344   4.679474   4.631675
    23  C    4.642276   1.466464   2.662949   3.869361   4.253278
    24  H    6.121818   4.372140   5.695457   6.772898   6.807092
    25  H    5.875176   5.704487   7.118037   7.842540   7.428580
    26  H    4.259318   5.672053   6.977937   7.248255   6.428050
    27  H    2.124753   5.252123   6.186392   5.889011   4.696219
    28  H    1.085153   4.674030   5.073423   4.268213   2.874569
    29  H    2.893795   3.919320   3.486575   2.148202   1.085277
    30  H    5.098585   4.587406   3.464222   2.166410   2.616466
    31  H    7.130718   5.333953   3.925668   3.414122   4.552700
    32  H    8.657361   5.939470   4.622410   4.828803   6.195854
    33  H    6.991818   3.585514   3.198909   4.344056   5.439290
    34  H    8.916055   5.194800   4.727378   5.963429   7.235944
    35  H    9.770061   6.381186   5.406504   6.197280   7.604815
    36  C    6.019601   2.543130   3.284862   4.693247   5.364036
    37  C    6.813354   3.074912   3.216564   4.667722   5.646117
    38  H    6.687061   3.489055   4.355828   5.742622   6.322041
    39  H    7.865716   4.146953   4.271063   5.710631   6.725299
                   11         12         13         14         15
    11  C    0.000000
    12  C    1.425958   0.000000
    13  C    2.484654   1.433851   0.000000
    14  C    2.867620   2.430604   1.351779   0.000000
    15  C    1.466920   2.466995   3.797036   4.328874   0.000000
    16  C    2.476737   2.782023   4.214261   5.089960   1.428286
    17  C    2.871759   2.431205   3.715350   4.857460   2.472217
    18  C    2.479634   1.413227   2.436011   3.687573   2.838376
    19  C    7.187663   8.444273   8.683568   7.802031   7.429438
    20  C    7.074301   8.430988   8.894968   8.191273   7.037440
    21  C    5.960315   7.360996   7.988813   7.455091   5.756420
    22  C    4.671716   6.045683   6.610911   6.062238   4.664433
    23  C    3.300634   4.711045   5.447134   5.123386   3.197485
    24  H    6.287696   7.712004   8.497195   8.108656   5.829344
    25  H    8.051953   9.430258   9.945151   9.267421   7.905825
    26  H    8.218764   9.443129   9.603734   8.650483   8.504804
    27  H    7.618442   8.553408   8.306918   7.122112   8.363462
    28  H    6.505937   7.107847   6.532844   5.227949   7.589696
    29  H    4.663873   4.823989   3.955908   2.605523   6.024423
    30  H    3.952253   3.417919   2.119365   1.084669   5.413058
    31  H    3.448992   2.165351   1.084421   2.120078   4.631424
    32  H    3.445754   2.152868   2.615410   3.965842   3.922063
    33  H    2.431855   3.210209   4.340547   4.784404   1.808337
    34  H    3.450693   3.865359   5.297490   6.154193   2.154597
    35  H    3.955423   3.417279   4.583077   5.806723   3.446751
    36  C    3.312391   4.706546   5.744117   5.739933   2.596567
    37  C    2.637393   3.865344   5.109470   5.419509   1.461355
    38  H    4.372228   5.744770   6.820551   6.820653   3.503769
    39  H    3.517965   4.572550   5.915049   6.368761   2.126270
                   16         17         18         19         20
    16  C    0.000000
    17  C    1.382937   0.000000
    18  C    2.384768   1.381890   0.000000
    19  C    8.821432   9.832230   9.665827   0.000000
    20  C    8.359483   9.497249   9.528076   1.396551   0.000000
    21  C    7.033285   8.220702   8.360884   2.473476   1.413434
    22  C    6.024066   7.111664   7.118804   2.842978   2.410326
    23  C    4.564206   5.645587   5.701821   4.265071   3.858725
    24  H    6.980953   8.256654   8.572620   3.437757   2.162402
    25  H    9.178836  10.370376  10.481703   2.137703   1.084518
    26  H    9.901002  10.896430  10.692516   1.084836   2.150722
    27  H    9.778407  10.482508   9.935492   2.883231   4.255927
    28  H    8.913603   9.327565   8.520716   4.712424   5.876329
    29  H    7.132634   7.216986   6.190731   6.433976   7.221239
    30  H    6.140010   5.808121   4.554991   8.277201   8.815265
    31  H    4.785775   3.994702   2.614352   9.740616   9.975943
    32  H    3.374324   2.147332   1.084133  10.586497  10.518788
    33  H    2.435180   3.242784   3.543447   7.583947   7.202015
    34  H    1.083369   2.133909   3.364865   9.190326   8.574551
    35  H    2.142475   1.083942   2.148148  10.857420  10.466992
    36  C    3.745389   5.007116   5.391191   5.383718   4.699743
    37  C    2.397719   3.710495   4.275609   6.683161   6.065481
    38  H    4.458330   5.795248   6.330094   5.404910   4.474107
    39  H    2.439117   3.819683   4.686822   7.453291   6.685499
                   21         22         23         24         25
    21  C    0.000000
    22  C    1.393729   0.000000
    23  C    2.663721   1.467671   0.000000
    24  H    1.084578   2.176279   3.050920   0.000000
    25  H    2.150089   3.384938   4.781927   2.457290   0.000000
    26  H    3.442905   3.927069   5.348306   4.309453   2.449748
    27  H    5.012596   4.668250   5.669178   6.083171   4.986476
    28  H    6.133607   5.249472   5.670874   7.197072   6.820512
    29  H    6.925557   5.656724   5.337380   7.831434   8.289618
    30  H    8.206675   6.826529   6.024001   8.936168   9.899255
    31  H    9.071805   7.694942   6.518497   9.568215  11.027876
    32  H    9.386111   8.115656   6.723038   9.632026  11.492050
    33  H    5.975625   4.952863   3.644265   6.047165   8.042826
    34  H    7.193845   6.349827   4.944474   6.976536   9.302138
    35  H    9.159035   8.103024   6.635799   9.120105  11.307227
    36  C    3.324646   2.554816   1.390456   3.249593   5.453002
    37  C    4.698151   3.840288   2.473768   4.585156   6.827229
    38  H    3.062265   2.770947   2.119181   2.644917   5.046168
    39  H    5.278506   4.634047   3.392614   4.953141   7.333713
                   26         27         28         29         30
    26  H    0.000000
    27  H    2.772954   0.000000
    28  H    4.986749   2.430430   0.000000
    29  H    7.054753   4.977193   2.767450   0.000000
    30  H    9.040130   7.219059   5.084630   2.318088   0.000000
    31  H   10.644123   9.235311   7.328638   4.632301   2.453790
    32  H   11.592179  10.660016   9.069796   6.564727   4.640494
    33  H    8.630310   8.507827   7.780146   6.318552   5.794786
    34  H   10.275123  10.415123   9.739175   8.110610   7.211815
    35  H   11.927649  11.563445  10.400208   8.237307   6.701202
    36  C    6.462893   7.035070   7.033408   6.442064   6.745720
    37  C    7.767357   8.088783   7.748674   6.669391   6.489985
    38  H    6.445502   7.433566   7.740547   7.406295   7.818199
    39  H    8.528140   9.058954   8.816649   7.740772   7.449823
                   31         32         33         34         35
    31  H    0.000000
    32  H    2.324272   0.000000
    33  H    5.121141   4.499469   0.000000
    34  H    5.847527   4.268678   2.904360   0.000000
    35  H    4.671706   2.487690   4.077350   2.456816   0.000000
    36  C    6.751349   6.467609   3.161643   3.875066   5.884308
    37  C    6.015362   5.358888   2.347583   2.516899   4.536959
    38  H    7.817156   7.412946   3.944481   4.348576   6.577069
    39  H    6.735864   5.739981   2.820070   2.071653   4.433953
                   36         37         38         39
    36  C    0.000000
    37  C    1.375061   0.000000
    38  H    1.086557   2.093145   0.000000
    39  H    2.080783   1.084736   2.310378   0.000000
 Stoichiometry    C25H14(3)
 Framework group  C1[X(C25H14)]
 Deg. of freedom   111
 Full point group                 C1      NOp   1
 Largest Abelian subgroup         C1      NOp   1
 Largest concise Abelian subgroup C1      NOp   1
                         Standard orientation:                         
 ---------------------------------------------------------------------
 Center     Atomic      Atomic             Coordinates (Angstroms)
 Number     Number       Type             X           Y           Z
 ---------------------------------------------------------------------
      1          6           0        3.832350    0.355851    0.005542
      2          6           0        2.531205   -0.135864    0.010057
      3          6           0        1.396480    0.690758    0.028855
      4          6           0        1.492730    2.084648    0.029560
      5          6           0        3.943676    1.799801    0.022760
      6          6           0        2.838680    2.616591    0.032390
      7          6           0        0.228122   -0.087819    0.018691
      8          6           0       -1.022830    0.571009    0.007137
      9          6           0       -0.953276    2.027021   -0.003141
     10          6           0        0.261717    2.747320    0.012768
     11          6           0       -2.320523   -0.084680   -0.001878
     12          6           0       -3.486592    0.735234   -0.039038
     13          6           0       -3.374592    2.164543   -0.060522
     14          6           0       -2.170705    2.778825   -0.035614
     15          6           0       -2.527263   -1.533069    0.104335
     16          6           0       -3.865193   -2.020708   -0.005904
     17          6           0       -4.970027   -1.190813   -0.061857
     18          6           0       -4.785461    0.178694   -0.059341
     19          6           0        4.846236   -0.632050   -0.023031
     20          6           0        4.494097   -1.983233   -0.048684
     21          6           0        3.155605   -2.437363   -0.049388
     22          6           0        2.135288   -1.488367   -0.020378
     23          6           0        0.667626   -1.486449   -0.015752
     24          1           0        2.956203   -3.503190   -0.073079
     25          1           0        5.286476   -2.723383   -0.070896
     26          1           0        5.893901   -0.350538   -0.027246
     27          1           0        4.931470    2.249551    0.023153
     28          1           0        2.976157    3.692980    0.039080
     29          1           0        0.212390    3.831443    0.004412
     30          1           0       -2.105013    3.861476   -0.043278
     31          1           0       -4.289825    2.745452   -0.089886
     32          1           0       -5.635707    0.850502   -0.092494
     33          1           0       -2.425284   -1.585120    1.909044
     34          1           0       -4.007995   -3.094617   -0.001912
     35          1           0       -5.966225   -1.615055   -0.112248
     36          6           0       -0.165091   -2.599274   -0.055391
     37          6           0       -1.539447   -2.603741   -0.011594
     38          1           0        0.312600   -3.573155   -0.118427
     39          1           0       -1.996030   -3.587537   -0.029735
 ---------------------------------------------------------------------
 Rotational constants (GHZ):           0.4882155           0.1803905           0.1320082
 Standard basis: 6-311+G(d,p) (5D, 7F)
 There are   659 symmetry adapted cartesian basis functions of A   symmetry.
 There are   634 symmetry adapted basis functions of A   symmetry.
   634 basis functions,  1012 primitive gaussians,   659 cartesian basis functions
    83 alpha electrons       81 beta electrons
       nuclear repulsion energy      1938.2386500566 Hartrees.
 NAtoms=   39 NActive=   39 NUniq=   39 SFac= 1.00D+00 NAtFMM=   60 NAOKFM=F Big=F
 Integral buffers will be    131072 words long.
 Raffenetti 2 integral format.
 Two-electron integral symmetry is turned on.
 One-electron integrals computed using PRISM.
 NBasis=   634 RedAO= T EigKep=  1.27D-06  NBF=   634
 NBsUse=   616 1.00D-06 EigRej=  8.81D-07 NBFU=   616
 ExpMin= 4.38D-02 ExpMax= 4.56D+03 ExpMxC= 6.82D+02 IAcc=2 IRadAn=         4 AccDes= 0.00D+00
 Harris functional with IExCor=  402 and IRadAn=       4 diagonalized for initial guess.
 HarFok:  IExCor=  402 AccDes= 0.00D+00 IRadAn=         4 IDoV= 1 UseB2=F ITyADJ=14
 ICtDFT=  3500011 ScaDFX=  1.000000  1.000000  1.000000  1.000000
 FoFCou: FMM=F IPFlag=           0 FMFlag=      100000 FMFlg1=           0
         NFxFlg=           0 DoJE=T BraDBF=F KetDBF=T FulRan=T
         wScrn=  0.000000 ICntrl=       500 IOpCl=  0 I1Cent=   200000004 NGrid=           0
         NMat0=    1 NMatS0=      1 NMatT0=    0 NMatD0=    1 NMtDS0=    0 NMtDT0=    0
 Petite list used in FoFCou.
 Initial guess <Sx>= 0.0000 <Sy>= 0.0000 <Sz>= 1.0000 <S**2>= 2.0000 S= 1.0000
 Requested convergence on RMS density matrix=1.00D-08 within 128 cycles.
 Requested convergence on MAX density matrix=1.00D-06.
 Requested convergence on             energy=1.00D-06.
 No special actions if energy rises.
 Restarting incremental Fock formation.
 SCF Done:  E(UB3LYP) =  -961.225238632     A.U. after   24 cycles
            NFock= 24  Conv=0.65D-08     -V/T= 2.0045
 <Sx>= 0.0000 <Sy>= 0.0000 <Sz>= 1.0000 <S**2>= 2.0550 S= 1.0182
 <L.S>=  0.00000000000    
 Annihilation of the first spin contaminant:
 S**2 before annihilation     2.0550,   after     2.0016
 DoSCS=F DFT=T ScalE2(SS,OS)=  1.000000  1.000000
 Range of M.O.s used for correlation:     1   616
 NBasis=   634 NAE=    83 NBE=    81 NFC=     0 NFV=     0
 NROrb=    616 NOA=    83 NOB=    81 NVA=   533 NVB=   535

 **** Warning!!: The largest alpha MO coefficient is  0.16216053D+03


 **** Warning!!: The largest beta MO coefficient is  0.16277899D+03


 **** Warning!!: The smallest beta delta epsilon is  0.93518240D-01

 Symmetrizing basis deriv contribution to polar:
 IMax=3 JMax=2 DiffMx= 0.00D+00
 G2DrvN: will do    40 centers at a time, making    1 passes.
 Calling FoFCou, ICntrl=  3107 FMM=F I1Cent=   0 AccDes= 0.00D+00.
 End of G2Drv F.D. properties file   721 does not exist.
 End of G2Drv F.D. properties file   722 does not exist.
 End of G2Drv F.D. properties file   788 does not exist.
          IDoAtm=111111111111111111111111111111111111111
          Differentiating once with respect to nuclear coordinates.
 CalDSu exits because no D1Ps are significant.
          There are   120 degrees of freedom in the 1st order CPHF.  IDoFFX=6 NUNeed=     0.
    114 vectors produced by pass  0 Test12= 8.76D-14 1.00D-09 XBig12= 6.43D-01 1.79D-01.
 AX will form   114 AO Fock derivatives at one time.
    114 vectors produced by pass  1 Test12= 8.76D-14 1.00D-09 XBig12= 1.59D-01 7.23D-02.
    114 vectors produced by pass  2 Test12= 8.76D-14 1.00D-09 XBig12= 2.15D-03 8.60D-03.
    114 vectors produced by pass  3 Test12= 8.76D-14 1.00D-09 XBig12= 3.98D-05 7.71D-04.
    114 vectors produced by pass  4 Test12= 8.76D-14 1.00D-09 XBig12= 4.42D-07 5.88D-05.
    114 vectors produced by pass  5 Test12= 8.76D-14 1.00D-09 XBig12= 3.10D-09 4.64D-06.
    113 vectors produced by pass  6 Test12= 8.76D-14 1.00D-09 XBig12= 7.93D-11 5.47D-07.
    102 vectors produced by pass  7 Test12= 8.76D-14 1.00D-09 XBig12= 1.48D-11 2.65D-07.
     74 vectors produced by pass  8 Test12= 8.76D-14 1.00D-09 XBig12= 1.71D-12 6.69D-08.
     32 vectors produced by pass  9 Test12= 8.76D-14 1.00D-09 XBig12= 2.40D-14 8.30D-09.
      1 vectors produced by pass 10 Test12= 8.76D-14 1.00D-09 XBig12= 2.57D-16 1.01D-09.
 InvSVY:  IOpt=1 It=  1 EMax= 8.88D-16
 Solved reduced A of dimension  1006 with   120 vectors.
 End of Minotr F.D. properties file   721 does not exist.
 End of Minotr F.D. properties file   722 does not exist.
 End of Minotr F.D. properties file   788 does not exist.

 **********************************************************************

            Population analysis using the SCF Density.

 **********************************************************************

 Orbital symmetries:
 Alpha Orbitals:
       Occupied  (A) (A) (A) (A) (A) (A) (A) (A) (A) (A) (A) (A)
                 (A) (A) (A) (A) (A) (A) (A) (A) (A) (A) (A) (A)
                 (A) (A) (A) (A) (A) (A) (A) (A) (A) (A) (A) (A)
                 (A) (A) (A) (A) (A) (A) (A) (A) (A) (A) (A) (A)
                 (A) (A) (A) (A) (A) (A) (A) (A) (A) (A) (A) (A)
                 (A) (A) (A) (A) (A) (A) (A) (A) (A) (A) (A) (A)
                 (A) (A) (A) (A) (A) (A) (A) (A) (A) (A) (A)
       Virtual   (A) (A) (A) (A) (A) (A) (A) (A) (A) (A) (A) (A)
                 (A) (A) (A) (A) (A) (A) (A) (A) (A) (A) (A) (A)
                 (A) (A) (A) (A) (A) (A) (A) (A) (A) (A) (A) (A)
                 (A) (A) (A) (A) (A) (A) (A) (A) (A) (A) (A) (A)
                 (A) (A) (A) (A) (A) (A) (A) (A) (A) (A) (A) (A)
                 (A) (A) (A) (A) (A) (A) (A) (A) (A) (A) (A) (A)
                 (A) (A) (A) (A) (A) (A) (A) (A) (A) (A) (A) (A)
                 (A) (A) (A) (A) (A) (A) (A) (A) (A) (A) (A) (A)
                 (A) (A) (A) (A) (A) (A) (A) (A) (A) (A) (A) (A)
                 (A) (A) (A) (A) (A) (A) (A) (A) (A) (A) (A) (A)
                 (A) (A) (A) (A) (A) (A) (A) (A) (A) (A) (A) (A)
                 (A) (A) (A) (A) (A) (A) (A) (A) (A) (A) (A) (A)
                 (A) (A) (A) (A) (A) (A) (A) (A) (A) (A) (A) (A)
                 (A) (A) (A) (A) (A) (A) (A) (A) (A) (A) (A) (A)
                 (A) (A) (A) (A) (A) (A) (A) (A) (A) (A) (A) (A)
                 (A) (A) (A) (A) (A) (A) (A) (A) (A) (A) (A) (A)
                 (A) (A) (A) (A) (A) (A) (A) (A) (A) (A) (A) (A)
                 (A) (A) (A) (A) (A) (A) (A) (A) (A) (A) (A) (A)
                 (A) (A) (A) (A) (A) (A) (A) (A) (A) (A) (A) (A)
                 (A) (A) (A) (A) (A) (A) (A) (A) (A) (A) (A) (A)
                 (A) (A) (A) (A) (A) (A) (A) (A) (A) (A) (A) (A)
                 (A) (A) (A) (A) (A) (A) (A) (A) (A) (A) (A) (A)
                 (A) (A) (A) (A) (A) (A) (A) (A) (A) (A) (A) (A)
                 (A) (A) (A) (A) (A) (A) (A) (A) (A) (A) (A) (A)
                 (A) (A) (A) (A) (A) (A) (A) (A) (A) (A) (A) (A)
                 (A) (A) (A) (A) (A) (A) (A) (A) (A) (A) (A) (A)
                 (A) (A) (A) (A) (A) (A) (A) (A) (A) (A) (A) (A)
                 (A) (A) (A) (A) (A) (A) (A) (A) (A) (A) (A) (A)
                 (A) (A) (A) (A) (A) (A) (A) (A) (A) (A) (A) (A)
                 (A) (A) (A) (A) (A) (A) (A) (A) (A) (A) (A) (A)
                 (A) (A) (A) (A) (A) (A) (A) (A) (A) (A) (A) (A)
                 (A) (A) (A) (A) (A) (A) (A) (A) (A) (A) (A) (A)
                 (A) (A) (A) (A) (A) (A) (A) (A) (A) (A) (A) (A)
                 (A) (A) (A) (A) (A) (A) (A) (A) (A) (A) (A) (A)
                 (A) (A) (A) (A) (A) (A) (A) (A) (A) (A) (A) (A)
                 (A) (A) (A) (A) (A) (A) (A) (A) (A) (A) (A) (A)
                 (A) (A) (A) (A) (A) (A) (A) (A) (A) (A) (A) (A)
                 (A) (A) (A) (A) (A) (A) (A) (A) (A) (A) (A) (A)
                 (A) (A) (A) (A) (A) (A) (A) (A) (A) (A) (A) (A)
                 (A) (A) (A) (A) (A) (A) (A) (A) (A) (A) (A) (A)
                 (A) (A) (A) (A) (A) (A) (A) (A) (A) (A) (A) (A)
                 (A) (A) (A) (A) (A) (A) (A) (A) (A) (A) (A) (A)
                 (A) (A) (A) (A) (A) (A) (A) (A) (A) (A) (A) (A)
                 (A) (A) (A) (A) (A) (A) (A) (A) (A) (A) (A) (A)
                 (A) (A) (A) (A) (A)
 Beta  Orbitals:
       Occupied  (A) (A) (A) (A) (A) (A) (A) (A) (A) (A) (A) (A)
                 (A) (A) (A) (A) (A) (A) (A) (A) (A) (A) (A) (A)
                 (A) (A) (A) (A) (A) (A) (A) (A) (A) (A) (A) (A)
                 (A) (A) (A) (A) (A) (A) (A) (A) (A) (A) (A) (A)
                 (A) (A) (A) (A) (A) (A) (A) (A) (A) (A) (A) (A)
                 (A) (A) (A) (A) (A) (A) (A) (A) (A) (A) (A) (A)
                 (A) (A) (A) (A) (A) (A) (A) (A) (A)
       Virtual   (A) (A) (A) (A) (A) (A) (A) (A) (A) (A) (A) (A)
                 (A) (A) (A) (A) (A) (A) (A) (A) (A) (A) (A) (A)
                 (A) (A) (A) (A) (A) (A) (A) (A) (A) (A) (A) (A)
                 (A) (A) (A) (A) (A) (A) (A) (A) (A) (A) (A) (A)
                 (A) (A) (A) (A) (A) (A) (A) (A) (A) (A) (A) (A)
                 (A) (A) (A) (A) (A) (A) (A) (A) (A) (A) (A) (A)
                 (A) (A) (A) (A) (A) (A) (A) (A) (A) (A) (A) (A)
                 (A) (A) (A) (A) (A) (A) (A) (A) (A) (A) (A) (A)
                 (A) (A) (A) (A) (A) (A) (A) (A) (A) (A) (A) (A)
                 (A) (A) (A) (A) (A) (A) (A) (A) (A) (A) (A) (A)
                 (A) (A) (A) (A) (A) (A) (A) (A) (A) (A) (A) (A)
                 (A) (A) (A) (A) (A) (A) (A) (A) (A) (A) (A) (A)
                 (A) (A) (A) (A) (A) (A) (A) (A) (A) (A) (A) (A)
                 (A) (A) (A) (A) (A) (A) (A) (A) (A) (A) (A) (A)
                 (A) (A) (A) (A) (A) (A) (A) (A) (A) (A) (A) (A)
                 (A) (A) (A) (A) (A) (A) (A) (A) (A) (A) (A) (A)
                 (A) (A) (A) (A) (A) (A) (A) (A) (A) (A) (A) (A)
                 (A) (A) (A) (A) (A) (A) (A) (A) (A) (A) (A) (A)
                 (A) (A) (A) (A) (A) (A) (A) (A) (A) (A) (A) (A)
                 (A) (A) (A) (A) (A) (A) (A) (A) (A) (A) (A) (A)
                 (A) (A) (A) (A) (A) (A) (A) (A) (A) (A) (A) (A)
                 (A) (A) (A) (A) (A) (A) (A) (A) (A) (A) (A) (A)
                 (A) (A) (A) (A) (A) (A) (A) (A) (A) (A) (A) (A)
                 (A) (A) (A) (A) (A) (A) (A) (A) (A) (A) (A) (A)
                 (A) (A) (A) (A) (A) (A) (A) (A) (A) (A) (A) (A)
                 (A) (A) (A) (A) (A) (A) (A) (A) (A) (A) (A) (A)
                 (A) (A) (A) (A) (A) (A) (A) (A) (A) (A) (A) (A)
                 (A) (A) (A) (A) (A) (A) (A) (A) (A) (A) (A) (A)
                 (A) (A) (A) (A) (A) (A) (A) (A) (A) (A) (A) (A)
                 (A) (A) (A) (A) (A) (A) (A) (A) (A) (A) (A) (A)
                 (A) (A) (A) (A) (A) (A) (A) (A) (A) (A) (A) (A)
                 (A) (A) (A) (A) (A) (A) (A) (A) (A) (A) (A) (A)
                 (A) (A) (A) (A) (A) (A) (A) (A) (A) (A) (A) (A)
                 (A) (A) (A) (A) (A) (A) (A) (A) (A) (A) (A) (A)
                 (A) (A) (A) (A) (A) (A) (A) (A) (A) (A) (A) (A)
                 (A) (A) (A) (A) (A) (A) (A) (A) (A) (A) (A) (A)
                 (A) (A) (A) (A) (A) (A) (A) (A) (A) (A) (A) (A)
                 (A) (A) (A) (A) (A) (A) (A) (A) (A) (A) (A) (A)
                 (A) (A) (A) (A) (A) (A) (A) (A) (A) (A) (A) (A)
                 (A) (A) (A) (A) (A) (A) (A) (A) (A) (A) (A) (A)
                 (A) (A) (A) (A) (A) (A) (A) (A) (A) (A) (A) (A)
                 (A) (A) (A) (A) (A) (A) (A) (A) (A) (A) (A) (A)
                 (A) (A) (A) (A) (A) (A) (A) (A) (A) (A) (A) (A)
                 (A) (A) (A) (A) (A) (A) (A) (A) (A) (A) (A) (A)
                 (A) (A) (A) (A) (A) (A) (A)
 The electronic state is 3-A.
 Alpha  occ. eigenvalues --  -10.22465 -10.21045 -10.20840 -10.20216 -10.19874
 Alpha  occ. eigenvalues --  -10.19748 -10.19668 -10.19177 -10.19134 -10.19060
 Alpha  occ. eigenvalues --  -10.18996 -10.18980 -10.18928 -10.18867 -10.18814
 Alpha  occ. eigenvalues --  -10.18799 -10.18707 -10.18575 -10.18471 -10.18469
 Alpha  occ. eigenvalues --  -10.18290 -10.18166 -10.18140 -10.17282 -10.17060
 Alpha  occ. eigenvalues --   -0.91818  -0.89171  -0.86203  -0.84833  -0.83413
 Alpha  occ. eigenvalues --   -0.81127  -0.79419  -0.78380  -0.75853  -0.75294
 Alpha  occ. eigenvalues --   -0.73636  -0.71557  -0.69105  -0.66497  -0.64800
 Alpha  occ. eigenvalues --   -0.63149  -0.62406  -0.59723  -0.59246  -0.56988
 Alpha  occ. eigenvalues --   -0.55859  -0.52888  -0.52453  -0.51501  -0.50433
 Alpha  occ. eigenvalues --   -0.49154  -0.48027  -0.47310  -0.46676  -0.45549
 Alpha  occ. eigenvalues --   -0.44454  -0.44092  -0.43830  -0.42431  -0.42046
 Alpha  occ. eigenvalues --   -0.41891  -0.41466  -0.40945  -0.39828  -0.39694
 Alpha  occ. eigenvalues --   -0.38469  -0.37700  -0.36863  -0.36323  -0.35936
 Alpha  occ. eigenvalues --   -0.35108  -0.35001  -0.33906  -0.33193  -0.32486
 Alpha  occ. eigenvalues --   -0.30176  -0.29800  -0.27097  -0.26289  -0.23968
 Alpha  occ. eigenvalues --   -0.21843  -0.20906  -0.17503
 Alpha virt. eigenvalues --   -0.07427  -0.05833  -0.04451  -0.02665  -0.00070
 Alpha virt. eigenvalues --    0.00436   0.00480   0.00598   0.01671   0.01699
 Alpha virt. eigenvalues --    0.01778   0.03148   0.03217   0.03429   0.03529
 Alpha virt. eigenvalues --    0.04261   0.04850   0.05083   0.05185   0.05847
 Alpha virt. eigenvalues --    0.06350   0.06631   0.07300   0.07493   0.07601
 Alpha virt. eigenvalues --    0.07798   0.08075   0.08512   0.08857   0.09540
 Alpha virt. eigenvalues --    0.10161   0.10243   0.10405   0.10655   0.11841
 Alpha virt. eigenvalues --    0.12194   0.12532   0.12601   0.12820   0.13202
 Alpha virt. eigenvalues --    0.13465   0.13673   0.14291   0.14434   0.14542
 Alpha virt. eigenvalues --    0.15034   0.15557   0.15764   0.16005   0.16283
 Alpha virt. eigenvalues --    0.16418   0.16944   0.17287   0.17496   0.17657
 Alpha virt. eigenvalues --    0.17782   0.17939   0.18404   0.18466   0.18673
 Alpha virt. eigenvalues --    0.18700   0.19414   0.19586   0.19694   0.20008
 Alpha virt. eigenvalues --    0.20419   0.20637   0.20906   0.21518   0.21646
 Alpha virt. eigenvalues --    0.21879   0.21977   0.22068   0.22441   0.22664
 Alpha virt. eigenvalues --    0.22982   0.23318   0.23551   0.23884   0.24113
 Alpha virt. eigenvalues --    0.24269   0.24722   0.24875   0.24916   0.25408
 Alpha virt. eigenvalues --    0.25995   0.26041   0.26427   0.26725   0.27044
 Alpha virt. eigenvalues --    0.27207   0.27926   0.28047   0.28269   0.28727
 Alpha virt. eigenvalues --    0.29043   0.29254   0.29537   0.29857   0.30204
 Alpha virt. eigenvalues --    0.30362   0.30939   0.31161   0.31641   0.32063
 Alpha virt. eigenvalues --    0.32731   0.33048   0.33323   0.33488   0.33881
 Alpha virt. eigenvalues --    0.34807   0.35128   0.35799   0.36509   0.36933
 Alpha virt. eigenvalues --    0.37718   0.38125   0.38716   0.39202   0.39460
 Alpha virt. eigenvalues --    0.40294   0.41698   0.41946   0.43494   0.44281
 Alpha virt. eigenvalues --    0.44490   0.44879   0.45774   0.46504   0.46991
 Alpha virt. eigenvalues --    0.47196   0.47754   0.48684   0.50249   0.50665
 Alpha virt. eigenvalues --    0.52072   0.52287   0.52626   0.53330   0.53601
 Alpha virt. eigenvalues --    0.53864   0.54171   0.54470   0.54936   0.55379
 Alpha virt. eigenvalues --    0.55885   0.56204   0.56451   0.57048   0.57228
 Alpha virt. eigenvalues --    0.57408   0.58129   0.58366   0.58545   0.58903
 Alpha virt. eigenvalues --    0.59461   0.59776   0.60332   0.60538   0.60722
 Alpha virt. eigenvalues --    0.61117   0.61522   0.62408   0.63307   0.63419
 Alpha virt. eigenvalues --    0.64322   0.64548   0.64835   0.65263   0.65306
 Alpha virt. eigenvalues --    0.65853   0.66737   0.67064   0.67359   0.68186
 Alpha virt. eigenvalues --    0.68857   0.69969   0.70082   0.70541   0.71106
 Alpha virt. eigenvalues --    0.71294   0.71447   0.72021   0.72466   0.72675
 Alpha virt. eigenvalues --    0.73027   0.73479   0.73970   0.74289   0.74870
 Alpha virt. eigenvalues --    0.75199   0.75615   0.75813   0.77260   0.77561
 Alpha virt. eigenvalues --    0.77859   0.78024   0.79652   0.80760   0.81544
 Alpha virt. eigenvalues --    0.83256   0.84087   0.84697   0.85117   0.85521
 Alpha virt. eigenvalues --    0.86227   0.86707   0.87732   0.88125   0.89462
 Alpha virt. eigenvalues --    0.89694   0.89990   0.90756   0.91615   0.91996
 Alpha virt. eigenvalues --    0.92376   0.93597   0.93857   0.94620   0.94822
 Alpha virt. eigenvalues --    0.95193   0.95512   0.96587   0.96960   0.97487
 Alpha virt. eigenvalues --    0.97694   0.97863   0.98755   0.99546   0.99890
 Alpha virt. eigenvalues --    1.00749   1.01424   1.01640   1.01982   1.02792
 Alpha virt. eigenvalues --    1.03390   1.04368   1.04704   1.04901   1.05750
 Alpha virt. eigenvalues --    1.06187   1.06836   1.07277   1.07876   1.08684
 Alpha virt. eigenvalues --    1.09368   1.10020   1.10556   1.12708   1.13221
 Alpha virt. eigenvalues --    1.13992   1.14094   1.14852   1.15663   1.16295
 Alpha virt. eigenvalues --    1.17718   1.18352   1.20397   1.21792   1.25650
 Alpha virt. eigenvalues --    1.26044   1.27468   1.29402   1.32187   1.32763
 Alpha virt. eigenvalues --    1.33576   1.34844   1.36116   1.39350   1.40504
 Alpha virt. eigenvalues --    1.41964   1.42596   1.44456   1.45183   1.45518
 Alpha virt. eigenvalues --    1.46380   1.46622   1.47517   1.48147   1.48626
 Alpha virt. eigenvalues --    1.48792   1.49577   1.49965   1.50286   1.50866
 Alpha virt. eigenvalues --    1.51410   1.54009   1.54448   1.55244   1.55390
 Alpha virt. eigenvalues --    1.55937   1.56140   1.56564   1.57436   1.58349
 Alpha virt. eigenvalues --    1.59798   1.60033   1.61578   1.63151   1.63600
 Alpha virt. eigenvalues --    1.64274   1.64409   1.66165   1.67480   1.67837
 Alpha virt. eigenvalues --    1.68970   1.70108   1.70732   1.71272   1.72264
 Alpha virt. eigenvalues --    1.72928   1.73332   1.74002   1.74632   1.75424
 Alpha virt. eigenvalues --    1.75930   1.76560   1.77253   1.78798   1.79275
 Alpha virt. eigenvalues --    1.80886   1.81287   1.82021   1.82677   1.83049
 Alpha virt. eigenvalues --    1.84467   1.85146   1.85411   1.86094   1.86563
 Alpha virt. eigenvalues --    1.87775   1.88866   1.89688   1.89784   1.89865
 Alpha virt. eigenvalues --    1.90872   1.91884   1.92356   1.92977   1.93149
 Alpha virt. eigenvalues --    1.93399   1.93732   1.95380   1.95912   1.98258
 Alpha virt. eigenvalues --    1.98712   1.99417   1.99622   2.01080   2.01617
 Alpha virt. eigenvalues --    2.02938   2.04339   2.05046   2.05161   2.06015
 Alpha virt. eigenvalues --    2.06746   2.07553   2.09216   2.10278   2.10868
 Alpha virt. eigenvalues --    2.11783   2.12712   2.13536   2.14608   2.14819
 Alpha virt. eigenvalues --    2.15503   2.16432   2.19982   2.20760   2.21216
 Alpha virt. eigenvalues --    2.22135   2.23105   2.24341   2.25709   2.26668
 Alpha virt. eigenvalues --    2.29543   2.30901   2.32089   2.33363   2.35977
 Alpha virt. eigenvalues --    2.36829   2.37560   2.40113   2.40548   2.43676
 Alpha virt. eigenvalues --    2.44091   2.44759   2.45422   2.45886   2.46396
 Alpha virt. eigenvalues --    2.48710   2.49840   2.52657   2.55972   2.56606
 Alpha virt. eigenvalues --    2.57063   2.58857   2.59694   2.60973   2.62727
 Alpha virt. eigenvalues --    2.62922   2.64235   2.65641   2.66687   2.67797
 Alpha virt. eigenvalues --    2.68903   2.69598   2.70466   2.71170   2.72105
 Alpha virt. eigenvalues --    2.73163   2.73399   2.73534   2.74216   2.74699
 Alpha virt. eigenvalues --    2.75765   2.75832   2.76197   2.76440   2.76799
 Alpha virt. eigenvalues --    2.76971   2.77698   2.79268   2.79783   2.80642
 Alpha virt. eigenvalues --    2.81006   2.81326   2.82673   2.83686   2.84274
 Alpha virt. eigenvalues --    2.84773   2.85358   2.85702   2.87868   2.88383
 Alpha virt. eigenvalues --    2.88628   2.89253   2.90804   2.91531   2.92372
 Alpha virt. eigenvalues --    2.94567   2.96887   2.97681   2.99135   3.00833
 Alpha virt. eigenvalues --    3.02107   3.02749   3.05005   3.08004   3.11232
 Alpha virt. eigenvalues --    3.12389   3.13288   3.14489   3.16516   3.19761
 Alpha virt. eigenvalues --    3.20813   3.23354   3.24542   3.25250   3.28074
 Alpha virt. eigenvalues --    3.29096   3.33208   3.34835   3.35750   3.37267
 Alpha virt. eigenvalues --    3.39178   3.40437   3.41194   3.41679   3.44588
 Alpha virt. eigenvalues --    3.45230   3.48025   3.49568   3.50366   3.52607
 Alpha virt. eigenvalues --    3.52697   3.55234   3.56660   3.58492   3.60758
 Alpha virt. eigenvalues --    3.61530   3.67293   3.67794   3.71117   3.73398
 Alpha virt. eigenvalues --    3.80920   3.83357   3.89177   3.98866   4.04256
 Alpha virt. eigenvalues --    4.05350   4.07103   4.07662   4.09484   4.12482
 Alpha virt. eigenvalues --    4.13151   4.23538   4.28065   4.33293   4.37977
 Alpha virt. eigenvalues --    4.58841   4.77248   4.78640   4.79217   4.81470
 Alpha virt. eigenvalues --    4.82052   4.84274   4.88454  23.40277  23.63202
 Alpha virt. eigenvalues --   23.73853  23.77753  23.81758  23.85535  23.87928
 Alpha virt. eigenvalues --   23.91780  23.93990  23.94495  23.95692  23.98694
 Alpha virt. eigenvalues --   23.98947  24.00065  24.02807  24.04469  24.07769
 Alpha virt. eigenvalues --   24.08590  24.10616  24.14696  24.15846  24.17825
 Alpha virt. eigenvalues --   24.17889  24.19251  24.23167
  Beta  occ. eigenvalues --  -10.22642 -10.20813 -10.20761 -10.19760 -10.19735
  Beta  occ. eigenvalues --  -10.19636 -10.19372 -10.19247 -10.19166 -10.19124
  Beta  occ. eigenvalues --  -10.18988 -10.18942 -10.18838 -10.18727 -10.18630
  Beta  occ. eigenvalues --  -10.18592 -10.18584 -10.18566 -10.18528 -10.18332
  Beta  occ. eigenvalues --  -10.18304 -10.18226 -10.18109 -10.17208 -10.16980
  Beta  occ. eigenvalues --   -0.91559  -0.88900  -0.85933  -0.84486  -0.83238
  Beta  occ. eigenvalues --   -0.80699  -0.79221  -0.78106  -0.75639  -0.75099
  Beta  occ. eigenvalues --   -0.73352  -0.71424  -0.68244  -0.66329  -0.64608
  Beta  occ. eigenvalues --   -0.62979  -0.62221  -0.59483  -0.58995  -0.56844
  Beta  occ. eigenvalues --   -0.55688  -0.52722  -0.52290  -0.51428  -0.50260
  Beta  occ. eigenvalues --   -0.49006  -0.47851  -0.47214  -0.46556  -0.45365
  Beta  occ. eigenvalues --   -0.44365  -0.43749  -0.43106  -0.42352  -0.41872
  Beta  occ. eigenvalues --   -0.41398  -0.40825  -0.40716  -0.39630  -0.39606
  Beta  occ. eigenvalues --   -0.37556  -0.37404  -0.36745  -0.35783  -0.35370
  Beta  occ. eigenvalues --   -0.34939  -0.34216  -0.33812  -0.33077  -0.31054
  Beta  occ. eigenvalues --   -0.29319  -0.29057  -0.25740  -0.25555  -0.23058
  Beta  occ. eigenvalues --   -0.20840
  Beta virt. eigenvalues --   -0.11488  -0.09350  -0.06257  -0.04156  -0.03546
  Beta virt. eigenvalues --   -0.02109   0.00063   0.00483   0.00611   0.00993
  Beta virt. eigenvalues --    0.01702   0.01794   0.02406   0.03161   0.03233
  Beta virt. eigenvalues --    0.03537   0.03669   0.04519   0.04932   0.05129
  Beta virt. eigenvalues --    0.05235   0.05927   0.06559   0.06965   0.07490
  Beta virt. eigenvalues --    0.07616   0.07782   0.07967   0.08322   0.08609
  Beta virt. eigenvalues --    0.09041   0.09855   0.10225   0.10286   0.10647
  Beta virt. eigenvalues --    0.10969   0.12139   0.12344   0.12682   0.12731
  Beta virt. eigenvalues --    0.12875   0.13280   0.13567   0.13878   0.14344
  Beta virt. eigenvalues --    0.14588   0.14835   0.15347   0.15706   0.16046
  Beta virt. eigenvalues --    0.16171   0.16397   0.16497   0.17066   0.17415
  Beta virt. eigenvalues --    0.17569   0.17685   0.17934   0.18046   0.18474
  Beta virt. eigenvalues --    0.18592   0.18929   0.19116   0.19581   0.19706
  Beta virt. eigenvalues --    0.19986   0.20063   0.20455   0.20950   0.21110
  Beta virt. eigenvalues --    0.21726   0.21844   0.21957   0.22039   0.22252
  Beta virt. eigenvalues --    0.22545   0.22752   0.23157   0.23540   0.23806
  Beta virt. eigenvalues --    0.23979   0.24258   0.24439   0.24825   0.24993
  Beta virt. eigenvalues --    0.25076   0.25505   0.26079   0.26240   0.26645
  Beta virt. eigenvalues --    0.26791   0.27131   0.27344   0.28027   0.28221
  Beta virt. eigenvalues --    0.28407   0.28814   0.29138   0.29330   0.29628
  Beta virt. eigenvalues --    0.29994   0.30326   0.30543   0.31057   0.31282
  Beta virt. eigenvalues --    0.31906   0.32195   0.32848   0.33065   0.33416
  Beta virt. eigenvalues --    0.33557   0.33999   0.34904   0.35242   0.35851
  Beta virt. eigenvalues --    0.36758   0.37275   0.37828   0.38380   0.38830
  Beta virt. eigenvalues --    0.39293   0.39641   0.40405   0.41866   0.42060
  Beta virt. eigenvalues --    0.43644   0.44368   0.44563   0.45050   0.46243
  Beta virt. eigenvalues --    0.47150   0.47312   0.47849   0.48781   0.49370
  Beta virt. eigenvalues --    0.50410   0.50904   0.52363   0.52414   0.52829
  Beta virt. eigenvalues --    0.53612   0.53718   0.54040   0.54585   0.54718
  Beta virt. eigenvalues --    0.55183   0.55653   0.56284   0.56452   0.56624
  Beta virt. eigenvalues --    0.57129   0.57373   0.57943   0.58395   0.58566
  Beta virt. eigenvalues --    0.58810   0.59147   0.59563   0.60020   0.60678
  Beta virt. eigenvalues --    0.60735   0.60957   0.61365   0.61986   0.62501
  Beta virt. eigenvalues --    0.63502   0.63603   0.64426   0.64673   0.64928
  Beta virt. eigenvalues --    0.65480   0.65527   0.66238   0.66798   0.67300
  Beta virt. eigenvalues --    0.67869   0.68452   0.69228   0.70205   0.70443
  Beta virt. eigenvalues --    0.70952   0.71271   0.71498   0.71527   0.72231
  Beta virt. eigenvalues --    0.72676   0.72849   0.73266   0.73567   0.74186
  Beta virt. eigenvalues --    0.74527   0.74995   0.75379   0.75727   0.76133
  Beta virt. eigenvalues --    0.77457   0.77828   0.78051   0.78329   0.79953
  Beta virt. eigenvalues --    0.80876   0.81570   0.83366   0.84319   0.85196
  Beta virt. eigenvalues --    0.85379   0.85678   0.86551   0.86930   0.87879
  Beta virt. eigenvalues --    0.88266   0.89661   0.89875   0.90300   0.91014
  Beta virt. eigenvalues --    0.91865   0.92221   0.92509   0.93771   0.94094
  Beta virt. eigenvalues --    0.94728   0.95151   0.95418   0.95758   0.96776
  Beta virt. eigenvalues --    0.97338   0.97726   0.98019   0.98202   0.98982
  Beta virt. eigenvalues --    0.99754   1.00260   1.01087   1.01632   1.01985
  Beta virt. eigenvalues --    1.02107   1.03069   1.03718   1.04836   1.04987
  Beta virt. eigenvalues --    1.05335   1.06026   1.06361   1.07407   1.07630
  Beta virt. eigenvalues --    1.08124   1.08851   1.09630   1.10477   1.10922
  Beta virt. eigenvalues --    1.12907   1.13501   1.14234   1.14596   1.15112
  Beta virt. eigenvalues --    1.15963   1.16602   1.17843   1.18607   1.20518
  Beta virt. eigenvalues --    1.22048   1.25963   1.26468   1.27901   1.29650
  Beta virt. eigenvalues --    1.32524   1.33031   1.33878   1.35188   1.36801
  Beta virt. eigenvalues --    1.39897   1.40633   1.42135   1.42933   1.44587
  Beta virt. eigenvalues --    1.45519   1.45976   1.46735   1.47300   1.47812
  Beta virt. eigenvalues --    1.48482   1.48920   1.48993   1.49780   1.50237
  Beta virt. eigenvalues --    1.50601   1.51461   1.51718   1.54420   1.54828
  Beta virt. eigenvalues --    1.55478   1.55684   1.56218   1.56386   1.56842
  Beta virt. eigenvalues --    1.57836   1.59149   1.60046   1.60223   1.62146
  Beta virt. eigenvalues --    1.63413   1.63892   1.64629   1.65270   1.66583
  Beta virt. eigenvalues --    1.68007   1.68752   1.69518   1.70868   1.71592
  Beta virt. eigenvalues --    1.71712   1.72594   1.73522   1.73910   1.74504
  Beta virt. eigenvalues --    1.74917   1.75996   1.77018   1.77573   1.77789
  Beta virt. eigenvalues --    1.79478   1.80033   1.81217   1.82067   1.82581
  Beta virt. eigenvalues --    1.83004   1.83357   1.85025   1.85394   1.85737
  Beta virt. eigenvalues --    1.86756   1.87327   1.88402   1.89222   1.89926
  Beta virt. eigenvalues --    1.90163   1.90557   1.91687   1.92406   1.92620
  Beta virt. eigenvalues --    1.93250   1.93370   1.93739   1.93939   1.95518
  Beta virt. eigenvalues --    1.96391   1.98721   1.98926   1.99702   1.99902
  Beta virt. eigenvalues --    2.01264   2.02051   2.03983   2.04805   2.05419
  Beta virt. eigenvalues --    2.05711   2.06503   2.07078   2.08659   2.09487
  Beta virt. eigenvalues --    2.10678   2.11152   2.12070   2.13447   2.13781
  Beta virt. eigenvalues --    2.14964   2.15324   2.15805   2.16710   2.20262
  Beta virt. eigenvalues --    2.21239   2.21452   2.22302   2.23474   2.24736
  Beta virt. eigenvalues --    2.26024   2.26924   2.29889   2.31178   2.32444
  Beta virt. eigenvalues --    2.33423   2.36130   2.37116   2.37776   2.40333
  Beta virt. eigenvalues --    2.40633   2.43999   2.44313   2.45106   2.45514
  Beta virt. eigenvalues --    2.46141   2.46529   2.49046   2.50145   2.53727
  Beta virt. eigenvalues --    2.56118   2.56769   2.58190   2.59465   2.61007
  Beta virt. eigenvalues --    2.61692   2.62998   2.64258   2.65072   2.65875
  Beta virt. eigenvalues --    2.67052   2.68056   2.69346   2.69917   2.70571
  Beta virt. eigenvalues --    2.71235   2.72141   2.73244   2.73563   2.74170
  Beta virt. eigenvalues --    2.74262   2.75247   2.75953   2.76149   2.76413
  Beta virt. eigenvalues --    2.76658   2.77162   2.77727   2.78240   2.79507
  Beta virt. eigenvalues --    2.79919   2.81007   2.81106   2.81530   2.83026
  Beta virt. eigenvalues --    2.83852   2.84369   2.84948   2.85685   2.86489
  Beta virt. eigenvalues --    2.88037   2.88489   2.89237   2.89445   2.91376
  Beta virt. eigenvalues --    2.91824   2.92448   2.94962   2.97057   2.98346
  Beta virt. eigenvalues --    2.99255   3.01474   3.03087   3.04125   3.05239
  Beta virt. eigenvalues --    3.08476   3.11666   3.12575   3.13556   3.15866
  Beta virt. eigenvalues --    3.16710   3.19843   3.20911   3.23463   3.24601
  Beta virt. eigenvalues --    3.25376   3.28306   3.29198   3.33316   3.34934
  Beta virt. eigenvalues --    3.35832   3.37369   3.39223   3.40524   3.41250
  Beta virt. eigenvalues --    3.41786   3.44664   3.45319   3.48091   3.49643
  Beta virt. eigenvalues --    3.50453   3.52711   3.52846   3.55318   3.56742
  Beta virt. eigenvalues --    3.58610   3.60861   3.61638   3.67396   3.68169
  Beta virt. eigenvalues --    3.71227   3.73545   3.81122   3.83503   3.89258
  Beta virt. eigenvalues --    3.99035   4.04394   4.05499   4.07186   4.08019
  Beta virt. eigenvalues --    4.09614   4.12739   4.13347   4.23652   4.28253
  Beta virt. eigenvalues --    4.33548   4.38153   4.59140   4.77573   4.78803
  Beta virt. eigenvalues --    4.79594   4.81632   4.82257   4.84520   4.88547
  Beta virt. eigenvalues --   23.40351  23.63274  23.74044  23.77934  23.81789
  Beta virt. eigenvalues --   23.85587  23.88053  23.91892  23.93888  23.94619
  Beta virt. eigenvalues --   23.95794  23.98860  23.99245  24.00094  24.02870
  Beta virt. eigenvalues --   24.04782  24.07833  24.08654  24.10685  24.14739
  Beta virt. eigenvalues --   24.15875  24.17902  24.17958  24.19348  24.23162
          Condensed to atoms (all electrons):
               1          2          3          4          5          6
     1  C    9.511713   1.506961   0.199392   0.329320  -0.693161  -1.157598
     2  C    1.506961   6.802017   0.579916   0.025394  -0.207750   0.220133
     3  C    0.199392   0.579916   6.543688   0.669302   0.261147   0.331080
     4  C    0.329320   0.025394   0.669302  10.073794  -1.548422  -0.309027
     5  C   -0.693161  -0.207750   0.261147  -1.548422   8.772375   2.213124
     6  C   -1.157598   0.220133   0.331080  -0.309027   2.213124   9.063772
     7  C    0.151986  -0.632604   0.213127  -0.045460  -0.617041  -0.690784
     8  C   -0.212010  -0.032423   0.307496  -1.036877  -0.122623  -0.569076
     9  C   -0.653872  -0.464176  -1.035464  -0.189555  -0.011446  -0.525869
    10  C   -0.469795  -0.359886   0.585893   1.561250  -0.321491  -0.857801
    11  C   -0.087305  -0.175101  -0.165898  -0.788833   0.007267  -0.091001
    12  C   -0.100017   0.039072  -0.591415  -0.265084   0.006569  -0.047827
    13  C    0.029936   0.012368  -0.054857   0.096312  -0.046433  -0.110057
    14  C   -0.138065   0.065986  -0.979879  -1.066897  -0.174733  -0.458289
    15  C    0.012454  -0.278299   0.033490  -0.553955  -0.084349  -0.151291
    16  C    0.039495  -0.106595   0.222306   0.044352  -0.008316  -0.012095
    17  C   -0.003024  -0.016128  -0.055021  -0.039793  -0.000564  -0.005379
    18  C   -0.003988   0.019229  -0.095584  -0.047901  -0.001922  -0.007445
    19  C   -2.236830  -1.749440  -0.298651  -0.269298  -0.253079   0.095898
    20  C    0.491907   0.714215  -0.029359  -0.148832  -0.254265  -0.053859
    21  C    0.072974   0.328310   0.147135  -0.094555   0.190393   0.070398
    22  C   -0.547586   0.617313   0.050012  -0.889623  -0.504183  -0.254703
    23  C    0.016797  -0.077302  -0.338005  -0.666040  -0.447241  -0.515939
    24  H   -0.025784   0.033523  -0.007994   0.001910  -0.007921  -0.002008
    25  H   -0.007815  -0.008481  -0.000293   0.002542   0.005083   0.000120
    26  H   -0.064419   0.032535  -0.011660   0.002404   0.028940   0.013955
    27  H   -0.107200   0.004069  -0.001558   0.022568   0.380666  -0.028995
    28  H   -0.023789  -0.010771   0.006209  -0.070364  -0.056182   0.386040
    29  H    0.000303  -0.004987  -0.001753  -0.046458   0.012679   0.023828
    30  H    0.000898   0.001083   0.011327   0.060665   0.000637   0.010546
    31  H    0.000037   0.000189   0.001519   0.004798   0.000018   0.000405
    32  H   -0.000008  -0.000008  -0.000227   0.000210   0.000002   0.000022
    33  H    0.001213  -0.010969   0.012107  -0.017280  -0.000560  -0.002452
    34  H    0.000001   0.000183  -0.000429  -0.000102  -0.000000  -0.000006
    35  H    0.000002   0.000019   0.000096   0.000100   0.000000   0.000003
[...]
 00002538,0.00003173,0.00000019,0.00005838,-0.00000527,0.00000085,0.000
 00648,-0.00003291,0.00000025,-0.00004227,0.00001557,-0.00000048,-0.000
 13391,0.00002770,-0.00000250,0.00004764,0.00016733,-0.00000122,0.00025
 386,-0.00003148,-0.00000335,-0.00010482,0.00000970,0.00000524,0.000454
 98,-0.00060822,-0.00006270,0.00083019,-0.00549724,0.00004869,-0.001448
 89,0.00026472,0.00002615,-0.00007317,-0.00056786,0.00002309,0.00333762
 ,-0.00199438,0.00041193,0.01853795,0.01138565,0.00132932,-0.09932388,-
 0.10205468,-0.00540034,-0.03053162,-0.00643604,-0.00135339,0.00000340,
 0.00002601,0.00000312,-0.00002932,-0.00000835,-0.00000143,0.00002860,-
 0.00001175,0.00000018,-0.00004068,0.00001820,0.00000273,-0.00004497,-0
 .00017909,0.00000321,-0.00000097,0.00000365,-0.00000005,-0.00000102,0.
 00000108,0.,-0.00000295,0.00000063,0.,-0.00000283,-0.00000014,0.000000
 06,-0.00000088,-0.00000238,-0.00000002,0.00000582,0.00000307,-0.000000
 35,-0.00014287,-0.00007522,-0.00001873,0.00004728,-0.00004191,0.000000
 22,0.00047499,0.00100118,0.00002196,-0.00006327,-0.00001928,-0.0003199
 6,-0.00038067,0.00080559,-0.00000410,0.10741393,0.10341616,0.00001534,
 0.00002406,-0.00001066,-0.00003645,0.00000658,0.00000092,0.00003962,0.
 00001570,0.00007504,0.00005981,-0.00002054,-0.00001006,0.00001720,-0.0
 0002831,-0.00000357,-0.00003921,-0.00000003,0.00000134,-0.00004345,0.0
 0004870,-0.00002078,0.00012387,-0.00006104,-0.00089305,0.00012585,-0.0
 0002365,0.00009747,-0.00008359,-0.00002080,0.00004122,-0.00001068,-0.0
 0025744,-0.00058053,-0.00042711,-0.00021359,0.00743241,0.00003694,0.00
 019656,0.00010773,-0.00013905,-0.00005002,-0.00041577,-0.00000615,0.00
 057995,0.00706042,-0.00188004,-0.00042736,0.00332035,-0.01258579,-0.00
 607285,-0.03847282,0.00018234,0.00100196,0.00367014,0.00000475,0.00000
 208,0.00000044,-0.00000572,-0.00000294,-0.00000282,0.00000989,-0.00000
 448,-0.00000520,-0.00001233,0.00000080,0.00001710,-0.00001609,-0.00008
 172,-0.00003962,0.00000151,-0.00000179,0.00000378,0.00000036,-0.000000
 38,0.00000119,-0.00000010,-0.00000003,0.00000152,0.00000034,-0.0000007
 1,0.00000169,-0.00000022,0.00000070,0.00000118,0.00000061,-0.00000041,
 -0.00000357,-0.00000943,-0.00000317,0.00000854,-0.00000450,-0.00000128
 ,0.00007503,0.00015261,-0.00003160,-0.00393879,0.00018600,0.00004217,0
 .00006905,0.00030005,-0.00001166,-0.00396890,0.01445444,0.00527968,0.0
 2646535,-0.00704720,0.00205972,-0.00000471,-0.00488743,0.01443608,0.00
 031888,0.01304604,0.01308032,0.00042077,0.00627349,-0.00811218,-0.0000
 1013,0.00086607,-0.00180965,-0.00005254,-0.00191747,0.00095494,0.00000
 561,0.01989880,-0.02642110,-0.00150518,-0.00530921,0.00585997,0.000610
 36,-0.00129129,-0.00286273,-0.00011609,-0.00322095,0.00334305,-0.00003
 965,0.00172421,-0.01025538,-0.00111243,-0.00526577,0.00082292,-0.00046
 611,0.00038943,0.00087344,0.00015043,-0.00097223,0.00001460,-0.0000195
 4,-0.04817410,0.02739895,0.00401900,0.01763994,0.00344803,-0.00036684,
 -0.00452948,0.00798577,0.00012261,0.00241968,-0.00451830,0.00021853,0.
 00329385,-0.00214010,-0.00006044,-0.00014191,-0.00191397,-0.00005785,0
 .00742959,-0.00560629,-0.00023487,-0.04564910,-0.02966364,0.00020523,-
 0.14990969,-0.04832916,-0.00207247,0.00008984,0.00048423,-0.00000066,-
 0.00010438,0.00007304,0.00000754,0.00003028,-0.00006978,-0.00000252,0.
 00002728,-0.00011519,0.00000678,0.00021079,0.00010027,-0.00000838,-0.0
 0009331,0.00004968,0.00004782,-0.00007032,0.00003224,-0.00002859,0.000
 01009,-0.00003636,0.00002358,-0.00002859,0.00001807,-0.00008531,0.0005
 6231,-0.00157976,-0.00307931,0.00024894,-0.00005901,-0.00008534,-0.000
 18088,0.00025185,0.00011298,0.65957336,-0.00425417,0.00169612,-0.00005
 696,0.00457418,0.00822781,0.00007899,0.01085469,-0.00018507,0.00012757
 ,0.00071278,-0.00347479,0.00005512,0.00051573,-0.00055821,-0.00001743,
 -0.00023683,0.00011009,-0.00002124,-0.01608172,-0.04406575,-0.00205161
 ,-0.00341555,0.00540050,-0.00001240,-0.00281198,-0.00352202,0.00002083
 ,0.00047396,0.00200298,0.00000142,0.00007381,-0.00303559,-0.00035012,-
 0.00023758,0.00103126,-0.00012147,-0.00045682,-0.00008303,0.00003514,0
 .00031151,-0.00013782,-0.00000757,0.00896430,0.01937388,0.00155023,0.0
 0987077,-0.00420089,-0.00146191,-0.00141823,0.00627874,0.00018247,-0.0
 0021601,-0.00344763,0.00009495,0.00214956,-0.00038435,-0.00000390,-0.0
 0078448,-0.00184693,-0.00010111,0.00552856,-0.00178818,-0.00008221,-0.
 02140567,0.00530818,0.00094328,-0.10563169,-0.25012800,-0.00812474,0.0
 0083187,-0.00049188,0.00003528,0.00012623,0.00002572,0.00000608,0.0000
 2249,-0.00005258,0.00000207,0.00003518,0.00014693,0.00001441,-0.000096
 25,-0.00001000,-0.00000580,0.00000258,0.00001938,0.00001081,-0.0000552
 2,0.00001554,-0.00001232,0.00001305,-0.00002391,0.00000858,-0.00002406
 ,-0.00001353,-0.00006521,0.00083255,-0.00081160,-0.00148731,0.00043562
 ,0.00082410,-0.00005297,0.00033820,-0.00018359,0.00019263,-0.02069880,
 0.66219798,-0.00003193,-0.00011353,0.00084160,0.00026826,0.00007000,0.
 00235933,0.00011370,-0.00017796,0.00250503,-0.00027487,0.00008611,0.00
 068657,-0.00004596,0.00015182,-0.00016970,0.00016094,-0.00004832,-0.00
 010795,-0.00089084,-0.00095859,0.00175799,-0.00004492,0.00006814,-0.00
 042057,-0.00024279,-0.00015411,-0.00004223,0.00027877,0.00006278,-0.00
 014290,0.00013578,0.00071000,-0.00100635,0.00052713,0.00001102,-0.0000
 2052,-0.00012637,-0.00015525,-0.00003328,0.00022967,-0.00006179,0.0000
 2100,0.00348858,0.00044964,0.00372202,-0.00124286,-0.00084724,0.002352
 20,0.00020612,-0.00017245,0.00034429,-0.00031796,0.00004946,-0.0000782
 2,-0.00001040,0.00006128,-0.00010593,-0.00004446,-0.00007118,-0.000124
 83,0.00006329,0.00005977,-0.00065263,-0.00020755,0.00029137,0.00251788
 ,-0.00400559,-0.00865451,-0.05246776,0.00003350,-0.00003762,0.00003839
 ,0.00000878,-0.00000172,-0.00000300,-0.00000018,0.00000174,0.00006544,
 0.00000222,0.00000233,-0.00012895,-0.00000628,0.00000162,-0.00008263,0
 .00000244,0.00000208,0.00005252,-0.00000492,0.00000801,-0.00000068,-0.
 00000254,-0.00001182,0.00000972,-0.00000474,-0.00002123,0.00001066,0.0
 0098068,-0.00084733,-0.00161550,-0.00005286,0.00005253,-0.00009297,0.0
 0006608,-0.00005107,-0.00020926,-0.01898692,0.02830583,0.12601702,0.00
 589909,-0.00258399,-0.00001673,-0.00229100,-0.00933267,-0.00022627,-0.
 01064539,-0.00635098,-0.00022750,-0.00389427,0.00670665,-0.00003084,-0
 .00096730,0.00097028,0.00004080,0.00075156,-0.00035939,0.00001181,-0.0
 0248926,0.02320576,0.00090273,0.00255446,-0.00498091,-0.00003486,0.000
 55292,0.00322060,-0.00007502,0.00283086,-0.00194248,0.00002843,0.01122
 461,0.01147259,0.00146663,0.00499455,-0.00430848,0.00109978,0.00005672
 ,-0.00160735,-0.00000599,0.00171427,-0.00046646,0.00004660,-0.13177137
 ,0.03659589,-0.00702876,-0.06359358,0.02477535,0.00510398,0.00213602,-
 0.01275730,0.00000931,-0.00324414,0.00523174,-0.00050158,-0.00239780,0
 .00218587,0.00005297,-0.00066881,0.00045814,0.00003693,-0.00259944,0.0
 0300459,0.00015212,0.02065633,-0.00020435,-0.00070244,-0.06718152,-0.0
 7501939,-0.00151791,-0.00005656,0.00009303,0.00000613,0.00001710,-0.00
 004656,-0.00000897,-0.00004302,0.00007652,-0.00000086,-0.00001392,-0.0
 0005309,-0.00001005,-0.00005277,-0.00003166,0.00000505,0.00004575,-0.0
 0005836,-0.00002794,0.00003449,-0.00002496,0.00003461,-0.00001850,-0.0
 0033651,-0.00003983,0.00016601,0.00015400,0.00012643,-0.00189375,0.004
 01402,0.01421562,-0.00105944,0.00357826,-0.00008805,-0.00083330,0.0005
 2909,-0.00052715,-0.33062431,0.05780295,0.01340167,0.68816551,-0.00143
 190,0.00057403,0.00002999,-0.00056436,0.00073603,0.00004027,0.00107631
 ,0.00241734,0.00002800,0.00177354,-0.00258272,-0.00001228,0.00034687,-
 0.00014144,0.00001942,-0.00009230,-0.00004471,-0.00002302,-0.00075733,
 -0.00300551,-0.00015513,0.00109129,0.00248111,0.00036751,0.00175089,-0
 .00118968,0.00019044,-0.00233591,0.00015721,-0.00004846,0.02032015,-0.
 02428795,-0.00410135,-0.00681943,-0.00428661,-0.00038542,0.00192613,0.
 00101986,0.00023646,-0.00158439,0.00054400,-0.00002383,0.06653489,-0.1
 7268752,0.00233804,0.01408358,0.00931250,-0.00071915,-0.00596063,0.002
 13922,-0.00117015,0.00243760,-0.00179467,0.00035767,0.00035085,-0.0013
 6430,-0.00003460,0.00094264,0.00109303,0.00004677,-0.00117306,-0.00024
 520,0.00001126,-0.00072624,-0.00438554,-0.00036661,-0.03035304,0.01605
 515,0.00073333,-0.00038844,0.00035617,-0.00001294,-0.00005503,0.000019
 05,-0.00000174,0.00001092,-0.00001186,-0.00000401,-0.00001599,-0.00005
 007,-0.00000129,0.00004855,0.00001079,0.00000209,0.00001570,0.00006054
 ,0.00001268,-0.00006712,0.00002862,-0.00003923,-0.00004536,-0.00031913
 ,0.00001790,0.00001344,0.00004242,0.00003597,0.00189129,-0.00142534,-0
 .01118972,-0.00351845,-0.00030898,0.00045789,-0.00080590,0.00063034,-0
 .00008289,-0.02509671,-0.11946044,-0.00243873,0.04362906,0.58120065,-0
 .00050911,0.00002798,-0.00071643,0.00069879,-0.00086192,0.00021711,-0.
 00179780,-0.00065268,0.00015917,-0.00033378,0.00092534,0.00007803,-0.0
 0005667,0.00040467,-0.00004295,0.00018789,-0.00011419,-0.00001010,-0.0
 0023631,0.00291492,-0.00213701,0.00019719,-0.00037581,-0.00124509,-0.0
 0077489,-0.00034589,0.00013135,0.00112079,-0.00034269,0.00005429,-0.00
 441538,0.00532600,-0.00060878,0.00351550,0.00097016,0.00323065,-0.0002
 3797,-0.00042932,0.00027403,0.00045417,0.00018626,0.00004689,0.0154131
 2,-0.01270873,-0.04188305,-0.00658776,0.00100335,0.00474831,-0.0000641
 2,-0.00130856,0.00454077,-0.00195119,-0.00019246,-0.00029423,-0.000069
 40,-0.00048064,0.00010471,0.00022236,0.00015961,-0.00019760,-0.0002758
 5,-0.00010816,-0.00006250,0.00108600,-0.00031775,0.00506130,-0.0019598
 3,-0.00264778,0.00623110,-0.00001318,0.00002594,0.00001274,-0.00002580
 ,0.00000946,0.00000410,-0.00001087,-0.00000845,0.00002387,-0.00001961,
 -0.00001902,0.00005325,0.00000899,-0.00001329,0.00000785,0.00003190,0.
 00001271,-0.00004534,0.00002761,0.00001954,-0.00000910,-0.00001251,0.0
 0010992,-0.00001649,0.00001563,0.00000166,-0.00064645,0.00475734,-0.00
 466078,-0.01508054,0.00017032,-0.00011114,-0.00268467,-0.00018712,0.00
 006974,0.00003023,0.01648335,-0.00237350,-0.05128855,-0.02701791,0.021
 97225,0.12127728,-0.00009503,0.00010188,0.00000763,0.00018153,0.000253
 12,0.00001441,0.00069388,-0.00069413,-0.00001623,-0.00017820,-0.000157
 39,-0.00000625,0.00000311,-0.00002185,0.00000381,0.00003227,-0.0000371
 9,0.00000004,-0.00192294,-0.00273531,0.00005437,-0.00044844,0.00009565
 ,-0.00001739,0.00005257,-0.00011109,-0.00001126,-0.00000204,0.00005805
 ,0.00000038,-0.00009749,-0.00024455,0.00005845,0.00010303,0.00014810,-
 0.00007384,-0.00002837,-0.00000273,-0.00000903,-0.00003334,-0.00000521
 ,0.00000855,-0.00399284,-0.00183733,0.00013924,-0.00008265,0.00121368,
 0.00013849,-0.00046316,-0.00014672,-0.00009584,0.00002121,-0.00013826,
 0.00003589,0.00010520,0.00000318,-0.00000811,-0.00012870,0.00011905,0.
 00003141,0.00026741,-0.00054285,-0.00000762,-0.00032446,0.00009543,-0.
 00010372,0.01250235,-0.01677955,-0.00087961,-0.00050801,0.00021654,-0.
 00001869,0.00002606,-0.00000451,-0.00000156,0.00001023,0.00003533,-0.0
 0000252,0.00000539,0.00001214,-0.00000085,-0.00002956,-0.00000798,-0.0
 0000157,0.00000482,0.00000168,0.00000196,0.00001382,-0.00000144,-0.000
 00008,-0.00000291,0.00002308,0.00000241,-0.00000937,0.00001252,0.00000
 597,0.00008668,-0.00012642,-0.00029314,-0.00004533,-0.00011824,0.00001
 333,-0.00011435,0.00008576,-0.00001905,-0.10981919,0.10368574,0.006979
 10,-0.01387948,0.03011591,0.00271208,0.11775369,0.00010365,0.00005489,
 -0.00000607,-0.00009373,-0.00015531,-0.00003145,0.00091464,-0.00131563
 ,0.00004900,-0.00037078,-0.00006726,0.00005519,-0.00003602,-0.00004736
 ,-0.00000372,0.00006076,-0.00006916,-0.00000274,-0.00401206,-0.0007084
 8,-0.00057390,-0.00026261,0.00009267,0.00001068,0.00008242,-0.00005305
 ,0.00002426,-0.00003071,0.00000745,-0.00000686,-0.00019612,-0.00010005
 ,-0.00002920,-0.00000600,0.00008036,0.00000991,-0.00000066,-0.00000325
 ,0.00000689,-0.00004469,-0.00004276,-0.00000128,-0.00096520,0.00188658
 ,-0.00012423,0.00021668,-0.00012906,-0.00001703,0.00005432,0.00009036,
 0.00002066,0.00001390,-0.00000280,0.,0.00003893,0.00009839,0.00000088,
 -0.00023197,0.00028744,0.00001365,-0.00041349,-0.00030409,-0.00002089,
 0.00107538,0.00105776,0.00030942,0.01293476,-0.02214576,-0.00152973,-0
 .00034847,0.00049128,-0.00001208,-0.00001821,-0.00000735,0.00000004,-0
 .00000006,0.00003547,-0.00000044,-0.00001022,0.00000700,0.00000095,-0.
 00005370,-0.00002582,-0.00000195,0.00000381,-0.00002016,-0.00000349,0.
 00001515,-0.00002011,0.00000047,0.00001064,-0.00000001,0.00000028,0.00
 001076,-0.00000347,-0.00000289,-0.00002126,-0.00000168,-0.00002932,0.0
 0003037,-0.00002184,-0.00000164,0.00000700,-0.00000886,-0.00000204,0.1
 0628051,-0.27545717,-0.01546118,-0.00161093,0.00117722,-0.00003957,-0.
 11277964,0.29383079,-0.00004064,0.00004009,0.00017974,-0.00006211,0.00
 016769,0.00030502,0.00030018,0.00002669,-0.00047575,0.00004901,-0.0001
 2536,-0.00066499,0.00001516,-0.00003872,0.00002398,-0.00002908,0.00000
 079,0.00004766,-0.00022670,-0.00049935,0.00636454,-0.00003918,0.000044
 20,0.00013457,0.00007489,0.00001894,-0.00037954,-0.00010420,0.00002646
 ,0.00008687,0.00022344,-0.00048472,0.00030517,-0.00027755,-0.00008089,
 -0.00038364,0.00005099,0.00002584,-0.00004191,-0.00005395,-0.00000300,
 -0.00000057,-0.00018925,0.00003682,0.00668148,0.00067952,-0.00016630,-
 0.00015312,0.00003308,0.00026809,-0.00035183,0.00006540,-0.00001064,0.
 00001394,0.00003248,-0.00001639,0.00001654,-0.00000542,0.00001889,-0.0
 0010994,0.00002483,-0.00010000,0.00000888,-0.00022876,0.00015604,-0.00
 324473,0.00132481,0.00005456,0.00458513,-0.00000828,0.00002176,0.00033
 328,-0.00000170,-0.00000086,-0.00000628,0.00000109,0.00000096,0.000024
 54,0.00000034,0.00000037,-0.00002221,-0.00000312,-0.00000070,0.0000128
 8,-0.00000285,-0.00000094,0.00006037,0.00000156,-0.00000117,-0.0000080
 3,0.00000110,-0.00000832,0.00000265,0.00000227,-0.00000208,0.00003562,
 -0.00008242,0.00011356,0.00068886,-0.00001566,0.00001850,-0.00000126,0
 .00001186,-0.00001337,0.00007853,0.00627410,-0.01573802,-0.04029866,0.
 00096220,-0.00106320,0.00423320,-0.00855254,0.01710860,0.02672935,0.00
 009648,-0.00015549,-0.00000405,-0.00052942,-0.00012252,-0.00001550,-0.
 00017235,-0.00021899,-0.00000651,-0.00007790,0.00010666,0.00000133,-0.
 00004784,0.00004339,0.00000169,0.00002303,-0.00003135,0.00000060,0.000
 10623,0.00066084,0.00003321,-0.00028171,-0.00024983,-0.00001936,0.0000
 4209,0.00003321,-0.00000525,0.00005991,-0.00004436,-0.00000180,-0.0029
 5291,0.00166772,0.00053975,0.00044965,0.00093747,-0.00010442,-0.000312
 62,0.00002444,-0.00005650,0.00004361,-0.00001260,-0.00000167,0.0063098
 3,0.01889144,0.00058048,-0.00196770,0.00487947,-0.00028182,0.00017639,
 -0.00026506,0.00017369,-0.00004610,0.00019081,-0.00002057,-0.00005313,
 0.00002414,0.00000452,-0.00003653,0.00004253,0.00000138,-0.00006252,-0
 .00007387,-0.00000045,0.00022372,-0.00112696,-0.00007690,-0.00519839,0
 .00144763,0.00044337,-0.00002525,0.00003336,-0.00000155,-0.00003410,-0
 .00000183,0.00000121,-0.00001146,-0.00000052,-0.00000109,-0.00000915,-
 0.00002111,0.00000067,-0.00000312,-0.00000914,0.,0.00000898,-0.0000041
 9,0.00000009,0.00000959,-0.00000116,0.00000628,0.00002383,0.00009948,-
 0.00000007,-0.00001336,-0.00005053,-0.00002465,0.00006471,-0.00006919,
 -0.00016241,-0.00174174,0.00054514,0.00000986,-0.00000354,-0.00001273,
 0.00002161,-0.01449719,-0.03033124,-0.00040175,-0.10158135,-0.10656804
 ,-0.00054598,0.00034262,-0.00034716,-0.00020484,0.12167872,0.00003063,
 -0.00004455,-0.00000031,-0.00013669,0.00010664,0.00001240,0.00010187,0
 .00006096,0.00002088,-0.00004777,0.00000717,-0.00000425,-0.00003730,0.
 00001407,0.00000344,0.00003227,0.00001367,-0.00000265,0.00016736,0.000
 06635,-0.00003326,0.00027436,0.00023158,0.00005760,-0.00012341,-0.0000
 8134,0.00001675,0.00008587,-0.00001100,0.00000497,0.00365188,0.0000604
 8,-0.00117282,-0.00078366,-0.00118484,0.00008181,0.00041014,-0.0000313
 9,0.00008073,-0.00000934,-0.00000522,-0.00000392,-0.00874518,-0.023176
 64,0.00029969,-0.00304094,-0.00025096,0.00015760,0.00053456,0.00070431
 ,0.00006577,-0.00014582,0.00021646,-0.00005254,0.00000397,0.00005113,0
 .00000073,-0.00006168,-0.00001721,0.00000109,0.00003882,-0.00007094,-0
 .00000112,-0.00008042,-0.00010945,0.00000473,0.00041620,0.00191386,-0.
 00017198,0.00000836,0.00000556,0.00000062,-0.00001057,-0.00000028,-0.0
 0000158,-0.00000602,-0.00000005,-0.00000008,-0.00000465,-0.00000283,-0
 .00000129,-0.00000223,-0.00000560,-0.00000033,-0.00001179,-0.00001601,
 -0.00000060,-0.00000940,-0.00001795,-0.00000867,0.00000439,-0.00013636
 ,0.00000516,0.00005711,0.00008736,-0.00001362,0.00001265,0.00004053,0.
 00013288,0.00096696,0.00144367,-0.00007539,0.00006190,-0.00006088,0.00
 000919,0.00172045,0.00070373,-0.00015989,-0.10562857,-0.28246363,-0.00
 602720,0.00021556,0.00151283,0.00020518,0.11009012,0.30044677,-0.00005
 647,0.00004610,-0.00008537,0.00004313,0.00009226,-0.00032649,0.0001957
 3,0.00014629,0.00001457,0.00006947,-0.00012436,-0.00004020,0.00001798,
 -0.00002269,0.00002831,-0.00001180,0.00000731,-0.00000646,-0.00001132,
 -0.00043933,-0.00016152,0.00000804,0.00009616,-0.00005486,-0.00004562,
 -0.00006943,-0.00016861,-0.00004717,0.00002929,-0.00001414,0.00073336,
 0.00016406,0.00304600,-0.00031425,-0.00018249,0.00003582,0.00011522,0.
 00002375,-0.00020765,-0.00002776,0.00002072,0.00003049,-0.00139576,-0.
 00311679,0.00322014,0.00039305,0.00031381,-0.00153236,-0.00006492,0.00
 013833,-0.00003560,0.00003818,-0.00004791,0.00014149,0.00002676,-0.000
 03511,0.00000375,0.00003520,0.00001950,0.00001468,-0.00003152,0.000011
 57,-0.00003701,-0.00008908,0.00008616,0.00015537,0.00072843,0.00027324
 ,0.00686899,-0.00000001,-0.00000345,-0.00001608,0.00000356,0.00000036,
 0.00001643,0.00000189,-0.00000044,-0.00000847,0.00000146,0.00000276,0.
 00002276,0.00000102,0.00000185,0.00000408,-0.00000362,0.00000051,0.000
 01925,-0.00000435,-0.00000054,0.00002665,-0.00000605,-0.00002421,0.000
 00369,0.00000587,0.00000593,0.00000512,-0.00012941,0.00023419,0.000346
 80,0.00004750,0.00002421,0.00045828,-0.00000868,0.00000938,0.00001473,
 -0.00063169,0.00048209,0.00579143,0.00038490,-0.00502420,-0.03355137,-
 0.00008865,0.00029082,-0.00481035,0.00011740,0.00657030,0.02078769\\0.
 00000041,-0.00000268,-0.00000031,-0.00000027,-0.00000191,0.00000037,0.
 00000065,-0.00000094,-0.00000074,0.00000140,-0.00000113,0.00000142,0.0
 0000127,-0.00000285,0.00000097,0.00000181,-0.00000201,0.00000116,-0.00
 000040,0.00000002,-0.00000004,0.00000156,0.00000097,0.00000071,0.00000
 163,0.00000042,0.00000158,0.00000183,-0.00000026,0.00000154,-0.0000006
 6,-0.00000283,0.00000147,-0.00000108,0.00000226,0.00000088,0.00000165,
 0.00000262,0.00000194,0.00000170,0.00000148,0.00000173,-0.00000367,0.0
 0000181,-0.00001327,0.00000407,0.00000359,-0.00000036,-0.00000163,0.00
 000536,0.00000033,0.00000125,0.00000225,0.00000039,-0.00000042,-0.0000
 0332,-0.00000107,-0.00000144,-0.00000318,-0.00000152,-0.00000156,-0.00
 000227,-0.00000190,-0.00000102,-0.00000146,-0.00000128,-0.00000130,-0.
 00000135,-0.00000062,-0.00000240,-0.00000206,-0.00000238,-0.00000186,-
 0.00000367,-0.00000219,-0.00000019,-0.00000411,-0.00000081,0.00000162,
 -0.00000347,0.00000085,0.00000261,-0.00000214,0.00000194,0.00000272,-0
 .00000017,0.00000234,0.00000273,0.00000141,0.00000257,0.00000195,0.000
 00299,0.00000214,0.00000061,0.00000399,0.00000113,0.00000003,0.0000002
 5,0.00000792,-0.00000204,0.00000276,-0.00000141,-0.00000111,0.00000422
 ,-0.00000029,-0.00000053,0.00000097,-0.00000140,-0.00000494,0.00000309
 ,0.00000030,-0.00000243,-0.00000013,-0.00000235,-0.00000256,0.00000147
 ,-0.00000174\\\@


 REALITY IS FOR PEOPLE WHO CAN'T FACE SCIENCE FICTION.
 Job cpu time:       1 days  0 hours 54 minutes 33.6 seconds.
 Elapsed time:       0 days  1 hours 14 minutes 57.0 seconds.
 File lengths (MBytes):  RWF=   2727 Int=      0 D2E=      0 Chk=     45 Scr=      1
 Normal termination of Gaussian 16 at Fri Jun 28 21:02:07 2019.
