 Entering Gaussian System, Link 0=/share/apps/gaussian16/g16/g16
 Initial command:
 /share/apps/gaussian16/g16/l1.exe "/home/amen01//scratch/683/Gau-7569.inp" -scrdir="/home/amen01//scratch/683/"
 Entering Link 1 = /share/apps/gaussian16/g16/l1.exe PID=      7570.
  
 Copyright (c) 1988-2017, Gaussian, Inc.  All Rights Reserved.
  
 This is part of the Gaussian(R) 16 program.  It is based on
 the Gaussian(R) 09 system (copyright 2009, Gaussian, Inc.),
 the Gaussian(R) 03 system (copyright 2003, Gaussian, Inc.),
 the Gaussian(R) 98 system (copyright 1998, Gaussian, Inc.),
 the Gaussian(R) 94 system (copyright 1995, Gaussian, Inc.),
 the Gaussian 92(TM) system (copyright 1992, Gaussian, Inc.),
 the Gaussian 90(TM) system (copyright 1990, Gaussian, Inc.),
 the Gaussian 88(TM) system (copyright 1988, Gaussian, Inc.),
 the Gaussian 86(TM) system (copyright 1986, Carnegie Mellon
 University), and the Gaussian 82(TM) system (copyright 1983,
 Carnegie Mellon University). Gaussian is a federally registered
 trademark of Gaussian, Inc.
  
 This software contains proprietary and confidential information,
 including trade secrets, belonging to Gaussian, Inc.
  
 This software is provided under written license and may be
 used, copied, transmitted, or stored only in accord with that
 written license.
  
 The following legend is applicable only to US Government
 contracts under FAR:
  
                    RESTRICTED RIGHTS LEGEND
  
 Use, reproduction and disclosure by the US Government is
 subject to restrictions as set forth in subparagraphs (a)
 and (c) of the Commercial Computer Software - Restricted
 Rights clause in FAR 52.227-19.
  
 Gaussian, Inc.
 340 Quinnipiac St., Bldg. 40, Wallingford CT 06492
  
  
 ---------------------------------------------------------------
 Warning -- This program may not be used in any manner that
 competes with the business of Gaussian, Inc. or will provide
 assistance to any competitor of Gaussian, Inc.  The licensee
 of this program is prohibited from giving any competitor of
 Gaussian, Inc. access to this program.  By using this program,
 the user acknowledges that Gaussian, Inc. is engaged in the
 business of creating and licensing software in the field of
 computational chemistry and represents and warrants to the
 licensee that it is not a competitor of Gaussian, Inc. and that
 it will not use this program in any manner prohibited above.
 ---------------------------------------------------------------
  

 Cite this work as:
 Gaussian 16, Revision B.01,
 M. J. Frisch, G. W. Trucks, H. B. Schlegel, G. E. Scuseria, 
 M. A. Robb, J. R. Cheeseman, G. Scalmani, V. Barone, 
 G. A. Petersson, H. Nakatsuji, X. Li, M. Caricato, A. V. Marenich, 
 J. Bloino, B. G. Janesko, R. Gomperts, B. Mennucci, H. P. Hratchian, 
 J. V. Ortiz, A. F. Izmaylov, J. L. Sonnenberg, D. Williams-Young, 
 F. Ding, F. Lipparini, F. Egidi, J. Goings, B. Peng, A. Petrone, 
 T. Henderson, D. Ranasinghe, V. G. Zakrzewski, J. Gao, N. Rega, 
 G. Zheng, W. Liang, M. Hada, M. Ehara, K. Toyota, R. Fukuda, 
 J. Hasegawa, M. Ishida, T. Nakajima, Y. Honda, O. Kitao, H. Nakai, 
 T. Vreven, K. Throssell, J. A. Montgomery, Jr., J. E. Peralta, 
 F. Ogliaro, M. J. Bearpark, J. J. Heyd, E. N. Brothers, K. N. Kudin, 
 V. N. Staroverov, T. A. Keith, R. Kobayashi, J. Normand, 
 K. Raghavachari, A. P. Rendell, J. C. Burant, S. S. Iyengar, 
 J. Tomasi, M. Cossi, J. M. Millam, M. Klene, C. Adamo, R. Cammi, 
 J. W. Ochterski, R. L. Martin, K. Morokuma, O. Farkas, 
 J. B. Foresman, and D. J. Fox, Gaussian, Inc., Wallingford CT, 2016.
 
 ******************************************
 Gaussian 16:  ES64L-G16RevB.01 20-Dec-2017
                 4-Jul-2019 
 ******************************************
 %nprocshared=20
 Will use up to   20 processors via shared memory.
 %mem=100GB
 %chk=7-HACAsite2TSguess-4bnew.chk
 ---------------------------------------------------------------------
 # opt=(ts,modredundant,noeigen) freq b3lyp/6-311+g(d,p) int=grid=fine
 ---------------------------------------------------------------------
 1/5=1,11=1,18=120,26=3,38=1/1,3;
 2/9=110,12=2,17=6,18=5,40=1/2;
 3/5=4,6=6,7=111,11=2,25=1,30=1,71=1,74=-5,75=-4/1,2,3;
 4//1;
 5/5=2,38=5/2;
 6/7=2,8=2,9=2,10=2,28=1/1;
 7//1,2,3,16;
 1/5=1,11=1,18=20,26=3/3(2);
 2/9=110/2;
 99//99;
 2/9=110/2;
 3/5=4,6=6,7=111,11=2,25=1,30=1,71=1,74=-5,75=-4/1,2,3;
 4/5=5,16=3,69=1/1;
 5/5=2,38=5/2;
 7//1,2,3,16;
 1/5=1,11=1,18=20,26=3/3(-5);
 2/9=110/2;
 6/7=2,8=2,9=2,10=2,19=2,28=1/1;
 99/9=1/99;
 -------------------------
 7-HACAsite2TSguess-4b-new
 -------------------------
 Symbolic Z-matrix:
 Charge =  0 Multiplicity = 3
 C                     3.83943   0.38606   0.04927 
 C                     2.5223   -0.10916  -0.04902 
 C                     1.4028    0.70086  -0.01865 
 C                     1.49454   2.08139   0.07927 
 C                     3.94892   1.79659   0.15858 
 C                     2.8111    2.61427   0.16501 
 C                     0.20989  -0.0956   -0.08404 
 C                    -1.07393   0.56678  -0.02777 
 C                    -1.01356   2.00447  -0.00327 
 C                     0.22951   2.74833   0.07215 
 C                    -2.34256  -0.096    -0.00533 
 C                    -3.5411    0.7236   -0.0871 
 C                    -3.43654   2.12445  -0.12496 
 C                    -2.2092    2.74637  -0.05731 
 C                    -2.54257  -1.53078   0.15186 
 C                    -3.84004  -2.02673   0.15714 
 C                    -4.9839   -1.21977  -0.00047 
 C                    -4.83248   0.13339  -0.11182 
 C                     4.85291  -0.61529   0.0387 
 C                     4.4992   -1.94832  -0.05984 
 C                     3.14301  -2.40134  -0.1691 
 C                     2.1411   -1.46379  -0.17111 
 C                     0.63207  -1.48537  -0.3162 
 H                     2.94898  -3.46413  -0.26463 
 H                     5.2847   -2.69617  -0.0618 
 H                     5.89917  -0.33841   0.11193 
 H                     4.92787   2.25671   0.2394 
 H                     2.94288   3.68868   0.24342 
 H                     0.16898   3.82972   0.12062 
 H                    -2.15065   3.82942  -0.05909 
 H                    -4.34478   2.71317  -0.19055 
 H                    -5.69389   0.78609  -0.20253 
 H                    -3.97724  -3.0937    0.29196 
 H                    -5.96765  -1.67438  -0.00928 
 H                     0.47568  -1.62077  -1.9042 
 C                    -1.52389  -2.56821   0.36233 
 C                    -0.19887  -2.59512   0.16049 
 H                     0.31471  -3.53495   0.33987 
 H                    -1.95752  -3.50781   0.69196 
 
 Add virtual bond connecting atoms H35        and C23        Dist= 3.03D+00.
 The following ModRedundant input section has been read:
 B      23      35 F                                                           
 

 GradGradGradGradGradGradGradGradGradGradGradGradGradGradGradGradGradGrad
 Berny optimization.
 Initialization pass.
                           ----------------------------
                           !    Initial Parameters    !
                           ! (Angstroms and Degrees)  !
 --------------------------                            --------------------------
 ! Name  Definition              Value          Derivative Info.                !
 --------------------------------------------------------------------------------
 ! R1    R(1,2)                  1.4106         estimate D2E/DX2                !
 ! R2    R(1,5)                  1.419          estimate D2E/DX2                !
 ! R3    R(1,19)                 1.4248         estimate D2E/DX2                !
 ! R4    R(2,3)                  1.3821         estimate D2E/DX2                !
 ! R5    R(2,22)                 1.4125         estimate D2E/DX2                !
 ! R6    R(3,4)                  1.387          estimate D2E/DX2                !
 ! R7    R(3,7)                  1.4358         estimate D2E/DX2                !
 ! R8    R(4,6)                  1.4229         estimate D2E/DX2                !
 ! R9    R(4,10)                 1.4301         estimate D2E/DX2                !
 ! R10   R(5,6)                  1.4012         estimate D2E/DX2                !
 ! R11   R(5,27)                 1.0847         estimate D2E/DX2                !
 ! R12   R(6,28)                 1.0853         estimate D2E/DX2                !
 ! R13   R(7,8)                  1.4457         estimate D2E/DX2                !
 ! R14   R(7,23)                 1.4709         estimate D2E/DX2                !
 ! R15   R(8,9)                  1.4392         estimate D2E/DX2                !
 ! R16   R(8,11)                 1.4315         estimate D2E/DX2                !
 ! R17   R(9,10)                 1.4506         estimate D2E/DX2                !
 ! R18   R(9,14)                 1.4082         estimate D2E/DX2                !
 ! R19   R(10,29)                1.0842         estimate D2E/DX2                !
 ! R20   R(11,12)                1.4543         estimate D2E/DX2                !
 ! R21   R(11,15)                1.4572         estimate D2E/DX2                !
 ! R22   R(12,13)                1.4053         estimate D2E/DX2                !
 ! R23   R(12,18)                1.4201         estimate D2E/DX2                !
 ! R24   R(13,14)                1.3776         estimate D2E/DX2                !
 ! R25   R(13,31)                1.0843         estimate D2E/DX2                !
 ! R26   R(14,30)                1.0846         estimate D2E/DX2                !
 ! R27   R(15,16)                1.389          estimate D2E/DX2                !
 ! R28   R(15,36)                1.4691         estimate D2E/DX2                !
 ! R29   R(16,17)                1.4087         estimate D2E/DX2                !
 ! R30   R(16,33)                1.0842         estimate D2E/DX2                !
 ! R31   R(17,18)                1.3662         estimate D2E/DX2                !
 ! R32   R(17,34)                1.0837         estimate D2E/DX2                !
 ! R33   R(18,32)                1.0846         estimate D2E/DX2                !
 ! R34   R(19,20)                1.3827         estimate D2E/DX2                !
 ! R35   R(19,26)                1.0847         estimate D2E/DX2                !
 ! R36   R(20,21)                1.434          estimate D2E/DX2                !
 ! R37   R(20,25)                1.0846         estimate D2E/DX2                !
 ! R38   R(21,22)                1.3722         estimate D2E/DX2                !
 ! R39   R(21,24)                1.0846         estimate D2E/DX2                !
 ! R40   R(22,23)                1.5161         estimate D2E/DX2                !
 ! R41   R(23,35)                1.6014         Frozen                          !
 ! R42   R(23,37)                1.466          estimate D2E/DX2                !
 ! R43   R(36,37)                1.3406         estimate D2E/DX2                !
 ! R44   R(36,39)                1.0861         estimate D2E/DX2                !
 ! R45   R(37,38)                1.0859         estimate D2E/DX2                !
 ! A1    A(2,1,5)              115.2391         estimate D2E/DX2                !
 ! A2    A(2,1,19)             114.6424         estimate D2E/DX2                !
 ! A3    A(5,1,19)             130.1139         estimate D2E/DX2                !
 ! A4    A(1,2,3)              123.3007         estimate D2E/DX2                !
 ! A5    A(1,2,22)             126.4907         estimate D2E/DX2                !
 ! A6    A(3,2,22)             110.2032         estimate D2E/DX2                !
 ! A7    A(2,3,4)              122.0923         estimate D2E/DX2                !
 ! A8    A(2,3,7)              110.2943         estimate D2E/DX2                !
 ! A9    A(4,3,7)              127.6086         estimate D2E/DX2                !
 ! A10   A(3,4,6)              115.9888         estimate D2E/DX2                !
 ! A11   A(3,4,10)             113.9105         estimate D2E/DX2                !
 ! A12   A(6,4,10)             130.1001         estimate D2E/DX2                !
 ! A13   A(1,5,6)              121.1836         estimate D2E/DX2                !
 ! A14   A(1,5,27)             119.8039         estimate D2E/DX2                !
 ! A15   A(6,5,27)             119.0125         estimate D2E/DX2                !
 ! A16   A(4,6,5)              122.1775         estimate D2E/DX2                !
 ! A17   A(4,6,28)             119.1727         estimate D2E/DX2                !
 ! A18   A(5,6,28)             118.649          estimate D2E/DX2                !
 ! A19   A(3,7,8)              118.8061         estimate D2E/DX2                !
 ! A20   A(3,7,23)             107.0273         estimate D2E/DX2                !
 ! A21   A(8,7,23)             133.9407         estimate D2E/DX2                !
 ! A22   A(7,8,9)              114.9046         estimate D2E/DX2                !
 ! A23   A(7,8,11)             125.1316         estimate D2E/DX2                !
 ! A24   A(9,8,11)             119.9624         estimate D2E/DX2                !
 ! A25   A(8,9,10)             123.3055         estimate D2E/DX2                !
 ! A26   A(8,9,14)             119.3434         estimate D2E/DX2                !
 ! A27   A(10,9,14)            117.3509         estimate D2E/DX2                !
 ! A28   A(4,10,9)             121.2748         estimate D2E/DX2                !
 ! A29   A(4,10,29)            120.9521         estimate D2E/DX2                !
 ! A30   A(9,10,29)            117.7729         estimate D2E/DX2                !
 ! A31   A(8,11,12)            117.9412         estimate D2E/DX2                !
 ! A32   A(8,11,15)            125.3958         estimate D2E/DX2                !
 ! A33   A(12,11,15)           116.6065         estimate D2E/DX2                !
 ! A34   A(11,12,13)           120.1322         estimate D2E/DX2                !
 ! A35   A(11,12,18)           121.0783         estimate D2E/DX2                !
 ! A36   A(13,12,18)           118.7841         estimate D2E/DX2                !
 ! A37   A(12,13,14)           120.9982         estimate D2E/DX2                !
 ! A38   A(12,13,31)           118.7196         estimate D2E/DX2                !
 ! A39   A(14,13,31)           120.2728         estimate D2E/DX2                !
 ! A40   A(9,14,13)            121.3671         estimate D2E/DX2                !
 ! A41   A(9,14,30)            118.7056         estimate D2E/DX2                !
 ! A42   A(13,14,30)           119.9217         estimate D2E/DX2                !
 ! A43   A(11,15,16)           118.6976         estimate D2E/DX2                !
 ! A44   A(11,15,36)           127.9952         estimate D2E/DX2                !
 ! A45   A(16,15,36)           113.267          estimate D2E/DX2                !
 ! A46   A(15,16,17)           123.6082         estimate D2E/DX2                !
 ! A47   A(15,16,33)           118.0385         estimate D2E/DX2                !
 ! A48   A(17,16,33)           118.3533         estimate D2E/DX2                !
 ! A49   A(16,17,18)           119.1114         estimate D2E/DX2                !
 ! A50   A(16,17,34)           119.8473         estimate D2E/DX2                !
 ! A51   A(18,17,34)           121.0267         estimate D2E/DX2                !
 ! A52   A(12,18,17)           120.7333         estimate D2E/DX2                !
 ! A53   A(12,18,32)           118.2682         estimate D2E/DX2                !
 ! A54   A(17,18,32)           120.9887         estimate D2E/DX2                !
 ! A55   A(1,19,20)            119.7448         estimate D2E/DX2                !
 ! A56   A(1,19,26)            120.411          estimate D2E/DX2                !
 ! A57   A(20,19,26)           119.8436         estimate D2E/DX2                !
 ! A58   A(19,20,21)           123.4994         estimate D2E/DX2                !
 ! A59   A(19,20,25)           118.6613         estimate D2E/DX2                !
 ! A60   A(21,20,25)           117.8381         estimate D2E/DX2                !
 ! A61   A(20,21,22)           118.3462         estimate D2E/DX2                !
 ! A62   A(20,21,24)           119.0431         estimate D2E/DX2                !
 ! A63   A(22,21,24)           122.6011         estimate D2E/DX2                !
 ! A64   A(2,22,21)            117.2638         estimate D2E/DX2                !
 ! A65   A(2,22,23)            106.8893         estimate D2E/DX2                !
 ! A66   A(21,22,23)           135.8201         estimate D2E/DX2                !
 ! A67   A(7,23,22)            104.8992         estimate D2E/DX2                !
 ! A68   A(7,23,35)            102.0264         estimate D2E/DX2                !
 ! A69   A(7,23,37)            120.0801         estimate D2E/DX2                !
 ! A70   A(22,23,35)           101.1454         estimate D2E/DX2                !
 ! A71   A(22,23,37)           122.9428         estimate D2E/DX2                !
 ! A72   A(35,23,37)           101.717          estimate D2E/DX2                !
 ! A73   A(15,36,37)           132.6847         estimate D2E/DX2                !
 ! A74   A(15,36,39)           112.1831         estimate D2E/DX2                !
 ! A75   A(37,36,39)           115.0213         estimate D2E/DX2                !
 ! A76   A(23,37,36)           126.4403         estimate D2E/DX2                !
 ! A77   A(23,37,38)           116.1537         estimate D2E/DX2                !
 ! A78   A(36,37,38)           117.3847         estimate D2E/DX2                !
 ! D1    D(5,1,2,3)             -1.1365         estimate D2E/DX2                !
 ! D2    D(5,1,2,22)           179.79           estimate D2E/DX2                !
 ! D3    D(19,1,2,3)           178.1627         estimate D2E/DX2                !
 ! D4    D(19,1,2,22)           -0.9108         estimate D2E/DX2                !
 ! D5    D(2,1,5,6)             -0.0305         estimate D2E/DX2                !
 ! D6    D(2,1,5,27)           179.9415         estimate D2E/DX2                !
 ! D7    D(19,1,5,6)          -179.1976         estimate D2E/DX2                !
 ! D8    D(19,1,5,27)            0.7744         estimate D2E/DX2                !
 ! D9    D(2,1,19,20)           -0.1274         estimate D2E/DX2                !
 ! D10   D(2,1,19,26)         -179.8526         estimate D2E/DX2                !
 ! D11   D(5,1,19,20)          179.0437         estimate D2E/DX2                !
 ! D12   D(5,1,19,26)           -0.6816         estimate D2E/DX2                !
 ! D13   D(1,2,3,4)              1.6248         estimate D2E/DX2                !
 ! D14   D(1,2,3,7)           -177.6359         estimate D2E/DX2                !
 ! D15   D(22,2,3,4)          -179.1689         estimate D2E/DX2                !
 ! D16   D(22,2,3,7)             1.5704         estimate D2E/DX2                !
 ! D17   D(1,2,22,21)            1.3497         estimate D2E/DX2                !
 ! D18   D(1,2,22,23)         -177.0617         estimate D2E/DX2                !
 ! D19   D(3,2,22,21)         -177.8251         estimate D2E/DX2                !
 ! D20   D(3,2,22,23)            3.7635         estimate D2E/DX2                !
 ! D21   D(2,3,4,6)             -0.8207         estimate D2E/DX2                !
 ! D22   D(2,3,4,10)           178.942          estimate D2E/DX2                !
 ! D23   D(7,3,4,6)            178.304          estimate D2E/DX2                !
 ! D24   D(7,3,4,10)            -1.9333         estimate D2E/DX2                !
 ! D25   D(2,3,7,8)            178.3229         estimate D2E/DX2                !
 ! D26   D(2,3,7,23)            -6.3907         estimate D2E/DX2                !
 ! D27   D(4,3,7,8)             -0.8864         estimate D2E/DX2                !
 ! D28   D(4,3,7,23)           174.3999         estimate D2E/DX2                !
 ! D29   D(3,4,6,5)             -0.3348         estimate D2E/DX2                !
 ! D30   D(3,4,6,28)           179.9961         estimate D2E/DX2                !
 ! D31   D(10,4,6,5)           179.9488         estimate D2E/DX2                !
 ! D32   D(10,4,6,28)            0.2797         estimate D2E/DX2                !
 ! D33   D(3,4,10,9)             1.2426         estimate D2E/DX2                !
 ! D34   D(3,4,10,29)         -178.6034         estimate D2E/DX2                !
 ! D35   D(6,4,10,9)          -179.0363         estimate D2E/DX2                !
 ! D36   D(6,4,10,29)            1.1178         estimate D2E/DX2                !
 ! D37   D(1,5,6,4)              0.7576         estimate D2E/DX2                !
 ! D38   D(1,5,6,28)          -179.5716         estimate D2E/DX2                !
 ! D39   D(27,5,6,4)          -179.2146         estimate D2E/DX2                !
 ! D40   D(27,5,6,28)            0.4562         estimate D2E/DX2                !
 ! D41   D(3,7,8,9)              4.1709         estimate D2E/DX2                !
 ! D42   D(3,7,8,11)          -176.2603         estimate D2E/DX2                !
 ! D43   D(23,7,8,9)          -169.5645         estimate D2E/DX2                !
 ! D44   D(23,7,8,11)           10.0043         estimate D2E/DX2                !
 ! D45   D(3,7,23,22)            8.2514         estimate D2E/DX2                !
 ! D46   D(3,7,23,35)          -96.8896         estimate D2E/DX2                !
 ! D47   D(3,7,23,37)          151.8046         estimate D2E/DX2                !
 ! D48   D(8,7,23,22)         -177.4879         estimate D2E/DX2                !
 ! D49   D(8,7,23,35)           77.3712         estimate D2E/DX2                !
 ! D50   D(8,7,23,37)          -33.9346         estimate D2E/DX2                !
 ! D51   D(7,8,9,10)            -4.9314         estimate D2E/DX2                !
 ! D52   D(7,8,9,14)           174.9204         estimate D2E/DX2                !
 ! D53   D(11,8,9,10)          175.4757         estimate D2E/DX2                !
 ! D54   D(11,8,9,14)           -4.6725         estimate D2E/DX2                !
 ! D55   D(7,8,11,12)         -173.7771         estimate D2E/DX2                !
 ! D56   D(7,8,11,15)            9.0576         estimate D2E/DX2                !
 ! D57   D(9,8,11,12)            5.7714         estimate D2E/DX2                !
 ! D58   D(9,8,11,15)         -171.3938         estimate D2E/DX2                !
 ! D59   D(8,9,10,4)             2.2684         estimate D2E/DX2                !
 ! D60   D(8,9,10,29)         -177.881          estimate D2E/DX2                !
 ! D61   D(14,9,10,4)         -177.5862         estimate D2E/DX2                !
 ! D62   D(14,9,10,29)           2.2645         estimate D2E/DX2                !
 ! D63   D(8,9,14,13)            0.401          estimate D2E/DX2                !
 ! D64   D(8,9,14,30)         -178.7402         estimate D2E/DX2                !
 ! D65   D(10,9,14,13)        -179.7384         estimate D2E/DX2                !
 ! D66   D(10,9,14,30)           1.1203         estimate D2E/DX2                !
 ! D67   D(8,11,12,13)          -2.816          estimate D2E/DX2                !
 ! D68   D(8,11,12,18)         178.0481         estimate D2E/DX2                !
 ! D69   D(15,11,12,13)        174.5997         estimate D2E/DX2                !
 ! D70   D(15,11,12,18)         -4.5363         estimate D2E/DX2                !
 ! D71   D(8,11,15,16)         179.8439         estimate D2E/DX2                !
 ! D72   D(8,11,15,36)           2.3188         estimate D2E/DX2                !
 ! D73   D(12,11,15,16)          2.6448         estimate D2E/DX2                !
 ! D74   D(12,11,15,36)       -174.8803         estimate D2E/DX2                !
 ! D75   D(11,12,13,14)         -1.3842         estimate D2E/DX2                !
 ! D76   D(11,12,13,31)        179.7225         estimate D2E/DX2                !
 ! D77   D(18,12,13,14)        177.7714         estimate D2E/DX2                !
 ! D78   D(18,12,13,31)         -1.1219         estimate D2E/DX2                !
 ! D79   D(11,12,18,17)          2.8752         estimate D2E/DX2                !
 ! D80   D(11,12,18,32)       -178.251          estimate D2E/DX2                !
 ! D81   D(13,12,18,17)       -176.2721         estimate D2E/DX2                !
 ! D82   D(13,12,18,32)          2.6016         estimate D2E/DX2                !
 ! D83   D(12,13,14,9)           2.6367         estimate D2E/DX2                !
 ! D84   D(12,13,14,30)       -178.2323         estimate D2E/DX2                !
 ! D85   D(31,13,14,9)        -178.4871         estimate D2E/DX2                !
 ! D86   D(31,13,14,30)          0.6439         estimate D2E/DX2                !
 ! D87   D(11,15,16,17)          0.9226         estimate D2E/DX2                !
 ! D88   D(11,15,16,33)       -178.9623         estimate D2E/DX2                !
 ! D89   D(36,15,16,17)        178.7997         estimate D2E/DX2                !
 ! D90   D(36,15,16,33)         -1.0852         estimate D2E/DX2                !
 ! D91   D(11,15,36,37)        -18.4593         estimate D2E/DX2                !
 ! D92   D(11,15,36,39)        165.6536         estimate D2E/DX2                !
 ! D93   D(16,15,36,37)        163.9037         estimate D2E/DX2                !
 ! D94   D(16,15,36,39)        -11.9833         estimate D2E/DX2                !
 ! D95   D(15,16,17,18)         -2.7683         estimate D2E/DX2                !
 ! D96   D(15,16,17,34)        178.6068         estimate D2E/DX2                !
 ! D97   D(33,16,17,18)        177.1162         estimate D2E/DX2                !
 ! D98   D(33,16,17,34)         -1.5087         estimate D2E/DX2                !
 ! D99   D(16,17,18,12)          0.8052         estimate D2E/DX2                !
 ! D100  D(16,17,18,32)       -178.0377         estimate D2E/DX2                !
 ! D101  D(34,17,18,12)        179.4133         estimate D2E/DX2                !
 ! D102  D(34,17,18,32)          0.5705         estimate D2E/DX2                !
 ! D103  D(1,19,20,21)           0.6901         estimate D2E/DX2                !
 ! D104  D(1,19,20,25)        -179.7289         estimate D2E/DX2                !
 ! D105  D(26,19,20,21)       -179.5831         estimate D2E/DX2                !
 ! D106  D(26,19,20,25)         -0.0021         estimate D2E/DX2                !
 ! D107  D(19,20,21,22)         -0.2524         estimate D2E/DX2                !
 ! D108  D(19,20,21,24)        178.6534         estimate D2E/DX2                !
 ! D109  D(25,20,21,22)       -179.8366         estimate D2E/DX2                !
 ! D110  D(25,20,21,24)         -0.9308         estimate D2E/DX2                !
 ! D111  D(20,21,22,2)          -0.703          estimate D2E/DX2                !
 ! D112  D(20,21,22,23)        177.1155         estimate D2E/DX2                !
 ! D113  D(24,21,22,2)        -179.5675         estimate D2E/DX2                !
 ! D114  D(24,21,22,23)         -1.7489         estimate D2E/DX2                !
 ! D115  D(2,22,23,7)           -7.4034         estimate D2E/DX2                !
 ! D116  D(2,22,23,35)          98.3904         estimate D2E/DX2                !
 ! D117  D(2,22,23,37)        -149.6285         estimate D2E/DX2                !
 ! D118  D(21,22,23,7)         174.6231         estimate D2E/DX2                !
 ! D119  D(21,22,23,35)        -79.5832         estimate D2E/DX2                !
 ! D120  D(21,22,23,37)         32.3979         estimate D2E/DX2                !
 ! D121  D(7,23,37,36)          26.2894         estimate D2E/DX2                !
 ! D122  D(7,23,37,38)        -155.443          estimate D2E/DX2                !
 ! D123  D(22,23,37,36)        163.1248         estimate D2E/DX2                !
 ! D124  D(22,23,37,38)        -18.6076         estimate D2E/DX2                !
 ! D125  D(35,23,37,36)        -85.1825         estimate D2E/DX2                !
 ! D126  D(35,23,37,38)         93.0851         estimate D2E/DX2                !
 ! D127  D(15,36,37,23)          2.4897         estimate D2E/DX2                !
 ! D128  D(15,36,37,38)       -175.759          estimate D2E/DX2                !
 ! D129  D(39,36,37,23)        178.2866         estimate D2E/DX2                !
 ! D130  D(39,36,37,38)          0.0379         estimate D2E/DX2                !
 --------------------------------------------------------------------------------
 Trust Radius=3.00D-01 FncErr=1.00D-07 GrdErr=1.00D-06 EigMax=2.50D+02 EigMin=1.00D-04
 Number of steps in this run=    234 maximum allowed number of steps=    234.
 Search for a saddle point of order  1.
 GradGradGradGradGradGradGradGradGradGradGradGradGradGradGradGradGradGrad

                          Input orientation:                          
 ---------------------------------------------------------------------
 Center     Atomic      Atomic             Coordinates (Angstroms)
 Number     Number       Type             X           Y           Z
 ---------------------------------------------------------------------
      1          6           0        3.839426    0.386059    0.049270
      2          6           0        2.522296   -0.109155   -0.049022
      3          6           0        1.402795    0.700863   -0.018653
      4          6           0        1.494538    2.081394    0.079271
      5          6           0        3.948918    1.796593    0.158578
      6          6           0        2.811098    2.614266    0.165013
      7          6           0        0.209888   -0.095598   -0.084042
      8          6           0       -1.073929    0.566784   -0.027770
      9          6           0       -1.013556    2.004471   -0.003266
     10          6           0        0.229506    2.748327    0.072147
     11          6           0       -2.342559   -0.095997   -0.005331
     12          6           0       -3.541101    0.723595   -0.087103
     13          6           0       -3.436536    2.124454   -0.124964
     14          6           0       -2.209203    2.746366   -0.057311
     15          6           0       -2.542571   -1.530784    0.151860
     16          6           0       -3.840040   -2.026735    0.157144
     17          6           0       -4.983902   -1.219770   -0.000465
     18          6           0       -4.832475    0.133391   -0.111816
     19          6           0        4.852913   -0.615291    0.038703
     20          6           0        4.499202   -1.948322   -0.059843
     21          6           0        3.143012   -2.401342   -0.169095
     22          6           0        2.141103   -1.463786   -0.171110
     23          6           0        0.632072   -1.485370   -0.316197
     24          1           0        2.948980   -3.464133   -0.264632
     25          1           0        5.284698   -2.696167   -0.061800
     26          1           0        5.899171   -0.338410    0.111931
     27          1           0        4.927867    2.256705    0.239396
     28          1           0        2.942878    3.688679    0.243418
     29          1           0        0.168983    3.829720    0.120615
     30          1           0       -2.150646    3.829419   -0.059089
     31          1           0       -4.344778    2.713165   -0.190554
     32          1           0       -5.693886    0.786094   -0.202528
     33          1           0       -3.977243   -3.093702    0.291957
     34          1           0       -5.967653   -1.674376   -0.009283
     35          1           0        0.475676   -1.620770   -1.904204
     36          6           0       -1.523893   -2.568205    0.362334
     37          6           0       -0.198874   -2.595116    0.160494
     38          1           0        0.314711   -3.534946    0.339873
     39          1           0       -1.957516   -3.507813    0.691955
 ---------------------------------------------------------------------
                    Distance matrix (angstroms):
                    1          2          3          4          5
     1  C    0.000000
     2  C    1.410578   0.000000
     3  C    2.457821   1.382148   0.000000
     4  C    2.893711   2.423066   1.387037   0.000000
     5  C    1.418994   2.389607   2.777549   2.472121   0.000000
     6  C    2.456779   2.747042   2.382889   1.422897   1.401166
     7  C    3.663784   2.312713   1.435846   2.533040   4.197570
     8  C    4.917281   3.659259   2.480367   2.983710   5.174567
     9  C    5.116000   4.119679   2.745612   2.510630   4.969462
    10  C    4.314204   3.665620   2.361559   1.430090   3.840221
    11  C    6.200992   4.865069   3.829209   4.412653   6.572020
    12  C    7.389500   6.120433   4.944422   5.218137   7.570473
    13  C    7.482780   6.364154   5.045497   4.935490   7.398163
    14  C    6.493714   5.526405   4.151157   3.765440   6.234672
    15  C    6.664435   5.264434   4.535993   5.417688   7.294581
    16  C    8.050305   6.648228   5.912530   6.733536   8.676734
    17  C    8.968404   7.588072   6.669262   7.271467   9.429688
    18  C    8.677077   7.359037   6.261733   6.622864   8.941600
    19  C    1.424770   2.386555   3.693083   4.307254   2.578519
    20  C    2.428280   2.700150   4.075244   5.028516   3.791426
    21  C    2.881368   2.377778   3.560149   4.782685   4.287133
    22  C    2.520872   1.412529   2.292171   3.612345   3.742587
    23  C    3.731345   2.353359   2.337127   3.690806   4.690220
    24  H    3.964266   3.388868   4.449538   5.743391   5.371612
    25  H    3.406063   3.784661   5.158570   6.100025   4.692309
    26  H    2.184338   3.388473   4.616767   5.025665   2.892041
    27  H    2.172595   3.386333   3.861783   3.441529   1.084701
    28  H    3.427651   3.832226   3.371584   2.169792   2.144599
    29  H    5.033492   4.591470   3.366220   2.194413   4.292197
    30  H    6.910096   6.111371   4.734600   4.045009   6.433074
    31  H    8.511999   7.425781   6.092085   5.879588   8.351490
    32  H    9.545023   8.266237   7.099574   7.309627   9.702328
    33  H    8.559670   7.160153   6.590904   7.534404   9.314333
    34  H   10.021358   8.633118   7.743730   8.354516  10.507815
    35  H    4.377012   3.148862   3.131267   4.321837   5.291205
    36  C    6.131140   4.752661   4.404255   5.550660   7.003188
    37  C    5.020721   3.691702   3.668912   4.974333   6.040802
    38  H    5.280374   4.093985   4.388000   5.744839   6.454892
    39  H    7.012833   5.671740   5.432275   6.597825   7.956581
                    6          7          8          9         10
     6  C    0.000000
     7  C    3.764530   0.000000
     8  C    4.395769   1.445719   0.000000
     9  C    3.876615   2.431796   1.439163   0.000000
    10  C    2.586738   2.848278   2.543237   1.450590   0.000000
    11  C    5.825352   2.553660   1.431504   2.485602   3.835583
    12  C    6.632393   3.839402   2.472862   2.834811   4.282800
    13  C    6.273510   4.269276   2.831553   2.428999   3.723968
    14  C    5.026957   3.732221   2.457702   1.408155   2.442143
    15  C    6.770774   3.113108   2.566898   3.854864   5.099172
    16  C    8.110277   4.493259   3.796301   4.925989   6.274524
    17  C    8.688454   5.314716   4.298885   5.114625   6.552151
    18  C    8.040870   5.047636   3.784384   4.254041   5.700472
    19  C    3.822957   4.673631   6.043937   6.424980   5.717599
    20  C    4.870058   4.672407   6.114456   6.783677   6.348719
    21  C    5.037670   3.731877   5.158715   6.059352   5.921639
    22  C    4.146370   2.368356   3.805285   4.691359   4.631984
    23  C    4.667626   1.470919   2.684207   3.871047   4.270487
    24  H    6.095124   4.345373   5.699841   6.758375   6.789965
    25  H    5.862665   5.702381   7.147037   7.859226   7.430708
    26  H    4.272857   5.697833   7.032995   7.299874   6.455589
    27  H    2.148044   5.281786   6.240895   5.951724   4.726972
    28  H    1.085300   4.679446   5.094557   4.307062   2.876801
    29  H    2.908620   3.930862   3.494796   2.178366   1.084169
    30  H    5.113289   4.580229   3.435853   2.150936   2.617462
    31  H    7.165387   5.352147   3.915597   3.410918   4.581956
    32  H    8.707012   5.970424   4.628460   4.840417   6.245989
    33  H    8.870095   5.163533   4.683013   5.904402   7.202385
    34  H    9.771863   6.376531   5.382534   6.170659   7.613916
    35  H    5.260360   2.389515   3.272258   4.355887   4.801622
    36  C    6.759370   3.052709   3.191051   4.615569   5.605723
    37  C    6.016445   2.544499   3.286149   4.674048   5.361315
    38  H    6.638926   3.466959   4.345995   5.706766   6.289551
    39  H    7.777995   4.116190   4.230966   5.635572   6.656314
                   11         12         13         14         15
    11  C    0.000000
    12  C    1.454277   0.000000
    13  C    2.478205   1.405266   0.000000
    14  C    2.845964   2.422074   1.377570   0.000000
    15  C    1.457164   2.477174   3.773138   4.295218   0.000000
    16  C    2.448795   2.777289   4.180284   5.048575   1.389036
    17  C    2.870467   2.421951   3.686960   4.840705   2.465772
    18  C    2.502726   1.420070   2.431697   3.702994   2.843003
    19  C    7.214321   8.501054   8.732007   7.821984   7.452792
    20  C    7.088284   8.472683   8.920072   8.187967   7.057317
    21  C    5.952556   7.378978   7.985939   7.426816   5.760793
    22  C    4.690581   6.089264   6.632319   6.055039   4.695274
    23  C    3.297791   4.727302   5.442515   5.103671   3.209283
    24  H    6.277895   7.725913   8.486850   8.075898   5.836817
    25  H    8.058481   9.465207   9.965054   9.261735   7.916433
    26  H    8.246128   9.501905   9.658014   8.676993   8.525629
    27  H    7.645534   8.612807   8.373380   7.159998   8.376167
    28  H    6.505497   7.137433   6.578710   5.246173   7.572406
    29  H    4.662077   4.843127   3.995999   2.619367   6.007371
    30  H    3.930472   3.402983   2.136529   1.084636   5.378650
    31  H    3.454646   2.148252   1.084337   2.139985   4.623451
    32  H    3.471075   2.156783   2.625424   4.000846   3.927378
    33  H    3.427362   3.860785   5.262636   6.111820   2.126176
    34  H    3.953809   3.412400   4.566294   5.802690   3.431876
    35  H    3.724661   4.993236   5.700684   5.448988   3.653124
    36  C    2.630058   3.886781   5.090846   5.374981   1.469097
    37  C    3.296738   4.716527   5.730470   5.711418   2.574062
    38  H    4.359658   5.760622   6.805640   6.781060   3.495150
    39  H    3.503563   4.584701   5.880246   6.303927   2.131346
                   16         17         18         19         20
    16  C    0.000000
    17  C    1.408706   0.000000
    18  C    2.392365   1.366153   0.000000
    19  C    8.807590   9.855448   9.715448   0.000000
    20  C    8.342433   9.511234   9.561194   1.382677   0.000000
    21  C    7.000698   8.214090   8.368784   2.481314   1.434020
    22  C    6.016538   7.131224   7.154389   2.849189   2.409935
    23  C    4.529560   5.631109   5.702932   4.324175   3.903170
    24  H    6.952323   8.248489   8.574181   3.439894   2.177799
    25  H    9.151881  10.374375  10.505527   2.127577   1.084564
    26  H    9.884570  10.919281  10.744342   1.084749   2.140382
    27  H    9.758628  10.506502   9.994803   2.879975   4.237399
    28  H    8.870252   9.326639   8.557008   4.713205   5.855757
    29  H    7.097300   7.215555   6.223460   6.457866   7.222820
    30  H    6.098799   5.790085   4.566794   8.295472   8.809243
    31  H    4.779363   3.989059   2.626648   9.784104   9.998126
    32  H    3.387937   2.137381   1.084564  10.642229  10.554451
    33  H    1.084167   2.147206   3.362824   9.174874   8.560711
    34  H    2.163005   1.083748   2.137092  10.872378  10.470561
    35  H    4.799934   5.795862   5.870792   4.893473   4.438211
    36  C    2.387432   3.731161   4.297692   6.676995   6.069610
    37  C    3.685262   4.981363   5.384158   5.427255   4.747506
    38  H    4.423804   5.792337   6.336738   5.404662   4.493007
    39  H    2.454284   3.856630   4.708482   7.428012   6.684790
                   21         22         23         24         25
    21  C    0.000000
    22  C    1.372165   0.000000
    23  C    2.676838   1.516143   0.000000
    24  H    1.084574   2.159352   3.047331   0.000000
    25  H    2.164545   3.378299   4.814320   2.467082   0.000000
    26  H    3.454139   3.933149   5.407508   4.314577   2.442699
    27  H    5.004995   4.666543   5.724130   6.074374   4.974836
    28  H    6.107256   5.230925   5.694188   7.170835   6.807609
    29  H    6.910493   5.656462   5.353077   7.815183   8.294035
    30  H    8.176631   6.815400   6.004715   8.901929   9.892806
    31  H    9.067836   7.714529   6.512489   9.558421  11.045554
    32  H    9.394234   8.151687   6.722367   9.631584  11.518474
    33  H    7.168679   6.348639   4.919590   6.958418   9.277216
    34  H    9.141019   8.113104   6.609560   9.098064  11.298771
    35  H    3.276366   2.408715   1.601424   3.493339   5.260953
    36  C    4.700028   3.864777   2.506216   4.604603   6.822989
    37  C    3.363685   2.620183   1.466029   3.293161   5.489006
    38  H    3.089238   2.808294   2.175295   2.703667   5.056250
    39  H    5.289714   4.660644   3.436948   4.999067   7.326430
                   26         27         28         29         30
    26  H    0.000000
    27  H    2.773860   0.000000
    28  H    4.997440   2.447600   0.000000
    29  H    7.085791   5.013528   2.780192   0.000000
    30  H    9.066400   7.257263   5.104440   2.326580   0.000000
    31  H   10.693086   9.293824   7.365452   4.660210   2.465263
    32  H   11.651711  10.732177   9.122366   6.613722   4.673002
    33  H   10.255125  10.388965   9.689743   8.071823   7.168633
    34  H   11.942404  11.585663  10.403066   8.244407   6.698043
    35  H    5.926512   6.281070   6.236154   5.822525   6.325075
    36  C    7.754777   8.057300   7.688614   6.622515   6.442050
    37  C    6.502402   7.059027   7.025921   6.435482   6.718056
    38  H    6.438633   7.405034   7.687478   7.369370   7.776312
    39  H    8.491706   8.991272   8.718058   7.660797   7.378099
                   31         32         33         34         35
    31  H    0.000000
    32  H    2.352411   0.000000
    33  H    5.838459   4.271322   0.000000
    34  H    4.681570   2.483184   2.463121   0.000000
    35  H    6.704951   6.837557   5.178913   6.716404   0.000000
    36  C    6.012981   5.381378   2.509985   4.547970   3.167508
    37  C    6.744598   6.462161   3.813390   5.844262   2.380619
    38  H    7.812239   7.420837   4.314842   6.561382   2.953957
    39  H    6.721489   5.761788   2.100187   4.464798   4.027579
                   36         37         38         39
    36  C    0.000000
    37  C    1.340574   0.000000
    38  H    2.077392   1.085922   0.000000
    39  H    1.086067   2.051411   2.299503   0.000000
 Stoichiometry    C25H14(3)
 Framework group  C1[X(C25H14)]
 Deg. of freedom   111
 Full point group                 C1      NOp   1
 Largest Abelian subgroup         C1      NOp   1
 Largest concise Abelian subgroup C1      NOp   1
                         Standard orientation:                         
 ---------------------------------------------------------------------
 Center     Atomic      Atomic             Coordinates (Angstroms)
 Number     Number       Type             X           Y           Z
 ---------------------------------------------------------------------
      1          6           0       -3.839426    0.386059   -0.049270
      2          6           0       -2.522296   -0.109155    0.049022
      3          6           0       -1.402795    0.700863    0.018653
      4          6           0       -1.494538    2.081394   -0.079271
      5          6           0       -3.948918    1.796593   -0.158578
      6          6           0       -2.811098    2.614266   -0.165013
      7          6           0       -0.209888   -0.095598    0.084042
      8          6           0        1.073929    0.566784    0.027770
      9          6           0        1.013556    2.004471    0.003266
     10          6           0       -0.229506    2.748327   -0.072147
     11          6           0        2.342559   -0.095997    0.005331
     12          6           0        3.541101    0.723595    0.087103
     13          6           0        3.436536    2.124454    0.124964
     14          6           0        2.209203    2.746366    0.057311
     15          6           0        2.542571   -1.530784   -0.151860
     16          6           0        3.840040   -2.026735   -0.157144
     17          6           0        4.983902   -1.219770    0.000465
     18          6           0        4.832475    0.133391    0.111816
     19          6           0       -4.852913   -0.615291   -0.038703
     20          6           0       -4.499202   -1.948322    0.059843
     21          6           0       -3.143012   -2.401342    0.169095
     22          6           0       -2.141103   -1.463786    0.171110
     23          6           0       -0.632072   -1.485370    0.316197
     24          1           0       -2.948980   -3.464133    0.264632
     25          1           0       -5.284698   -2.696167    0.061800
     26          1           0       -5.899171   -0.338410   -0.111931
     27          1           0       -4.927867    2.256705   -0.239396
     28          1           0       -2.942878    3.688679   -0.243418
     29          1           0       -0.168983    3.829720   -0.120615
     30          1           0        2.150646    3.829419    0.059089
     31          1           0        4.344778    2.713165    0.190554
     32          1           0        5.693886    0.786094    0.202528
     33          1           0        3.977243   -3.093702   -0.291957
     34          1           0        5.967653   -1.674376    0.009283
     35          1           0       -0.475676   -1.620770    1.904204
     36          6           0        1.523893   -2.568205   -0.362334
     37          6           0        0.198874   -2.595116   -0.160494
     38          1           0       -0.314711   -3.534946   -0.339873
     39          1           0        1.957516   -3.507813   -0.691955
 ---------------------------------------------------------------------
 Rotational constants (GHZ):           0.4916728           0.1790455           0.1319658
 Standard basis: 6-311+G(d,p) (5D, 7F)
 There are   659 symmetry adapted cartesian basis functions of A   symmetry.
 There are   634 symmetry adapted basis functions of A   symmetry.
   634 basis functions,  1012 primitive gaussians,   659 cartesian basis functions
    83 alpha electrons       81 beta electrons
       nuclear repulsion energy      1936.3262110495 Hartrees.
 NAtoms=   39 NActive=   39 NUniq=   39 SFac= 1.00D+00 NAtFMM=   60 NAOKFM=F Big=F
 Integral buffers will be    131072 words long.
 Raffenetti 2 integral format.
 Two-electron integral symmetry is turned on.
 One-electron integrals computed using PRISM.
 NBasis=   634 RedAO= T EigKep=  1.10D-06  NBF=   634
 NBsUse=   618 1.00D-06 EigRej=  7.55D-07 NBFU=   618
 ExpMin= 4.38D-02 ExpMax= 4.56D+03 ExpMxC= 6.82D+02 IAcc=2 IRadAn=         4 AccDes= 0.00D+00
 Harris functional with IExCor=  402 and IRadAn=       4 diagonalized for initial guess.
 HarFok:  IExCor=  402 AccDes= 0.00D+00 IRadAn=         4 IDoV= 1 UseB2=F ITyADJ=14
 ICtDFT=  3500011 ScaDFX=  1.000000  1.000000  1.000000  1.000000
 FoFCou: FMM=F IPFlag=           0 FMFlag=      100000 FMFlg1=           0
         NFxFlg=           0 DoJE=T BraDBF=F KetDBF=T FulRan=T
         wScrn=  0.000000 ICntrl=       500 IOpCl=  0 I1Cent=   200000004 NGrid=           0
         NMat0=    1 NMatS0=      1 NMatT0=    0 NMatD0=    1 NMtDS0=    0 NMtDT0=    0
 Petite list used in FoFCou.
 Initial guess <Sx>= 0.0000 <Sy>= 0.0000 <Sz>= 1.0000 <S**2>= 2.0000 S= 1.0000
 Requested convergence on RMS density matrix=1.00D-08 within 128 cycles.
 Requested convergence on MAX density matrix=1.00D-06.
 Requested convergence on             energy=1.00D-06.
 No special actions if energy rises.
 Restarting incremental Fock formation.
 SCF Done:  E(UB3LYP) =  -961.202551887     A.U. after   28 cycles
            NFock= 28  Conv=0.77D-08     -V/T= 2.0046
 <Sx>= 0.0000 <Sy>= 0.0000 <Sz>= 1.0000 <S**2>= 2.0296 S= 1.0098
 <L.S>=  0.00000000000    
 Annihilation of the first spin contaminant:
 S**2 before annihilation     2.0296,   after     2.0004

 **********************************************************************

            Population analysis using the SCF Density.

 **********************************************************************

 Orbital symmetries:
 Alpha Orbitals:
       Occupied  (A) (A) (A) (A) (A) (A) (A) (A) (A) (A) (A) (A)
                 (A) (A) (A) (A) (A) (A) (A) (A) (A) (A) (A) (A)
                 (A) (A) (A) (A) (A) (A) (A) (A) (A) (A) (A) (A)
                 (A) (A) (A) (A) (A) (A) (A) (A) (A) (A) (A) (A)
                 (A) (A) (A) (A) (A) (A) (A) (A) (A) (A) (A) (A)
                 (A) (A) (A) (A) (A) (A) (A) (A) (A) (A) (A) (A)
                 (A) (A) (A) (A) (A) (A) (A) (A) (A) (A) (A)
       Virtual   (A) (A) (A) (A) (A) (A) (A) (A) (A) (A) (A) (A)
                 (A) (A) (A) (A) (A) (A) (A) (A) (A) (A) (A) (A)
                 (A) (A) (A) (A) (A) (A) (A) (A) (A) (A) (A) (A)
                 (A) (A) (A) (A) (A) (A) (A) (A) (A) (A) (A) (A)
                 (A) (A) (A) (A) (A) (A) (A) (A) (A) (A) (A) (A)
                 (A) (A) (A) (A) (A) (A) (A) (A) (A) (A) (A) (A)
                 (A) (A) (A) (A) (A) (A) (A) (A) (A) (A) (A) (A)
                 (A) (A) (A) (A) (A) (A) (A) (A) (A) (A) (A) (A)
                 (A) (A) (A) (A) (A) (A) (A) (A) (A) (A) (A) (A)
                 (A) (A) (A) (A) (A) (A) (A) (A) (A) (A) (A) (A)
                 (A) (A) (A) (A) (A) (A) (A) (A) (A) (A) (A) (A)
                 (A) (A) (A) (A) (A) (A) (A) (A) (A) (A) (A) (A)
                 (A) (A) (A) (A) (A) (A) (A) (A) (A) (A) (A) (A)
                 (A) (A) (A) (A) (A) (A) (A) (A) (A) (A) (A) (A)
                 (A) (A) (A) (A) (A) (A) (A) (A) (A) (A) (A) (A)
                 (A) (A) (A) (A) (A) (A) (A) (A) (A) (A) (A) (A)
                 (A) (A) (A) (A) (A) (A) (A) (A) (A) (A) (A) (A)
                 (A) (A) (A) (A) (A) (A) (A) (A) (A) (A) (A) (A)
                 (A) (A) (A) (A) (A) (A) (A) (A) (A) (A) (A) (A)
                 (A) (A) (A) (A) (A) (A) (A) (A) (A) (A) (A) (A)
                 (A) (A) (A) (A) (A) (A) (A) (A) (A) (A) (A) (A)
                 (A) (A) (A) (A) (A) (A) (A) (A) (A) (A) (A) (A)
                 (A) (A) (A) (A) (A) (A) (A) (A) (A) (A) (A) (A)
                 (A) (A) (A) (A) (A) (A) (A) (A) (A) (A) (A) (A)
                 (A) (A) (A) (A) (A) (A) (A) (A) (A) (A) (A) (A)
                 (A) (A) (A) (A) (A) (A) (A) (A) (A) (A) (A) (A)
                 (A) (A) (A) (A) (A) (A) (A) (A) (A) (A) (A) (A)
                 (A) (A) (A) (A) (A) (A) (A) (A) (A) (A) (A) (A)
                 (A) (A) (A) (A) (A) (A) (A) (A) (A) (A) (A) (A)
                 (A) (A) (A) (A) (A) (A) (A) (A) (A) (A) (A) (A)
                 (A) (A) (A) (A) (A) (A) (A) (A) (A) (A) (A) (A)
                 (A) (A) (A) (A) (A) (A) (A) (A) (A) (A) (A) (A)
                 (A) (A) (A) (A) (A) (A) (A) (A) (A) (A) (A) (A)
                 (A) (A) (A) (A) (A) (A) (A) (A) (A) (A) (A) (A)
                 (A) (A) (A) (A) (A) (A) (A) (A) (A) (A) (A) (A)
                 (A) (A) (A) (A) (A) (A) (A) (A) (A) (A) (A) (A)
                 (A) (A) (A) (A) (A) (A) (A) (A) (A) (A) (A) (A)
                 (A) (A) (A) (A) (A) (A) (A) (A) (A) (A) (A) (A)
                 (A) (A) (A) (A) (A) (A) (A) (A) (A) (A) (A) (A)
                 (A) (A) (A) (A) (A) (A) (A) (A) (A) (A) (A) (A)
                 (A) (A) (A) (A) (A) (A) (A) (A) (A) (A) (A) (A)
                 (A) (A) (A) (A) (A) (A) (A) (A) (A) (A) (A) (A)
                 (A) (A) (A) (A) (A) (A) (A) (A) (A) (A) (A) (A)
                 (A) (A) (A) (A) (A) (A) (A) (A) (A) (A) (A) (A)
                 (A) (A) (A) (A) (A) (A) (A)
 Beta  Orbitals:
       Occupied  (A) (A) (A) (A) (A) (A) (A) (A) (A) (A) (A) (A)
                 (A) (A) (A) (A) (A) (A) (A) (A) (A) (A) (A) (A)
                 (A) (A) (A) (A) (A) (A) (A) (A) (A) (A) (A) (A)
                 (A) (A) (A) (A) (A) (A) (A) (A) (A) (A) (A) (A)
                 (A) (A) (A) (A) (A) (A) (A) (A) (A) (A) (A) (A)
                 (A) (A) (A) (A) (A) (A) (A) (A) (A) (A) (A) (A)
                 (A) (A) (A) (A) (A) (A) (A) (A) (A)
       Virtual   (A) (A) (A) (A) (A) (A) (A) (A) (A) (A) (A) (A)
                 (A) (A) (A) (A) (A) (A) (A) (A) (A) (A) (A) (A)
                 (A) (A) (A) (A) (A) (A) (A) (A) (A) (A) (A) (A)
                 (A) (A) (A) (A) (A) (A) (A) (A) (A) (A) (A) (A)
                 (A) (A) (A) (A) (A) (A) (A) (A) (A) (A) (A) (A)
                 (A) (A) (A) (A) (A) (A) (A) (A) (A) (A) (A) (A)
                 (A) (A) (A) (A) (A) (A) (A) (A) (A) (A) (A) (A)
                 (A) (A) (A) (A) (A) (A) (A) (A) (A) (A) (A) (A)
                 (A) (A) (A) (A) (A) (A) (A) (A) (A) (A) (A) (A)
                 (A) (A) (A) (A) (A) (A) (A) (A) (A) (A) (A) (A)
                 (A) (A) (A) (A) (A) (A) (A) (A) (A) (A) (A) (A)
                 (A) (A) (A) (A) (A) (A) (A) (A) (A) (A) (A) (A)
                 (A) (A) (A) (A) (A) (A) (A) (A) (A) (A) (A) (A)
                 (A) (A) (A) (A) (A) (A) (A) (A) (A) (A) (A) (A)
                 (A) (A) (A) (A) (A) (A) (A) (A) (A) (A) (A) (A)
                 (A) (A) (A) (A) (A) (A) (A) (A) (A) (A) (A) (A)
                 (A) (A) (A) (A) (A) (A) (A) (A) (A) (A) (A) (A)
                 (A) (A) (A) (A) (A) (A) (A) (A) (A) (A) (A) (A)
                 (A) (A) (A) (A) (A) (A) (A) (A) (A) (A) (A) (A)
                 (A) (A) (A) (A) (A) (A) (A) (A) (A) (A) (A) (A)
                 (A) (A) (A) (A) (A) (A) (A) (A) (A) (A) (A) (A)
                 (A) (A) (A) (A) (A) (A) (A) (A) (A) (A) (A) (A)
                 (A) (A) (A) (A) (A) (A) (A) (A) (A) (A) (A) (A)
                 (A) (A) (A) (A) (A) (A) (A) (A) (A) (A) (A) (A)
                 (A) (A) (A) (A) (A) (A) (A) (A) (A) (A) (A) (A)
                 (A) (A) (A) (A) (A) (A) (A) (A) (A) (A) (A) (A)
                 (A) (A) (A) (A) (A) (A) (A) (A) (A) (A) (A) (A)
                 (A) (A) (A) (A) (A) (A) (A) (A) (A) (A) (A) (A)
                 (A) (A) (A) (A) (A) (A) (A) (A) (A) (A) (A) (A)
                 (A) (A) (A) (A) (A) (A) (A) (A) (A) (A) (A) (A)
                 (A) (A) (A) (A) (A) (A) (A) (A) (A) (A) (A) (A)
                 (A) (A) (A) (A) (A) (A) (A) (A) (A) (A) (A) (A)
                 (A) (A) (A) (A) (A) (A) (A) (A) (A) (A) (A) (A)
                 (A) (A) (A) (A) (A) (A) (A) (A) (A) (A) (A) (A)
                 (A) (A) (A) (A) (A) (A) (A) (A) (A) (A) (A) (A)
                 (A) (A) (A) (A) (A) (A) (A) (A) (A) (A) (A) (A)
                 (A) (A) (A) (A) (A) (A) (A) (A) (A) (A) (A) (A)
                 (A) (A) (A) (A) (A) (A) (A) (A) (A) (A) (A) (A)
                 (A) (A) (A) (A) (A) (A) (A) (A) (A) (A) (A) (A)
                 (A) (A) (A) (A) (A) (A) (A) (A) (A) (A) (A) (A)
                 (A) (A) (A) (A) (A) (A) (A) (A) (A) (A) (A) (A)
                 (A) (A) (A) (A) (A) (A) (A) (A) (A) (A) (A) (A)
                 (A) (A) (A) (A) (A) (A) (A) (A) (A) (A) (A) (A)
                 (A) (A) (A) (A) (A) (A) (A) (A) (A) (A) (A) (A)
                 (A) (A) (A) (A) (A) (A) (A) (A) (A)
 The electronic state is 3-A.
 Alpha  occ. eigenvalues --  -10.22694 -10.20778 -10.20448 -10.20046 -10.19917
 Alpha  occ. eigenvalues --  -10.19824 -10.19704 -10.19480 -10.19476 -10.19347
 Alpha  occ. eigenvalues --  -10.19311 -10.19261 -10.19044 -10.18974 -10.18902
 Alpha  occ. eigenvalues --  -10.18706 -10.18647 -10.18400 -10.18345 -10.18273
 Alpha  occ. eigenvalues --  -10.18201 -10.18123 -10.18076 -10.17746 -10.17335
 Alpha  occ. eigenvalues --   -0.91915  -0.88942  -0.85929  -0.84810  -0.83507
 Alpha  occ. eigenvalues --   -0.80714  -0.79308  -0.78116  -0.75700  -0.75234
 Alpha  occ. eigenvalues --   -0.73724  -0.71486  -0.68946  -0.66261  -0.64820
 Alpha  occ. eigenvalues --   -0.63115  -0.62179  -0.59893  -0.59147  -0.56917
 Alpha  occ. eigenvalues --   -0.55727  -0.52666  -0.52399  -0.51589  -0.50354
 Alpha  occ. eigenvalues --   -0.48832  -0.47913  -0.47373  -0.46596  -0.45256
 Alpha  occ. eigenvalues --   -0.44728  -0.44282  -0.43900  -0.42307  -0.42147
 Alpha  occ. eigenvalues --   -0.41222  -0.41142  -0.40776  -0.40023  -0.39747
 Alpha  occ. eigenvalues --   -0.38708  -0.37305  -0.37137  -0.36782  -0.35668
 Alpha  occ. eigenvalues --   -0.35039  -0.34456  -0.33833  -0.33518  -0.31466
 Alpha  occ. eigenvalues --   -0.30658  -0.30186  -0.27179  -0.26276  -0.24481
 Alpha  occ. eigenvalues --   -0.22043  -0.21627  -0.13123
 Alpha virt. eigenvalues --   -0.07714  -0.05563  -0.03798  -0.02958  -0.00564
 Alpha virt. eigenvalues --    0.00033   0.00533   0.00577   0.01705   0.01765
 Alpha virt. eigenvalues --    0.01809   0.02835   0.03161   0.03199   0.03578
 Alpha virt. eigenvalues --    0.04052   0.04830   0.05068   0.05302   0.05365
 Alpha virt. eigenvalues --    0.06144   0.06540   0.06966   0.07310   0.07497
 Alpha virt. eigenvalues --    0.07622   0.08293   0.08412   0.08825   0.09540
 Alpha virt. eigenvalues --    0.09862   0.10248   0.10357   0.10895   0.11396
 Alpha virt. eigenvalues --    0.12089   0.12393   0.12440   0.12695   0.12844
 Alpha virt. eigenvalues --    0.13323   0.13666   0.13884   0.14191   0.14339
 Alpha virt. eigenvalues --    0.15096   0.15337   0.15731   0.15840   0.16180
 Alpha virt. eigenvalues --    0.16419   0.16712   0.17024   0.17128   0.17321
 Alpha virt. eigenvalues --    0.17683   0.18083   0.18230   0.18384   0.18675
 Alpha virt. eigenvalues --    0.18826   0.19192   0.19355   0.19559   0.19942
 Alpha virt. eigenvalues --    0.20162   0.20501   0.20638   0.20760   0.21225
 Alpha virt. eigenvalues --    0.21450   0.21776   0.22035   0.22158   0.22407
 Alpha virt. eigenvalues --    0.22565   0.23027   0.23248   0.23603   0.23918
 Alpha virt. eigenvalues --    0.24082   0.24465   0.24592   0.24860   0.25342
 Alpha virt. eigenvalues --    0.25601   0.26019   0.26160   0.26273   0.26558
 Alpha virt. eigenvalues --    0.27011   0.27073   0.27872   0.28060   0.28276
 Alpha virt. eigenvalues --    0.28422   0.28577   0.29061   0.29186   0.29512
 Alpha virt. eigenvalues --    0.30087   0.30693   0.30988   0.31398   0.31556
 Alpha virt. eigenvalues --    0.31810   0.31850   0.32458   0.33070   0.33198
 Alpha virt. eigenvalues --    0.33591   0.34397   0.34436   0.34650   0.35377
 Alpha virt. eigenvalues --    0.35665   0.36901   0.37637   0.37841   0.38282
 Alpha virt. eigenvalues --    0.38769   0.39583   0.40040   0.40507   0.41637
 Alpha virt. eigenvalues --    0.43055   0.43259   0.43835   0.44866   0.45414
 Alpha virt. eigenvalues --    0.46201   0.47260   0.47410   0.48403   0.48904
 Alpha virt. eigenvalues --    0.49815   0.50804   0.51303   0.51626   0.52473
 Alpha virt. eigenvalues --    0.52807   0.53011   0.53425   0.54085   0.54444
 Alpha virt. eigenvalues --    0.54631   0.54912   0.55325   0.55788   0.56102
 Alpha virt. eigenvalues --    0.56525   0.56734   0.57882   0.58013   0.58137
 Alpha virt. eigenvalues --    0.58376   0.58985   0.59101   0.59685   0.60462
 Alpha virt. eigenvalues --    0.60602   0.61041   0.61294   0.61871   0.62250
 Alpha virt. eigenvalues --    0.63000   0.63592   0.64389   0.64576   0.64984
 Alpha virt. eigenvalues --    0.65340   0.65626   0.66441   0.66758   0.66801
 Alpha virt. eigenvalues --    0.67426   0.67790   0.68111   0.68944   0.69342
 Alpha virt. eigenvalues --    0.69987   0.70218   0.71174   0.71554   0.71705
 Alpha virt. eigenvalues --    0.72455   0.72830   0.73245   0.73288   0.73547
 Alpha virt. eigenvalues --    0.73913   0.74225   0.74648   0.75479   0.76002
 Alpha virt. eigenvalues --    0.76431   0.76941   0.77378   0.80367   0.80759
 Alpha virt. eigenvalues --    0.81702   0.82287   0.83203   0.83803   0.84648
 Alpha virt. eigenvalues --    0.85181   0.85261   0.86260   0.86306   0.87703
 Alpha virt. eigenvalues --    0.88903   0.88953   0.89350   0.90881   0.91152
 Alpha virt. eigenvalues --    0.91598   0.91779   0.92461   0.92629   0.92738
 Alpha virt. eigenvalues --    0.93904   0.94149   0.94332   0.94798   0.95297
 Alpha virt. eigenvalues --    0.95933   0.96429   0.97055   0.97648   0.98126
 Alpha virt. eigenvalues --    0.99047   0.99296   0.99362   1.00688   1.00790
 Alpha virt. eigenvalues --    1.01890   1.02665   1.02861   1.03298   1.04005
 Alpha virt. eigenvalues --    1.04850   1.05163   1.06580   1.07460   1.07676
 Alpha virt. eigenvalues --    1.08269   1.08586   1.09818   1.10288   1.11279
 Alpha virt. eigenvalues --    1.12764   1.13025   1.13661   1.13951   1.15288
 Alpha virt. eigenvalues --    1.16034   1.16828   1.18367   1.18517   1.20234
 Alpha virt. eigenvalues --    1.21991   1.22984   1.25665   1.26880   1.30418
 Alpha virt. eigenvalues --    1.32174   1.32869   1.33001   1.35741   1.36243
 Alpha virt. eigenvalues --    1.38740   1.40014   1.40901   1.41907   1.42481
 Alpha virt. eigenvalues --    1.44177   1.44962   1.46498   1.46855   1.47873
 Alpha virt. eigenvalues --    1.48168   1.48907   1.49000   1.49445   1.50148
 Alpha virt. eigenvalues --    1.50438   1.50930   1.51188   1.52800   1.54421
 Alpha virt. eigenvalues --    1.55123   1.55617   1.56286   1.56612   1.56891
 Alpha virt. eigenvalues --    1.57486   1.58272   1.59328   1.60043   1.60439
 Alpha virt. eigenvalues --    1.62171   1.62767   1.63692   1.65448   1.66639
 Alpha virt. eigenvalues --    1.66959   1.67857   1.69815   1.70055   1.70848
 Alpha virt. eigenvalues --    1.71562   1.72346   1.72741   1.73360   1.74327
 Alpha virt. eigenvalues --    1.74743   1.75023   1.75149   1.75709   1.76879
 Alpha virt. eigenvalues --    1.78678   1.79875   1.81354   1.81925   1.82158
 Alpha virt. eigenvalues --    1.83159   1.83233   1.84630   1.84844   1.85581
 Alpha virt. eigenvalues --    1.86387   1.87269   1.87683   1.87884   1.89177
 Alpha virt. eigenvalues --    1.89652   1.90631   1.91429   1.91572   1.92245
 Alpha virt. eigenvalues --    1.92624   1.93101   1.93526   1.93963   1.94250
 Alpha virt. eigenvalues --    1.95244   1.97843   1.98972   1.99278   1.99580
 Alpha virt. eigenvalues --    2.00054   2.01589   2.03178   2.03969   2.04360
 Alpha virt. eigenvalues --    2.04965   2.05984   2.06457   2.08321   2.08686
 Alpha virt. eigenvalues --    2.09679   2.11068   2.11549   2.12447   2.13443
 Alpha virt. eigenvalues --    2.14165   2.14910   2.15765   2.16376   2.18979
 Alpha virt. eigenvalues --    2.19984   2.21419   2.22185   2.22519   2.23586
 Alpha virt. eigenvalues --    2.24916   2.26105   2.28881   2.29813   2.31728
 Alpha virt. eigenvalues --    2.32635   2.35392   2.35717   2.37529   2.38242
 Alpha virt. eigenvalues --    2.39690   2.42420   2.42771   2.44000   2.44226
 Alpha virt. eigenvalues --    2.44587   2.46105   2.47677   2.49906   2.52710
 Alpha virt. eigenvalues --    2.55065   2.55694   2.57044   2.57640   2.59224
 Alpha virt. eigenvalues --    2.60963   2.63920   2.64136   2.64691   2.66153
 Alpha virt. eigenvalues --    2.66942   2.68177   2.69080   2.69505   2.70469
 Alpha virt. eigenvalues --    2.70826   2.71198   2.71929   2.72172   2.73395
 Alpha virt. eigenvalues --    2.73902   2.74556   2.75109   2.75884   2.76016
 Alpha virt. eigenvalues --    2.76410   2.76605   2.77200   2.77849   2.78773
 Alpha virt. eigenvalues --    2.79514   2.79928   2.80458   2.81393   2.82167
 Alpha virt. eigenvalues --    2.82473   2.83377   2.84380   2.85784   2.86618
 Alpha virt. eigenvalues --    2.86978   2.87508   2.88560   2.90108   2.90515
 Alpha virt. eigenvalues --    2.91367   2.91823   2.92621   2.94176   2.95969
 Alpha virt. eigenvalues --    2.97861   3.00182   3.02037   3.03952   3.07143
 Alpha virt. eigenvalues --    3.09019   3.10590   3.12472   3.15334   3.15770
 Alpha virt. eigenvalues --    3.18458   3.20470   3.21005   3.22588   3.23913
 Alpha virt. eigenvalues --    3.24693   3.28448   3.29518   3.30371   3.33102
 Alpha virt. eigenvalues --    3.34617   3.37261   3.38555   3.39567   3.41147
 Alpha virt. eigenvalues --    3.41368   3.44844   3.45493   3.46499   3.47520
 Alpha virt. eigenvalues --    3.48729   3.50608   3.52490   3.54697   3.55926
 Alpha virt. eigenvalues --    3.58263   3.59186   3.62215   3.65232   3.65702
 Alpha virt. eigenvalues --    3.70082   3.72826   3.79607   3.81753   3.90013
 Alpha virt. eigenvalues --    3.98579   4.03428   4.05870   4.07089   4.07331
 Alpha virt. eigenvalues --    4.11286   4.11638   4.13145   4.21800   4.27153
 Alpha virt. eigenvalues --    4.31864   4.37978   4.53926   4.61864   4.73953
 Alpha virt. eigenvalues --    4.77699   4.79713   4.81130   4.83324   4.87181
 Alpha virt. eigenvalues --   23.42593  23.60626  23.74389  23.78150  23.82109
 Alpha virt. eigenvalues --   23.86097  23.88670  23.90166  23.92230  23.93012
 Alpha virt. eigenvalues --   23.94687  23.97662  23.98510  23.99272  24.00599
 Alpha virt. eigenvalues --   24.01619  24.06943  24.08912  24.10060  24.11495
 Alpha virt. eigenvalues --   24.15655  24.17884  24.18639  24.19822  24.25658
  Beta  occ. eigenvalues --  -10.22832 -10.20634 -10.20451 -10.20027 -10.19885
  Beta  occ. eigenvalues --  -10.19383 -10.19379 -10.19371 -10.19302 -10.19138
  Beta  occ. eigenvalues --  -10.19106 -10.19023 -10.18866 -10.18825 -10.18808
  Beta  occ. eigenvalues --  -10.18745 -10.18570 -10.18393 -10.18242 -10.18230
  Beta  occ. eigenvalues --  -10.18164 -10.18078 -10.18018 -10.17725 -10.17227
  Beta  occ. eigenvalues --   -0.91414  -0.88662  -0.85532  -0.84378  -0.83293
  Beta  occ. eigenvalues --   -0.80545  -0.78823  -0.77565  -0.75408  -0.74969
  Beta  occ. eigenvalues --   -0.73507  -0.70727  -0.68532  -0.65774  -0.64607
  Beta  occ. eigenvalues --   -0.62930  -0.61951  -0.59343  -0.58949  -0.56551
  Beta  occ. eigenvalues --   -0.55501  -0.52512  -0.52200  -0.51460  -0.50253
  Beta  occ. eigenvalues --   -0.48678  -0.47682  -0.47144  -0.46378  -0.45045
  Beta  occ. eigenvalues --   -0.44281  -0.43794  -0.43247  -0.42155  -0.41973
  Beta  occ. eigenvalues --   -0.41057  -0.40877  -0.40136  -0.39803  -0.39544
  Beta  occ. eigenvalues --   -0.37620  -0.37060  -0.36539  -0.36077  -0.35530
  Beta  occ. eigenvalues --   -0.34914  -0.33856  -0.33640  -0.33249  -0.31007
  Beta  occ. eigenvalues --   -0.29316  -0.27850  -0.26029  -0.25178  -0.23633
  Beta  occ. eigenvalues --   -0.20650
  Beta virt. eigenvalues --   -0.15178  -0.06690  -0.06384  -0.04559  -0.02965
  Beta virt. eigenvalues --   -0.02022   0.00071   0.00536   0.00608   0.01077
  Beta virt. eigenvalues --    0.01716   0.01820   0.02299   0.03167   0.03194
  Beta virt. eigenvalues --    0.03673   0.03732   0.04406   0.04870   0.05123
  Beta virt. eigenvalues --    0.05355   0.05496   0.06360   0.06989   0.07234
  Beta virt. eigenvalues --    0.07456   0.07535   0.07692   0.08478   0.08529
  Beta virt. eigenvalues --    0.09070   0.09602   0.10258   0.10414   0.10469
  Beta virt. eigenvalues --    0.11184   0.11637   0.12399   0.12460   0.12507
  Beta virt. eigenvalues --    0.12811   0.12992   0.13433   0.13744   0.14085
  Beta virt. eigenvalues --    0.14315   0.14587   0.15223   0.15485   0.15821
  Beta virt. eigenvalues --    0.15926   0.16283   0.16519   0.16786   0.17115
  Beta virt. eigenvalues --    0.17270   0.17395   0.17909   0.18299   0.18452
  Beta virt. eigenvalues --    0.18621   0.18826   0.18963   0.19300   0.19483
  Beta virt. eigenvalues --    0.19752   0.20041   0.20270   0.20585   0.20864
  Beta virt. eigenvalues --    0.21011   0.21349   0.21593   0.22042   0.22132
  Beta virt. eigenvalues --    0.22381   0.22554   0.22782   0.23313   0.23541
  Beta virt. eigenvalues --    0.23829   0.24024   0.24340   0.24647   0.24741
  Beta virt. eigenvalues --    0.25011   0.25479   0.25754   0.26084   0.26279
  Beta virt. eigenvalues --    0.26341   0.26645   0.27138   0.27249   0.27963
  Beta virt. eigenvalues --    0.28227   0.28368   0.28551   0.28717   0.29194
  Beta virt. eigenvalues --    0.29318   0.29637   0.30177   0.30807   0.31102
  Beta virt. eigenvalues --    0.31509   0.31711   0.31908   0.32045   0.32561
  Beta virt. eigenvalues --    0.33227   0.33279   0.33738   0.34510   0.34640
  Beta virt. eigenvalues --    0.34816   0.35455   0.35794   0.37085   0.37809
  Beta virt. eigenvalues --    0.38007   0.38411   0.38969   0.39761   0.40283
  Beta virt. eigenvalues --    0.40680   0.41884   0.43252   0.43442   0.43937
  Beta virt. eigenvalues --    0.45179   0.45578   0.46441   0.47425   0.47639
  Beta virt. eigenvalues --    0.48574   0.49400   0.50056   0.51133   0.51666
  Beta virt. eigenvalues --    0.52257   0.52710   0.53048   0.53456   0.54212
  Beta virt. eigenvalues --    0.54353   0.54703   0.54898   0.55159   0.55461
  Beta virt. eigenvalues --    0.56037   0.56570   0.56801   0.56929   0.58078
  Beta virt. eigenvalues --    0.58260   0.58599   0.58764   0.59141   0.59290
  Beta virt. eigenvalues --    0.59867   0.60735   0.60848   0.61442   0.61597
  Beta virt. eigenvalues --    0.62019   0.62603   0.63242   0.63958   0.64723
  Beta virt. eigenvalues --    0.64784   0.65202   0.65570   0.65909   0.66616
  Beta virt. eigenvalues --    0.66948   0.67159   0.67591   0.68063   0.68265
  Beta virt. eigenvalues --    0.69337   0.69668   0.70199   0.70857   0.71353
  Beta virt. eigenvalues --    0.71667   0.71863   0.72690   0.73018   0.73394
  Beta virt. eigenvalues --    0.73471   0.73752   0.74271   0.74494   0.74834
  Beta virt. eigenvalues --    0.75694   0.76171   0.76760   0.77087   0.77467
  Beta virt. eigenvalues --    0.80634   0.80927   0.81920   0.82425   0.83382
  Beta virt. eigenvalues --    0.83893   0.84801   0.85317   0.85601   0.86376
  Beta virt. eigenvalues --    0.86463   0.87966   0.89099   0.89399   0.89583
  Beta virt. eigenvalues --    0.91105   0.91428   0.91889   0.92014   0.92654
  Beta virt. eigenvalues --    0.92921   0.93045   0.94139   0.94425   0.94600
  Beta virt. eigenvalues --    0.95106   0.95454   0.96119   0.96699   0.97291
  Beta virt. eigenvalues --    0.97962   0.98407   0.99316   0.99703   0.99939
  Beta virt. eigenvalues --    1.00976   1.01117   1.02213   1.03038   1.03211
  Beta virt. eigenvalues --    1.03784   1.04373   1.05197   1.05515   1.06819
  Beta virt. eigenvalues --    1.07743   1.07993   1.08752   1.09013   1.10373
  Beta virt. eigenvalues --    1.10535   1.11519   1.13120   1.13397   1.13954
  Beta virt. eigenvalues --    1.14380   1.15745   1.16405   1.17192   1.18634
  Beta virt. eigenvalues --    1.18918   1.20621   1.22369   1.23304   1.25896
  Beta virt. eigenvalues --    1.27173   1.30702   1.32708   1.33260   1.33696
  Beta virt. eigenvalues --    1.35990   1.36507   1.39091   1.40363   1.41300
  Beta virt. eigenvalues --    1.42377   1.42879   1.44359   1.45170   1.46980
  Beta virt. eigenvalues --    1.47287   1.48169   1.48509   1.49085   1.49304
  Beta virt. eigenvalues --    1.49741   1.50447   1.50828   1.51394   1.51468
  Beta virt. eigenvalues --    1.53087   1.54547   1.55336   1.55945   1.56545
  Beta virt. eigenvalues --    1.56895   1.57062   1.57681   1.58440   1.59615
  Beta virt. eigenvalues --    1.60421   1.60833   1.62433   1.63205   1.63923
  Beta virt. eigenvalues --    1.65814   1.67104   1.67286   1.68114   1.70188
  Beta virt. eigenvalues --    1.70435   1.71188   1.71781   1.72659   1.73064
  Beta virt. eigenvalues --    1.73650   1.74623   1.74926   1.75317   1.75796
  Beta virt. eigenvalues --    1.76070   1.77378   1.79089   1.80465   1.81854
  Beta virt. eigenvalues --    1.82218   1.82838   1.83360   1.83651   1.84981
  Beta virt. eigenvalues --    1.85606   1.86043   1.86891   1.87641   1.87953
  Beta virt. eigenvalues --    1.88388   1.89383   1.90027   1.91097   1.91802
  Beta virt. eigenvalues --    1.91934   1.92639   1.93080   1.93511   1.93956
  Beta virt. eigenvalues --    1.94314   1.94754   1.95566   1.98339   1.99249
  Beta virt. eigenvalues --    1.99599   1.99928   2.00529   2.01933   2.03819
  Beta virt. eigenvalues --    2.04538   2.04689   2.05419   2.06175   2.07243
  Beta virt. eigenvalues --    2.08662   2.09207   2.09967   2.11609   2.11721
  Beta virt. eigenvalues --    2.12800   2.13844   2.14456   2.15186   2.16021
  Beta virt. eigenvalues --    2.16714   2.19419   2.20301   2.21697   2.22677
  Beta virt. eigenvalues --    2.22936   2.23909   2.25233   2.26323   2.29105
  Beta virt. eigenvalues --    2.30037   2.32110   2.32914   2.35580   2.36041
  Beta virt. eigenvalues --    2.37866   2.38442   2.40176   2.42656   2.43075
  Beta virt. eigenvalues --    2.44225   2.44602   2.44848   2.46672   2.47945
  Beta virt. eigenvalues --    2.50311   2.53007   2.55292   2.55878   2.57186
  Beta virt. eigenvalues --    2.57842   2.59511   2.61407   2.64192   2.64634
  Beta virt. eigenvalues --    2.65090   2.67123   2.67220   2.68482   2.69495
  Beta virt. eigenvalues --    2.70439   2.70790   2.70975   2.71316   2.72105
  Beta virt. eigenvalues --    2.72827   2.73625   2.74075   2.74754   2.75548
  Beta virt. eigenvalues --    2.76159   2.76359   2.76547   2.76850   2.77370
  Beta virt. eigenvalues --    2.77957   2.79588   2.79689   2.80334   2.80676
  Beta virt. eigenvalues --    2.81700   2.82461   2.82906   2.83478   2.84834
  Beta virt. eigenvalues --    2.85954   2.86803   2.87678   2.88162   2.88658
  Beta virt. eigenvalues --    2.90543   2.91172   2.91737   2.92260   2.92870
  Beta virt. eigenvalues --    2.94721   2.96208   2.98325   3.00917   3.02461
  Beta virt. eigenvalues --    3.04862   3.07577   3.09592   3.10820   3.12939
  Beta virt. eigenvalues --    3.15617   3.16384   3.18647   3.20640   3.21153
  Beta virt. eigenvalues --    3.22731   3.24000   3.25075   3.28615   3.29668
  Beta virt. eigenvalues --    3.31163   3.33387   3.34732   3.37423   3.38650
  Beta virt. eigenvalues --    3.39661   3.41235   3.41473   3.44974   3.45638
  Beta virt. eigenvalues --    3.46625   3.47722   3.48877   3.50704   3.52627
  Beta virt. eigenvalues --    3.54868   3.55990   3.58355   3.59301   3.62356
  Beta virt. eigenvalues --    3.65387   3.65909   3.70375   3.72980   3.79793
  Beta virt. eigenvalues --    3.82052   3.90318   3.98742   4.03540   4.05969
  Beta virt. eigenvalues --    4.07334   4.07486   4.11558   4.11764   4.13288
  Beta virt. eigenvalues --    4.22399   4.27376   4.32094   4.38316   4.54124
  Beta virt. eigenvalues --    4.62346   4.74342   4.78329   4.80056   4.81321
  Beta virt. eigenvalues --    4.83569   4.87500  23.42733  23.60700  23.74449
  Beta virt. eigenvalues --   23.78275  23.82189  23.86276  23.88776  23.90208
  Beta virt. eigenvalues --   23.92412  23.93157  23.95073  23.97706  23.98901
  Beta virt. eigenvalues --   23.99452  24.00911  24.01721  24.07068  24.08942
  Beta virt. eigenvalues --   24.10199  24.11525  24.15692  24.18032  24.18703
  Beta virt. eigenvalues --   24.19856  24.25672
          Condensed to atoms (all electrons):
               1          2          3          4          5          6
     1  C   12.358834   1.597979  -1.284272   1.571448  -4.147698  -0.043810
     2  C    1.597979   8.093284   0.730287   0.500440  -0.117491   0.493825
     3  C   -1.284272   0.730287   7.690336   0.125823   1.935937  -0.282504
     4  C    1.571448   0.500440   0.125823   9.840307  -2.801030  -0.396281
     5  C   -4.147698  -0.117491   1.935937  -2.801030  12.144931   0.811810
     6  C   -0.043810   0.493825  -0.282504  -0.396281   0.811810  10.261257
     7  C   -0.101904  -1.731764  -0.230150   0.346856  -0.686688  -1.005725
     8  C   -0.826454  -0.335072   0.487388  -1.145544   0.427524  -1.010042
     9  C    0.183927   0.057148  -0.503421   0.010066  -0.700193  -0.011581
    10  C   -0.105348  -0.284151   0.290281   1.149508  -0.527379  -0.791039
    11  C    0.064195  -0.085140   0.174568  -0.540066  -0.088016  -0.249921
    12  C    0.049747   0.241775  -0.192407   0.169865  -0.072416   0.145725
    13  C   -0.037875  -0.023492  -0.051115  -0.087265   0.012547  -0.214915
    14  C   -0.178028  -0.024001  -0.908729  -0.807986  -0.064219  -0.414188
    15  C   -0.184024  -0.426797  -0.461652  -0.506987   0.097704  -0.151435
    16  C    0.030579  -0.009135   0.207174  -0.012812   0.000772   0.003227
    17  C   -0.002157  -0.003776  -0.026330  -0.025355   0.000811  -0.004335
    18  C    0.001267   0.038089  -0.143262   0.056267  -0.003756   0.015221
    19  C   -1.774053  -1.694240  -0.763314   0.104814  -1.084272   0.218452
    20  C    0.356424   0.788592  -0.134200  -0.092231  -0.278492  -0.066565
    21  C   -0.010698  -0.045490   0.223361  -0.021320   0.103516  -0.085385
    22  C    0.195011   1.101674  -0.275008   0.295503  -0.622987  -0.538322
    23  C   -2.146724  -3.601479  -0.303747  -2.213201   1.783760  -0.779520
    24  H   -0.019922   0.025855  -0.002433   0.002638  -0.006157  -0.001956
    25  H   -0.008220  -0.020206  -0.000447   0.002204   0.006004  -0.001322
    26  H   -0.057722   0.034131  -0.011493   0.002848   0.035659   0.020208
    27  H   -0.080372   0.008596  -0.001530   0.026519   0.378537  -0.048242
    28  H   -0.043661   0.002313   0.027628  -0.070141  -0.006111   0.343986
    29  H    0.007001  -0.004344   0.001219  -0.043109   0.007845   0.036159
    30  H    0.000684   0.001793   0.012142   0.058412   0.000984   0.010886
    31  H    0.000022   0.000115   0.000881   0.004812   0.000028   0.000412
    32  H   -0.000004   0.000001  -0.000207   0.000160   0.000001   0.000026
    33  H   -0.000011  -0.000011  -0.000752  -0.000115   0.000006  -0.000014
    34  H    0.000001   0.000013   0.000042   0.000078   0.000000   0.000003
    35  H   -0.022373  -0.174421  -0.075577  -0.033581   0.008930  -0.019717
    36  C   -0.040424   0.012358  -0.052742   0.030028  -0.015537  -0.001821
    37  C    0.247186   0.827218  -0.212277  -0.018304  -0.032178   0.167380
    38  H   -0.002016  -0.006476  -0.002904   0.000949  -0.000003  -0.000505
    39  H    0.000259   0.002302   0.000375  -0.000334  -0.000020   0.000063
               7          8          9         10         11         12
     1  C   -0.101904  -0.826454   0.183927  -0.105348   0.064195   0.049747
     2  C   -1.731764  -0.335072   0.057148  -0.284151  -0.085140   0.241775
     3  C   -0.230150   0.487388  -0.503421   0.290281   0.174568  -0.192407
     4  C    0.346856  -1.145544   0.010066   1.149508  -0.540066   0.169865
     5  C   -0.686688   0.427524  -0.700193  -0.527379  -0.088016  -0.072416
     6  C   -1.005725  -1.010042  -0.011581  -0.791039  -0.249921   0.145725
     7  C   11.091699   0.315086   0.284480   0.516842  -0.224504  -0.052671
     8  C    0.315086   9.069470  -2.985589   0.025521   1.438415  -2.039231
     9  C    0.284480  -2.985589  18.218078   1.039192  -1.138506   2.839453
    10  C    0.516842   0.025521   1.039192   8.901782  -0.730570  -0.929984
    11  C   -0.224504   1.438415  -1.138506  -0.730570   9.474867   0.436365
    12  C   -0.052671  -2.039231   2.839453  -0.929984   0.436365  13.416550
    13  C   -0.867125   0.979150  -3.865779  -0.691681  -0.320314  -1.435099
    14  C   -0.713644   0.487908  -0.480159  -1.938024  -0.147792  -1.546465
    15  C    0.107368   1.311514  -3.292093  -0.014094   1.176311  -2.433671
    16  C   -0.305272  -0.309456   0.167757   0.095736  -1.415830   1.290623
    17  C    0.039699  -0.235976  -0.531075  -0.105312   0.453719  -0.521388
    18  C    0.044522  -0.477833  -0.118498  -0.037833  -0.083406  -0.767696
    19  C    0.542853  -0.060581   0.066962   0.033165   0.028991   0.010279
    20  C   -0.146829  -0.028971  -0.080374  -0.049932   0.017251  -0.004183
    21  C    0.130903   0.081559   0.093070  -0.061067   0.008987  -0.049983
    22  C   -2.214123  -0.598150   0.021138  -0.030522   0.548868   0.247637
    23  C    1.535961   1.457658  -3.603436  -0.060656  -1.466034  -1.133606
    24  H   -0.003507   0.001858  -0.000864  -0.000035  -0.000416   0.000022
[...]
 77,0.00143753,0.00294803,-0.01009835,-0.00038741,-0.01520676,-0.004662
 81,0.00081670,0.00557076,-0.01325675,0.00028256,0.00878529,0.01244455,
 -0.00040292,-0.01273587,-0.00013702,-0.00008796,0.01130002,0.00490817,
 -0.00092806,-0.01280042,-0.00005038,0.00044218,0.00484494,-0.00799139,
 0.00054336,0.00368608,0.00344293,-0.00018188,-0.00011928,0.00579391,0.
 00044435,-0.00647262,-0.00756555,-0.00020093,0.01370799,-0.00377960,-0
 .00153127,-0.02303149,0.00526993,-0.00549724,0.01114642,0.00411884,0.0
 8494082,0.00029502,-0.00008549,-0.00024380,-0.00007948,-0.00007730,0.0
 0002891,0.00010164,0.00004555,-0.00010068,0.00003482,0.00037653,0.0000
 0766,0.00017197,-0.00007525,-0.00003729,-0.00003978,0.00003238,-0.0000
 6309,-0.00013395,-0.00012112,-0.00001314,0.00009294,0.00016286,0.00000
 840,-0.00004654,-0.00002321,0.00000702,-0.00023137,0.00008640,-0.00004
 314,0.00016174,-0.00017235,-0.00001475,-0.00807044,-0.00360039,-0.0182
 3486,-0.03870170,-0.00069824,0.02220406,0.00254713,-0.00376198,-0.0248
 8041,-0.02168121,-0.00691106,-0.07863127,0.03149626,0.00015621,-0.0356
 4050,0.04026383,-0.00055838,0.05570915,0.00075616,0.00253823,-0.013647
 57,-0.02805850,-0.02182140,0.08618770,-0.01712363,-0.00209737,0.028380
 94,0.02071872,0.00314306,0.03223257,-0.02934118,0.00065612,-0.06155175
 ,-0.02733850,0.00267082,0.03429875,-0.03227477,0.00080536,0.02044794,0
 .02927291,-0.00097214,-0.02605311,-0.00057334,-0.00012698,0.01520738,0
 .02930287,-0.00437736,-0.02073072,-0.00328622,0.00157175,0.00877148,-0
 .00131159,-0.00008987,-0.00535789,-0.00973925,0.00077851,0.00001365,0.
 02047871,0.00168791,-0.02054690,-0.02410206,-0.00092961,0.04124171,-0.
 01152291,-0.00515964,-0.08445860,0.01053142,-0.01755227,0.02323470,0.0
 3267380,0.27383934,0.00072093,-0.00000414,-0.00059191,-0.00018202,-0.0
 0016479,0.00001892,0.00022832,0.00021788,-0.00031739,0.00003876,0.0013
 4887,-0.00005261,0.00048326,-0.00036575,0.00015652,0.00011098,0.000221
 80,-0.00041889,-0.00041032,-0.00031673,0.00013348,0.00040982,0.0003489
 9,0.00002068,-0.00014737,-0.00045561,-0.00001012,-0.00038128,0.0004580
 7,-0.00014717,0.00022795,-0.00011674,-0.00008175,-0.02345137,-0.046511
 55,-0.16926816,-0.00246528,-0.01567059,0.00003462,0.00801729,-0.002677
 35,-0.00180888,-0.02021184,-0.01399005,-0.00226923,-0.02742070,0.01439
 524,0.00002905,-0.01109775,0.01489950,-0.00010465,0.01804461,-0.001871
 09,0.00079968,-0.00382169,0.02085955,-0.00003447,0.02148787,-0.0214154
 1,-0.00127112,0.02459486,0.02333747,0.00208398,-0.00008184,-0.01431636
 ,-0.00008681,0.00494566,0.01267530,-0.00272982,0.00375122,-0.01703153,
 0.00065837,0.01034887,0.01419301,-0.00038280,-0.01533986,-0.00229567,-
 0.00029283,-0.12840887,0.05141990,-0.00058104,-0.08491325,0.02298751,0
 .00206631,0.00684695,-0.02716998,0.00174663,0.00945566,0.01007285,-0.0
 0066772,-0.00383937,0.00980994,0.00039732,-0.00846366,-0.01102608,-0.0
 0065906,0.01433150,-0.00344847,-0.00133871,-0.01177359,0.00266210,-0.0
 0302611,-0.01843583,-0.01722691,0.07211336,0.00052920,-0.00039522,-0.0
 0013989,-0.00021094,-0.00022919,0.00006534,0.00019843,0.00010334,-0.00
 007340,0.00013405,0.00027037,-0.00005164,0.00003331,-0.00011518,0.0000
 7584,-0.00009335,-0.00026668,-0.00020549,-0.00002813,-0.00032970,0.000
 01966,-0.00000825,-0.00028049,0.00006267,0.00009270,0.00020818,-0.0000
 2971,-0.00207705,0.00384472,-0.00035226,-0.00036329,0.00021915,-0.0001
 6975,-0.01197006,-0.02144968,-0.03191075,0.75181177,0.00097713,0.00247
 562,-0.00000221,-0.00406117,0.00012042,-0.00033370,0.00380921,0.002151
 90,0.00025496,0.00370457,-0.00140782,0.00008401,0.00150145,-0.00301576
 ,-0.00000503,-0.00311254,0.00078927,-0.00015283,-0.00023521,-0.0041595
 3,0.00028206,0.00004256,0.00933979,0.00033351,-0.00687275,-0.00831828,
 -0.00074260,0.00355208,0.00309709,0.00016988,0.01541497,-0.02597059,0.
 00236549,-0.00071057,-0.00235975,0.00014712,-0.00012550,-0.00281887,0.
 00016310,0.00307416,0.00087995,0.00004975,0.07050222,-0.18015538,0.008
 29146,0.02066546,0.00950025,-0.00160662,-0.00716770,0.00980049,0.00018
 737,-0.00513633,-0.00618890,0.00039555,0.00119240,-0.00170065,0.000000
 99,0.00134032,0.00250956,0.00002716,-0.00261356,0.00029800,0.00001142,
 0.00055483,-0.00516042,0.00270961,-0.03279684,0.00550835,-0.00464355,-
 0.00046267,0.00045599,0.00012127,-0.00001821,0.00005514,-0.00004381,-0
 .00008304,0.00000730,0.00001367,-0.00005588,-0.00007825,0.00001534,0.0
 0001278,0.00000045,-0.00001654,0.00010859,0.00010972,0.00004704,-0.000
 04478,0.00011219,0.00002213,-0.00002022,-0.00032922,0.00002417,0.00002
 532,-0.00007719,-0.00008496,-0.00337522,-0.00043320,-0.00037491,-0.001
 02973,0.00072290,0.00002046,0.00114397,0.00327472,-0.00000147,0.034067
 50,0.58166240,-0.00175278,-0.00197761,0.00035748,0.00251118,-0.0001208
 4,-0.00023143,-0.00236406,-0.00159612,-0.00055802,-0.00410541,0.001781
 00,0.00005095,-0.00189140,0.00243227,-0.00018802,0.00318206,-0.0000143
 9,0.00017850,-0.00096906,-0.00035743,-0.00026591,0.00541487,-0.0015976
 0,-0.00170208,0.00198427,0.00155175,0.00006681,0.00130082,-0.00190018,
 0.00008935,-0.00609103,-0.00001962,-0.00009306,0.00237032,-0.00133685,
 0.00386254,0.00104928,0.00204363,0.00055248,-0.00182907,-0.00004752,-0
 .00025615,-0.00108506,0.01075980,-0.05985324,-0.00033570,-0.00104012,0
 .00741158,0.00084520,0.00035822,0.00742842,0.00011087,-0.00048254,-0.0
 0109170,0.00001105,0.00074651,-0.00007657,-0.00088357,-0.00128872,-0.0
 0008808,0.00223293,-0.00072841,-0.00026559,-0.00526451,0.00182485,0.00
 041726,0.00883737,0.00319187,0.01779512,0.00005664,-0.00006721,-0.0000
 4726,0.00000540,-0.00000491,0.00002442,0.00003684,-0.00000320,-0.00000
 572,0.00000316,0.00010352,-0.00004135,0.00002215,-0.00002073,0.0000555
 4,-0.00001482,0.00001429,-0.00006460,-0.00002543,-0.00002210,0.0000449
 3,0.00002696,0.00008896,0.00015589,-0.00003589,-0.00008386,-0.00094541
 ,0.00031471,-0.00040155,-0.00425422,0.00012735,-0.00008184,0.00003972,
 0.00163047,-0.00073281,-0.01035752,-0.06488128,-0.05163929,0.13731537,
 0.00589917,0.02130057,-0.00042629,-0.01778296,0.00423092,0.00243516,0.
 02453309,0.02380821,0.00601525,0.04439747,-0.02197854,0.00002042,0.017
 21795,-0.02231992,0.00026215,-0.02865748,0.00206106,-0.00136384,0.0238
 9985,-0.01640609,0.00084346,-0.04355161,0.02080527,0.00182419,-0.02591
 639,-0.02262749,-0.00264857,-0.01019072,0.01860890,-0.00016468,0.02268
 102,-0.00069386,0.00094664,-0.01271178,0.01734025,-0.00038999,-0.01191
 035,-0.01805009,0.00054288,0.01796516,0.00215618,0.00025052,-0.0542508
 2,0.00985979,0.00240365,0.03056381,0.00691730,-0.00218385,-0.00824838,
 0.01592949,-0.00081541,-0.00562621,-0.00290656,0.00007745,0.00405792,-
 0.01304101,-0.00063381,0.01150522,0.01474389,0.00061911,-0.01886393,0.
 00461653,0.00202637,0.01098351,-0.03126675,0.01158929,-0.16688066,-0.0
 7475866,-0.10675128,-0.00069751,0.00094226,0.00036838,0.00020263,0.000
 26461,-0.00007016,-0.00024698,-0.00011669,0.00014825,-0.00013050,-0.00
 065533,0.00004630,0.00002773,0.00025939,-0.00021571,-0.00003851,0.0002
 2526,0.00034210,0.00006284,0.00036215,-0.00007946,-0.00006417,-0.00010
 951,-0.00005183,0.00007933,0.00014800,0.00001012,0.00083107,-0.0000424
 4,0.00004528,-0.00064050,0.00047726,0.00008338,0.01197987,0.02573319,0
 .07797062,-0.40946151,-0.02162672,0.04408449,0.71585637,0.00288209,0.0
 1608637,0.00004784,-0.00296590,0.00219550,0.00353085,0.01819516,0.0102
 9731,0.00342110,0.03162737,-0.01719852,-0.00056019,0.01340739,-0.01448
 862,0.00011590,-0.01994263,-0.00011400,-0.00084753,-0.01184566,-0.0363
 1924,0.00715011,-0.03634279,0.01020004,0.00084046,-0.01269835,-0.01149
 536,-0.00134251,-0.01328628,0.01206878,-0.00043724,0.02391071,0.008971
 52,-0.00041610,-0.01299526,0.01111481,-0.00036183,-0.00788286,-0.01085
 255,0.00032199,0.00981410,0.00115503,0.00011396,0.01411145,0.00269005,
 -0.00071553,0.01245999,-0.00185475,-0.00033883,-0.00335240,0.00240814,
 -0.00014855,0.00272746,0.00404854,-0.00028449,0.00182730,-0.00953234,-
 0.00063317,0.00840656,0.00991712,0.00063874,-0.01381464,0.00488543,0.0
 0198287,0.01812098,0.00245685,0.00159401,-0.09000431,-0.21749239,-0.07
 263198,0.00028722,-0.00027480,-0.00001168,0.00033622,0.00014138,0.0000
 5198,-0.00006916,-0.00013306,0.00012331,-0.00003648,-0.00031080,-0.000
 01062,-0.00018118,0.00017075,-0.00004192,-0.00011611,0.00010804,0.0001
 9443,0.00001556,0.00019986,-0.00004266,-0.00011519,-0.00004667,-0.0000
 3543,-0.00000752,0.00020242,0.00004342,0.00050919,0.00069111,0.0000533
 6,0.00030426,-0.00019155,0.00004457,0.00692781,0.01708435,0.07231472,0
 .03920879,-0.11476897,0.00642065,-0.05948096,0.59305719,-0.00602406,-0
 .01239594,0.00046179,0.00752971,0.00028057,0.00013281,-0.01085066,-0.0
 0781100,0.00126601,-0.02060861,0.00724106,0.00048763,-0.00962102,0.013
 14398,0.00012752,0.01610200,-0.00117105,0.00044069,-0.00626979,-0.0026
 0655,0.00092468,0.01917402,-0.01141505,-0.00301077,0.01805978,0.012359
 34,0.00168083,0.00041416,-0.01094392,-0.00009697,-0.01054824,-0.001492
 46,-0.00102276,0.00189505,-0.01247704,0.00044242,0.00826621,0.01193098
 ,-0.00054292,-0.01291299,-0.00023394,-0.00008553,0.01350493,0.00057144
 ,0.00354632,-0.01506062,0.00055881,0.00387626,0.00511161,-0.01158154,0
 .00072578,0.00647730,0.00658374,-0.00023803,-0.00134626,0.00606602,0.0
 0045506,-0.00625425,-0.00761414,-0.00047577,0.01199965,-0.00380527,-0.
 00171879,-0.01886387,-0.00038402,-0.00359194,0.03176125,0.04725226,0.0
 1876882,0.00031625,-0.00019663,-0.00001334,-0.00018899,-0.00013729,0.0
 0005736,0.00010352,0.00003786,-0.00004623,0.00003424,0.00025400,-0.000
 30229,0.00011205,-0.00008566,-0.00002797,-0.00004750,0.00001461,-0.000
 15754,-0.00008730,-0.00013541,0.00002531,0.00005198,0.00015168,-0.0000
 3398,-0.00004516,0.00004596,0.00007381,-0.00038785,-0.00009765,-0.0001
 0615,0.00020424,-0.00025662,-0.00030413,-0.00559120,-0.01457900,-0.046
 87542,0.01590441,0.01324135,-0.05863802,-0.03809471,-0.03002115,0.1155
 3413,-0.00002268,0.00003943,0.00001416,0.00014583,-0.00009196,0.000067
 68,0.00024635,-0.00097099,-0.00021315,-0.00039836,0.00007082,-0.000115
 41,-0.00005645,-0.00000853,-0.00001507,0.00005870,-0.00002981,0.000030
 28,-0.00226712,-0.00204201,0.00086177,-0.00008669,0.00003683,0.0000069
 0,0.00026601,-0.00000121,-0.00003562,-0.00000029,-0.00002614,0.0000008
 8,-0.00037045,-0.00022455,0.00005534,0.00021325,-0.00002803,-0.0000729
 2,0.00006843,0.00014157,-0.00000312,-0.00016794,0.00000993,0.00000252,
 -0.00307823,-0.00204268,0.00162082,-0.00029178,0.00118947,-0.00011856,
 -0.00035994,-0.00028084,-0.00005896,0.00003822,-0.00003668,0.00001323,
 0.00010315,0.00002047,0.00002058,-0.00018999,0.00013121,0.00001964,0.0
 0032428,-0.00053810,-0.00000927,0.00010552,0.00039364,-0.00041218,0.01
 083315,-0.01818692,0.00114076,-0.00052363,0.00013397,0.00002325,0.0000
 2044,-0.00000460,0.00000208,0.00000963,0.00003494,-0.00000514,0.000004
 92,0.00001199,-0.00000086,-0.00002965,-0.00001086,0.00000845,0.0000061
 2,0.00000119,0.00000277,0.00000947,-0.00000061,0.00000062,-0.00000206,
 0.00002785,-0.00000393,-0.00001053,0.00001295,0.00000689,-0.00001905,-
 0.00012106,0.00002207,-0.00011423,0.00008158,-0.00000544,0.00014898,0.
 00018399,-0.00078287,-0.01540470,0.02991350,-0.00063992,-0.11151010,0.
 11055189,0.00050465,0.12211973,0.00009154,0.00006741,-0.00000506,-0.00
 008318,-0.00042383,-0.00002268,0.00041449,-0.00141622,-0.00014958,-0.0
 0050070,0.00012178,-0.00011372,-0.00002911,-0.00009552,-0.00000652,-0.
 00002940,-0.00007204,0.00000595,-0.00387979,-0.00051121,0.00154660,0.0
 0003971,0.00002808,-0.00006036,0.00037549,0.00012810,0.00000972,-0.000
 11978,-0.00000622,-0.00000603,-0.00037624,-0.00015350,0.00005627,0.000
 05349,-0.00011095,-0.00004345,0.00013754,0.00014274,-0.00000139,-0.000
 21549,-0.00004077,-0.00000585,-0.00086638,0.00192772,0.00048978,0.0001
 0375,-0.00012911,0.00003992,0.00009996,0.00002029,-0.00004136,0.000010
 08,0.00003546,0.00001642,0.00005256,0.00004753,-0.00000750,-0.00024833
 ,0.00021943,-0.00005811,-0.00017293,-0.00037225,-0.00003035,0.00104697
 ,0.00106619,-0.00030644,0.01212774,-0.02093928,0.00003365,-0.00037780,
 0.00040750,0.00011528,-0.00001921,-0.00000809,0.00000359,-0.00000050,0
 .00003016,0.00001087,-0.00000541,0.00000324,0.00000463,-0.00005017,-0.
 00002454,0.00001549,0.00000388,-0.00002079,-0.00000087,0.00001345,-0.0
 0001731,0.00000317,0.00000684,0.00000229,-0.00000183,0.00000777,-0.000
 00290,0.00000551,0.00002454,-0.00002102,0.00000500,0.00000505,-0.00001
 419,-0.00001769,-0.00001677,0.00025164,-0.00049263,-0.00262559,0.00155
 887,0.00011375,0.11404277,-0.27536851,0.00945001,-0.11862404,0.2921254
 9,0.00008347,-0.00025975,-0.00001847,-0.00004474,-0.00011267,-0.000036
 71,-0.00041559,0.00021261,0.00049705,-0.00030267,0.00024402,-0.0002064
 8,-0.00019666,0.00023542,0.00001349,0.00029115,0.00002119,-0.00000464,
 0.00116672,-0.00010866,0.00206041,0.00048727,-0.00010320,0.00015132,-0
 .00003976,0.00006687,-0.00015711,0.00029876,-0.00015674,0.00002966,-0.
 00022982,0.00017986,0.00005712,0.00027223,-0.00008371,-0.00039237,0.00
 001457,0.00003701,-0.00002347,-0.00000750,-0.00002572,-0.00002951,0.00
 117671,0.00118595,0.00917300,0.00017156,-0.00043452,-0.00027513,-0.000
 03052,0.00013235,-0.00062294,-0.00010624,-0.00020974,0.00009179,-0.000
 07076,0.00015357,0.00003044,-0.00012348,-0.00011646,-0.00012926,0.0001
 0268,0.00006951,-0.00007160,0.00067363,-0.00007595,-0.00045766,-0.0024
 3427,0.00491952,0.00202917,0.00008117,0.00001462,0.00029688,-0.0000026
 1,-0.00000452,0.00000188,-0.00000160,0.00000177,0.00001122,0.00000071,
 -0.00000016,0.00001375,0.00001373,0.00000342,-0.00002403,-0.00000390,0
 .00000082,0.00004761,-0.00000652,-0.00000104,-0.00000972,-0.00000084,-
 0.00000674,-0.00002644,-0.00000212,-0.00000610,0.00004452,-0.00001290,
 0.00003109,0.00003690,0.00003166,-0.00000993,0.00006839,-0.00039729,0.
 00029662,0.00068067,0.00124221,-0.00274145,0.00560658,-0.00002488,0.00
 754314,-0.03718227,-0.00114736,-0.01005387,0.02484939,0.00005316,-0.00
 049491,-0.00006737,-0.00040439,-0.00001814,-0.00013878,-0.00032870,-0.
 00042198,-0.00011547,-0.00074137,0.00035825,-0.00001631,-0.00034336,0.
 00033579,-0.00000065,0.00044739,-0.00002854,0.00001996,-0.00004045,0.0
 0060095,0.00003274,0.00031165,-0.00055352,-0.00001476,0.00047142,0.000
 38650,0.00002773,0.00014791,-0.00028361,-0.00000787,-0.00311788,0.0016
 7174,0.00011840,0.00045597,0.00070398,-0.00005365,-0.00014296,0.000309
 11,-0.00001007,-0.00022848,-0.00005811,-0.00000547,0.00662745,0.018547
 05,-0.00220258,-0.00246871,0.00487617,-0.00046269,0.00027911,-0.000417
 89,-0.00004870,0.00013197,0.00023131,-0.00005233,-0.00008876,0.0002906
 2,0.00000887,-0.00026166,-0.00024249,-0.00003005,0.00032288,-0.0001851
 8,-0.00006888,-0.00041239,-0.00097065,0.00043653,-0.00422691,0.0020596
 9,0.00203222,-0.00001695,0.00002690,0.00001899,-0.00003858,-0.00000582
 ,-0.00000194,-0.00000796,0.00000234,0.00000030,-0.00000624,-0.00001033
 ,0.00000994,-0.00000217,-0.00001299,0.00000494,0.00000938,-0.00000777,
 0.00000214,0.00000662,-0.00000635,0.00000131,0.00002586,0.00009894,0.0
 0000815,-0.00000849,-0.00005010,0.00001868,-0.00177387,0.00060906,0.00
 002138,0.00000728,-0.00001504,0.00003248,-0.00004406,-0.00023189,-0.00
 112113,-0.09873314,-0.10205441,0.01601062,-0.01536295,-0.03049382,0.00
 527604,0.00018171,-0.00041682,-0.00050621,0.11932068,-0.00002998,0.000
 11998,-0.00003001,-0.00007065,-0.00000207,-0.00001149,-0.00001893,0.00
 014336,0.00003056,0.00027439,-0.00015852,-0.00001289,0.00010783,-0.000
 09099,0.00000364,-0.00014791,0.00000551,-0.00000575,0.00045340,0.00011
 099,-0.00003579,-0.00007440,0.00024060,-0.00002250,-0.00005129,-0.0000
 3480,-0.00002727,-0.00017314,0.00001304,-0.00000624,0.00394056,-0.0000
 0246,0.00046777,-0.00092426,-0.00120949,-0.00004623,0.00049398,0.00001
 350,-0.00000187,-0.00010978,0.00003917,-0.00000692,-0.00863698,-0.0234
 1433,0.00322393,-0.00321517,-0.00013445,-0.00021412,0.00055572,0.00051
 774,-0.00010771,0.,0.00033748,-0.00002618,-0.00000689,-0.00009667,-0.0
 0000890,0.00006351,0.00007445,0.00000953,-0.00012223,-0.00002926,0.000
 00695,0.00032446,0.00000876,0.00012680,0.00019407,0.00197647,-0.000067
 03,0.00000637,0.00000540,-0.00000070,-0.00001119,0.00000194,-0.0000000
 2,-0.00000426,-0.00000349,-0.00000012,-0.00000597,-0.00000644,0.000007
 32,0.00000026,-0.00000358,0.00000010,-0.00001806,-0.00001654,0.0000050
 2,-0.00000881,-0.00001992,-0.00000034,0.00000608,-0.00013371,0.0000134
 7,0.00005474,0.00009632,0.00001025,0.00095685,0.00159095,-0.00001970,0
 .00005859,-0.00005490,0.00002205,0.00014053,0.00012749,0.00053212,-0.1
 0140319,-0.27748759,0.03413438,0.00124738,0.00029155,0.00025767,0.0002
 8240,0.00156433,-0.00083843,0.10587198,0.29562018,0.00060248,0.0009354
 9,-0.00017245,-0.00050055,-0.00014760,-0.00011518,0.00064125,0.0004864
 9,-0.00002613,0.00162443,-0.00052286,-0.00005319,0.00076022,-0.0010564
 2,0.00002283,-0.00135194,0.00007258,-0.00005892,0.00044728,0.00049290,
 0.00012395,-0.00206299,0.00055214,0.00023539,-0.00064187,-0.00051241,-
 0.00034315,-0.00059057,0.00064889,-0.00002106,0.00103436,0.00090894,0.
 00345355,-0.00058880,0.00070151,-0.00051812,-0.00038661,-0.00057901,-0
 .00010043,0.00051911,0.00003414,0.00001429,0.00103689,-0.00006754,0.00
 372893,0.00035711,-0.00010369,-0.00184176,-0.00007090,-0.00016796,0.00
 000519,0.00004894,0.00027039,0.00008406,0.00006544,-0.00038732,-0.0000
 4845,0.00040845,0.00053675,0.00013215,-0.00085264,0.00028952,0.0000985
 5,0.00163288,0.00035283,0.00049072,0.00096368,-0.00130467,0.00297370,-
 0.00000938,0.00000873,-0.00006901,0.00001773,0.00000869,-0.00000229,-0
 .00000782,-0.00000047,-0.00000807,-0.00000176,-0.00002025,0.00006513,-
 0.00001169,0.00000673,0.00000595,-0.00000208,-0.00000509,0.00005374,0.
 00000764,0.00000725,0.00000476,-0.00000479,0.00000579,0.00007807,0.000
 00547,0.00000343,0.00000769,-0.00007287,-0.00008099,0.00053224,-0.0000
 2344,0.00002091,0.00004893,0.00022242,0.00072979,0.00431964,0.01576797
 ,0.03341011,-0.04242896,0.00095901,0.00233397,0.00544358,-0.00078557,-
 0.00050031,-0.00612344,-0.01915652,-0.03736137,0.03000757\\-0.00000420
 ,0.00000470,0.00000376,0.00000346,0.00000147,-0.00000287,-0.00001253,-
 0.00002462,0.00000135,-0.00000833,0.00002195,0.00000145,0.00000519,-0.
 00001085,0.00000194,-0.00000419,-0.00000150,0.00000318,-0.00000748,0.0
 0002523,-0.00001828,0.00003574,-0.00000915,0.00000165,-0.00001487,0.00
 000720,0.00000329,0.00002084,-0.00000597,0.00000651,-0.00003121,-0.000
 00240,0.00000267,0.00003323,0.00000831,-0.00000315,-0.00000933,-0.0000
 0465,0.00000203,0.00001692,0.00000072,-0.00000144,-0.00000880,0.000009
 43,-0.00000838,0.00001363,-0.00000570,-0.00000515,-0.00000579,0.000028
 82,-0.00000583,-0.00001778,-0.00002293,0.00000203,0.00000192,-0.000010
 25,0.00000295,-0.00000090,-0.00000173,0.00000244,0.00000216,-0.0000038
 0,-0.00000334,-0.00000934,-0.00000834,-0.00001425,0.00055041,0.0014079
 8,0.00732836,-0.00000241,-0.00000208,-0.00000217,-0.00000241,-0.000003
 95,0.00000129,-0.00000048,-0.00000357,0.00000281,0.00000075,-0.0000019
 8,0.00000359,0.00000416,-0.00000221,0.00000347,0.00000195,0.00000054,0
 .00000071,0.00000310,0.00000173,-0.00000153,0.00000305,0.00000326,-0.0
 0000346,0.00000193,0.00000583,-0.00000345,-0.00000393,0.00000360,-0.00
 000197,-0.00000093,0.00000227,-0.00000313,-0.00056086,-0.00142939,-0.0
 0728714,-0.00000185,-0.00000026,0.00001021,0.00001824,0.00002312,-0.00
 002017,-0.00000614,-0.00000284,-0.00000416,-0.00000292,0.00000204,0.00
 000419\\\@


 THE UNDERLYING PHYSICAL LAWS NECESSARY FOR THE 
 MATHEMATICAL THEORY OF A LARGE PART OF PHYSICS AND THE
 WHOLE OF CHEMISTRY ARE THUS COMPLETELY KNOWN, AND THE
 DIFFICULTY IS ONLY THAT THE EXACT APPLICATION OF THESE
 LAWS LEADS TO EQUATIONS MUCH TOO COMPLICATED 
 TO BE SOLUBLE.

                                        -- P. A. M. DIRAC, 1929
 Job cpu time:       1 days  1 hours 53 minutes 47.0 seconds.
 Elapsed time:       0 days  1 hours 17 minutes 54.5 seconds.
 File lengths (MBytes):  RWF=   2742 Int=      0 D2E=      0 Chk=     48 Scr=      1
 Normal termination of Gaussian 16 at Thu Jul  4 12:36:14 2019.
