 Entering Gaussian System, Link 0=/share/apps/gaussian16/g16/g16
 Initial command:
 /share/apps/gaussian16/g16/l1.exe "/home/amen01//scratch/590/Gau-45221.inp" -scrdir="/home/amen01//scratch/590/"
 Entering Link 1 = /share/apps/gaussian16/g16/l1.exe PID=     45222.
  
 Copyright (c) 1988-2017, Gaussian, Inc.  All Rights Reserved.
  
 This is part of the Gaussian(R) 16 program.  It is based on
 the Gaussian(R) 09 system (copyright 2009, Gaussian, Inc.),
 the Gaussian(R) 03 system (copyright 2003, Gaussian, Inc.),
 the Gaussian(R) 98 system (copyright 1998, Gaussian, Inc.),
 the Gaussian(R) 94 system (copyright 1995, Gaussian, Inc.),
 the Gaussian 92(TM) system (copyright 1992, Gaussian, Inc.),
 the Gaussian 90(TM) system (copyright 1990, Gaussian, Inc.),
 the Gaussian 88(TM) system (copyright 1988, Gaussian, Inc.),
 the Gaussian 86(TM) system (copyright 1986, Carnegie Mellon
 University), and the Gaussian 82(TM) system (copyright 1983,
 Carnegie Mellon University). Gaussian is a federally registered
 trademark of Gaussian, Inc.
  
 This software contains proprietary and confidential information,
 including trade secrets, belonging to Gaussian, Inc.
  
 This software is provided under written license and may be
 used, copied, transmitted, or stored only in accord with that
 written license.
  
 The following legend is applicable only to US Government
 contracts under FAR:
  
                    RESTRICTED RIGHTS LEGEND
  
 Use, reproduction and disclosure by the US Government is
 subject to restrictions as set forth in subparagraphs (a)
 and (c) of the Commercial Computer Software - Restricted
 Rights clause in FAR 52.227-19.
  
 Gaussian, Inc.
 340 Quinnipiac St., Bldg. 40, Wallingford CT 06492
  
  
 ---------------------------------------------------------------
 Warning -- This program may not be used in any manner that
 competes with the business of Gaussian, Inc. or will provide
 assistance to any competitor of Gaussian, Inc.  The licensee
 of this program is prohibited from giving any competitor of
 Gaussian, Inc. access to this program.  By using this program,
 the user acknowledges that Gaussian, Inc. is engaged in the
 business of creating and licensing software in the field of
 computational chemistry and represents and warrants to the
 licensee that it is not a competitor of Gaussian, Inc. and that
 it will not use this program in any manner prohibited above.
 ---------------------------------------------------------------
  

 Cite this work as:
 Gaussian 16, Revision B.01,
 M. J. Frisch, G. W. Trucks, H. B. Schlegel, G. E. Scuseria, 
 M. A. Robb, J. R. Cheeseman, G. Scalmani, V. Barone, 
 G. A. Petersson, H. Nakatsuji, X. Li, M. Caricato, A. V. Marenich, 
 J. Bloino, B. G. Janesko, R. Gomperts, B. Mennucci, H. P. Hratchian, 
 J. V. Ortiz, A. F. Izmaylov, J. L. Sonnenberg, D. Williams-Young, 
 F. Ding, F. Lipparini, F. Egidi, J. Goings, B. Peng, A. Petrone, 
 T. Henderson, D. Ranasinghe, V. G. Zakrzewski, J. Gao, N. Rega, 
 G. Zheng, W. Liang, M. Hada, M. Ehara, K. Toyota, R. Fukuda, 
 J. Hasegawa, M. Ishida, T. Nakajima, Y. Honda, O. Kitao, H. Nakai, 
 T. Vreven, K. Throssell, J. A. Montgomery, Jr., J. E. Peralta, 
 F. Ogliaro, M. J. Bearpark, J. J. Heyd, E. N. Brothers, K. N. Kudin, 
 V. N. Staroverov, T. A. Keith, R. Kobayashi, J. Normand, 
 K. Raghavachari, A. P. Rendell, J. C. Burant, S. S. Iyengar, 
 J. Tomasi, M. Cossi, J. M. Millam, M. Klene, C. Adamo, R. Cammi, 
 J. W. Ochterski, R. L. Martin, K. Morokuma, O. Farkas, 
 J. B. Foresman, and D. J. Fox, Gaussian, Inc., Wallingford CT, 2016.
 
 ******************************************
 Gaussian 16:  ES64L-G16RevB.01 20-Dec-2017
                21-Jun-2019 
 ******************************************
 %nprocshared=20
 Will use up to   20 processors via shared memory.
 %mem=100GB
 %chk=7-memb2-end.chk
 -------------------------------------------
 # opt freq b3lyp/6-311+g(d,p) int=grid=fine
 -------------------------------------------
 1/18=20,19=15,26=3,38=1/1,3;
 2/9=110,12=2,17=6,18=5,40=1/2;
 3/5=4,6=6,7=111,11=2,25=1,30=1,71=1,74=-5,75=-4/1,2,3;
 4//1;
 5/5=2,38=5/2;
 6/7=2,8=2,9=2,10=2,28=1/1;
 7//1,2,3,16;
 1/18=20,19=15,26=3/3(2);
 2/9=110/2;
 99//99;
 2/9=110/2;
 3/5=4,6=6,7=111,11=2,25=1,30=1,71=1,74=-5,75=-4/1,2,3;
 4/5=5,16=3,69=1/1;
 5/5=2,38=5/2;
 7//1,2,3,16;
 1/18=20,19=15,26=3/3(-5);
 2/9=110/2;
 6/7=2,8=2,9=2,10=2,19=2,28=1/1;
 99/9=1/99;
 -----------
 7-memb2-end
 -----------
 Symbolic Z-matrix:
 Charge =  0 Multiplicity = 1
 C                    -4.086    -0.05725  -0.61054 
 C                    -2.64225  -0.25319  -0.70815 
 C                    -2.42118  -1.70828  -0.88513 
 C                    -4.72669  -1.37783  -0.71576 
 C                    -3.69827  -2.38651  -0.90447 
 C                    -5.95489  -1.70131  -0.01583 
 C                    -6.27705  -3.13274   0.13339 
 C                    -5.22415  -4.16519  -0.08961 
 C                    -3.84903  -3.74323  -0.40907 
 C                    -1.23979  -2.40386  -0.42443 
 C                    -1.36684  -3.73102  -0.18031 
 C                    -2.69831  -4.4139   -0.16086 
 C                    -4.83676   1.05975  -0.10156 
 C                    -6.05107   0.73542   0.43785 
 C                    -6.60105  -0.64451   0.51926 
 C                    -1.56828   0.59673  -0.22507 
 C                    -0.23153  -0.09505  -0.0115 
 C                    -0.07866  -1.5667   -0.1584 
 C                    -1.70898   2.05543   0.06344 
 C                    -0.42674   2.77094   0.36593 
 C                     0.72685   2.08593   0.50853 
 C                     0.82292   0.65276   0.35441 
 C                    -2.98519   2.9082   -0.06364 
 C                    -2.77378   4.32878  -0.04959 
 C                    -1.46988   4.94702   0.24562 
 C                    -0.37843   4.21271   0.46766 
 C                    -3.81958   5.23902  -0.28183 
 C                    -5.09998   4.78729  -0.52454 
 C                    -5.35003   3.42366  -0.47728 
 C                    -4.33865   2.46421  -0.19721 
 H                    -6.69063   1.49195   0.88522 
 H                    -7.50926  -0.77447   1.09924 
 H                    -7.1791   -3.42608   0.6577 
 H                    -5.40337  -5.16643   0.28477 
 H                    -2.71458  -5.41737   0.25366 
 H                    -0.53112  -4.31076   0.20062 
 H                     0.863    -2.03441   0.10419 
 H                     1.7982    0.20918   0.53115 
 H                     1.66257   2.59746   0.71907 
 H                     0.56342   4.70253   0.69504 
 H                    -1.40888   6.02908   0.3058 
 H                    -3.63624   6.31128  -0.28462 
 H                    -5.90392   5.48775  -0.73119 
 H                    -6.3732    3.10702  -0.67661 
 

 GradGradGradGradGradGradGradGradGradGradGradGradGradGradGradGradGradGrad
 Berny optimization.
 Initialization pass.
                           ----------------------------
                           !    Initial Parameters    !
                           ! (Angstroms and Degrees)  !
 --------------------------                            --------------------------
 ! Name  Definition              Value          Derivative Info.                !
 --------------------------------------------------------------------------------
 ! R1    R(1,2)                  1.4603         estimate D2E/DX2                !
 ! R2    R(1,4)                  1.4716         estimate D2E/DX2                !
 ! R3    R(1,13)                 1.4389         estimate D2E/DX2                !
 ! R4    R(2,3)                  1.4824         estimate D2E/DX2                !
 ! R5    R(2,16)                 1.4523         estimate D2E/DX2                !
 ! R6    R(3,5)                  1.4461         estimate D2E/DX2                !
 ! R7    R(3,10)                 1.4463         estimate D2E/DX2                !
 ! R8    R(4,5)                  1.4528         estimate D2E/DX2                !
 ! R9    R(4,6)                  1.4502         estimate D2E/DX2                !
 ! R10   R(5,9)                  1.4522         estimate D2E/DX2                !
 ! R11   R(6,7)                  1.4748         estimate D2E/DX2                !
 ! R12   R(6,15)                 1.3493         estimate D2E/DX2                !
 ! R13   R(7,8)                  1.4914         estimate D2E/DX2                !
 ! R14   R(7,33)                 1.0838         estimate D2E/DX2                !
 ! R15   R(8,9)                  1.4735         estimate D2E/DX2                !
 ! R16   R(8,34)                 1.0839         estimate D2E/DX2                !
 ! R17   R(9,12)                 1.3548         estimate D2E/DX2                !
 ! R18   R(10,11)                1.3554         estimate D2E/DX2                !
 ! R19   R(10,18)                1.456          estimate D2E/DX2                !
 ! R20   R(11,12)                1.4965         estimate D2E/DX2                !
 ! R21   R(11,36)                1.0861         estimate D2E/DX2                !
 ! R22   R(12,35)                1.0858         estimate D2E/DX2                !
 ! R23   R(13,14)                1.3677         estimate D2E/DX2                !
 ! R24   R(13,30)                1.4932         estimate D2E/DX2                !
 ! R25   R(14,15)                1.4877         estimate D2E/DX2                !
 ! R26   R(14,31)                1.087          estimate D2E/DX2                !
 ! R27   R(15,32)                1.0854         estimate D2E/DX2                !
 ! R28   R(16,17)                1.5202         estimate D2E/DX2                !
 ! R29   R(16,19)                1.4936         estimate D2E/DX2                !
 ! R30   R(17,18)                1.4868         estimate D2E/DX2                !
 ! R31   R(17,22)                1.3435         estimate D2E/DX2                !
 ! R32   R(18,37)                1.0837         estimate D2E/DX2                !
 ! R33   R(19,20)                1.4992         estimate D2E/DX2                !
 ! R34   R(19,23)                1.5402         estimate D2E/DX2                !
 ! R35   R(20,21)                1.3492         estimate D2E/DX2                !
 ! R36   R(20,26)                1.4462         estimate D2E/DX2                !
 ! R37   R(21,22)                1.4446         estimate D2E/DX2                !
 ! R38   R(21,39)                1.087          estimate D2E/DX2                !
 ! R39   R(22,38)                1.0859         estimate D2E/DX2                !
 ! R40   R(23,24)                1.4363         estimate D2E/DX2                !
 ! R41   R(23,30)                1.4307         estimate D2E/DX2                !
 ! R42   R(24,25)                1.4729         estimate D2E/DX2                !
 ! R43   R(24,27)                1.4058         estimate D2E/DX2                !
 ! R44   R(25,26)                1.3341         estimate D2E/DX2                !
 ! R45   R(25,41)                1.0854         estimate D2E/DX2                !
 ! R46   R(26,40)                1.0857         estimate D2E/DX2                !
 ! R47   R(27,28)                1.3793         estimate D2E/DX2                !
 ! R48   R(27,42)                1.0878         estimate D2E/DX2                !
 ! R49   R(28,29)                1.3872         estimate D2E/DX2                !
 ! R50   R(28,43)                1.0861         estimate D2E/DX2                !
 ! R51   R(29,30)                1.4219         estimate D2E/DX2                !
 ! R52   R(29,44)                1.0894         estimate D2E/DX2                !
 ! A1    A(2,1,4)              107.7742         estimate D2E/DX2                !
 ! A2    A(2,1,13)             130.0667         estimate D2E/DX2                !
 ! A3    A(4,1,13)             119.6549         estimate D2E/DX2                !
 ! A4    A(1,2,3)              106.6866         estimate D2E/DX2                !
 ! A5    A(1,2,16)             129.0784         estimate D2E/DX2                !
 ! A6    A(3,2,16)             120.2571         estimate D2E/DX2                !
 ! A7    A(2,3,5)              109.2842         estimate D2E/DX2                !
 ! A8    A(2,3,10)             123.7706         estimate D2E/DX2                !
 ! A9    A(5,3,10)             120.0037         estimate D2E/DX2                !
 ! A10   A(1,4,5)              108.9139         estimate D2E/DX2                !
 ! A11   A(1,4,6)              122.3035         estimate D2E/DX2                !
 ! A12   A(5,4,6)              120.4872         estimate D2E/DX2                !
 ! A13   A(3,5,4)              107.3239         estimate D2E/DX2                !
 ! A14   A(3,5,9)              121.6871         estimate D2E/DX2                !
 ! A15   A(4,5,9)              122.0628         estimate D2E/DX2                !
 ! A16   A(4,6,7)              116.7656         estimate D2E/DX2                !
 ! A17   A(4,6,15)             114.9782         estimate D2E/DX2                !
 ! A18   A(7,6,15)             127.9841         estimate D2E/DX2                !
 ! A19   A(6,7,8)              120.1698         estimate D2E/DX2                !
 ! A20   A(6,7,33)             119.5678         estimate D2E/DX2                !
 ! A21   A(8,7,33)             118.2001         estimate D2E/DX2                !
 ! A22   A(7,8,9)              119.5403         estimate D2E/DX2                !
 ! A23   A(7,8,34)             118.1065         estimate D2E/DX2                !
 ! A24   A(9,8,34)             119.5874         estimate D2E/DX2                !
 ! A25   A(5,9,8)              116.0019         estimate D2E/DX2                !
 ! A26   A(5,9,12)             115.9            estimate D2E/DX2                !
 ! A27   A(8,9,12)             127.6751         estimate D2E/DX2                !
 ! A28   A(3,10,11)            116.8545         estimate D2E/DX2                !
 ! A29   A(3,10,18)            115.6643         estimate D2E/DX2                !
 ! A30   A(11,10,18)           127.2184         estimate D2E/DX2                !
 ! A31   A(10,11,12)           122.1781         estimate D2E/DX2                !
 ! A32   A(10,11,36)           120.9107         estimate D2E/DX2                !
 ! A33   A(12,11,36)           115.8793         estimate D2E/DX2                !
 ! A34   A(9,12,11)            121.8309         estimate D2E/DX2                !
 ! A35   A(9,12,35)            120.9763         estimate D2E/DX2                !
 ! A36   A(11,12,35)           116.1036         estimate D2E/DX2                !
 ! A37   A(1,13,14)            114.75           estimate D2E/DX2                !
 ! A38   A(1,13,30)            122.2377         estimate D2E/DX2                !
 ! A39   A(14,13,30)           122.9871         estimate D2E/DX2                !
 ! A40   A(13,14,15)           124.7321         estimate D2E/DX2                !
 ! A41   A(13,14,31)           121.3094         estimate D2E/DX2                !
 ! A42   A(15,14,31)           113.9245         estimate D2E/DX2                !
 ! A43   A(6,15,14)            121.8522         estimate D2E/DX2                !
 ! A44   A(6,15,32)            121.2533         estimate D2E/DX2                !
 ! A45   A(14,15,32)           116.7197         estimate D2E/DX2                !
 ! A46   A(2,16,17)            115.5104         estimate D2E/DX2                !
 ! A47   A(2,16,19)            124.4818         estimate D2E/DX2                !
 ! A48   A(17,16,19)           120.0076         estimate D2E/DX2                !
 ! A49   A(16,17,18)           121.7982         estimate D2E/DX2                !
 ! A50   A(16,17,22)           118.3664         estimate D2E/DX2                !
 ! A51   A(18,17,22)           119.8111         estimate D2E/DX2                !
 ! A52   A(10,18,17)           120.3426         estimate D2E/DX2                !
 ! A53   A(10,18,37)           119.2804         estimate D2E/DX2                !
 ! A54   A(17,18,37)           119.5097         estimate D2E/DX2                !
 ! A55   A(16,19,20)           115.12           estimate D2E/DX2                !
 ! A56   A(16,19,23)           127.0759         estimate D2E/DX2                !
 ! A57   A(20,19,23)           117.4582         estimate D2E/DX2                !
 ! A58   A(19,20,21)           120.6835         estimate D2E/DX2                !
 ! A59   A(19,20,26)           121.2369         estimate D2E/DX2                !
 ! A60   A(21,20,26)           118.0457         estimate D2E/DX2                !
 ! A61   A(20,21,22)           123.317          estimate D2E/DX2                !
 ! A62   A(20,21,39)           121.1694         estimate D2E/DX2                !
 ! A63   A(22,21,39)           115.485          estimate D2E/DX2                !
 ! A64   A(17,22,21)           121.9421         estimate D2E/DX2                !
 ! A65   A(17,22,38)           121.4572         estimate D2E/DX2                !
 ! A66   A(21,22,38)           116.5907         estimate D2E/DX2                !
 ! A67   A(19,23,24)           115.1418         estimate D2E/DX2                !
 ! A68   A(19,23,30)           128.2999         estimate D2E/DX2                !
 ! A69   A(24,23,30)           116.5579         estimate D2E/DX2                !
 ! A70   A(23,24,25)           123.189          estimate D2E/DX2                !
 ! A71   A(23,24,27)           121.9585         estimate D2E/DX2                !
 ! A72   A(25,24,27)           114.828          estimate D2E/DX2                !
 ! A73   A(24,25,26)           121.7738         estimate D2E/DX2                !
 ! A74   A(24,25,41)           118.6387         estimate D2E/DX2                !
 ! A75   A(26,25,41)           119.5709         estimate D2E/DX2                !
 ! A76   A(20,26,25)           120.6448         estimate D2E/DX2                !
 ! A77   A(20,26,40)           119.5713         estimate D2E/DX2                !
 ! A78   A(25,26,40)           119.7534         estimate D2E/DX2                !
 ! A79   A(24,27,28)           120.505          estimate D2E/DX2                !
 ! A80   A(24,27,42)           120.8828         estimate D2E/DX2                !
 ! A81   A(28,27,42)           118.6092         estimate D2E/DX2                !
 ! A82   A(27,28,29)           118.901          estimate D2E/DX2                !
 ! A83   A(27,28,43)           120.6234         estimate D2E/DX2                !
 ! A84   A(29,28,43)           120.4661         estimate D2E/DX2                !
 ! A85   A(28,29,30)           122.8062         estimate D2E/DX2                !
 ! A86   A(28,29,44)           116.6651         estimate D2E/DX2                !
 ! A87   A(30,29,44)           120.5263         estimate D2E/DX2                !
 ! A88   A(13,30,23)           126.9759         estimate D2E/DX2                !
 ! A89   A(13,30,29)           114.2041         estimate D2E/DX2                !
 ! A90   A(23,30,29)           118.808          estimate D2E/DX2                !
 ! D1    D(4,1,2,3)              0.4666         estimate D2E/DX2                !
 ! D2    D(4,1,2,16)          -156.6133         estimate D2E/DX2                !
 ! D3    D(13,1,2,3)           162.0071         estimate D2E/DX2                !
 ! D4    D(13,1,2,16)            4.9272         estimate D2E/DX2                !
 ! D5    D(2,1,4,5)             -1.1371         estimate D2E/DX2                !
 ! D6    D(2,1,4,6)            147.1996         estimate D2E/DX2                !
 ! D7    D(13,1,4,5)          -164.946          estimate D2E/DX2                !
 ! D8    D(13,1,4,6)           -16.6093         estimate D2E/DX2                !
 ! D9    D(2,1,13,14)         -150.1599         estimate D2E/DX2                !
 ! D10   D(2,1,13,30)           31.616          estimate D2E/DX2                !
 ! D11   D(4,1,13,14)            9.5382         estimate D2E/DX2                !
 ! D12   D(4,1,13,30)         -168.6859         estimate D2E/DX2                !
 ! D13   D(1,2,3,5)              0.369          estimate D2E/DX2                !
 ! D14   D(1,2,3,10)          -150.2391         estimate D2E/DX2                !
 ! D15   D(16,2,3,5)           159.8817         estimate D2E/DX2                !
 ! D16   D(16,2,3,10)            9.2735         estimate D2E/DX2                !
 ! D17   D(1,2,16,17)          157.9931         estimate D2E/DX2                !
 ! D18   D(1,2,16,19)          -21.8362         estimate D2E/DX2                !
 ! D19   D(3,2,16,17)            3.5801         estimate D2E/DX2                !
 ! D20   D(3,2,16,19)         -176.2493         estimate D2E/DX2                !
 ! D21   D(2,3,5,4)             -1.0652         estimate D2E/DX2                !
 ! D22   D(2,3,5,9)           -148.8487         estimate D2E/DX2                !
 ! D23   D(10,3,5,4)           150.829          estimate D2E/DX2                !
 ! D24   D(10,3,5,9)             3.0455         estimate D2E/DX2                !
 ! D25   D(2,3,10,11)          155.4454         estimate D2E/DX2                !
 ! D26   D(2,3,10,18)          -19.0972         estimate D2E/DX2                !
 ! D27   D(5,3,10,11)            7.7843         estimate D2E/DX2                !
 ! D28   D(5,3,10,18)         -166.7583         estimate D2E/DX2                !
 ! D29   D(1,4,5,3)              1.3563         estimate D2E/DX2                !
 ! D30   D(1,4,5,9)            148.9921         estimate D2E/DX2                !
 ! D31   D(6,4,5,3)           -147.6551         estimate D2E/DX2                !
 ! D32   D(6,4,5,9)             -0.0193         estimate D2E/DX2                !
 ! D33   D(1,4,6,7)           -162.1194         estimate D2E/DX2                !
 ! D34   D(1,4,6,15)            12.3734         estimate D2E/DX2                !
 ! D35   D(5,4,6,7)            -17.307          estimate D2E/DX2                !
 ! D36   D(5,4,6,15)           157.1858         estimate D2E/DX2                !
 ! D37   D(3,5,9,8)            161.5037         estimate D2E/DX2                !
 ! D38   D(3,5,9,12)           -11.6131         estimate D2E/DX2                !
 ! D39   D(4,5,9,8)             18.4122         estimate D2E/DX2                !
 ! D40   D(4,5,9,12)          -154.7046         estimate D2E/DX2                !
 ! D41   D(4,6,7,8)             16.0046         estimate D2E/DX2                !
 ! D42   D(4,6,7,33)           179.3856         estimate D2E/DX2                !
 ! D43   D(15,6,7,8)          -157.6585         estimate D2E/DX2                !
 ! D44   D(15,6,7,33)            5.7226         estimate D2E/DX2                !
 ! D45   D(4,6,15,14)           -2.4684         estimate D2E/DX2                !
 ! D46   D(4,6,15,32)         -177.5046         estimate D2E/DX2                !
 ! D47   D(7,6,15,14)          171.2902         estimate D2E/DX2                !
 ! D48   D(7,6,15,32)           -3.746          estimate D2E/DX2                !
 ! D49   D(6,7,8,9)              2.3288         estimate D2E/DX2                !
 ! D50   D(6,7,8,34)           163.4265         estimate D2E/DX2                !
 ! D51   D(33,7,8,9)          -161.2758         estimate D2E/DX2                !
 ! D52   D(33,7,8,34)           -0.1782         estimate D2E/DX2                !
 ! D53   D(7,8,9,5)            -19.1657         estimate D2E/DX2                !
 ! D54   D(7,8,9,12)           153.0057         estimate D2E/DX2                !
 ! D55   D(34,8,9,5)          -179.9818         estimate D2E/DX2                !
 ! D56   D(34,8,9,12)           -7.8104         estimate D2E/DX2                !
 ! D57   D(5,9,12,11)            9.6321         estimate D2E/DX2                !
 ! D58   D(5,9,12,35)          177.233          estimate D2E/DX2                !
 ! D59   D(8,9,12,11)         -162.5461         estimate D2E/DX2                !
 ! D60   D(8,9,12,35)            5.0548         estimate D2E/DX2                !
 ! D61   D(3,10,11,12)          -9.9642         estimate D2E/DX2                !
 ! D62   D(3,10,11,36)        -177.8647         estimate D2E/DX2                !
 ! D63   D(18,10,11,12)        163.8561         estimate D2E/DX2                !
 ! D64   D(18,10,11,36)         -4.0444         estimate D2E/DX2                !
 ! D65   D(3,10,18,17)          16.1122         estimate D2E/DX2                !
 ! D66   D(3,10,18,37)        -174.6            estimate D2E/DX2                !
 ! D67   D(11,10,18,17)       -157.7713         estimate D2E/DX2                !
 ! D68   D(11,10,18,37)         11.5165         estimate D2E/DX2                !
 ! D69   D(10,11,12,9)           1.1195         estimate D2E/DX2                !
 ! D70   D(10,11,12,35)       -167.0506         estimate D2E/DX2                !
 ! D71   D(36,11,12,9)         169.5893         estimate D2E/DX2                !
 ! D72   D(36,11,12,35)          1.4192         estimate D2E/DX2                !
 ! D73   D(1,13,14,15)           0.056          estimate D2E/DX2                !
 ! D74   D(1,13,14,31)         177.8039         estimate D2E/DX2                !
 ! D75   D(30,13,14,15)        178.2651         estimate D2E/DX2                !
 ! D76   D(30,13,14,31)         -3.987          estimate D2E/DX2                !
 ! D77   D(1,13,30,23)         -36.8798         estimate D2E/DX2                !
 ! D78   D(1,13,30,29)         141.8331         estimate D2E/DX2                !
 ! D79   D(14,13,30,23)        145.043          estimate D2E/DX2                !
 ! D80   D(14,13,30,29)        -36.244          estimate D2E/DX2                !
 ! D81   D(13,14,15,6)          -3.8363         estimate D2E/DX2                !
 ! D82   D(13,14,15,32)        171.4134         estimate D2E/DX2                !
 ! D83   D(31,14,15,6)         178.2686         estimate D2E/DX2                !
 ! D84   D(31,14,15,32)         -6.4817         estimate D2E/DX2                !
 ! D85   D(2,16,17,18)          -5.879          estimate D2E/DX2                !
 ! D86   D(2,16,17,22)         175.9202         estimate D2E/DX2                !
 ! D87   D(19,16,17,18)        173.9586         estimate D2E/DX2                !
 ! D88   D(19,16,17,22)         -4.2422         estimate D2E/DX2                !
 ! D89   D(2,16,19,20)        -171.7226         estimate D2E/DX2                !
 ! D90   D(2,16,19,23)           1.3012         estimate D2E/DX2                !
 ! D91   D(17,16,19,20)          8.4552         estimate D2E/DX2                !
 ! D92   D(17,16,19,23)       -178.521          estimate D2E/DX2                !
 ! D93   D(16,17,18,10)         -4.2635         estimate D2E/DX2                !
 ! D94   D(16,17,18,37)       -173.5268         estimate D2E/DX2                !
 ! D95   D(22,17,18,10)        173.9119         estimate D2E/DX2                !
 ! D96   D(22,17,18,37)          4.6486         estimate D2E/DX2                !
 ! D97   D(16,17,22,21)         -1.8757         estimate D2E/DX2                !
 ! D98   D(16,17,22,38)        179.3103         estimate D2E/DX2                !
 ! D99   D(18,17,22,21)        179.8866         estimate D2E/DX2                !
 ! D100  D(18,17,22,38)          1.0726         estimate D2E/DX2                !
 ! D101  D(16,19,20,21)         -7.1491         estimate D2E/DX2                !
 ! D102  D(16,19,20,26)        170.6901         estimate D2E/DX2                !
 ! D103  D(23,19,20,21)        179.1204         estimate D2E/DX2                !
 ! D104  D(23,19,20,26)         -3.0403         estimate D2E/DX2                !
 ! D105  D(16,19,23,24)       -165.0605         estimate D2E/DX2                !
 ! D106  D(16,19,23,30)         14.6935         estimate D2E/DX2                !
 ! D107  D(20,19,23,24)          7.8204         estimate D2E/DX2                !
 ! D108  D(20,19,23,30)       -172.4255         estimate D2E/DX2                !
 ! D109  D(19,20,21,22)          1.48           estimate D2E/DX2                !
 ! D110  D(19,20,21,39)        179.4468         estimate D2E/DX2                !
 ! D111  D(26,20,21,22)       -176.4267         estimate D2E/DX2                !
 ! D112  D(26,20,21,39)          1.5401         estimate D2E/DX2                !
 ! D113  D(19,20,26,25)         -2.4594         estimate D2E/DX2                !
 ! D114  D(19,20,26,40)        179.5563         estimate D2E/DX2                !
 ! D115  D(21,20,26,25)        175.4351         estimate D2E/DX2                !
 ! D116  D(21,20,26,40)         -2.5492         estimate D2E/DX2                !
 ! D117  D(20,21,22,17)          3.4226         estimate D2E/DX2                !
 ! D118  D(20,21,22,38)       -177.7087         estimate D2E/DX2                !
 ! D119  D(39,21,22,17)       -174.6502         estimate D2E/DX2                !
 ! D120  D(39,21,22,38)          4.2185         estimate D2E/DX2                !
 ! D121  D(19,23,24,25)         -7.9859         estimate D2E/DX2                !
 ! D122  D(19,23,24,27)        173.9085         estimate D2E/DX2                !
 ! D123  D(30,23,24,25)        172.2299         estimate D2E/DX2                !
 ! D124  D(30,23,24,27)         -5.8757         estimate D2E/DX2                !
 ! D125  D(19,23,30,13)          6.8848         estimate D2E/DX2                !
 ! D126  D(19,23,30,29)       -171.7754         estimate D2E/DX2                !
 ! D127  D(24,23,30,13)       -173.3641         estimate D2E/DX2                !
 ! D128  D(24,23,30,29)          7.9756         estimate D2E/DX2                !
 ! D129  D(23,24,25,26)          2.8076         estimate D2E/DX2                !
 ! D130  D(23,24,25,41)       -175.7068         estimate D2E/DX2                !
 ! D131  D(27,24,25,26)       -178.9633         estimate D2E/DX2                !
 ! D132  D(27,24,25,41)          2.5224         estimate D2E/DX2                !
 ! D133  D(23,24,27,28)          0.4495         estimate D2E/DX2                !
 ! D134  D(23,24,27,42)       -178.9029         estimate D2E/DX2                !
 ! D135  D(25,24,27,28)       -177.8037         estimate D2E/DX2                !
 ! D136  D(25,24,27,42)          2.8439         estimate D2E/DX2                !
 ! D137  D(24,25,26,20)          2.8078         estimate D2E/DX2                !
 ! D138  D(24,25,26,40)       -179.2116         estimate D2E/DX2                !
 ! D139  D(41,25,26,20)       -178.6914         estimate D2E/DX2                !
 ! D140  D(41,25,26,40)         -0.7107         estimate D2E/DX2                !
 ! D141  D(24,27,28,29)          2.8117         estimate D2E/DX2                !
 ! D142  D(24,27,28,43)       -178.3108         estimate D2E/DX2                !
 ! D143  D(42,27,28,29)       -177.8214         estimate D2E/DX2                !
 ! D144  D(42,27,28,43)          1.0561         estimate D2E/DX2                !
 ! D145  D(27,28,29,30)         -0.4364         estimate D2E/DX2                !
 ! D146  D(27,28,29,44)       -179.8801         estimate D2E/DX2                !
 ! D147  D(43,28,29,30)       -179.3157         estimate D2E/DX2                !
 ! D148  D(43,28,29,44)          1.2406         estimate D2E/DX2                !
 ! D149  D(28,29,30,13)        176.0123         estimate D2E/DX2                !
 ! D150  D(28,29,30,23)         -5.1611         estimate D2E/DX2                !
 ! D151  D(44,29,30,13)         -4.5648         estimate D2E/DX2                !
 ! D152  D(44,29,30,23)        174.2618         estimate D2E/DX2                !
 --------------------------------------------------------------------------------
 Trust Radius=3.00D-01 FncErr=1.00D-07 GrdErr=1.00D-06 EigMax=2.50D+02 EigMin=1.00D-04
 Number of steps in this run=    264 maximum allowed number of steps=    264.
 GradGradGradGradGradGradGradGradGradGradGradGradGradGradGradGradGradGrad

                          Input orientation:                          
 ---------------------------------------------------------------------
 Center     Atomic      Atomic             Coordinates (Angstroms)
 Number     Number       Type             X           Y           Z
 ---------------------------------------------------------------------
      1          6           0       -4.086000   -0.057250   -0.610540
      2          6           0       -2.642250   -0.253190   -0.708150
      3          6           0       -2.421180   -1.708280   -0.885130
      4          6           0       -4.726690   -1.377830   -0.715760
      5          6           0       -3.698270   -2.386510   -0.904470
      6          6           0       -5.954890   -1.701310   -0.015830
      7          6           0       -6.277050   -3.132740    0.133390
      8          6           0       -5.224150   -4.165190   -0.089610
      9          6           0       -3.849030   -3.743230   -0.409070
     10          6           0       -1.239790   -2.403860   -0.424430
     11          6           0       -1.366840   -3.731020   -0.180310
     12          6           0       -2.698310   -4.413900   -0.160860
     13          6           0       -4.836760    1.059750   -0.101560
     14          6           0       -6.051070    0.735420    0.437850
     15          6           0       -6.601050   -0.644510    0.519260
     16          6           0       -1.568280    0.596730   -0.225070
     17          6           0       -0.231530   -0.095050   -0.011500
     18          6           0       -0.078660   -1.566700   -0.158400
     19          6           0       -1.708980    2.055430    0.063440
     20          6           0       -0.426740    2.770940    0.365930
     21          6           0        0.726850    2.085930    0.508530
     22          6           0        0.822920    0.652760    0.354410
     23          6           0       -2.985190    2.908200   -0.063640
     24          6           0       -2.773780    4.328780   -0.049590
     25          6           0       -1.469880    4.947020    0.245620
     26          6           0       -0.378430    4.212710    0.467660
     27          6           0       -3.819580    5.239020   -0.281830
     28          6           0       -5.099980    4.787290   -0.524540
     29          6           0       -5.350030    3.423660   -0.477280
     30          6           0       -4.338650    2.464210   -0.197210
     31          1           0       -6.690630    1.491950    0.885220
     32          1           0       -7.509260   -0.774470    1.099240
     33          1           0       -7.179100   -3.426080    0.657700
     34          1           0       -5.403370   -5.166430    0.284770
     35          1           0       -2.714580   -5.417370    0.253660
     36          1           0       -0.531120   -4.310760    0.200620
     37          1           0        0.863000   -2.034410    0.104190
     38          1           0        1.798200    0.209180    0.531150
     39          1           0        1.662570    2.597460    0.719070
     40          1           0        0.563420    4.702530    0.695040
     41          1           0       -1.408880    6.029080    0.305800
     42          1           0       -3.636240    6.311280   -0.284620
     43          1           0       -5.903920    5.487750   -0.731190
     44          1           0       -6.373200    3.107020   -0.676610
 ---------------------------------------------------------------------
                    Distance matrix (angstroms):
                    1          2          3          4          5
     1  C    0.000000
     2  C    1.460251   0.000000
     3  C    2.360704   1.482390   0.000000
     4  C    1.471559   2.368494   2.335222   0.000000
     5  C    2.379534   2.388467   1.446143   1.452823   0.000000
     6  C    2.559172   3.681025   3.639071   1.450178   2.520221
     7  C    3.848736   4.712936   4.234879   2.490859   2.878215
     8  C    4.294406   4.727848   3.811286   2.899811   2.481131
     9  C    3.699080   3.704881   2.531089   2.541547   1.452184
    10  C    3.693525   2.583171   1.446291   3.646379   2.504968
    11  C    4.590808   3.741736   2.387442   4.136762   2.787056
    12  C    4.594376   4.196925   2.814560   3.693232   2.379745
    13  C    1.438885   2.628238   3.756461   2.516178   3.717194
    14  C    2.364095   3.729708   4.571438   2.747840   4.133272
    15  C    2.819007   4.163144   4.535993   2.361410   3.672561
    16  C    2.629675   1.452288   2.544836   3.757022   3.728024
    17  C    3.900925   2.514339   2.856625   4.727364   4.250467
    18  C    4.306001   2.932495   2.456742   4.685137   3.785536
    19  C    3.250829   2.606927   3.946204   4.636917   4.962354
    20  C    4.726768   3.899679   5.060272   6.072225   6.238278
    21  C    5.386006   4.278157   5.123320   6.575532   6.448331
    22  C    5.052993   3.735931   4.199423   6.005558   5.591342
    23  C    3.210105   3.244594   4.722800   4.672059   5.408274
    24  C    4.612358   4.630923   6.104797   6.068199   6.832322
    25  C    5.711376   5.415377   6.817374   7.178774   7.750425
    26  C    5.756835   5.143119   6.407885   7.180667   7.513573
    27  C    5.313145   5.633136   7.112276   6.692821   7.651869
    28  C    4.950265   5.610756   7.035512   6.179370   7.319327
    29  C    3.705707   4.572155   5.922948   4.847652   6.055483
    30  C    2.567574   3.243932   4.643231   3.896247   4.943661
    31  H    3.379559   4.687614   5.621727   3.828294   5.215329
    32  H    3.893130   5.217871   5.540603   3.376531   4.597518
    33  H    4.746021   5.702261   5.288569   3.477935   3.954397
    34  H    5.351707   5.722727   4.713908   3.976487   3.471255
    35  H    5.599868   5.253481   3.891051   4.615869   3.390431
    36  H    5.602455   4.663326   3.394714   5.200446   3.867144
    37  H    5.377044   4.014900   3.445425   5.687535   4.684715
    38  H    5.999854   4.633276   4.846202   6.829903   6.245782
    39  H    6.470039   5.356738   6.147346   7.660569   7.497629
    40  H    6.780645   6.066665   7.245913   8.182078   8.424662
    41  H    6.711934   6.481991   7.893656   8.180083   8.805011
    42  H    6.392705   6.652793   8.133285   7.778006   8.720070
    43  H    5.836644   6.602834   7.996000   6.965795   8.179174
    44  H    3.904901   5.021155   6.232901   4.777699   6.114413
                    6          7          8          9         10
     6  C    0.000000
     7  C    1.474804   0.000000
     8  C    2.571017   1.491402   0.000000
     9  C    2.959514   2.561687   1.473452   0.000000
    10  C    4.784631   5.120197   4.369155   2.932965   0.000000
    11  C    5.019659   4.956461   3.882727   2.492739   1.355393
    12  C    4.240813   3.812523   2.539055   1.354829   2.497401
    13  C    2.980103   4.439213   5.239295   4.913124   5.003902
    14  C    2.480470   3.886698   4.997798   5.062071   5.809219
    15  C    1.349322   2.538732   3.829068   4.247055   5.720924
    16  C    4.956523   6.017471   6.004966   4.906213   3.025093
    17  C    5.944488   6.767338   6.441925   5.153017   2.552979
    18  C    5.879500   6.399817   5.764803   4.360712   1.455964
    19  C    5.669844   6.912978   7.146745   6.198995   4.510368
    20  C    7.120899   8.314664   8.445860   7.399129   5.297572
    21  C    7.698298   8.742417   8.651513   7.467247   4.989619
    22  C    7.184527   8.049126   7.744472   6.460244   3.768858
    23  C    5.483520   6.882450   7.419330   6.716179   5.603086
    24  C    6.817814   8.245039   8.840443   8.151241   6.915350
    25  C    8.023962   9.402340   9.860999   9.033793   7.384940
    26  C    8.142868   9.426616   9.694367   8.724145   6.731773
    27  C    7.266257   8.734869   9.510464   8.983199   8.067792
    28  C    6.564418   8.034005   8.963899   8.622528   8.162336
    29  C    5.181130   6.649712   7.599788   7.322702   7.131399
    30  C    4.471766   5.932330   6.689143   6.230323   5.775177
    31  H    3.398546   4.703621   5.924870   6.095653   6.826725
    32  H    2.125672   2.830662   4.258177   4.948315   6.654527
    33  H    2.219722   1.083810   2.219591   3.511118   6.123017
    34  H    3.521589   2.218587   1.083864   2.218758   5.046797
    35  H    4.937746   4.233815   2.825550   2.128129   3.422872
    36  H    6.022737   5.865830   4.704249   3.420868   2.128184
    37  H    6.827077   7.224091   6.452223   5.038524   2.199468
    38  H    8.003722   8.748503   8.296617   6.956778   4.119526
    39  H    8.777539   9.808964   9.685779   8.476720   5.894445
    40  H    9.165308  10.416282  10.618291   9.592687   7.416573
    41  H    8.973772  10.376307  10.892005  10.097693   8.466186
    42  H    8.345657   9.815199  10.597920  10.057531   9.039700
    43  H    7.224744   8.671769   9.698091   9.462416   9.172007
    44  H    4.871514   6.292849   7.385792   7.305405   7.535602
                   11         12         13         14         15
    11  C    0.000000
    12  C    1.496501   0.000000
    13  C    5.915913   5.876847   0.000000
    14  C    6.501786   6.173731   1.367736   0.000000
    15  C    6.116608   5.468294   2.530344   1.487721   0.000000
    16  C    4.332667   5.136877   3.303423   4.533663   5.236743
    17  C    3.812834   4.975920   4.748665   5.895646   6.415169
    18  C    2.518763   3.868995   5.435162   6.428449   6.622026
    19  C    5.801679   6.548383   3.286581   4.553719   5.606228
    20  C    6.592242   7.553771   4.753419   5.981772   7.057685
    21  C    6.220526   7.377506   5.690256   6.911517   7.820073
    22  C    4.929351   6.191576   5.692585   6.874993   7.538263
    23  C    6.834611   7.328363   2.616585   3.791053   5.102545
    24  C    8.182722   8.743714   3.865895   4.887787   6.301206
    25  C    8.689097   9.449925   5.154346   6.225900   7.594010
    26  C    8.031168   8.955182   5.490162   6.653667   7.894064
    27  C    9.299885   9.718577   4.305049   5.077391   6.557000
    28  C    9.306795   9.516416   3.760685   4.271817   5.731246
    29  C    8.194110   8.280042   2.447996   2.924988   4.371287
    30  C    6.871158   7.071098   1.493242   2.514836   3.911000
    31  H    7.533758   7.204996   2.144147   1.086975   2.169427
    32  H    6.935976   6.162673   3.456666   2.200800   1.085409
    33  H    5.880273   4.660827   5.117197   4.317276   2.844370
    34  H    4.309324   2.842928   6.263834   5.939258   4.683715
    35  H    2.201933   1.085838   6.825168   7.001637   6.160794
    36  H    1.086110   2.199550   6.890009   7.482651   7.098378
    37  H    2.816312   4.291288   6.488715   7.455713   7.603693
    38  H    5.103805   6.486166   6.719113   7.867444   8.442531
    39  H    7.073604   8.303657   6.728988   7.940184   8.879060
    40  H    8.695798   9.720121   6.562497   7.717227   8.941553
    41  H    9.772288  10.532627   6.050665   7.042031   8.458191
    42  H   10.296060  10.766825   5.390114   6.119116   7.603903
    43  H   10.289523  10.423238   4.598092   4.896218   6.297160
    44  H    8.489331   8.386600   2.623480   2.640128   3.944109
                   16         17         18         19         20
    16  C    0.000000
    17  C    1.520221   0.000000
    18  C    2.627516   1.486843   0.000000
    19  C    1.493600   2.610180   3.978314   0.000000
    20  C    2.525784   2.897319   4.383059   1.499198   0.000000
    21  C    2.832580   2.438360   3.799388   2.476349   1.349201
    22  C    2.461051   1.343493   2.449862   2.909066   2.459364
    23  C    2.715987   4.074908   5.336818   1.540155   2.597891
    24  C    3.925840   5.102427   6.483224   2.512906   2.847476
    25  C    4.376786   5.198278   6.672876   2.907172   2.416183
    26  C    3.869229   4.336816   5.820944   2.566635   1.446162
    27  C    5.159693   6.434243   7.767081   3.835243   4.245277
    28  C    5.488477   6.913918   8.106843   4.394048   5.166989
    29  C    4.728295   6.228749   7.265860   3.927044   5.037443
    30  C    3.341139   4.842802   5.864917   2.673987   3.964120
    31  H    5.317202   6.711382   7.359526   5.080322   6.414187
    32  H    6.239329   7.393288   7.577803   6.536395   7.954229
    33  H    6.960143   7.733842   7.385090   7.766744   9.169654
    34  H    6.941316   7.249455   6.442592   8.114972   9.368846
    35  H    6.141057   5.879025   4.684605   7.542556   8.502661
    36  H    5.033922   4.231662   2.804190   6.475689   7.084398
    37  H    3.597559   2.229910   1.083711   4.831515   4.982301
    38  H    3.472067   2.122929   2.674291   3.990953   3.397097
    39  H    3.915701   3.372085   4.598050   3.477211   2.126034
    40  H    4.716815   4.914053   6.359550   3.545400   2.195397
    41  H    5.460555   6.244341   7.725338   3.992329   3.403482
    42  H    6.077507   7.260007   8.644934   4.684841   4.822667
    43  H    6.555609   7.991346   9.166625   5.478118   6.211621
    44  H    5.439917   6.958142   7.857063   4.838229   6.046505
                   21         22         23         24         25
    21  C    0.000000
    22  C    1.444631   0.000000
    23  C    3.844834   4.445613   0.000000
    24  C    4.194793   5.158739   1.436294   0.000000
    25  C    3.616708   4.869234   2.559022   1.472931   0.000000
    26  C    2.397187   3.758898   2.962975   2.453308   1.334082
    27  C    5.588978   6.556782   2.485264   1.405763   2.425811
    28  C    6.505115   7.276513   2.866312   2.418060   3.714335
    29  C    6.299985   6.817251   2.455456   2.763915   4.230694
    30  C    5.128397   5.497949   1.430672   2.438695   3.819723
    31  H    7.450753   7.578881   4.078772   4.925768   6.293078
    32  H    8.738669   8.486282   5.948240   7.056043   8.362908
    33  H    9.638908   8.986726   7.631010   8.946785  10.142673
    34  H    9.498757   8.522588   8.436150   9.858273  10.851532
    35  H    8.258808   7.026417   8.336008   9.751046  10.438866
    36  H    6.526480   5.147194   7.629264   8.929377   9.305363
    37  H    4.142370   2.699092   6.266269   7.330757   7.362248
    38  H    2.161132   1.085897   5.524428   6.181534   5.762725
    39  H    1.086997   2.149383   4.723438   4.823848   3.944215
    40  H    2.628325   4.072347   4.048191   3.439632   2.096679
    41  H    4.488972   5.821350   3.515840   2.209134   1.085448
    42  H    6.125294   7.232656   3.471837   2.174714   2.614474
    43  H    7.554892   8.355000   3.952048   3.406694   4.572445
    44  H    7.270343   7.672714   3.448750   3.852490   5.317768
                   26         27         28         29         30
    26  C    0.000000
    27  C    3.668319   0.000000
    28  C    4.858769   1.379272   0.000000
    29  C    5.121750   2.382438   1.387172   0.000000
    30  C    4.379800   2.824210   2.466469   1.421926   0.000000
    31  H    6.886273   4.862661   3.921333   2.717557   2.765638
    32  H    8.724654   7.189100   6.274908   4.977146   4.714085
    33  H   10.229191   9.340934   8.554524   7.180015   6.595039
    34  H   10.641980  10.540532   9.991175   8.623990   7.719624
    35  H    9.911702  10.726902  10.508607   9.254387   8.059788
    36  H    8.529019  10.111628  10.206608   9.137981   7.781759
    37  H    6.379637   8.659004   9.082292   8.290379   6.883719
    38  H    4.557412   7.584173   8.346164   7.902342   6.578495
    39  H    2.614942   6.167139   7.216232   7.161733   6.072229
    40  H    1.085683   4.522476   5.793847   6.162689   5.462278
    41  H    2.094571   2.604031   3.981925   4.788955   4.641645
    42  H    3.947562   1.087825   2.126650   3.363412   3.911645
    43  H    5.796034   2.146687   1.086125   2.152146   3.446302
    44  H    6.202352   3.349963   2.113651   1.089436   2.186875
                   31         32         33         34         35
    31  H    0.000000
    32  H    2.419219   0.000000
    33  H    4.947463   2.708320   0.000000
    34  H    6.808201   4.938365   2.514182   0.000000
    35  H    7.996658   6.727591   4.905143   2.700654   0.000000
    36  H    8.489975   7.874472   6.722144   4.947532   2.448448
    37  H    8.372726   8.524806   8.180372   7.007821   4.926037
    38  H    8.592502   9.376519   9.686230   8.990022   7.218050
    39  H    8.427675   9.779412  10.698688  10.506860   9.144044
    40  H    7.935064   9.763661  11.225966  11.539813  10.646712
    41  H    6.986999   9.172376  11.082388  11.886793  11.520798
    42  H    5.824411   8.192875  10.404615  11.626899  11.777115
    43  H    4.381565   6.718853   9.111063  10.714209  11.404537
    44  H    2.269036   4.417040   6.716491   8.385392   9.322882
                   36         37         38         39         40
    36  H    0.000000
    37  H    2.671074   0.000000
    38  H    5.095571   2.467912   0.000000
    39  H    7.266675   4.740423   2.399498   0.000000
    40  H    9.092957   6.769432   4.662803   2.374874   0.000000
    41  H   10.377563   8.379854   6.648863   4.623917   2.408570
    42  H   11.077227   9.489198   8.211836   6.548071   4.602712
    43  H   11.213655  10.152436   9.422285   8.228536   6.669122
    44  H    9.482768   8.911035   8.753739   8.171975   7.248708
                   41         42         43         44
    41  H    0.000000
    42  H    2.321501   0.000000
    43  H    4.644757   2.453569   0.000000
    44  H    5.843632   4.232244   2.427154   0.000000
 Stoichiometry    C30H14
 Framework group  C1[X(C30H14)]
 Deg. of freedom   126
 Full point group                 C1      NOp   1
 Largest Abelian subgroup         C1      NOp   1
 Largest concise Abelian subgroup C1      NOp   1
                         Standard orientation:                         
 ---------------------------------------------------------------------
 Center     Atomic      Atomic             Coordinates (Angstroms)
 Number     Number       Type             X           Y           Z
 ---------------------------------------------------------------------
      1          6           0        0.684111   -0.959534   -0.457852
      2          6           0        0.555119    0.488255   -0.597858
      3          6           0        1.928770    1.025707   -0.745197
      4          6           0        2.117224   -1.289840   -0.508580
      5          6           0        2.875774   -0.066507   -0.705436
      6          6           0        2.684715   -2.395143    0.239268
      7          6           0        4.146413   -2.383569    0.435097
      8          6           0        4.923739   -1.131956    0.203777
      9          6           0        4.215280    0.104372   -0.171241
     10          6           0        2.327330    2.344848   -0.306134
     11          6           0        3.640772    2.525563   -0.024529
     12          6           0        4.603231    1.382444    0.055892
     13          6           0       -0.252315   -1.928284    0.047142
     14          6           0        0.318030   -3.024096    0.634172
     15          6           0        1.782696   -3.247795    0.768433
     16          6           0       -0.528524    1.356273   -0.171942
     17          6           0       -0.160518    2.819384    0.015004
     18          6           0        1.243559    3.294914   -0.099622
     19          6           0       -1.927238    0.899237    0.084100
     20          6           0       -2.920766    1.995557    0.326135
     21          6           0       -2.516110    3.276862    0.448017
     22          6           0       -1.136579    3.688231    0.327071
     23          6           0       -2.468379   -0.538777   -0.022485
     24          6           0       -3.899953   -0.651493   -0.051272
     25          6           0       -4.803340    0.487578    0.185234
     26          6           0       -4.339299    1.721516    0.389775
     27          6           0       -4.545260   -1.880742   -0.271947
     28          6           0       -3.811012   -3.032931   -0.460976
     29          6           0       -2.428231   -2.969028   -0.371100
     30          6           0       -1.728817   -1.760997   -0.100263
     31          1           0       -0.290158   -3.805199    1.083060
     32          1           0        2.093924   -4.088015    1.381033
     33          1           0        4.617197   -3.182566    0.995999
     34          1           0        5.927198   -1.071819    0.609011
     35          1           0        5.571125    1.602869    0.495936
     36          1           0        4.006371    3.479870    0.343262
     37          1           0        1.480111    4.324140    0.143621
     38          1           0       -0.928309    4.742525    0.482824
     39          1           0       -3.230472    4.079021    0.614716
     40          1           0       -5.034423    2.534966    0.573647
     41          1           0       -5.872978    0.305584    0.216028
     42          1           0       -5.630707   -1.943022   -0.307840
     43          1           0       -4.306891   -3.978799   -0.658730
     44          1           0       -1.884511   -3.899844   -0.528649
 ---------------------------------------------------------------------
 Rotational constants (GHZ):           0.2804329           0.1501283           0.1000665
 Standard basis: 6-311+G(d,p) (5D, 7F)
 There are   774 symmetry adapted cartesian basis functions of A   symmetry.
 There are   744 symmetry adapted basis functions of A   symmetry.
   744 basis functions,  1192 primitive gaussians,   774 cartesian basis functions
    97 alpha electrons       97 beta electrons
       nuclear repulsion energy      2544.7552474302 Hartrees.
 NAtoms=   44 NActive=   44 NUniq=   44 SFac= 1.00D+00 NAtFMM=   60 NAOKFM=F Big=F
 Integral buffers will be    131072 words long.
 Raffenetti 2 integral format.
 Two-electron integral symmetry is turned on.
 One-electron integrals computed using PRISM.
 NBasis=   744 RedAO= T EigKep=  1.00D-06  NBF=   744
 NBsUse=   726 1.00D-06 EigRej=  7.06D-07 NBFU=   726
 ExpMin= 4.38D-02 ExpMax= 4.56D+03 ExpMxC= 6.82D+02 IAcc=2 IRadAn=         4 AccDes= 0.00D+00
 Harris functional with IExCor=  402 and IRadAn=       4 diagonalized for initial guess.
 HarFok:  IExCor=  402 AccDes= 0.00D+00 IRadAn=         4 IDoV= 1 UseB2=F ITyADJ=14
 ICtDFT=  3500011 ScaDFX=  1.000000  1.000000  1.000000  1.000000
 FoFCou: FMM=F IPFlag=           0 FMFlag=      100000 FMFlg1=           0
         NFxFlg=           0 DoJE=T BraDBF=F KetDBF=T FulRan=T
         wScrn=  0.000000 ICntrl=       500 IOpCl=  0 I1Cent=   200000004 NGrid=           0
         NMat0=    1 NMatS0=      1 NMatT0=    0 NMatD0=    1 NMtDS0=    0 NMtDT0=    0
 Petite list used in FoFCou.
 Requested convergence on RMS density matrix=1.00D-08 within 128 cycles.
 Requested convergence on MAX density matrix=1.00D-06.
 Requested convergence on             energy=1.00D-06.
 No special actions if energy rises.
 SCF Done:  E(RB3LYP) =  -1151.82526765     A.U. after   17 cycles
            NFock= 17  Conv=0.75D-08     -V/T= 2.0059

 **********************************************************************

            Population analysis using the SCF Density.

 **********************************************************************

 Orbital symmetries:
       Occupied  (A) (A) (A) (A) (A) (A) (A) (A) (A) (A) (A) (A)
                 (A) (A) (A) (A) (A) (A) (A) (A) (A) (A) (A) (A)
                 (A) (A) (A) (A) (A) (A) (A) (A) (A) (A) (A) (A)
                 (A) (A) (A) (A) (A) (A) (A) (A) (A) (A) (A) (A)
                 (A) (A) (A) (A) (A) (A) (A) (A) (A) (A) (A) (A)
                 (A) (A) (A) (A) (A) (A) (A) (A) (A) (A) (A) (A)
                 (A) (A) (A) (A) (A) (A) (A) (A) (A) (A) (A) (A)
                 (A) (A) (A) (A) (A) (A) (A) (A) (A) (A) (A) (A)
                 (A)
       Virtual   (A) (A) (A) (A) (A) (A) (A) (A) (A) (A) (A) (A)
                 (A) (A) (A) (A) (A) (A) (A) (A) (A) (A) (A) (A)
                 (A) (A) (A) (A) (A) (A) (A) (A) (A) (A) (A) (A)
                 (A) (A) (A) (A) (A) (A) (A) (A) (A) (A) (A) (A)
                 (A) (A) (A) (A) (A) (A) (A) (A) (A) (A) (A) (A)
                 (A) (A) (A) (A) (A) (A) (A) (A) (A) (A) (A) (A)
                 (A) (A) (A) (A) (A) (A) (A) (A) (A) (A) (A) (A)
                 (A) (A) (A) (A) (A) (A) (A) (A) (A) (A) (A) (A)
                 (A) (A) (A) (A) (A) (A) (A) (A) (A) (A) (A) (A)
                 (A) (A) (A) (A) (A) (A) (A) (A) (A) (A) (A) (A)
                 (A) (A) (A) (A) (A) (A) (A) (A) (A) (A) (A) (A)
                 (A) (A) (A) (A) (A) (A) (A) (A) (A) (A) (A) (A)
                 (A) (A) (A) (A) (A) (A) (A) (A) (A) (A) (A) (A)
                 (A) (A) (A) (A) (A) (A) (A) (A) (A) (A) (A) (A)
                 (A) (A) (A) (A) (A) (A) (A) (A) (A) (A) (A) (A)
                 (A) (A) (A) (A) (A) (A) (A) (A) (A) (A) (A) (A)
                 (A) (A) (A) (A) (A) (A) (A) (A) (A) (A) (A) (A)
                 (A) (A) (A) (A) (A) (A) (A) (A) (A) (A) (A) (A)
                 (A) (A) (A) (A) (A) (A) (A) (A) (A) (A) (A) (A)
                 (A) (A) (A) (A) (A) (A) (A) (A) (A) (A) (A) (A)
                 (A) (A) (A) (A) (A) (A) (A) (A) (A) (A) (A) (A)
                 (A) (A) (A) (A) (A) (A) (A) (A) (A) (A) (A) (A)
                 (A) (A) (A) (A) (A) (A) (A) (A) (A) (A) (A) (A)
                 (A) (A) (A) (A) (A) (A) (A) (A) (A) (A) (A) (A)
                 (A) (A) (A) (A) (A) (A) (A) (A) (A) (A) (A) (A)
                 (A) (A) (A) (A) (A) (A) (A) (A) (A) (A) (A) (A)
                 (A) (A) (A) (A) (A) (A) (A) (A) (A) (A) (A) (A)
                 (A) (A) (A) (A) (A) (A) (A) (A) (A) (A) (A) (A)
                 (A) (A) (A) (A) (A) (A) (A) (A) (A) (A) (A) (A)
                 (A) (A) (A) (A) (A) (A) (A) (A) (A) (A) (A) (A)
                 (A) (A) (A) (A) (A) (A) (A) (A) (A) (A) (A) (A)
                 (A) (A) (A) (A) (A) (A) (A) (A) (A) (A) (A) (A)
                 (A) (A) (A) (A) (A) (A) (A) (A) (A) (A) (A) (A)
                 (A) (A) (A) (A) (A) (A) (A) (A) (A) (A) (A) (A)
                 (A) (A) (A) (A) (A) (A) (A) (A) (A) (A) (A) (A)
                 (A) (A) (A) (A) (A) (A) (A) (A) (A) (A) (A) (A)
                 (A) (A) (A) (A) (A) (A) (A) (A) (A) (A) (A) (A)
                 (A) (A) (A) (A) (A) (A) (A) (A) (A) (A) (A) (A)
                 (A) (A) (A) (A) (A) (A) (A) (A) (A) (A) (A) (A)
                 (A) (A) (A) (A) (A) (A) (A) (A) (A) (A) (A) (A)
                 (A) (A) (A) (A) (A) (A) (A) (A) (A) (A) (A) (A)
                 (A) (A) (A) (A) (A) (A) (A) (A) (A) (A) (A) (A)
                 (A) (A) (A) (A) (A) (A) (A) (A) (A) (A) (A) (A)
                 (A) (A) (A) (A) (A) (A) (A) (A) (A) (A) (A) (A)
                 (A) (A) (A) (A) (A) (A) (A) (A) (A) (A) (A) (A)
                 (A) (A) (A) (A) (A) (A) (A) (A) (A) (A) (A) (A)
                 (A) (A) (A) (A) (A) (A) (A) (A) (A) (A) (A) (A)
                 (A) (A) (A) (A) (A) (A) (A) (A) (A) (A) (A) (A)
                 (A) (A) (A) (A) (A) (A) (A) (A) (A) (A) (A) (A)
                 (A) (A) (A) (A) (A) (A) (A) (A) (A) (A) (A) (A)
                 (A) (A) (A) (A) (A) (A) (A) (A) (A) (A) (A) (A)
                 (A) (A) (A) (A) (A) (A) (A) (A) (A) (A) (A) (A)
                 (A) (A) (A) (A) (A)
 The electronic state is 1-A.
 Alpha  occ. eigenvalues --  -10.22477 -10.22408 -10.21951 -10.21095 -10.20904
 Alpha  occ. eigenvalues --  -10.20892 -10.20823 -10.20566 -10.20539 -10.20474
 Alpha  occ. eigenvalues --  -10.20327 -10.20129 -10.20025 -10.19876 -10.19808
 Alpha  occ. eigenvalues --  -10.19761 -10.19740 -10.19466 -10.19092 -10.19012
 Alpha  occ. eigenvalues --  -10.18834 -10.18658 -10.18647 -10.18580 -10.18561
 Alpha  occ. eigenvalues --  -10.18528 -10.18452 -10.18375 -10.18355 -10.18187
 Alpha  occ. eigenvalues --   -0.90412  -0.88612  -0.87065  -0.85315  -0.84012
 Alpha  occ. eigenvalues --   -0.81846  -0.80616  -0.80163  -0.78067  -0.76369
 Alpha  occ. eigenvalues --   -0.75044  -0.74522  -0.72079  -0.70977  -0.69774
 Alpha  occ. eigenvalues --   -0.67477  -0.65165  -0.63620  -0.62559  -0.62005
 Alpha  occ. eigenvalues --   -0.60040  -0.59934  -0.58470  -0.56565  -0.55022
 Alpha  occ. eigenvalues --   -0.53175  -0.51838  -0.51388  -0.50411  -0.49995
 Alpha  occ. eigenvalues --   -0.49161  -0.47560  -0.46917  -0.45695  -0.45041
 Alpha  occ. eigenvalues --   -0.44614  -0.44298  -0.43782  -0.43409  -0.42444
 Alpha  occ. eigenvalues --   -0.41855  -0.41795  -0.41106  -0.40431  -0.40259
 Alpha  occ. eigenvalues --   -0.39583  -0.38866  -0.38295  -0.37902  -0.36702
 Alpha  occ. eigenvalues --   -0.36227  -0.36051  -0.35284  -0.34834  -0.34443
 Alpha  occ. eigenvalues --   -0.33604  -0.33071  -0.32362  -0.30944  -0.30537
 Alpha  occ. eigenvalues --   -0.28937  -0.26728  -0.25220  -0.24689  -0.21928
 Alpha  occ. eigenvalues --   -0.21571  -0.19111
 Alpha virt. eigenvalues --   -0.11161  -0.07301  -0.06097  -0.04255  -0.03167
 Alpha virt. eigenvalues --   -0.01413  -0.00552  -0.00119   0.00385   0.00450
 Alpha virt. eigenvalues --    0.01217   0.01414   0.01485   0.02592   0.02831
 Alpha virt. eigenvalues --    0.02944   0.03243   0.03513   0.04306   0.04428
 Alpha virt. eigenvalues --    0.04622   0.04891   0.05130   0.05501   0.06125
 Alpha virt. eigenvalues --    0.06546   0.06732   0.07079   0.07384   0.07522
 Alpha virt. eigenvalues --    0.08168   0.08300   0.08390   0.08920   0.09447
 Alpha virt. eigenvalues --    0.09526   0.10084   0.10662   0.10760   0.11001
 Alpha virt. eigenvalues --    0.11383   0.11744   0.11866   0.12236   0.12509
 Alpha virt. eigenvalues --    0.12656   0.13088   0.13410   0.14168   0.14228
 Alpha virt. eigenvalues --    0.14387   0.15019   0.15066   0.15335   0.15562
 Alpha virt. eigenvalues --    0.15768   0.15914   0.16040   0.16283   0.16396
 Alpha virt. eigenvalues --    0.16706   0.17059   0.17358   0.17456   0.17577
 Alpha virt. eigenvalues --    0.17740   0.17988   0.18227   0.18335   0.18640
 Alpha virt. eigenvalues --    0.18804   0.18842   0.19166   0.19318   0.19433
 Alpha virt. eigenvalues --    0.19893   0.19982   0.20264   0.20408   0.20585
 Alpha virt. eigenvalues --    0.20775   0.20970   0.21407   0.21582   0.21716
 Alpha virt. eigenvalues --    0.21955   0.22305   0.22760   0.22867   0.23076
 Alpha virt. eigenvalues --    0.23255   0.23453   0.23716   0.23792   0.24111
 Alpha virt. eigenvalues --    0.24492   0.24668   0.24698   0.24910   0.25242
 Alpha virt. eigenvalues --    0.25449   0.25842   0.26221   0.26407   0.26523
 Alpha virt. eigenvalues --    0.26666   0.26957   0.27122   0.27404   0.27650
 Alpha virt. eigenvalues --    0.27796   0.28012   0.28671   0.29006   0.29136
 Alpha virt. eigenvalues --    0.29573   0.29635   0.29799   0.30044   0.30346
 Alpha virt. eigenvalues --    0.30797   0.31140   0.31223   0.31424   0.31810
 Alpha virt. eigenvalues --    0.32020   0.32457   0.32566   0.33125   0.33175
 Alpha virt. eigenvalues --    0.33633   0.33856   0.33900   0.34080   0.34557
 Alpha virt. eigenvalues --    0.35211   0.35422   0.35705   0.36027   0.36630
 Alpha virt. eigenvalues --    0.36781   0.37506   0.37577   0.37620   0.37873
 Alpha virt. eigenvalues --    0.38573   0.39021   0.39621   0.40106   0.40727
 Alpha virt. eigenvalues --    0.41199   0.41768   0.42524   0.42898   0.43463
 Alpha virt. eigenvalues --    0.43914   0.44025   0.44934   0.46104   0.46766
 Alpha virt. eigenvalues --    0.47997   0.48490   0.49189   0.49835   0.50279
 Alpha virt. eigenvalues --    0.51187   0.51570   0.51804   0.52449   0.53431
 Alpha virt. eigenvalues --    0.53634   0.53983   0.54642   0.54819   0.55002
 Alpha virt. eigenvalues --    0.55693   0.56039   0.56136   0.56752   0.56936
 Alpha virt. eigenvalues --    0.57172   0.58064   0.58293   0.58747   0.58976
 Alpha virt. eigenvalues --    0.59354   0.59551   0.59943   0.60157   0.60484
 Alpha virt. eigenvalues --    0.60820   0.61253   0.61805   0.61855   0.62233
 Alpha virt. eigenvalues --    0.62807   0.63048   0.63779   0.64027   0.64872
 Alpha virt. eigenvalues --    0.65764   0.65858   0.66444   0.66745   0.66995
 Alpha virt. eigenvalues --    0.67404   0.67966   0.68338   0.69162   0.69614
 Alpha virt. eigenvalues --    0.69981   0.70083   0.70625   0.70825   0.71015
 Alpha virt. eigenvalues --    0.71221   0.71638   0.71742   0.72122   0.72256
 Alpha virt. eigenvalues --    0.72777   0.73292   0.73543   0.73942   0.74085
 Alpha virt. eigenvalues --    0.74411   0.74854   0.75149   0.75197   0.75577
 Alpha virt. eigenvalues --    0.76096   0.76354   0.76689   0.77381   0.77954
 Alpha virt. eigenvalues --    0.78467   0.79039   0.79548   0.80303   0.81470
 Alpha virt. eigenvalues --    0.81881   0.82402   0.82810   0.83212   0.83524
 Alpha virt. eigenvalues --    0.84403   0.84428   0.85064   0.86162   0.86657
 Alpha virt. eigenvalues --    0.87729   0.88140   0.88738   0.89788   0.90039
 Alpha virt. eigenvalues --    0.90516   0.91029   0.91403   0.91867   0.92719
 Alpha virt. eigenvalues --    0.93255   0.93333   0.93643   0.94046   0.94112
 Alpha virt. eigenvalues --    0.94654   0.95102   0.95263   0.95791   0.95918
 Alpha virt. eigenvalues --    0.96599   0.96816   0.97006   0.97587   0.98402
 Alpha virt. eigenvalues --    0.98589   0.99051   0.99389   0.99567   1.00369
 Alpha virt. eigenvalues --    1.01094   1.01730   1.02010   1.02790   1.03056
 Alpha virt. eigenvalues --    1.04209   1.04763   1.05357   1.05526   1.06025
 Alpha virt. eigenvalues --    1.06293   1.07337   1.08158   1.08823   1.09587
 Alpha virt. eigenvalues --    1.10790   1.11428   1.11838   1.12260   1.12538
 Alpha virt. eigenvalues --    1.13769   1.15118   1.15250   1.16666   1.17260
 Alpha virt. eigenvalues --    1.17684   1.18236   1.19288   1.20683   1.23762
 Alpha virt. eigenvalues --    1.25273   1.26491   1.26872   1.29017   1.29666
 Alpha virt. eigenvalues --    1.29934   1.30756   1.31687   1.33100   1.34599
 Alpha virt. eigenvalues --    1.36543   1.37036   1.38300   1.39202   1.40180
 Alpha virt. eigenvalues --    1.41106   1.42004   1.43393   1.44281   1.44771
 Alpha virt. eigenvalues --    1.46982   1.47412   1.47993   1.48155   1.48639
 Alpha virt. eigenvalues --    1.48706   1.49401   1.50028   1.50471   1.51060
 Alpha virt. eigenvalues --    1.51384   1.51969   1.52629   1.53207   1.53326
 Alpha virt. eigenvalues --    1.54064   1.54825   1.55022   1.55455   1.56727
 Alpha virt. eigenvalues --    1.57130   1.57485   1.58059   1.59303   1.59880
 Alpha virt. eigenvalues --    1.60404   1.60737   1.60994   1.61926   1.62926
 Alpha virt. eigenvalues --    1.63961   1.64487   1.65445   1.66010   1.67046
 Alpha virt. eigenvalues --    1.67563   1.68826   1.69850   1.70115   1.70593
 Alpha virt. eigenvalues --    1.71857   1.72144   1.73008   1.73796   1.73979
 Alpha virt. eigenvalues --    1.75155   1.75809   1.76239   1.76671   1.77257
 Alpha virt. eigenvalues --    1.77559   1.79440   1.79848   1.80753   1.81373
 Alpha virt. eigenvalues --    1.81878   1.83443   1.84041   1.84774   1.84894
 Alpha virt. eigenvalues --    1.86057   1.86471   1.86700   1.86986   1.87813
 Alpha virt. eigenvalues --    1.88213   1.89063   1.89214   1.90217   1.90864
 Alpha virt. eigenvalues --    1.91263   1.91894   1.92365   1.92777   1.93191
 Alpha virt. eigenvalues --    1.93487   1.94022   1.94986   1.95760   1.96269
 Alpha virt. eigenvalues --    1.96859   1.97706   1.98816   1.99592   2.00367
 Alpha virt. eigenvalues --    2.00622   2.01105   2.02623   2.03077   2.04610
 Alpha virt. eigenvalues --    2.05338   2.06766   2.07215   2.08453   2.09657
 Alpha virt. eigenvalues --    2.10603   2.11048   2.11192   2.12729   2.13220
 Alpha virt. eigenvalues --    2.13912   2.14480   2.14944   2.16243   2.16443
 Alpha virt. eigenvalues --    2.17386   2.18402   2.19384   2.19854   2.21037
 Alpha virt. eigenvalues --    2.21604   2.22782   2.23912   2.24628   2.26402
 Alpha virt. eigenvalues --    2.28151   2.29350   2.30340   2.31272   2.32183
 Alpha virt. eigenvalues --    2.33298   2.33754   2.35171   2.36028   2.37617
 Alpha virt. eigenvalues --    2.38825   2.39564   2.40449   2.41937   2.42493
 Alpha virt. eigenvalues --    2.43800   2.44068   2.45329   2.47356   2.48127
 Alpha virt. eigenvalues --    2.50774   2.51987   2.54065   2.54771   2.56188
 Alpha virt. eigenvalues --    2.58656   2.60638   2.61784   2.64439   2.64834
 Alpha virt. eigenvalues --    2.65671   2.66496   2.67342   2.67900   2.68468
 Alpha virt. eigenvalues --    2.68737   2.69701   2.70284   2.71390   2.71551
 Alpha virt. eigenvalues --    2.72261   2.72392   2.72647   2.73211   2.73651
 Alpha virt. eigenvalues --    2.74091   2.74597   2.74797   2.75677   2.76057
 Alpha virt. eigenvalues --    2.76560   2.77435   2.77652   2.77777   2.78559
 Alpha virt. eigenvalues --    2.79062   2.79585   2.79992   2.80953   2.81624
 Alpha virt. eigenvalues --    2.82048   2.83223   2.84042   2.84328   2.84800
 Alpha virt. eigenvalues --    2.86202   2.86362   2.87715   2.88739   2.89316
 Alpha virt. eigenvalues --    2.90310   2.91717   2.92491   2.93509   2.94097
 Alpha virt. eigenvalues --    2.96669   2.99448   3.00264   3.01488   3.03390
 Alpha virt. eigenvalues --    3.03740   3.05168   3.05797   3.07324   3.08910
 Alpha virt. eigenvalues --    3.09137   3.09730   3.10753   3.12190   3.12533
 Alpha virt. eigenvalues --    3.14300   3.16115   3.17151   3.17392   3.19129
 Alpha virt. eigenvalues --    3.20597   3.22481   3.22774   3.24266   3.25211
 Alpha virt. eigenvalues --    3.26160   3.29133   3.29277   3.29600   3.30658
 Alpha virt. eigenvalues --    3.34233   3.35924   3.36478   3.38810   3.40366
 Alpha virt. eigenvalues --    3.41951   3.43113   3.44863   3.45795   3.48051
 Alpha virt. eigenvalues --    3.50491   3.53955   3.54927   3.56798   3.60205
 Alpha virt. eigenvalues --    3.61153   3.61677   3.62355   3.65986   3.66916
 Alpha virt. eigenvalues --    3.71044   3.76308   3.77128   3.79253   3.86131
 Alpha virt. eigenvalues --    3.88530   3.95360   4.05238   4.05711   4.06430
 Alpha virt. eigenvalues --    4.08032   4.09237   4.09649   4.11787   4.18380
 Alpha virt. eigenvalues --    4.21078   4.26108   4.27546   4.39330   4.46458
 Alpha virt. eigenvalues --    4.54654   4.59244   4.63018   4.67010   4.70862
 Alpha virt. eigenvalues --    4.75259   4.77039   4.81153   4.82517  23.40957
 Alpha virt. eigenvalues --   23.58262  23.63615  23.70506  23.74130  23.76315
 Alpha virt. eigenvalues --   23.78172  23.81454  23.82803  23.83420  23.85302
 Alpha virt. eigenvalues --   23.86510  23.87163  23.88721  23.89807  23.90895
 Alpha virt. eigenvalues --   23.92548  23.93263  23.96212  23.96921  23.98212
 Alpha virt. eigenvalues --   24.05183  24.14342  24.16434  24.16991  24.18428
 Alpha virt. eigenvalues --   24.19215  24.19454  24.21291  24.27397
          Condensed to atoms (all electrons):
               1          2          3          4          5          6
     1  C   11.122453   1.592012  -0.781537   1.240021  -1.106337  -1.829852
     2  C    1.592012  11.374607   1.029162  -1.150350  -0.944469  -0.644071
     3  C   -0.781537   1.029162  10.961855  -1.184133   1.833918  -1.078207
     4  C    1.240021  -1.150350  -1.184133  14.995369   2.797062  -0.513679
     5  C   -1.106337  -0.944469   1.833918   2.797062  12.283527  -1.231019
     6  C   -1.829852  -0.644071  -1.078207  -0.513679  -1.231019  16.772985
     7  C   -0.798992   0.190441   0.558059  -3.361147   0.989391  -3.221631
     8  C    0.065320   0.029497  -1.306727   1.778359  -1.800488   0.178809
     9  C   -0.631310  -0.995966  -1.232238  -1.156651   0.577199  -0.600578
    10  C   -0.818976   0.956197  -0.187546  -0.729196  -2.043061  -0.561565
    11  C    0.197393  -1.869352   0.212536   0.427579   1.352579  -0.174520
    12  C   -0.149041   0.346838   1.413173  -2.218769  -1.517684   1.676305
    13  C   -0.012697   0.185809  -1.308076  -1.500313  -0.493331   2.184910
    14  C   -2.045169  -2.361136  -0.360171   3.604618   1.553158  -2.005928
    15  C    2.209675  -0.053168   0.411545  -2.866810  -2.358856  -3.612341
    16  C    0.648471   2.608951  -0.815319  -0.802889  -0.690601   0.229175
    17  C   -1.436009  -2.143632   0.904171   0.084336  -0.347699  -0.464051
    18  C    0.070510   0.942300  -0.858474   0.140166  -0.960584   0.122377
    19  C    0.125341   0.717877  -0.407579  -0.183868  -0.417651  -0.022739
    20  C   -1.373703  -1.893982   0.138512  -0.018620  -0.283879   0.025909
    21  C    0.078563  -0.978692  -0.665650  -0.043844  -0.080357  -0.027385
    22  C   -0.212494  -1.535352  -0.855311  -0.247715   0.018715  -0.138922
    23  C    0.034905   2.024284   0.171960  -1.362030  -0.393070   0.446558
    24  C   -0.975025  -1.076832   0.106033   0.005878  -0.183773   0.047153
    25  C    0.116579   0.125148  -0.071331   0.066855   0.018705   0.006714
    26  C   -0.004842  -0.297572  -0.145122   0.015856  -0.003600  -0.001999
    27  C   -0.188655  -0.593028  -0.018986   0.034840  -0.040454   0.045282
    28  C    0.190030   0.373523   0.088570  -0.002159   0.034195  -0.198040
    29  C   -0.217646  -0.896762  -0.343998   0.785705   0.321689  -0.354306
    30  C    0.913124   1.411193  -0.152944  -2.502061  -0.585195   0.629260
    31  H    0.038051   0.009831   0.002987  -0.019461  -0.003381  -0.016949
    32  H   -0.032222  -0.003450   0.000486   0.010708   0.011058  -0.050838
    33  H   -0.000407   0.000912   0.000222  -0.004527  -0.025848  -0.028212
    34  H    0.003159   0.002056   0.008867  -0.024237   0.013987  -0.016735
    35  H    0.002511   0.000651  -0.028702   0.017379   0.021701   0.003186
    36  H    0.002756   0.013653   0.023615  -0.003337  -0.033062  -0.000542
    37  H   -0.003979  -0.047295  -0.001197   0.001401   0.013059  -0.000377
    38  H   -0.000089  -0.001406   0.004444   0.000133  -0.000135  -0.000006
    39  H   -0.001484  -0.004902   0.000699  -0.000117   0.000070  -0.000003
    40  H   -0.000030  -0.000953  -0.000334   0.000063  -0.000034   0.000004
    41  H    0.000696  -0.000775  -0.000023   0.000063   0.000003   0.000004
    42  H   -0.001088  -0.000278   0.000026  -0.000048  -0.000029   0.000037
    43  H   -0.001189  -0.002051  -0.000173   0.000740   0.000022   0.000021
    44  H    0.008217  -0.008725  -0.000515   0.007852   0.001586  -0.007794
               7          8          9         10         11         12
     1  C   -0.798992   0.065320  -0.631310  -0.818976   0.197393  -0.149041
     2  C    0.190441   0.029497  -0.995966   0.956197  -1.869352   0.346838
     3  C    0.558059  -1.306727  -1.232238  -0.187546   0.212536   1.413173
     4  C   -3.361147   1.778359  -1.156651  -0.729196   0.427579  -2.218769
     5  C    0.989391  -1.800488   0.577199  -2.043061   1.352579  -1.517684
     6  C   -3.221631   0.178809  -0.600578  -0.561565  -0.174520   1.676305
     7  C   11.853628  -1.042158   0.591838  -0.155969  -0.170567  -0.364728
     8  C   -1.042158  11.367777  -2.345730   1.014386  -0.594292  -0.606529
     9  C    0.591838  -2.345730  13.051996   2.167152  -1.171849  -3.200830
    10  C   -0.155969   1.014386   2.167152  13.231106  -2.856508  -1.207265
    11  C   -0.170567  -0.594292  -1.171849  -2.856508  10.724377   0.707508
    12  C   -0.364728  -0.606529  -3.200830  -1.207265   0.707508  11.898767
    13  C    0.528308  -0.057489  -0.248869  -0.355580  -0.202368   0.127881
    14  C   -0.775022  -0.280809  -0.070600   0.087376  -0.266733   0.173897
    15  C    0.832650  -0.808177   1.184280   0.197071   0.187444   0.129093
    16  C    0.033915   0.000901   0.031861   1.289061  -0.846511   0.327934
    17  C   -0.043694  -0.089283  -0.016310  -2.885413   0.863909  -0.946942
    18  C   -0.084755   0.316073   0.389321   1.769328  -1.196979  -0.513630
    19  C    0.002624  -0.029765  -0.179654  -0.419357  -0.023305  -0.089181
    20  C    0.003573  -0.010524  -0.021122  -0.875684  -0.045281  -0.056797
    21  C   -0.007207   0.006856  -0.016495  -0.242828  -0.136941  -0.028501
    22  C   -0.028153   0.018816  -0.030071  -0.843125   0.425569  -0.215581
    23  C    0.157997  -0.034194   0.004863  -0.052732  -0.039454  -0.010193
    24  C    0.026734  -0.011753  -0.037295  -0.175773   0.004294  -0.007613
    25  C    0.001457  -0.000349   0.002545   0.020794   0.002443   0.001188
    26  C   -0.000855   0.001024   0.009662  -0.171603  -0.016392  -0.004686
    27  C    0.002542  -0.000917  -0.002485  -0.038504  -0.004333   0.000222
    28  C   -0.022357   0.002984   0.004342   0.017643   0.003444  -0.001656
    29  C   -0.178859   0.015867  -0.030871   0.041213  -0.022278   0.010165
    30  C    0.611819  -0.111976   0.014560   0.014847   0.085084  -0.005727
    31  H    0.000207   0.000009  -0.002094   0.000350   0.000023  -0.000344
    32  H    0.055664  -0.002310   0.002691  -0.000294  -0.000235  -0.000130
    33  H    0.332294  -0.028037  -0.012735  -0.000471   0.000015   0.013174
    34  H   -0.016870   0.323842  -0.049668   0.001917   0.013980   0.060130
    35  H   -0.005900   0.065924  -0.115849   0.007261   0.004324   0.349889
    36  H   -0.000451   0.013654  -0.024889  -0.058898   0.337515  -0.004582
    37  H   -0.000135  -0.000464  -0.000865  -0.102887   0.076673   0.005387
    38  H   -0.000002   0.000029   0.000418   0.026948   0.003095   0.000573
    39  H   -0.000001   0.000001   0.000024   0.000443   0.000241  -0.000021
    40  H    0.000000  -0.000000  -0.000002   0.000167   0.000007   0.000002
    41  H    0.000000   0.000000   0.000000  -0.000034  -0.000001  -0.000000
    42  H    0.000002  -0.000000  -0.000002   0.000001   0.000001  -0.000000
    43  H   -0.000014  -0.000001  -0.000001  -0.000004  -0.000001   0.000001
    44  H   -0.002944   0.000037  -0.000004   0.000029  -0.000018   0.000001
              13         14         15         16         17         18
     1  C   -0.012697  -2.045169   2.209675   0.648471  -1.436009   0.070510
     2  C    0.185809  -2.361136  -0.053168   2.608951  -2.143632   0.942300
     3  C   -1.308076  -0.360171   0.411545  -0.815319   0.904171  -0.858474
     4  C   -1.500313   3.604618  -2.866810  -0.802889   0.084336   0.140166
     5  C   -0.493331   1.553158  -2.358856  -0.690601  -0.347699  -0.960584
     6  C    2.184910  -2.005928  -3.612341   0.229175  -0.464051   0.122377
     7  C    0.528308  -0.775022   0.832650   0.033915  -0.043694  -0.084755
     8  C   -0.057489  -0.280809  -0.808177   0.000901  -0.089283   0.316073
     9  C   -0.248869  -0.070600   1.184280   0.031861  -0.016310   0.389321
    10  C   -0.355580   0.087376   0.197071   1.289061  -2.885413   1.769328
    11  C   -0.202368  -0.266733   0.187444  -0.846511   0.863909  -1.196979
    12  C    0.127881   0.173897   0.129093   0.327934  -0.946942  -0.513630
    13  C   11.721660  -1.573103  -3.645605   0.208819  -0.383439   0.198066
    14  C   -1.573103  17.338965  -1.132235  -0.465123  -0.249854   0.075682
    15  C   -3.645605  -1.132235  15.463615   0.123804   0.139024  -0.026016
    16  C    0.208819  -0.465123   0.123804   9.711958  -2.324838   1.109948
    17  C   -0.383439  -0.249854   0.139024  -2.324838  17.976070   0.768422
    18  C    0.198066   0.075682  -0.026016   1.109948   0.768422  10.770073
    19  C    0.193227  -0.279813  -0.045381   1.437329  -1.306168  -0.935045
    20  C   -0.291814   0.132013   0.056717  -2.420487   3.398677  -1.445197
    21  C    0.272452   0.086665  -0.018541  -0.512169  -2.138847  -1.373932
    22  C   -0.108091  -0.034617   0.020859  -0.712249  -0.623052  -2.753301
    23  C   -1.272312  -2.789726   0.396689   1.485601  -0.749158   0.028825
    24  C   -0.123740  -0.033203  -0.094071  -1.362743   0.340487  -0.245504
    25  C    0.470305  -0.128005  -0.048068  -0.302612  -0.463050   0.016847
    26  C    0.024042  -0.005266  -0.013314  -1.599981  -1.402870  -0.577650
    27  C   -0.302405   0.348556  -0.032229  -0.363488   0.116533  -0.008223
    28  C   -0.420488  -0.301078   0.128915   0.031791  -0.106883  -0.018860
    29  C    0.134288   2.262307  -0.523430  -0.186914  -0.221420   0.027371
    30  C    1.178061  -4.299879  -0.302440   0.653068  -0.922966  -0.118083
    31  H   -0.053910   0.343397   0.002716   0.003907   0.000499  -0.000043
[...]
 ,-0.00000683,0.00001634,0.00000568,-0.00000577,0.00001399,-0.00002194,
 -0.00000722,0.00000166,0.00001870,-0.00000162,0.00001718,-0.00001096,-
 0.00000064,-0.00001306,-0.00000602,0.00000322,-0.00004836,0.00000343,0
 .00000011,0.00000878,-0.00001321,0.00000089,0.00000353,0.00000922,-0.0
 0000054,-0.00037309,0.00013519,0.00000939,-0.00002282,-0.00015363,-0.0
 0002964,-0.00003671,0.00004087,0.00002745,0.00014321,-0.00009669,0.000
 18639,-0.00006920,-0.00012992,-0.00004125,0.00004446,0.00005468,0.0000
 0060,-0.00065592,0.00018411,0.00001373,-0.00383497,0.00196401,-0.00233
 608,0.00056793,0.00099993,0.00022589,-0.00037274,0.00018141,0.00008872
 ,-0.00411282,-0.00032959,-0.00172642,0.00044738,-0.02688396,-0.0015250
 6,-0.05674996,-0.01172259,-0.00490295,0.00562777,0.02806847,0.00135465
 ,-0.00004787,-0.00275323,0.00044983,0.00016148,0.00039996,0.00006723,0
 .00001466,-0.00011430,0.00000419,0.00015724,-0.00138938,0.00015535,-0.
 00000054,0.00000602,-0.00000436,-0.00000342,-0.00001337,0.00000380,0.0
 0000109,0.00000015,0.00000019,0.00000130,0.00000134,-0.00000009,0.0000
 0170,0.00000140,-0.00000030,-0.00000172,0.00000171,-0.00000094,-0.0000
 0078,-0.00000423,-0.00000119,-0.00001583,0.00012898,0.00000809,-0.0000
 4706,-0.00002807,-0.00003188,0.00068426,-0.00044770,0.00107843,0.05931
 381,0.00004124,-0.00000150,0.00000790,-0.00005018,-0.00002774,-0.00000
 384,-0.00003095,-0.00002501,-0.00002120,-0.00002075,-0.00001126,-0.000
 00212,0.00001985,-0.00000743,0.00000745,0.00001277,-0.00001697,-0.0000
 0554,-0.00000686,0.00000656,0.00000241,0.00001133,0.00000092,-0.000002
 20,-0.00000923,-0.00001856,-0.00000250,0.00000082,0.00000584,0.0000012
 5,-0.00000629,0.00001765,-0.00000285,-0.00001457,-0.00000132,0.0000012
 5,-0.00017827,0.00014753,-0.00002353,-0.00000709,-0.00008992,-0.000014
 49,-0.00002658,0.00002902,0.00001245,0.00002285,0.00005966,0.00003884,
 0.00005376,0.00001763,0.00000631,0.00000179,0.00000116,-0.00000131,-0.
 00009515,0.00036174,0.00007443,0.00340705,0.00097157,0.00035589,-0.000
 50970,-0.00080112,-0.00019355,0.00038752,-0.00008126,0.00003065,-0.001
 97029,0.00121370,-0.00055775,0.00122191,-0.01158138,-0.00030790,-0.012
 64986,-0.33241049,-0.01452692,-0.00350778,-0.01376400,-0.00146797,0.00
 288826,0.00036840,0.00085679,-0.00045509,0.00030681,-0.00007474,0.0000
 3670,0.00031072,-0.00001578,0.00045111,-0.00075841,0.00012389,-0.00000
 159,0.00000990,-0.00000415,-0.00000819,-0.00001046,0.00000391,-0.00000
 536,-0.00000173,0.00000125,-0.00000171,-0.00000608,0.00000108,-0.00000
 132,-0.00000659,0.00000089,0.00000501,-0.00000321,0.00000104,0.0000039
 6,-0.00000024,0.00000177,0.00000256,-0.00010115,-0.00000783,0.00003535
 ,0.00001518,0.00001305,0.00022209,0.00082228,0.00028718,0.01101105,0.3
 5391616,0.00001759,0.00002486,-0.00003751,-0.00002175,0.00013228,0.000
 03910,0.00003250,-0.00012285,0.00005005,-0.00000070,-0.00000140,0.0000
 0183,0.00002831,0.00000685,0.00000911,0.00001768,-0.00000154,0.0000060
 0,0.00000759,-0.00000276,0.00000175,0.00000046,-0.00000392,-0.00000148
 ,0.00000918,-0.00002448,-0.00001083,-0.00010331,-0.00001644,-0.0000149
 3,0.00001091,0.00001300,-0.00000037,-0.00002427,0.00000573,-0.00000141
 ,-0.00010864,0.00008118,0.00008312,0.00000965,-0.00005957,0.00010618,-
 0.00002062,0.00001893,-0.00001802,0.00013523,-0.00001715,-0.00084263,-
 0.00012588,-0.00016987,0.00008207,0.00004446,0.00012206,0.00002803,-0.
 00079175,0.00024075,-0.00084205,-0.00236179,0.00030697,0.00876001,0.00
 033482,0.00016582,0.00019200,-0.00001460,0.00027728,-0.00044940,-0.001
 13320,-0.00104009,0.00396938,0.00096822,-0.00452150,0.00264273,-0.0064
 5864,-0.01394723,-0.03860222,0.00106050,0.00348997,0.00523203,0.000379
 42,-0.00068922,-0.00241989,0.00014466,0.00022882,-0.00005857,0.0000740
 7,-0.00015361,0.00001777,-0.00014546,-0.00034128,-0.00012489,0.0000060
 6,-0.00000263,0.00001153,-0.00000661,-0.00000222,-0.00002044,0.0000004
 5,0.00000012,0.00000119,0.00000020,-0.00000009,-0.00000001,0.00000030,
 0.00000011,0.00000271,0.00000023,-0.00000010,0.00000193,0.00000459,-0.
 00000190,-0.00000162,-0.00000294,0.00004129,0.00002409,-0.00001878,-0.
 00002521,0.00006919,0.00108044,0.00026210,-0.00498587,0.00730891,0.015
 51130,0.02666366,-0.00007213,0.00005865,0.00001172,-0.00000692,-0.0000
 1837,-0.00000060,0.00002690,0.00001633,0.00000420,-0.00002236,-0.00006
 436,-0.00002067,-0.00004193,0.00000656,0.00000661,0.00003480,-0.000058
 99,-0.00001938,0.00001638,0.00003174,-0.00001122,0.00002080,-0.0000204
 9,0.00000055,-0.00002200,-0.00001478,0.00000117,0.00001176,-0.00000599
 ,-0.00000707,0.00000023,-0.00000791,0.00000155,0.00000825,0.00000652,-
 0.00000007,0.00010539,-0.00013884,0.00021146,-0.00007191,-0.00008914,0
 .00009209,0.00005206,0.00007818,0.00001576,-0.00030083,-0.00000215,-0.
 00002685,-0.00002334,0.00011004,-0.00001564,-0.00004528,-0.00000263,0.
 00000318,0.00034868,0.00104758,0.00015740,0.00007677,0.00024597,0.0000
 0055,0.00002025,-0.00012304,-0.00000792,0.00002222,0.00004893,0.000011
 52,-0.00311705,0.00160573,-0.00170747,0.00573667,0.02246327,-0.0000174
 7,-0.00029002,0.00302954,0.00060686,0.00017806,-0.00040252,0.00003139,
 -0.06780566,-0.05624228,-0.00613964,-0.00068269,-0.03026907,-0.0001878
 7,-0.00479527,-0.00101711,-0.00296859,-0.00074351,0.00032427,0.0000136
 1,0.00005308,-0.00001368,-0.00006553,-0.00000359,-0.00000143,0.0000052
 0,-0.00000411,-0.00000191,0.00000101,0.00000182,-0.00000361,0.00000047
 ,0.00000085,-0.00000312,0.00000007,0.00000252,-0.00000104,-0.00000014,
 0.00000155,0.00001018,0.00000582,0.00000192,-0.00000621,0.00000047,-0.
 00001758,0.00001141,-0.00000589,0.00001385,-0.00000561,-0.00004075,-0.
 00083046,-0.00020413,-0.00029437,0.07166288,0.00006252,-0.00002070,-0.
 00000471,-0.00004123,0.00004112,0.00001474,-0.00000722,-0.00004895,-0.
 00001025,-0.00001178,-0.00001599,-0.00001537,0.00001808,-0.00000724,0.
 00000486,0.00001703,-0.00002820,-0.00000692,-0.00000165,0.00001420,-0.
 00000143,0.00001651,-0.00000330,-0.00000268,-0.00000679,-0.00002060,-0
 .00000027,-0.00002526,0.00000356,-0.00000060,-0.00000152,0.00001064,-0
 .00000352,-0.00001321,0.00000171,0.00000160,-0.00000857,0.00011408,-0.
 00000074,-0.00008008,-0.00005603,0.00003023,0.00000505,0.00004390,0.00
 001350,0.00033949,0.00001892,0.00004724,-0.00002829,-0.00011924,-0.000
 02293,0.00004773,0.00002844,0.00000525,-0.00074027,-0.00080883,-0.0001
 5381,-0.00010133,0.00020301,0.00004507,0.00001554,0.00005692,0.0000092
 4,0.00004502,0.00001750,0.00000344,0.00308175,0.00018039,0.00067043,-0
 .00559214,-0.01743535,-0.00062172,-0.00287600,0.00032014,-0.00075288,0
 .00049382,0.00037433,0.00006077,-0.05439924,-0.32189081,-0.00487286,0.
 00051655,-0.00622474,0.00049951,-0.00233515,0.00167757,-0.00047679,0.0
 0047145,0.00033260,0.00001885,0.00003056,-0.00001222,-0.00002774,-0.00
 000599,-0.00000621,0.00000386,-0.00000470,-0.00000127,0.00000128,-0.00
 000093,-0.00000570,0.00000093,-0.00000047,-0.00000574,0.00000090,0.000
 00429,-0.00000296,0.00000086,0.00000608,-0.00001237,0.00000087,0.00000
 494,-0.00000011,0.00000200,0.00003038,-0.00000381,0.00000603,0.0000630
 8,-0.00004610,0.00000993,0.00075949,0.00110301,0.00019253,0.06042002,0
 .34200140,0.00008469,-0.00025258,0.00001362,-0.00004316,-0.00000026,-0
 .00001204,0.00001916,-0.00003568,-0.00000267,0.00008759,0.00008095,0.0
 0002755,0.00002303,-0.00004485,-0.00000487,-0.00008961,0.00012007,0.00
 000592,0.00002593,-0.00007032,0.00002228,-0.00006465,0.00002141,0.0000
 0526,0.00006077,0.00003495,-0.00001341,-0.00004631,-0.00002441,0.00001
 615,0.00002038,0.00001102,0.00000025,-0.00002164,0.00000480,0.00000006
 ,0.00010799,0.00014202,-0.00078840,-0.00000928,0.00017955,0.00001183,0
 .00000047,-0.00018115,-0.00006636,-0.00012825,0.00002047,0.00008576,0.
 00000407,-0.00002285,0.00012921,0.00000981,0.00004609,-0.00004117,-0.0
 0000705,0.00029528,-0.00009508,0.00004775,0.00012542,0.00011931,0.0000
 1484,-0.00002761,-0.00000229,0.00001975,0.00002316,-0.00001800,-0.0008
 2143,0.00130421,0.00490558,0.00186288,0.00369886,0.00300180,0.00060917
 ,0.00074953,-0.00320018,0.00012850,-0.00023297,-0.00005905,-0.00744127
 ,-0.00462549,-0.03740049,-0.00048224,-0.00624066,0.00452569,-0.0030035
 1,-0.00000407,0.00704557,-0.00084672,0.00015871,-0.00099886,0.00008500
 ,-0.00001789,0.00005120,0.00000328,0.00000097,-0.00000190,0.00000169,0
 .00000104,0.00000014,-0.00000113,-0.00000058,-0.00000261,0.00000079,0.
 00000002,0.00000089,-0.00000049,0.00000056,0.00000077,0.00000243,0.000
 00610,-0.00002051,-0.00000102,-0.00000024,0.00000066,-0.00000608,-0.00
 000118,0.00001639,-0.00001674,-0.00001767,0.00015867,-0.00033212,-0.00
 006233,0.00031129,0.00902144,0.00544391,0.02624185,-0.00001468,-0.0000
 7028,0.00000818,-0.00002728,-0.00000266,0.00001319,-0.00000162,0.00001
 328,-0.00000208,0.00001076,-0.00000884,-0.00002367,-0.00000529,-0.0000
 0273,-0.00000606,0.00000934,0.00001024,0.00000650,-0.00000919,-0.00000
 763,0.00000274,-0.00000037,0.00000716,0.00000107,-0.00000226,0.0000187
 7,0.00000283,0.00000323,0.00002212,0.00000801,-0.00000255,-0.00002234,
 0.00000111,0.00001688,0.00000260,-0.00000118,0.00014662,-0.00017143,0.
 00006757,-0.00000706,0.00003532,-0.00002739,-0.00001001,-0.00000021,0.
 00000012,-0.00004595,0.00004321,-0.00000586,0.00004521,0.00004636,0.00
 000504,-0.00000503,-0.00001712,-0.00000338,0.00017968,0.00003865,0.000
 25297,0.00004104,-0.00022446,-0.00003336,-0.00001403,0.00006410,-0.000
 00992,-0.00002404,-0.00003968,-0.00000433,-0.00028617,-0.00051807,0.00
 011336,-0.00289342,-0.00361467,-0.00275603,-0.00048318,0.00130876,-0.0
 0002403,-0.00052863,-0.00022320,0.00002042,-0.01617359,0.02118457,-0.0
 0566423,-0.21277778,0.13033488,-0.04895321,0.00758191,-0.00584813,0.00
 144895,0.00115570,-0.00194667,-0.00090418,-0.00002383,-0.00001380,0.00
 001930,0.00000448,0.00000078,-0.00000251,0.00000467,0.00000170,-0.0000
 0123,0.00000009,0.00000456,-0.00000094,0.00000098,0.00000438,-0.000000
 77,-0.00000409,0.00000276,-0.00000123,-0.00000476,0.00000403,-0.000001
 89,-0.00000555,0.00000693,-0.00000026,0.00000225,-0.00000489,-0.000001
 01,-0.00012500,0.00008440,-0.00002574,-0.00000325,-0.00005954,-0.00002
 882,0.00069480,-0.00027529,0.00127498,0.22295149,-0.00041645,-0.000439
 73,0.00003098,-0.00007152,0.00003654,0.00002065,-0.00001561,-0.0000248
 2,-0.00000606,0.00014466,0.00002360,-0.00008392,0.00000800,-0.00002979
 ,0.00000045,-0.00004359,-0.00008163,0.00000170,-0.00000458,0.00007848,
 0.00000722,0.00005537,-0.00003620,-0.00001246,-0.00003634,-0.00003046,
 0.00001267,0.00005452,0.00001908,0.00000525,-0.00000222,-0.00000834,0.
 00000055,0.00000941,0.00000191,-0.00000137,0.00146568,-0.00039378,0.00
 018735,0.00001295,-0.00007278,-0.00002939,-0.00004889,0.00002536,-0.00
 001157,-0.00001952,0.00001697,-0.00000601,0.00004180,0.00003075,-0.000
 00197,-0.00000499,-0.00006091,-0.00000381,0.00021438,0.00007577,-0.000
 01710,0.00001034,-0.00022397,-0.00000931,-0.00004946,0.00009182,0.0000
 0693,-0.00004593,-0.00006965,-0.00001114,-0.00087427,-0.00033381,-0.00
 017813,-0.00285122,0.00014925,-0.00022019,-0.00001850,0.00039585,0.000
 05142,-0.00021491,0.00015364,-0.00005509,-0.00922514,0.01093668,-0.002
 53128,0.13015805,-0.16964941,0.03796375,0.02484763,-0.01423342,0.00664
 908,-0.00278384,-0.00404939,0.00053162,-0.00000949,-0.00002313,0.00004
 418,-0.00001739,-0.00002384,0.00000932,-0.00000748,-0.00000657,0.00000
 480,0.00000064,-0.00000570,0.00000050,0.00000226,-0.00000638,0.0000014
 4,0.00000400,-0.00000286,0.00000045,0.00000345,-0.00000174,0.00000274,
 0.00000386,-0.00000304,0.00000043,0.00000728,0.00000288,0.00000109,-0.
 00004622,0.00002534,-0.00001314,-0.00000410,-0.00002563,0.00000943,0.0
 0056511,0.00068227,-0.00012692,-0.14061706,0.17609775,-0.00001921,-0.0
 0008473,-0.00017553,-0.00001235,-0.00001921,-0.00002450,-0.00002079,-0
 .00002475,-0.00001467,0.00005593,0.00005937,-0.00000731,0.00003454,0.0
 0002740,0.00001775,-0.00001634,-0.00002486,0.00001982,-0.00001812,0.00
 004841,-0.00000708,0.00003692,-0.00001252,-0.00001293,-0.00002327,-0.0
 0000909,0.00000721,0.00002845,0.00002476,0.00000157,-0.00000245,-0.000
 01261,0.00000037,0.00001317,0.00000202,0.00000103,0.00005360,0.0001554
 3,0.00012508,0.00008348,0.00005432,-0.00005519,-0.00002819,0.00001962,
 0.00000616,-0.00001067,0.00003157,0.00000982,0.00006042,0.00001805,0.0
 0004667,-0.00000743,-0.00004823,-0.00000268,0.00023383,0.00000906,-0.0
 0089030,-0.00005198,-0.00020889,0.00009430,-0.00004926,0.00006188,0.00
 005095,-0.00004167,-0.00005444,-0.00002000,-0.00018914,-0.00029866,-0.
 00058776,-0.00265218,-0.00094057,0.00778178,0.00016192,0.00037443,0.00
 017112,-0.00016262,0.00016216,-0.00054757,-0.00350031,0.00475152,0.002
 74056,-0.04951349,0.03705811,-0.05087036,-0.00070450,0.00118796,0.0026
 0287,-0.00012623,-0.00008732,0.00607665,-0.00001624,0.00010387,0.00002
 068,0.00000454,0.00000532,0.00000211,0.00000099,0.00000147,0.00000098,
 0.00000093,0.00000098,0.00000323,0.00000065,0.00000050,0.00000101,-0.0
 0000066,0.00000044,0.00000065,-0.00000241,0.00000049,0.00000591,-0.000
 00176,0.00000108,-0.00000090,0.00000083,-0.00000163,-0.00000047,-0.000
 03672,0.00002673,-0.00000112,-0.00002905,-0.00002052,0.00010724,0.0011
 9142,-0.00018647,-0.00412890,0.05440658,-0.04183475,0.04059037,-0.0002
 1340,0.00080494,0.00020515,0.00012582,0.00004367,0.00002905,0.00006953
 ,0.00003036,0.00000226,-0.00021062,-0.00035721,-0.00003284,-0.00016963
 ,0.00016358,-0.00002195,0.00018947,-0.00046785,-0.00020800,0.00004287,
 0.00024424,-0.00010676,0.00022221,-0.00010715,-0.00001429,-0.00022438,
 -0.00009789,0.00002428,0.00007006,0.00009505,0.00001831,-0.00001662,-0
 .00013246,0.00000540,0.00011053,0.00006037,-0.00000508,-0.00128495,-0.
 00174167,0.00113824,-0.00046322,-0.00243212,0.00163110,0.00050913,0.00
 033737,0.00015720,0.00001347,-0.00025675,-0.00005852,-0.00005843,0.000
 09928,0.00001743,-0.00003758,-0.00008033,-0.00002001,-0.00040668,-0.00
 078655,-0.00015041,-0.00025716,0.00027251,0.00011585,0.00000585,-0.000
 03933,-0.00002458,-0.00008355,-0.00000302,-0.00000966,-0.00049779,0.00
 341122,-0.00178548,0.00039482,0.00028496,0.00029304,0.00008372,-0.0000
 4355,0.00011415,-0.00002987,0.00009019,-0.00000959,0.00162777,-0.00121
 904,-0.00083394,-0.00155105,0.00063108,-0.00099292,-0.29956541,-0.0846
 4360,-0.05325942,-0.01866940,-0.00664088,-0.00371767,0.00097938,-0.002
 23356,0.00052970,0.00000421,-0.00000852,0.00007888,-0.00000707,-0.0000
 0004,0.00000256,0.00001488,-0.00000685,0.00001435,0.00000520,-0.000002
 73,0.00000128,0.00000139,0.00000394,-0.00000303,-0.00000005,0.00000508
 ,-0.00000094,-0.00000084,0.00000996,0.00000323,-0.00004005,0.00001644,
 0.00000160,-0.00002028,-0.00000656,-0.00000849,-0.00000426,-0.00001649
 ,-0.00001426,-0.00019582,0.00010772,-0.00015369,0.00062946,-0.00018068
 ,0.00086884,0.31890836,-0.00006608,0.00023079,0.00020533,0.00005576,0.
 00001038,-0.00000388,-0.00005326,0.00006518,0.00001232,-0.00006112,-0.
 00005957,0.00009557,0.00000239,0.00001130,-0.00008265,-0.00007068,0.00
 016566,-0.00005047,-0.00003824,-0.00017245,0.00002322,-0.00013803,0.00
 005280,0.00001672,0.00010740,0.00001901,-0.00000069,-0.00004162,-0.000
 06823,-0.00001255,0.00000534,0.00010167,-0.00000847,-0.00008309,-0.000
 04142,0.00001255,0.00145469,-0.00035024,0.00012261,0.00012203,-0.00286
 578,0.00120914,-0.00015605,-0.00049761,-0.00014563,-0.00001029,0.00008
 905,0.00006039,-0.00007765,-0.00006908,-0.00001116,0.00002242,0.000068
 42,0.00001548,0.00046592,0.00080354,0.00003405,0.00021975,-0.00001892,
 -0.00007739,0.00009823,-0.00000741,0.00000501,0.00007000,0.00007817,0.
 00001993,0.00270005,-0.00286526,0.00138253,0.00079877,-0.00064208,0.00
 023013,-0.00036248,0.00003895,-0.00016723,0.00014620,-0.00019542,0.000
 04610,-0.00022549,-0.00593150,0.00085507,-0.03099952,-0.00709143,-0.00
 517328,-0.08659200,-0.08571650,-0.01610038,0.01936035,0.00891950,0.003
 51524,-0.00065232,-0.00296352,0.00244647,0.00003330,0.00000639,0.00008
 771,0.00000866,-0.00000111,-0.00000675,-0.00000657,0.00001267,-0.00000
 046,-0.00000662,0.00000946,-0.00000010,-0.00000445,-0.00000008,0.00000
 124,-0.00000242,-0.00000428,-0.00000528,-0.00000039,-0.00000171,-0.000
 00118,0.00003108,-0.00001838,0.00000473,-0.00000626,0.00000641,0.00000
 452,0.00007190,0.00006601,0.00001366,-0.00136160,-0.00044923,-0.000479
 42,0.00044913,0.00099304,-0.00031768,0.09479286,0.09828276,0.00040938,
 -0.00111147,-0.00001886,-0.00006427,-0.00014327,-0.00002510,0.00009044
 ,-0.00004335,0.00001892,0.00042149,0.00032561,0.00003987,0.00005213,-0
 .00012234,-0.00000891,-0.00044060,0.00037665,0.00008142,0.00011512,-0.
 00021833,0.00004673,-0.00018315,0.00008108,0.00002713,0.00023521,0.000
 07950,-0.00004582,-0.00010204,-0.00011013,-0.00002074,0.00009290,0.000
 04773,-0.00000042,-0.00008796,0.00002350,0.00000771,0.00075313,0.00030
 470,-0.00370281,-0.00072708,0.00232757,0.00012573,0.00018698,-0.000936
 23,-0.00040822,-0.00014376,0.00021315,0.00002026,0.00018620,-0.0000812
 9,-0.00003069,0.00002564,0.00009960,0.00002024,0.00007094,-0.00075660,
 0.00064412,-0.00013516,0.00008587,-0.00044041,-0.00006802,0.00001989,-
 0.00003020,-0.00004339,-0.00006143,-0.00001301,-0.00246069,0.00134585,
 0.00576184,-0.00021014,0.00107413,-0.00098175,0.00026430,-0.00004632,-
 0.00054256,-0.00000575,0.00015179,0.00017604,0.00000749,0.00079602,0.0
 0582232,0.00079573,-0.00052598,0.00446684,-0.05422903,-0.01194614,-0.0
 4729558,-0.00318807,-0.00534375,0.00318641,0.00126572,0.00219240,-0.00
 071965,0.00001670,0.00001391,0.00003823,0.00000215,0.00000716,0.000002
 88,-0.00000033,-0.00001081,-0.00001160,0.00000312,-0.00000367,-0.00000
 184,0.00000035,0.00000183,0.00000127,0.00000055,0.00000449,0.00000569,
 -0.00000325,0.,0.00000735,-0.00001592,0.00001009,-0.00002511,-0.000012
 32,-0.00000782,0.00003266,-0.00002642,-0.00002196,0.00001813,0.0001416
 4,0.00007385,0.00015907,0.00083042,-0.00039037,-0.00313862,0.05617962,
 0.01222491,0.03675104\\-0.00002512,0.00000311,0.00000371,0.00003611,-0
 .00001386,-0.00000409,0.00000317,0.00001832,-0.00000645,-0.00001370,0.
 00000874,0.00000461,-0.00000014,-0.00001960,-0.00000167,0.00002020,0.0
 0000325,-0.00001646,0.00000386,-0.00001319,0.00001055,-0.00002748,0.00
 000062,-0.00002426,0.00001005,0.00002871,-0.00000675,-0.00000525,0.000
 01769,-0.00000608,0.00001750,-0.00001092,0.00000133,-0.00000513,-0.000
 02257,0.00000987,0.00001373,-0.00000519,0.00000101,-0.00002682,-0.0000
 0875,0.00000465,-0.00001092,0.00002791,-0.00000525,-0.00003411,0.00002
 632,0.00001051,0.00003689,0.00000111,0.00000626,-0.00001831,-0.0000037
 3,-0.00000727,0.00000095,-0.00002892,0.00000721,0.00003619,-0.00002324
 ,0.00000412,-0.00002956,0.00002844,-0.00000090,-0.00002252,-0.00003393
 ,-0.00000814,0.00001885,0.00001631,-0.00000457,-0.00000492,0.00000657,
 0.00000274,0.00000783,-0.00000922,0.00000873,-0.00001578,0.00001408,0.
 00000071,0.00000523,-0.00000580,0.00000585,0.00000554,-0.00000054,0.00
 000311,-0.00000515,0.00000102,0.00000265,0.00000595,-0.00000246,-0.000
 01055,0.00000559,0.00000935,0.00000165,-0.00000020,0.00000232,0.000000
 86,-0.00000131,0.00000443,-0.00000077,-0.00000005,0.00000279,-0.000005
 99,-0.00000529,0.00000140,-0.00000614,-0.00000338,0.00000024,-0.000007
 54,0.00000195,-0.00000102,0.00000211,0.00000243,0.00000049,0.00000471,
 0.00000455,-0.00000937,0.00000441,0.00000501,-0.00000913,0.00000602,0.
 00000045,-0.00000042,0.00000381,0.00000664,0.00000112,0.00000490,0.000
 00492,0.00000308,0.00000300,0.00000156,-0.00000560,0.00000381\\\@


 TIME IS IN FACT THE HERO OF THE PLOT. THE TIME
 WITH WHICH WE HAVE TO DEAL IS OF THE ORDER OF TWO
 BILLION YEARS...GIVEN SO MUCH TIME, THE "IMPOSSIBLE"
 BECOMES POSSIBLE, THE POSSIBLE PROBABLE, THE PROBABLE
 VIRTUALLY CERTAIN.  ONE HAS ONLY TO WAIT, TIME
 ITSELF PERFORMS THE MIRACLES.
 "ORIGIN OF LIFE" LECTURES, GEORGE WALD, 1954
 Job cpu time:       0 days 21 hours 33 minutes 59.7 seconds.
 Elapsed time:       0 days  1 hours  4 minutes 53.2 seconds.
 File lengths (MBytes):  RWF=   2134 Int=      0 D2E=      0 Chk=     43 Scr=      1
 Normal termination of Gaussian 16 at Fri Jun 21 18:46:15 2019.
