 Entering Gaussian System, Link 0=/share/apps/gaussian16/g16/g16
 Initial command:
 /share/apps/gaussian16/g16/l1.exe "/home/amen01//scratch/705/Gau-3706.inp" -scrdir="/home/amen01//scratch/705/"
 Entering Link 1 = /share/apps/gaussian16/g16/l1.exe PID=      3707.
  
 Copyright (c) 1988-2017, Gaussian, Inc.  All Rights Reserved.
  
 This is part of the Gaussian(R) 16 program.  It is based on
 the Gaussian(R) 09 system (copyright 2009, Gaussian, Inc.),
 the Gaussian(R) 03 system (copyright 2003, Gaussian, Inc.),
 the Gaussian(R) 98 system (copyright 1998, Gaussian, Inc.),
 the Gaussian(R) 94 system (copyright 1995, Gaussian, Inc.),
 the Gaussian 92(TM) system (copyright 1992, Gaussian, Inc.),
 the Gaussian 90(TM) system (copyright 1990, Gaussian, Inc.),
 the Gaussian 88(TM) system (copyright 1988, Gaussian, Inc.),
 the Gaussian 86(TM) system (copyright 1986, Carnegie Mellon
 University), and the Gaussian 82(TM) system (copyright 1983,
 Carnegie Mellon University). Gaussian is a federally registered
 trademark of Gaussian, Inc.
  
 This software contains proprietary and confidential information,
 including trade secrets, belonging to Gaussian, Inc.
  
 This software is provided under written license and may be
 used, copied, transmitted, or stored only in accord with that
 written license.
  
 The following legend is applicable only to US Government
 contracts under FAR:
  
                    RESTRICTED RIGHTS LEGEND
  
 Use, reproduction and disclosure by the US Government is
 subject to restrictions as set forth in subparagraphs (a)
 and (c) of the Commercial Computer Software - Restricted
 Rights clause in FAR 52.227-19.
  
 Gaussian, Inc.
 340 Quinnipiac St., Bldg. 40, Wallingford CT 06492
  
  
 ---------------------------------------------------------------
 Warning -- This program may not be used in any manner that
 competes with the business of Gaussian, Inc. or will provide
 assistance to any competitor of Gaussian, Inc.  The licensee
 of this program is prohibited from giving any competitor of
 Gaussian, Inc. access to this program.  By using this program,
 the user acknowledges that Gaussian, Inc. is engaged in the
 business of creating and licensing software in the field of
 computational chemistry and represents and warrants to the
 licensee that it is not a competitor of Gaussian, Inc. and that
 it will not use this program in any manner prohibited above.
 ---------------------------------------------------------------
  

 Cite this work as:
 Gaussian 16, Revision B.01,
 M. J. Frisch, G. W. Trucks, H. B. Schlegel, G. E. Scuseria, 
 M. A. Robb, J. R. Cheeseman, G. Scalmani, V. Barone, 
 G. A. Petersson, H. Nakatsuji, X. Li, M. Caricato, A. V. Marenich, 
 J. Bloino, B. G. Janesko, R. Gomperts, B. Mennucci, H. P. Hratchian, 
 J. V. Ortiz, A. F. Izmaylov, J. L. Sonnenberg, D. Williams-Young, 
 F. Ding, F. Lipparini, F. Egidi, J. Goings, B. Peng, A. Petrone, 
 T. Henderson, D. Ranasinghe, V. G. Zakrzewski, J. Gao, N. Rega, 
 G. Zheng, W. Liang, M. Hada, M. Ehara, K. Toyota, R. Fukuda, 
 J. Hasegawa, M. Ishida, T. Nakajima, Y. Honda, O. Kitao, H. Nakai, 
 T. Vreven, K. Throssell, J. A. Montgomery, Jr., J. E. Peralta, 
 F. Ogliaro, M. J. Bearpark, J. J. Heyd, E. N. Brothers, K. N. Kudin, 
 V. N. Staroverov, T. A. Keith, R. Kobayashi, J. Normand, 
 K. Raghavachari, A. P. Rendell, J. C. Burant, S. S. Iyengar, 
 J. Tomasi, M. Cossi, J. M. Millam, M. Klene, C. Adamo, R. Cammi, 
 J. W. Ochterski, R. L. Martin, K. Morokuma, O. Farkas, 
 J. B. Foresman, and D. J. Fox, Gaussian, Inc., Wallingford CT, 2016.
 
 ******************************************
 Gaussian 16:  ES64L-G16RevB.01 20-Dec-2017
                23-Jul-2019 
 ******************************************
 %nprocshared=20
 Will use up to   20 processors via shared memory.
 %mem=170GB
 %chk=7-memb2-start.chk
 -------------------------------------------------
 # opt=tight freq b3lyp/6-311+g(d,p) int=grid=fine
 -------------------------------------------------
 1/7=10,18=20,19=15,26=3,38=1/1,3;
 2/9=110,12=2,17=6,18=5,40=1/2;
 3/5=4,6=6,7=111,11=2,25=1,30=1,71=1,74=-5,75=-4/1,2,3;
 4//1;
 5/5=2,38=5/2;
 6/7=2,8=2,9=2,10=2,28=1/1;
 7//1,2,3,16;
 1/7=10,18=20,19=15,26=3/3(2);
 2/9=110/2;
 99//99;
 2/9=110/2;
 3/5=4,6=6,7=111,11=2,25=1,30=1,71=1,74=-5,75=-4/1,2,3;
 4/5=5,16=3,69=1/1;
 5/5=2,38=5/2;
 7//1,2,3,16;
 1/7=10,18=20,19=15,26=3/3(-5);
 2/9=110/2;
 6/7=2,8=2,9=2,10=2,19=2,28=1/1;
 99/9=1/99;
 -------------
 7-memb2-start
 -------------
 Symbolic Z-matrix:
 Charge =  0 Multiplicity = 1
 C                     1.59882   0.37974  -0.05678 
 C                     0.        0.56811  -0.02839 
 C                    -0.09321   2.00054  -0.00946 
 C                     2.15535   1.69729   0.01893 
 C                     1.1534    2.65331   0.01893 
 C                     3.50077   2.09694   0.02839 
 C                     3.75806   3.50875   0.01893 
 C                     2.74167   4.43755   0.00946 
 C                     1.37169   4.02368   0.00946 
 C                    -1.21793   2.8385    0. 
 C                    -1.04163   4.27066   0. 
 C                     0.19595   4.8512    0. 
 C                     2.61887  -0.57954  -0.17981 
 C                     3.99692  -0.23089  -0.07571 
 C                     4.46136   1.06474   0.01893 
 C                    -1.30519  -0.14733  -0.00946 
 C                    -2.47045   0.77181   0. 
 C                    -2.41926   2.17236   0. 
 C                    -1.73121  -1.60779   0.00946 
 C                    -3.12171  -1.94095   0. 
 C                    -4.15645  -0.97007   0. 
 C                    -3.8315    0.32862   0. 
 C                    -0.87928  -2.79643   0.03785 
 C                    -1.39238  -4.13712  -0.04732 
 C                    -2.7899   -4.36078  -0.04732 
 C                    -3.60966  -3.28606  -0.00946 
 C                    -0.51018  -5.24234  -0.06625 
 C                     0.85449  -5.07389  -0.02839 
 C                     1.36753  -3.76784   0.15142 
 C                     0.50959  -2.68918   0.22713 
 H                     2.4704   -1.63762  -0.47319 
 H                     4.70613  -1.05145  -0.14196 
 H                     5.52397   1.28138   0.05678 
 H                     4.78949   3.84596   0.01893 
 H                     2.98038   5.49594   0. 
 H                     0.29402   5.93153  -0.00946 
 H                    -1.93209   4.89064   0. 
 H                    -3.35458   2.72049   0. 
 H                    -4.60273   1.08916   0. 
 H                    -5.18907  -1.29773  -0.00946 
 H                    -4.68576  -3.41739   0. 
 H                    -3.17683  -5.3737   -0.06625 
 H                    -0.94132  -6.23794  -0.12303 
 H                     1.52012  -5.92915  -0.06625 
 H                     2.44187  -3.61769   0.30284 
 H                     0.86886  -1.69387   0.62461 
 

 GradGradGradGradGradGradGradGradGradGradGradGradGradGradGradGradGradGrad
 Berny optimization.
 Initialization pass.
                           ----------------------------
                           !    Initial Parameters    !
                           ! (Angstroms and Degrees)  !
 --------------------------                            --------------------------
 ! Name  Definition              Value          Derivative Info.                !
 --------------------------------------------------------------------------------
 ! R1    R(1,2)                  1.6101         estimate D2E/DX2                !
 ! R2    R(1,4)                  1.4323         estimate D2E/DX2                !
 ! R3    R(1,13)                 1.4057         estimate D2E/DX2                !
 ! R4    R(2,3)                  1.4356         estimate D2E/DX2                !
 ! R5    R(2,16)                 1.4885         estimate D2E/DX2                !
 ! R6    R(3,5)                  1.4075         estimate D2E/DX2                !
 ! R7    R(3,10)                 1.4026         estimate D2E/DX2                !
 ! R8    R(4,5)                  1.3849         estimate D2E/DX2                !
 ! R9    R(4,6)                  1.4036         estimate D2E/DX2                !
 ! R10   R(5,9)                  1.3877         estimate D2E/DX2                !
 ! R11   R(6,7)                  1.4351         estimate D2E/DX2                !
 ! R12   R(6,15)                 1.4101         estimate D2E/DX2                !
 ! R13   R(7,8)                  1.3769         estimate D2E/DX2                !
 ! R14   R(7,34)                 1.0852         estimate D2E/DX2                !
 ! R15   R(8,9)                  1.4311         estimate D2E/DX2                !
 ! R16   R(8,35)                 1.085          estimate D2E/DX2                !
 ! R17   R(9,12)                 1.4378         estimate D2E/DX2                !
 ! R18   R(10,11)                1.443          estimate D2E/DX2                !
 ! R19   R(10,18)                1.3737         estimate D2E/DX2                !
 ! R20   R(11,12)                1.367          estimate D2E/DX2                !
 ! R21   R(11,37)                1.085          estimate D2E/DX2                !
 ! R22   R(12,36)                1.0848         estimate D2E/DX2                !
 ! R23   R(13,14)                1.4253         estimate D2E/DX2                !
 ! R24   R(13,31)                1.108          estimate D2E/DX2                !
 ! R25   R(14,15)                1.3796         estimate D2E/DX2                !
 ! R26   R(14,32)                1.0866         estimate D2E/DX2                !
 ! R27   R(15,33)                1.0851         estimate D2E/DX2                !
 ! R28   R(16,17)                1.4842         estimate D2E/DX2                !
 ! R29   R(16,19)                1.5214         estimate D2E/DX2                !
 ! R30   R(17,18)                1.4015         estimate D2E/DX2                !
 ! R31   R(17,22)                1.4314         estimate D2E/DX2                !
 ! R32   R(18,38)                1.0841         estimate D2E/DX2                !
 ! R33   R(19,20)                1.4299         estimate D2E/DX2                !
 ! R34   R(19,23)                1.4627         estimate D2E/DX2                !
 ! R35   R(20,21)                1.4189         estimate D2E/DX2                !
 ! R36   R(20,26)                1.4309         estimate D2E/DX2                !
 ! R37   R(21,22)                1.3387         estimate D2E/DX2                !
 ! R38   R(21,40)                1.0834         estimate D2E/DX2                !
 ! R39   R(22,39)                1.0832         estimate D2E/DX2                !
 ! R40   R(23,24)                1.438          estimate D2E/DX2                !
 ! R41   R(23,30)                1.4058         estimate D2E/DX2                !
 ! R42   R(24,25)                1.4153         estimate D2E/DX2                !
 ! R43   R(24,27)                1.4143         estimate D2E/DX2                !
 ! R44   R(25,26)                1.3522         estimate D2E/DX2                !
 ! R45   R(25,42)                1.0845         estimate D2E/DX2                !
 ! R46   R(26,41)                1.0841         estimate D2E/DX2                !
 ! R47   R(27,28)                1.3755         estimate D2E/DX2                !
 ! R48   R(27,43)                1.0864         estimate D2E/DX2                !
 ! R49   R(28,29)                1.4147         estimate D2E/DX2                !
 ! R50   R(28,44)                1.0844         estimate D2E/DX2                !
 ! R51   R(29,30)                1.3803         estimate D2E/DX2                !
 ! R52   R(29,45)                1.0953         estimate D2E/DX2                !
 ! R53   R(30,46)                1.1304         estimate D2E/DX2                !
 ! A1    A(2,1,4)              106.0982         estimate D2E/DX2                !
 ! A2    A(2,1,13)             143.318          estimate D2E/DX2                !
 ! A3    A(4,1,13)             110.5141         estimate D2E/DX2                !
 ! A4    A(1,2,3)              100.4536         estimate D2E/DX2                !
 ! A5    A(1,2,16)             144.5543         estimate D2E/DX2                !
 ! A6    A(3,2,16)             114.9912         estimate D2E/DX2                !
 ! A7    A(2,3,5)              113.9244         estimate D2E/DX2                !
 ! A8    A(2,3,10)             130.4119         estimate D2E/DX2                !
 ! A9    A(5,3,10)             115.6594         estimate D2E/DX2                !
 ! A10   A(1,4,5)              110.7268         estimate D2E/DX2                !
 ! A11   A(1,4,6)              129.4023         estimate D2E/DX2                !
 ! A12   A(5,4,6)              119.7993         estimate D2E/DX2                !
 ! A13   A(3,5,4)              108.7017         estimate D2E/DX2                !
 ! A14   A(3,5,9)              126.6694         estimate D2E/DX2                !
 ! A15   A(4,5,9)              124.6045         estimate D2E/DX2                !
 ! A16   A(4,6,7)              116.8679         estimate D2E/DX2                !
 ! A17   A(4,6,15)             116.394          estimate D2E/DX2                !
 ! A18   A(7,6,15)             126.7247         estimate D2E/DX2                !
 ! A19   A(6,7,8)              122.0949         estimate D2E/DX2                !
 ! A20   A(6,7,34)             118.432          estimate D2E/DX2                !
 ! A21   A(8,7,34)             119.4731         estimate D2E/DX2                !
 ! A22   A(7,8,9)              120.7679         estimate D2E/DX2                !
 ! A23   A(7,8,35)             119.7138         estimate D2E/DX2                !
 ! A24   A(9,8,35)             119.5182         estimate D2E/DX2                !
 ! A25   A(5,9,8)              115.8596         estimate D2E/DX2                !
 ! A26   A(5,9,12)             116.0898         estimate D2E/DX2                !
 ! A27   A(8,9,12)             128.0505         estimate D2E/DX2                !
 ! A28   A(3,10,11)            119.6689         estimate D2E/DX2                !
 ! A29   A(3,10,18)            114.3034         estimate D2E/DX2                !
 ! A30   A(11,10,18)           126.0263         estimate D2E/DX2                !
 ! A31   A(10,11,12)           122.1488         estimate D2E/DX2                !
 ! A32   A(10,11,37)           117.8296         estimate D2E/DX2                !
 ! A33   A(12,11,37)           120.0216         estimate D2E/DX2                !
 ! A34   A(9,12,11)            119.7294         estimate D2E/DX2                !
 ! A35   A(9,12,36)            119.9539         estimate D2E/DX2                !
 ! A36   A(11,12,36)           120.3166         estimate D2E/DX2                !
 ! A37   A(1,13,14)            121.8907         estimate D2E/DX2                !
 ! A38   A(1,13,31)            125.2845         estimate D2E/DX2                !
 ! A39   A(14,13,31)           112.4885         estimate D2E/DX2                !
 ! A40   A(13,14,15)           124.0717         estimate D2E/DX2                !
 ! A41   A(13,14,32)           116.224          estimate D2E/DX2                !
 ! A42   A(15,14,32)           119.5812         estimate D2E/DX2                !
 ! A43   A(6,15,14)            117.2962         estimate D2E/DX2                !
 ! A44   A(6,15,33)            121.3809         estimate D2E/DX2                !
 ! A45   A(14,15,33)           121.3017         estimate D2E/DX2                !
 ! A46   A(2,16,17)            113.0074         estimate D2E/DX2                !
 ! A47   A(2,16,19)            134.9952         estimate D2E/DX2                !
 ! A48   A(17,16,19)           111.9966         estimate D2E/DX2                !
 ! A49   A(16,17,18)           126.1718         estimate D2E/DX2                !
 ! A50   A(16,17,22)           123.6969         estimate D2E/DX2                !
 ! A51   A(18,17,22)           110.1297         estimate D2E/DX2                !
 ! A52   A(10,18,17)           121.1017         estimate D2E/DX2                !
 ! A53   A(10,18,38)           120.6198         estimate D2E/DX2                !
 ! A54   A(17,18,38)           118.2786         estimate D2E/DX2                !
 ! A55   A(16,19,20)           119.7273         estimate D2E/DX2                !
 ! A56   A(16,19,23)           128.1134         estimate D2E/DX2                !
 ! A57   A(20,19,23)           112.1593         estimate D2E/DX2                !
 ! A58   A(19,20,21)           123.349          estimate D2E/DX2                !
 ! A59   A(19,20,26)           123.4139         estimate D2E/DX2                !
 ! A60   A(21,20,26)           113.2371         estimate D2E/DX2                !
 ! A61   A(20,21,22)           119.1285         estimate D2E/DX2                !
 ! A62   A(20,21,40)           119.2178         estimate D2E/DX2                !
 ! A63   A(22,21,40)           121.6511         estimate D2E/DX2                !
 ! A64   A(17,22,21)           122.0842         estimate D2E/DX2                !
 ! A65   A(17,22,39)           117.3634         estimate D2E/DX2                !
 ! A66   A(21,22,39)           120.5524         estimate D2E/DX2                !
 ! A67   A(19,23,24)           123.275          estimate D2E/DX2                !
 ! A68   A(19,23,30)           121.0671         estimate D2E/DX2                !
 ! A69   A(24,23,30)           115.5695         estimate D2E/DX2                !
 ! A70   A(23,24,25)           119.9769         estimate D2E/DX2                !
 ! A71   A(23,24,27)           120.4507         estimate D2E/DX2                !
 ! A72   A(25,24,27)           119.5018         estimate D2E/DX2                !
 ! A73   A(24,25,26)           118.2305         estimate D2E/DX2                !
 ! A74   A(24,25,42)           119.9941         estimate D2E/DX2                !
 ! A75   A(26,25,42)           121.7719         estimate D2E/DX2                !
 ! A76   A(20,26,25)           122.7235         estimate D2E/DX2                !
 ! A77   A(20,26,41)           116.8913         estimate D2E/DX2                !
 ! A78   A(25,26,41)           120.3788         estimate D2E/DX2                !
 ! A79   A(24,27,28)           121.5193         estimate D2E/DX2                !
 ! A80   A(24,27,43)           117.989          estimate D2E/DX2                !
 ! A81   A(28,27,43)           120.4884         estimate D2E/DX2                !
 ! A82   A(27,28,29)           118.4468         estimate D2E/DX2                !
 ! A83   A(27,28,44)           120.7581         estimate D2E/DX2                !
 ! A84   A(29,28,44)           120.6609         estimate D2E/DX2                !
 ! A85   A(28,29,30)           120.1995         estimate D2E/DX2                !
 ! A86   A(28,29,45)           119.9899         estimate D2E/DX2                !
 ! A87   A(30,29,45)           119.6662         estimate D2E/DX2                !
 ! A88   A(23,30,29)           123.1654         estimate D2E/DX2                !
 ! A89   A(23,30,46)           115.3743         estimate D2E/DX2                !
 ! A90   A(29,30,46)           120.6523         estimate D2E/DX2                !
 ! D1    D(4,1,2,3)              2.8645         estimate D2E/DX2                !
 ! D2    D(4,1,2,16)          -176.7163         estimate D2E/DX2                !
 ! D3    D(13,1,2,3)          -173.5245         estimate D2E/DX2                !
 ! D4    D(13,1,2,16)            6.8947         estimate D2E/DX2                !
 ! D5    D(2,1,4,5)             -3.0763         estimate D2E/DX2                !
 ! D6    D(2,1,4,6)           -179.9372         estimate D2E/DX2                !
 ! D7    D(13,1,4,5)           174.6214         estimate D2E/DX2                !
 ! D8    D(13,1,4,6)            -2.2395         estimate D2E/DX2                !
 ! D9    D(2,1,13,14)         -176.9601         estimate D2E/DX2                !
 ! D10   D(2,1,13,31)           10.2077         estimate D2E/DX2                !
 ! D11   D(4,1,13,14)            6.7444         estimate D2E/DX2                !
 ! D12   D(4,1,13,31)         -166.0878         estimate D2E/DX2                !
 ! D13   D(1,2,3,5)             -1.8173         estimate D2E/DX2                !
 ! D14   D(1,2,3,10)           178.9762         estimate D2E/DX2                !
 ! D15   D(16,2,3,5)           177.9145         estimate D2E/DX2                !
 ! D16   D(16,2,3,10)           -1.292          estimate D2E/DX2                !
 ! D17   D(1,2,16,17)         -179.3688         estimate D2E/DX2                !
 ! D18   D(1,2,16,19)            0.9976         estimate D2E/DX2                !
 ! D19   D(3,2,16,17)            1.086          estimate D2E/DX2                !
 ! D20   D(3,2,16,19)         -178.5476         estimate D2E/DX2                !
 ! D21   D(2,3,5,4)              0.0774         estimate D2E/DX2                !
 ! D22   D(2,3,5,9)            178.3378         estimate D2E/DX2                !
 ! D23   D(10,3,5,4)           179.4071         estimate D2E/DX2                !
 ! D24   D(10,3,5,9)            -2.3325         estimate D2E/DX2                !
 ! D25   D(2,3,10,11)         -179.1166         estimate D2E/DX2                !
 ! D26   D(2,3,10,18)            0.4888         estimate D2E/DX2                !
 ! D27   D(5,3,10,11)            1.6881         estimate D2E/DX2                !
 ! D28   D(5,3,10,18)         -178.7065         estimate D2E/DX2                !
 ! D29   D(1,4,5,3)              2.0197         estimate D2E/DX2                !
 ! D30   D(1,4,5,9)           -176.285          estimate D2E/DX2                !
 ! D31   D(6,4,5,3)            179.2248         estimate D2E/DX2                !
 ! D32   D(6,4,5,9)              0.9201         estimate D2E/DX2                !
 ! D33   D(1,4,6,7)            175.7762         estimate D2E/DX2                !
 ! D34   D(1,4,6,15)            -2.984          estimate D2E/DX2                !
 ! D35   D(5,4,6,7)             -0.8402         estimate D2E/DX2                !
 ! D36   D(5,4,6,15)          -179.6004         estimate D2E/DX2                !
 ! D37   D(3,5,9,8)           -178.4572         estimate D2E/DX2                !
 ! D38   D(3,5,9,12)             1.504          estimate D2E/DX2                !
 ! D39   D(4,5,9,8)             -0.4593         estimate D2E/DX2                !
 ! D40   D(4,5,9,12)           179.5019         estimate D2E/DX2                !
 ! D41   D(4,6,7,8)              0.396          estimate D2E/DX2                !
 ! D42   D(4,6,7,34)          -179.5802         estimate D2E/DX2                !
 ! D43   D(15,6,7,8)           179.0103         estimate D2E/DX2                !
 ! D44   D(15,6,7,34)           -0.9659         estimate D2E/DX2                !
 ! D45   D(4,6,15,14)            3.6066         estimate D2E/DX2                !
 ! D46   D(4,6,15,33)         -178.0456         estimate D2E/DX2                !
 ! D47   D(7,6,15,14)         -175.0135         estimate D2E/DX2                !
 ! D48   D(7,6,15,33)            3.3344         estimate D2E/DX2                !
 ! D49   D(6,7,8,9)              0.0359         estimate D2E/DX2                !
 ! D50   D(6,7,8,35)          -179.8484         estimate D2E/DX2                !
 ! D51   D(34,7,8,9)          -179.9881         estimate D2E/DX2                !
 ! D52   D(34,7,8,35)            0.1276         estimate D2E/DX2                !
 ! D53   D(7,8,9,5)             -0.0241         estimate D2E/DX2                !
 ! D54   D(7,8,9,12)          -179.9799         estimate D2E/DX2                !
 ! D55   D(35,8,9,5)           179.8604         estimate D2E/DX2                !
 ! D56   D(35,8,9,12)           -0.0953         estimate D2E/DX2                !
 ! D57   D(5,9,12,11)           -0.0355         estimate D2E/DX2                !
 ! D58   D(5,9,12,36)         -179.8913         estimate D2E/DX2                !
 ! D59   D(8,9,12,11)          179.9202         estimate D2E/DX2                !
 ! D60   D(8,9,12,36)            0.0644         estimate D2E/DX2                !
 ! D61   D(3,10,11,12)          -0.4448         estimate D2E/DX2                !
 ! D62   D(3,10,11,37)         179.5552         estimate D2E/DX2                !
 ! D63   D(18,10,11,12)        180.0            estimate D2E/DX2                !
 ! D64   D(18,10,11,37)          0.0            estimate D2E/DX2                !
 ! D65   D(3,10,18,17)           0.424          estimate D2E/DX2                !
 ! D66   D(3,10,18,38)        -179.576          estimate D2E/DX2                !
 ! D67   D(11,10,18,17)        180.0            estimate D2E/DX2                !
 ! D68   D(11,10,18,38)          0.0            estimate D2E/DX2                !
 ! D69   D(10,11,12,9)          -0.4341         estimate D2E/DX2                !
 ! D70   D(10,11,12,36)        179.4212         estimate D2E/DX2                !
 ! D71   D(37,11,12,9)         179.5659         estimate D2E/DX2                !
 ! D72   D(37,11,12,36)         -0.5788         estimate D2E/DX2                !
 ! D73   D(1,13,14,15)          -6.6447         estimate D2E/DX2                !
 ! D74   D(1,13,14,32)         177.4175         estimate D2E/DX2                !
 ! D75   D(31,13,14,15)        167.0264         estimate D2E/DX2                !
 ! D76   D(31,13,14,32)         -8.9114         estimate D2E/DX2                !
 ! D77   D(13,14,15,6)           0.8004         estimate D2E/DX2                !
 ! D78   D(13,14,15,33)       -177.5488         estimate D2E/DX2                !
 ! D79   D(32,14,15,6)         176.6099         estimate D2E/DX2                !
 ! D80   D(32,14,15,33)         -1.7393         estimate D2E/DX2                !
 ! D81   D(2,16,17,18)          -0.3695         estimate D2E/DX2                !
 ! D82   D(2,16,17,22)         179.1199         estimate D2E/DX2                !
 ! D83   D(19,16,17,18)        179.351          estimate D2E/DX2                !
 ! D84   D(19,16,17,22)         -1.1596         estimate D2E/DX2                !
 ! D85   D(2,16,19,20)        -178.8385         estimate D2E/DX2                !
 ! D86   D(2,16,19,23)           1.1726         estimate D2E/DX2                !
 ! D87   D(17,16,19,20)          1.5252         estimate D2E/DX2                !
 ! D88   D(17,16,19,23)       -178.4636         estimate D2E/DX2                !
 ! D89   D(16,17,18,10)         -0.4524         estimate D2E/DX2                !
 ! D90   D(16,17,18,38)        179.5476         estimate D2E/DX2                !
 ! D91   D(22,17,18,10)        180.0            estimate D2E/DX2                !
 ! D92   D(22,17,18,38)          0.0            estimate D2E/DX2                !
 ! D93   D(16,17,22,21)          0.439          estimate D2E/DX2                !
 ! D94   D(16,17,22,39)       -179.561          estimate D2E/DX2                !
 ! D95   D(18,17,22,21)        180.0            estimate D2E/DX2                !
 ! D96   D(18,17,22,39)          0.0            estimate D2E/DX2                !
 ! D97   D(16,19,20,21)         -1.2865         estimate D2E/DX2                !
 ! D98   D(16,19,20,26)        178.7593         estimate D2E/DX2                !
 ! D99   D(23,19,20,21)        178.7041         estimate D2E/DX2                !
 ! D100  D(23,19,20,26)         -1.2502         estimate D2E/DX2                !
 ! D101  D(16,19,23,24)       -175.1716         estimate D2E/DX2                !
 ! D102  D(16,19,23,30)          8.4007         estimate D2E/DX2                !
 ! D103  D(20,19,23,24)          4.8388         estimate D2E/DX2                !
 ! D104  D(20,19,23,30)       -171.5889         estimate D2E/DX2                !
 ! D105  D(19,20,21,22)          0.4538         estimate D2E/DX2                !
 ! D106  D(19,20,21,40)        179.8806         estimate D2E/DX2                !
 ! D107  D(26,20,21,22)       -179.5878         estimate D2E/DX2                !
 ! D108  D(26,20,21,40)         -0.161          estimate D2E/DX2                !
 ! D109  D(19,20,26,25)         -1.8679         estimate D2E/DX2                !
 ! D110  D(19,20,26,41)        179.0431         estimate D2E/DX2                !
 ! D111  D(21,20,26,25)        178.1736         estimate D2E/DX2                !
 ! D112  D(21,20,26,41)         -0.9154         estimate D2E/DX2                !
 ! D113  D(20,21,22,17)          0.0            estimate D2E/DX2                !
 ! D114  D(20,21,22,39)        180.0            estimate D2E/DX2                !
 ! D115  D(40,21,22,17)       -179.4123         estimate D2E/DX2                !
 ! D116  D(40,21,22,39)          0.5877         estimate D2E/DX2                !
 ! D117  D(19,23,24,25)         -5.5269         estimate D2E/DX2                !
 ! D118  D(19,23,24,27)        177.5417         estimate D2E/DX2                !
 ! D119  D(30,23,24,25)        171.0812         estimate D2E/DX2                !
 ! D120  D(30,23,24,27)         -5.8503         estimate D2E/DX2                !
 ! D121  D(19,23,30,29)       -174.4696         estimate D2E/DX2                !
 ! D122  D(19,23,30,46)         15.7847         estimate D2E/DX2                !
 ! D123  D(24,23,30,29)          8.841          estimate D2E/DX2                !
 ! D124  D(24,23,30,46)       -160.9047         estimate D2E/DX2                !
 ! D125  D(23,24,25,26)          2.0994         estimate D2E/DX2                !
 ! D126  D(23,24,25,42)       -177.2343         estimate D2E/DX2                !
 ! D127  D(27,24,25,26)        179.0601         estimate D2E/DX2                !
 ! D128  D(27,24,25,42)         -0.2737         estimate D2E/DX2                !
 ! D129  D(23,24,27,28)         -1.1669         estimate D2E/DX2                !
 ! D130  D(23,24,27,43)        179.4971         estimate D2E/DX2                !
 ! D131  D(25,24,27,28)       -178.1129         estimate D2E/DX2                !
 ! D132  D(25,24,27,43)          2.5511         estimate D2E/DX2                !
 ! D133  D(24,25,26,20)          1.4424         estimate D2E/DX2                !
 ! D134  D(24,25,26,41)       -179.4994         estimate D2E/DX2                !
 ! D135  D(42,25,26,20)       -179.2363         estimate D2E/DX2                !
 ! D136  D(42,25,26,41)         -0.1781         estimate D2E/DX2                !
 ! D137  D(24,27,28,29)          5.5842         estimate D2E/DX2                !
 ! D138  D(24,27,28,44)       -178.5985         estimate D2E/DX2                !
 ! D139  D(43,27,28,29)       -175.0963         estimate D2E/DX2                !
 ! D140  D(43,27,28,44)          0.7211         estimate D2E/DX2                !
 ! D141  D(27,28,29,30)         -2.7771         estimate D2E/DX2                !
 ! D142  D(27,28,29,45)        172.8409         estimate D2E/DX2                !
 ! D143  D(44,28,29,30)       -178.5987         estimate D2E/DX2                !
 ! D144  D(44,28,29,45)         -2.9806         estimate D2E/DX2                !
 ! D145  D(28,29,30,23)         -4.739          estimate D2E/DX2                !
 ! D146  D(28,29,30,46)        164.4852         estimate D2E/DX2                !
 ! D147  D(45,29,30,23)        179.6288         estimate D2E/DX2                !
 ! D148  D(45,29,30,46)        -11.147          estimate D2E/DX2                !
 --------------------------------------------------------------------------------
 Trust Radius=3.00D-01 FncErr=1.00D-07 GrdErr=1.00D-06 EigMax=2.50D+02 EigMin=1.00D-04
 Number of steps in this run=    276 maximum allowed number of steps=    276.
 GradGradGradGradGradGradGradGradGradGradGradGradGradGradGradGradGradGrad

                          Input orientation:                          
 ---------------------------------------------------------------------
 Center     Atomic      Atomic             Coordinates (Angstroms)
 Number     Number       Type             X           Y           Z
 ---------------------------------------------------------------------
      1          6           0        1.598820    0.379740   -0.056780
      2          6           0        0.000000    0.568110   -0.028390
      3          6           0       -0.093210    2.000540   -0.009460
      4          6           0        2.155350    1.697290    0.018930
      5          6           0        1.153400    2.653310    0.018930
      6          6           0        3.500770    2.096940    0.028390
      7          6           0        3.758060    3.508750    0.018930
      8          6           0        2.741670    4.437550    0.009460
      9          6           0        1.371690    4.023680    0.009460
     10          6           0       -1.217930    2.838500    0.000000
     11          6           0       -1.041630    4.270660    0.000000
     12          6           0        0.195950    4.851200    0.000000
     13          6           0        2.618870   -0.579540   -0.179810
     14          6           0        3.996920   -0.230890   -0.075710
     15          6           0        4.461360    1.064740    0.018930
     16          6           0       -1.305190   -0.147330   -0.009460
     17          6           0       -2.470450    0.771810    0.000000
     18          6           0       -2.419260    2.172360    0.000000
     19          6           0       -1.731210   -1.607790    0.009460
     20          6           0       -3.121710   -1.940950    0.000000
     21          6           0       -4.156450   -0.970070    0.000000
     22          6           0       -3.831500    0.328620    0.000000
     23          6           0       -0.879280   -2.796430    0.037850
     24          6           0       -1.392380   -4.137120   -0.047320
     25          6           0       -2.789900   -4.360780   -0.047320
     26          6           0       -3.609660   -3.286060   -0.009460
     27          6           0       -0.510180   -5.242340   -0.066250
     28          6           0        0.854490   -5.073890   -0.028390
     29          6           0        1.367530   -3.767840    0.151420
     30          6           0        0.509590   -2.689180    0.227130
     31          1           0        2.470400   -1.637620   -0.473190
     32          1           0        4.706130   -1.051450   -0.141960
     33          1           0        5.523970    1.281380    0.056780
     34          1           0        4.789490    3.845960    0.018930
     35          1           0        2.980380    5.495940    0.000000
     36          1           0        0.294020    5.931530   -0.009460
     37          1           0       -1.932090    4.890640    0.000000
     38          1           0       -3.354580    2.720490    0.000000
     39          1           0       -4.602730    1.089160    0.000000
     40          1           0       -5.189070   -1.297730   -0.009460
     41          1           0       -4.685760   -3.417390    0.000000
     42          1           0       -3.176830   -5.373700   -0.066250
     43          1           0       -0.941320   -6.237940   -0.123030
     44          1           0        1.520120   -5.929150   -0.066250
     45          1           0        2.441870   -3.617690    0.302840
     46          1           0        0.868860   -1.693870    0.624610
 ---------------------------------------------------------------------
                    Distance matrix (angstroms):
                    1          2          3          4          5
     1  C    0.000000
     2  C    1.610129   0.000000
     3  C    2.343544   1.435584   0.000000
     4  C    1.432269   2.433685   2.269094   0.000000
     5  C    2.318028   2.383407   1.407463   1.384875   0.000000
     6  C    2.563873   3.820463   3.595472   1.403554   2.412423
     7  C    3.802467   4.772066   4.136156   2.418691   2.741538
     8  C    4.216197   4.742442   3.738438   2.802300   2.388766
     9  C    3.651613   3.718055   2.497876   2.454853   1.387679
    10  C    3.739359   2.576593   1.402591   3.561143   2.378626
    11  C    4.702601   3.846385   2.460292   4.104056   2.726598
    12  C    4.686707   4.287664   2.865304   3.713052   2.397455
    13  C    1.405652   2.863304   3.747160   2.332017   3.555055
    14  C    2.474694   4.076274   4.659703   2.667998   4.051317
    15  C    2.944332   4.489166   4.649800   2.391193   3.669626
    16  C    2.951833   1.488534   2.466220   3.921577   3.726802
    17  C    4.088508   2.478996   2.676030   4.717510   4.083220
    18  C    4.400191   2.902971   2.332407   4.599251   3.604937
    19  C    3.878629   2.780838   3.962758   5.101862   5.145681
    20  C    5.260440   4.005154   4.970638   6.409720   6.275679
    21  C    5.911712   4.432029   5.033342   6.852298   6.428355
    22  C    5.430857   3.839082   4.095146   6.141334   5.500343
    23  C    4.029639   3.478168   4.861179   5.422440   5.816512
    24  C    5.417508   4.906961   6.273767   6.828698   7.252263
    25  C    6.460146   5.663732   6.909411   7.820492   8.046829
    26  C    6.369348   5.280590   6.349296   7.620362   7.613387
    27  C    6.004644   5.832928   7.255095   7.434431   8.069451
    28  C    5.504263   5.706340   7.137650   6.895169   7.733124
    29  C    4.159238   4.550048   5.952634   5.523211   6.426085
    30  C    3.268837   3.306798   4.734218   4.689669   5.385168
    31  H    2.236692   3.341552   4.474746   3.385715   4.515390
    32  H    3.422124   4.978306   5.689100   3.753390   5.135467
    33  H    4.028977   5.570480   5.663417   3.394409   4.580994
    34  H    4.711771   5.803943   5.219879   3.399335   3.826691
    35  H    5.299758   5.759078   4.654553   3.887258   3.379166
    36  H    5.703255   5.371506   3.950016   4.625380   3.389110
    37  H    5.728767   4.734770   3.425529   5.187004   3.811332
    38  H    5.478915   3.985819   3.339903   5.604161   4.508520
    39  H    6.242253   4.632216   4.600704   6.785413   5.964894
    40  H    6.992253   5.514360   6.070121   7.931674   7.472513
    41  H    7.342845   6.151533   7.102505   8.541727   8.423155
    42  H    7.477232   6.737862   7.993207   8.856540   9.120912
    43  H    7.088751   6.871489   8.282798   8.519237   9.135772
    44  H    6.309388   6.672824   8.092345   7.653323   8.590714
    45  H    4.101159   4.857300   6.171602   5.330264   6.408292
    46  H    2.301520   2.509558   3.869921   3.677210   4.398384
                    6          7          8          9         10
     6  C    0.000000
     7  C    1.435094   0.000000
     8  C    2.460700   1.376883   0.000000
     9  C    2.871527   2.441312   1.431130   0.000000
    10  C    4.776698   5.020963   4.270302   2.847959   0.000000
    11  C    5.035798   4.859824   3.786991   2.425944   1.442971
    12  C    4.302161   3.806725   2.579125   1.437791   2.459678
    13  C    2.825711   4.248690   5.022160   4.772936   5.141630
    14  C    2.382393   3.748455   4.835001   5.000045   6.051574
    15  C    1.410057   2.543190   3.785931   4.278022   5.949867
    16  C    5.304284   6.245336   6.115436   4.956145   2.987120
    17  C    6.116555   6.803347   6.372122   5.033566   2.416612
    18  C    5.920578   6.320251   5.636167   4.218860   1.373658
    19  C    6.410850   7.504076   7.520159   6.429731   4.475828
    20  C    7.756456   8.776721   8.663982   7.467767   5.144659
    21  C    8.248659   9.093935   8.765073   7.449695   4.810416
    22  C    7.542542   8.228913   7.751771   6.381751   3.623568
    23  C    6.567343   7.826914   8.089657   7.182031   5.645224
    24  C    7.925412   9.219043   9.519378   8.616378   6.977961
    25  C    9.015565  10.237659  10.392887   9.360621   7.369054
    26  C    8.918315  10.022652   9.999695   8.845705   6.575005
    27  C    8.364312   9.736873  10.211784   9.455490   8.112045
    28  C    7.643744   9.060611   9.696926   9.112338   8.179343
    29  C    6.241914   7.660349   8.320868   7.792814   7.095862
    30  C    5.647442   7.000731   7.471268   6.771491   5.795788
    31  H    3.906428   5.327793   6.100347   5.787092   5.819221
    32  H    3.375540   4.660488   5.831908   6.074402   7.088466
    33  H    2.181578   2.842718   4.207712   4.976332   6.919614
    34  H    2.172547   1.085154   2.131580   3.422431   6.091340
    35  H    3.438723   2.134026   1.085017   2.180716   4.968681
    36  H    4.998876   4.227321   2.867634   2.191260   3.442807
    37  H    6.109135   5.855577   4.695680   3.415651   2.172856
    38  H    6.883709   7.156211   6.333455   4.902655   2.139906
    39  H    8.165974   8.703883   8.071680   6.656214   3.810126
    40  H    9.329445  10.156485   9.787259   8.447564   5.733973
    41  H    9.870558  10.921075  10.810499   9.594911   7.152762
    42  H   10.020467  11.269333  11.458403  10.440571   8.442861
    43  H    9.445915  10.821381  11.293718  10.519906   9.081487
    44  H    8.267409   9.699979  10.438697   9.954225   9.185477
    45  H    5.818384   7.252524   8.066154   7.721521   7.427532
    46  H    4.653243   5.981771   6.440508   5.772489   5.028639
                   11         12         13         14         15
    11  C    0.000000
    12  C    1.366979   0.000000
    13  C    6.079147   5.949438   0.000000
    14  C    6.756972   6.346711   1.425277   0.000000
    15  C    6.368766   5.703627   2.477483   1.379608   0.000000
    16  C    4.425855   5.219082   3.951464   5.303182   5.892624
    17  C    3.779349   4.873511   5.268743   6.545076   6.938022
    18  C    2.510125   3.743729   5.743521   6.851913   6.969226
    19  C    5.918765   6.740370   4.473960   5.891908   6.744659
    20  C    6.550636   7.559112   5.902544   7.321539   8.157051
    21  C    6.096503   7.268464   6.788947   8.187158   8.854799
    22  C    4.829395   6.055913   6.516468   7.848754   8.325488
    23  C    7.069056   7.722940   4.147171   5.511100   6.590252
    24  C    8.415226   9.127701   5.363213   6.656124   7.831348
    25  C    8.806841   9.683910   6.600767   7.944666   9.056568
    26  C    7.981158   8.983193   6.793295   8.197470   9.169058
    27  C    9.528064  10.118427   5.616543   6.740079   8.031359
    28  C    9.535024   9.946954   4.830647   5.773366   7.120009
    29  C    8.393120   8.699619   3.441050   4.413082   5.739614
    30  C    7.134230   7.550317   3.010854   4.277426   5.454516
    31  H    6.889560   6.892156   1.107993   2.113562   3.392470
    32  H    7.834651   7.429882   2.140277   1.086594   2.136366
    33  H    7.214300   6.413629   3.458121   2.153229   1.085129
    34  H    5.846596   4.702284   4.933167   4.154254   2.800510
    35  H    4.204507   2.858101   6.088882   5.816843   4.672172
    36  H    2.131323   1.084813   6.915778   7.189665   6.407275
    37  H    1.085032   2.128405   7.118036   7.835111   7.450777
    38  H    2.784379   4.140796   6.826759   7.922180   7.989417
    39  H    4.775288   6.097563   7.414068   8.700704   9.064143
    40  H    6.943221   8.173608   7.842751   9.247970   9.935435
    41  H    8.507984   9.602118   7.838580   9.249240  10.186248
    42  H    9.878115  10.767015   7.522433   8.826736   9.990131
    43  H   10.509799  11.147984   6.685482   7.776445   9.085056
    44  H   10.516800  10.861573   5.462460   6.213276   7.587664
    45  H    8.628589   8.766868   3.081337   3.745917   5.107259
    46  H    6.294103   6.609152   2.225165   3.523566   4.569774
                   16         17         18         19         20
    16  C    0.000000
    17  C    1.484163   0.000000
    18  C    2.573364   1.401485   0.000000
    19  C    1.521445   2.491799   3.842270   0.000000
    20  C    2.552823   2.789840   4.172859   1.429886   0.000000
    21  C    2.967604   2.424199   3.590640   2.507701   1.418906
    22  C    2.570770   1.431389   2.322455   2.856745   2.377972
    23  C    2.683537   3.907121   5.202100   1.462688   2.400369
    24  C    3.990922   5.026138   6.392672   2.552556   2.795708
    25  C    4.467545   5.142739   6.543816   2.950085   2.442931
    26  C    3.893868   4.214760   5.586724   2.519032   1.430911
    27  C    5.156975   6.325903   7.656811   3.834919   4.209947
    28  C    5.379179   6.725194   7.951502   4.324480   5.062241
    29  C    4.503044   5.946549   7.046182   3.779968   4.849096
    30  C    3.132156   4.572820   5.680169   2.497593   3.714536
    31  H    4.085473   5.517360   6.216802   4.229346   5.620286
    32  H    6.080375   7.405925   7.822038   6.463110   7.879495
    33  H    6.977322   8.010845   7.993245   7.809429   9.226831
    34  H    7.286446   7.884002   7.400498   8.500765   9.801825
    35  H    7.086092   7.213110   6.340528   8.524210   9.619919
    36  H    6.285699   5.853639   4.636091   7.806616   8.581564
    37  H    5.076833   4.153865   2.761590   6.501541   6.934394
    38  H    3.524838   2.139869   1.084099   4.622708   4.667253
    39  H    3.521756   2.155766   2.437389   3.939449   3.372682
    40  H    4.050672   3.416721   4.439984   3.471785   2.165133
    41  H    4.703364   4.738881   6.031776   3.464694   2.150843
    42  H    5.551685   6.186328   7.584281   4.034554   3.433832
    43  H    6.102527   7.175651   8.540058   4.698911   4.820100
    44  H    6.435452   7.799481   9.008750   5.408422   6.120189
    45  H    5.116775   6.594718   7.566173   4.641160   5.818642
    46  H    2.742321   4.197703   5.113668   2.673235   4.046707
                   21         22         23         24         25
    21  C    0.000000
    22  C    1.338726   0.000000
    23  C    3.751915   4.299183   0.000000
    24  C    4.203871   5.088652   1.438046   0.000000
    25  C    3.656038   4.803919   2.470812   1.415304   0.000000
    26  C    2.379680   3.621493   2.774338   2.375304   1.352207
    27  C    5.617114   6.486228   2.475792   1.414265   2.444306
    28  C    6.477010   7.151673   2.863070   2.434404   3.713551
    29  C    6.193933   6.620712   2.450447   2.791589   4.204200
    30  C    4.977837   5.291859   1.405806   2.406105   3.708936
    31  H    6.677176   6.618455   3.581111   4.620599   5.938663
    32  H    8.864090   8.649617   5.854408   6.835360   8.194577
    33  H    9.938953   9.404031   7.591476   8.786744  10.048146
    34  H   10.159938   9.310935   8.732506  10.097003  11.171487
    35  H    9.630349   8.550024   9.146683  10.579183  11.421615
    36  H    8.212116   6.957917   8.806597  10.208971  10.744470
    37  H    6.268628   4.941638   7.758923   9.044002   9.291224
    38  H    3.776669   2.438954   6.046896   7.132972   7.103906
    39  H    2.107034   1.083151   5.381758   6.133726   5.743730
    40  H    1.083400   2.118514   4.563182   4.741142   3.890980
    41  H    2.503906   3.842181   3.856982   3.371439   2.118138
    42  H    4.511763   5.740160   3.454257   2.171117   1.084472
    43  H    6.172735   7.175513   3.445827   2.150031   2.635661
    44  H    7.537925   8.234313   3.947391   3.419706   4.586547
    45  H    7.116139   7.417563   3.431432   3.885086   5.295867
    46  H    5.115444   5.154996   2.148469   3.396199   4.577163
                   26         27         28         29         30
    26  C    0.000000
    27  C    3.665656   0.000000
    28  C    4.808880   1.375548   0.000000
    29  C    5.003041   2.397358   1.414676   0.000000
    30  C    4.168988   2.764892   2.423033   1.380326   0.000000
    31  H    6.316607   4.695047   3.823214   2.478769   2.332596
    32  H    8.611818   6.691725   5.570283   4.314058   4.519882
    33  H   10.212203   8.887352   7.886745   6.540610   6.398310
    34  H   11.018722  10.520977   9.749369   8.348492   7.814662
    35  H   10.979628  11.291548  10.781536   9.404352   8.552928
    36  H   10.010129  11.202916  11.019698   9.759922   8.626650
    37  H    8.347021  10.232473  10.346869   9.267130   7.966622
    38  H    6.011971   8.455866   8.858298   8.026187   6.651912
    39  H    4.486516   7.539313   8.231965   7.697882   6.361074
    40  H    2.539290   6.120064   7.126315   7.008304   5.870846
    41  H    1.084126   4.557444   5.782661   6.065316   5.251051
    42  H    2.132793   2.669883   4.042630   4.824663   4.569728
    43  H    3.980770   1.086428   2.142172   3.392271   3.849864
    44  H    5.770944   2.143321   1.084420   2.177596   3.406560
    45  H    6.068651   3.389737   2.179451   1.095299   2.145127
    46  H    4.795233   3.869196   3.442550   2.184933   1.130357
                   31         32         33         34         35
    31  H    0.000000
    32  H    2.334908   0.000000
    33  H    4.257431   2.480011   0.000000
    34  H    5.974112   4.900761   2.667951   0.000000
    35  H    7.167403   6.772494   4.922966   2.448606   0.000000
    36  H    7.889468   8.261131   6.998618   4.955770   2.721463
    37  H    7.888219   8.910362   8.283889   6.802305   4.949621
    38  H    7.290228   8.900715   8.994605   8.221491   6.916274
    39  H    7.595288   9.552865  10.128683   9.788468   8.770591
    40  H    7.681019   9.899151  11.019320  11.226309  10.625157
    41  H    7.389324   9.686352  11.239228  11.938885  11.756579
    42  H    6.783443   8.990475  10.954869  12.184894  12.492586
    43  H    5.738065   7.667707   9.918290  11.599456  12.372502
    44  H    4.414279   5.826521   8.248496  10.307706  11.518222
    45  H    2.126902   3.451131   5.793166   7.829304   9.134547
    46  H    1.942488   3.965473   5.553791   6.813802   7.519443
                   36         37         38         39         40
    36  H    0.000000
    37  H    2.457460   0.000000
    38  H    4.860365   2.594808   0.000000
    39  H    6.886712   4.645812   2.054049   0.000000
    40  H    9.073394   6.993135   4.417186   2.457871   0.000000
    41  H   10.592479   8.752489   6.280574   4.507315   2.178616
    42  H   11.826168  10.339751   8.096413   6.618621   4.545973
    43  H   12.232537  11.173274   9.278601   8.191914   6.516284
    44  H   11.924021  11.357376   9.928915   9.313987   8.152699
    45  H    9.792773   9.571568   8.594363   8.477767   7.981916
    46  H    7.673279   7.182704   6.141185   6.170388   6.103891
                   41         42         43         44         45
    41  H    0.000000
    42  H    2.471519   0.000000
    43  H    4.689506   2.397424   0.000000
    44  H    6.695243   4.729679   2.481383   0.000000
    45  H    7.136872   5.898270   4.300355   2.515690   0.000000
    46  H    5.849313   5.512354   4.948160   4.340394   2.505789
                   46
    46  H    0.000000
 Stoichiometry    C30H16
 Framework group  C1[X(C30H16)]
 Deg. of freedom   132
 Full point group                 C1      NOp   1
 Largest Abelian subgroup         C1      NOp   1
 Largest concise Abelian subgroup C1      NOp   1
                         Standard orientation:                         
 ---------------------------------------------------------------------
 Center     Atomic      Atomic             Coordinates (Angstroms)
 Number     Number       Type             X           Y           Z
 ---------------------------------------------------------------------
      1          6           0       -1.106157    1.215241   -0.057347
      2          6           0       -0.497119   -0.274984   -0.028777
      3          6           0       -1.705455   -1.049887   -0.010081
      4          6           0       -2.528474    1.064501    0.018063
      5          6           0       -2.880066   -0.274999    0.018031
      6          6           0       -3.529415    2.048370    0.027276
      7          6           0       -4.889355    1.590152    0.017539
      8          6           0       -5.210136    0.251191    0.008044
      9          6           0       -4.184867   -0.747286    0.008297
     10          6           0       -1.894316   -2.439672   -0.000616
     11          6           0       -3.232864   -2.978610   -0.000886
     12          6           0       -4.339893   -2.176663   -0.001150
     13          6           0       -0.760447    2.572154   -0.180347
     14          6           0       -1.732575    3.609264   -0.076490
     15          6           0       -3.091140    3.388551    0.017866
     16          6           0        0.760676   -1.070796   -0.009551
     17          6           0        0.520401   -2.535349   -0.000095
     18          6           0       -0.729929   -3.168465   -0.000343
     19          6           0        2.244856   -0.736677    0.009676
     20          6           0        3.209434   -1.792176    0.000458
     21          6           0        2.860711   -3.167562    0.000428
     22          6           0        1.567005   -3.511820    0.000162
     23          6           0        2.872610    0.584144    0.038157
     24          6           0        4.294156    0.784088   -0.046714
     25          6           0        5.166313   -0.330555   -0.046491
     26          6           0        4.622659   -1.568083   -0.008707
     27          6           0        4.834272    2.091018   -0.065571
     28          6           0        4.026320    3.203640   -0.027921
     29          6           0        2.635094    3.020414    0.151597
     30          6           0        2.106464    1.747570    0.227235
     31          1           0        0.237354    2.954369   -0.473526
     32          1           0       -1.357808    4.627033   -0.142693
     33          1           0       -3.795055    4.213530    0.055538
     34          1           0       -5.683675    2.329486    0.017344
     35          1           0       -6.251823   -0.052219   -0.001629
     36          1           0       -5.332703   -2.613760   -0.010808
     37          1           0       -3.344368   -4.057897   -0.000874
     38          1           0       -0.756847   -4.252229   -0.000313
     39          1           0        1.274793   -4.554810    0.000133
     40          1           0        3.647252   -3.912560   -0.008839
     41          1           0        5.258443   -2.446157    0.000919
     42          1           0        6.239960   -0.178855   -0.065195
     43          1           0        5.914170    2.195647   -0.122123
     44          1           0        4.452539    4.200071   -0.065722
     45          1           0        1.983659    3.887844    0.302848
     46          1           0        1.061534    1.580202    0.624496
 ---------------------------------------------------------------------
 Rotational constants (GHZ):           0.2788879           0.1308001           0.0891129
 Standard basis: 6-311+G(d,p) (5D, 7F)
 There are   786 symmetry adapted cartesian basis functions of A   symmetry.
 There are   756 symmetry adapted basis functions of A   symmetry.
   756 basis functions,  1208 primitive gaussians,   786 cartesian basis functions
    98 alpha electrons       98 beta electrons
       nuclear repulsion energy      2543.5048824177 Hartrees.
 NAtoms=   46 NActive=   46 NUniq=   46 SFac= 1.00D+00 NAtFMM=   60 NAOKFM=F Big=F
 Integral buffers will be    131072 words long.
 Raffenetti 2 integral format.
 Two-electron integral symmetry is turned on.
 One-electron integrals computed using PRISM.
 NBasis=   756 RedAO= T EigKep=  1.02D-06  NBF=   756
 NBsUse=   734 1.00D-06 EigRej=  8.84D-07 NBFU=   734
 ExpMin= 4.38D-02 ExpMax= 4.56D+03 ExpMxC= 6.82D+02 IAcc=2 IRadAn=         4 AccDes= 0.00D+00
 Harris functional with IExCor=  402 and IRadAn=       4 diagonalized for initial guess.
 HarFok:  IExCor=  402 AccDes= 0.00D+00 IRadAn=         4 IDoV= 1 UseB2=F ITyADJ=14
 ICtDFT=  3500011 ScaDFX=  1.000000  1.000000  1.000000  1.000000
 FoFCou: FMM=F IPFlag=           0 FMFlag=      100000 FMFlg1=           0
         NFxFlg=           0 DoJE=T BraDBF=F KetDBF=T FulRan=T
         wScrn=  0.000000 ICntrl=       500 IOpCl=  0 I1Cent=   200000004 NGrid=           0
         NMat0=    1 NMatS0=      1 NMatT0=    0 NMatD0=    1 NMtDS0=    0 NMtDT0=    0
 Petite list used in FoFCou.
 Requested convergence on RMS density matrix=1.00D-08 within 128 cycles.
 Requested convergence on MAX density matrix=1.00D-06.
 Requested convergence on             energy=1.00D-06.
 No special actions if energy rises.
 SCF Done:  E(RB3LYP) =  -1153.08385129     A.U. after   17 cycles
            NFock= 17  Conv=0.47D-08     -V/T= 2.0047

 **********************************************************************

            Population analysis using the SCF Density.

 **********************************************************************

 Orbital symmetries:
       Occupied  (A) (A) (A) (A) (A) (A) (A) (A) (A) (A) (A) (A)
                 (A) (A) (A) (A) (A) (A) (A) (A) (A) (A) (A) (A)
                 (A) (A) (A) (A) (A) (A) (A) (A) (A) (A) (A) (A)
                 (A) (A) (A) (A) (A) (A) (A) (A) (A) (A) (A) (A)
                 (A) (A) (A) (A) (A) (A) (A) (A) (A) (A) (A) (A)
                 (A) (A) (A) (A) (A) (A) (A) (A) (A) (A) (A) (A)
                 (A) (A) (A) (A) (A) (A) (A) (A) (A) (A) (A) (A)
                 (A) (A) (A) (A) (A) (A) (A) (A) (A) (A) (A) (A)
                 (A) (A)
       Virtual   (A) (A) (A) (A) (A) (A) (A) (A) (A) (A) (A) (A)
                 (A) (A) (A) (A) (A) (A) (A) (A) (A) (A) (A) (A)
                 (A) (A) (A) (A) (A) (A) (A) (A) (A) (A) (A) (A)
                 (A) (A) (A) (A) (A) (A) (A) (A) (A) (A) (A) (A)
                 (A) (A) (A) (A) (A) (A) (A) (A) (A) (A) (A) (A)
                 (A) (A) (A) (A) (A) (A) (A) (A) (A) (A) (A) (A)
                 (A) (A) (A) (A) (A) (A) (A) (A) (A) (A) (A) (A)
                 (A) (A) (A) (A) (A) (A) (A) (A) (A) (A) (A) (A)
                 (A) (A) (A) (A) (A) (A) (A) (A) (A) (A) (A) (A)
                 (A) (A) (A) (A) (A) (A) (A) (A) (A) (A) (A) (A)
                 (A) (A) (A) (A) (A) (A) (A) (A) (A) (A) (A) (A)
                 (A) (A) (A) (A) (A) (A) (A) (A) (A) (A) (A) (A)
                 (A) (A) (A) (A) (A) (A) (A) (A) (A) (A) (A) (A)
                 (A) (A) (A) (A) (A) (A) (A) (A) (A) (A) (A) (A)
                 (A) (A) (A) (A) (A) (A) (A) (A) (A) (A) (A) (A)
                 (A) (A) (A) (A) (A) (A) (A) (A) (A) (A) (A) (A)
                 (A) (A) (A) (A) (A) (A) (A) (A) (A) (A) (A) (A)
                 (A) (A) (A) (A) (A) (A) (A) (A) (A) (A) (A) (A)
                 (A) (A) (A) (A) (A) (A) (A) (A) (A) (A) (A) (A)
                 (A) (A) (A) (A) (A) (A) (A) (A) (A) (A) (A) (A)
                 (A) (A) (A) (A) (A) (A) (A) (A) (A) (A) (A) (A)
                 (A) (A) (A) (A) (A) (A) (A) (A) (A) (A) (A) (A)
                 (A) (A) (A) (A) (A) (A) (A) (A) (A) (A) (A) (A)
                 (A) (A) (A) (A) (A) (A) (A) (A) (A) (A) (A) (A)
                 (A) (A) (A) (A) (A) (A) (A) (A) (A) (A) (A) (A)
                 (A) (A) (A) (A) (A) (A) (A) (A) (A) (A) (A) (A)
                 (A) (A) (A) (A) (A) (A) (A) (A) (A) (A) (A) (A)
                 (A) (A) (A) (A) (A) (A) (A) (A) (A) (A) (A) (A)
                 (A) (A) (A) (A) (A) (A) (A) (A) (A) (A) (A) (A)
                 (A) (A) (A) (A) (A) (A) (A) (A) (A) (A) (A) (A)
                 (A) (A) (A) (A) (A) (A) (A) (A) (A) (A) (A) (A)
                 (A) (A) (A) (A) (A) (A) (A) (A) (A) (A) (A) (A)
                 (A) (A) (A) (A) (A) (A) (A) (A) (A) (A) (A) (A)
                 (A) (A) (A) (A) (A) (A) (A) (A) (A) (A) (A) (A)
                 (A) (A) (A) (A) (A) (A) (A) (A) (A) (A) (A) (A)
                 (A) (A) (A) (A) (A) (A) (A) (A) (A) (A) (A) (A)
                 (A) (A) (A) (A) (A) (A) (A) (A) (A) (A) (A) (A)
                 (A) (A) (A) (A) (A) (A) (A) (A) (A) (A) (A) (A)
                 (A) (A) (A) (A) (A) (A) (A) (A) (A) (A) (A) (A)
                 (A) (A) (A) (A) (A) (A) (A) (A) (A) (A) (A) (A)
                 (A) (A) (A) (A) (A) (A) (A) (A) (A) (A) (A) (A)
                 (A) (A) (A) (A) (A) (A) (A) (A) (A) (A) (A) (A)
                 (A) (A) (A) (A) (A) (A) (A) (A) (A) (A) (A) (A)
                 (A) (A) (A) (A) (A) (A) (A) (A) (A) (A) (A) (A)
                 (A) (A) (A) (A) (A) (A) (A) (A) (A) (A) (A) (A)
                 (A) (A) (A) (A) (A) (A) (A) (A) (A) (A) (A) (A)
                 (A) (A) (A) (A) (A) (A) (A) (A) (A) (A) (A) (A)
                 (A) (A) (A) (A) (A) (A) (A) (A) (A) (A) (A) (A)
                 (A) (A) (A) (A) (A) (A) (A) (A) (A) (A) (A) (A)
                 (A) (A) (A) (A) (A) (A) (A) (A) (A) (A) (A) (A)
                 (A) (A) (A) (A) (A) (A) (A) (A) (A) (A) (A) (A)
                 (A) (A) (A) (A) (A) (A) (A) (A) (A) (A) (A) (A)
                 (A) (A) (A) (A) (A) (A) (A) (A) (A) (A) (A) (A)
 The electronic state is 1-A.
 Alpha  occ. eigenvalues --  -10.23222 -10.22202 -10.21095 -10.21030 -10.19985
 Alpha  occ. eigenvalues --  -10.19508 -10.19497 -10.19487 -10.19330 -10.19062
 Alpha  occ. eigenvalues --  -10.19041 -10.18946 -10.18868 -10.18843 -10.18838
 Alpha  occ. eigenvalues --  -10.18709 -10.18675 -10.18634 -10.18337 -10.18160
 Alpha  occ. eigenvalues --  -10.18130 -10.18084 -10.18030 -10.17998 -10.17997
 Alpha  occ. eigenvalues --  -10.17978 -10.17592 -10.17551 -10.17285 -10.16956
 Alpha  occ. eigenvalues --   -0.91489  -0.89116  -0.87307  -0.85568  -0.84165
 Alpha  occ. eigenvalues --   -0.82273  -0.81148  -0.79462  -0.78678  -0.76225
 Alpha  occ. eigenvalues --   -0.74755  -0.74520  -0.72781  -0.72225  -0.71420
 Alpha  occ. eigenvalues --   -0.66565  -0.65098  -0.63482  -0.63056  -0.62116
 Alpha  occ. eigenvalues --   -0.60767  -0.59743  -0.58600  -0.56908  -0.54050
 Alpha  occ. eigenvalues --   -0.53310  -0.52775  -0.52038  -0.50711  -0.50366
 Alpha  occ. eigenvalues --   -0.49164  -0.47846  -0.47304  -0.46977  -0.44917
 Alpha  occ. eigenvalues --   -0.44325  -0.43864  -0.43663  -0.43388  -0.43122
 Alpha  occ. eigenvalues --   -0.42442  -0.42076  -0.41237  -0.41127  -0.40869
 Alpha  occ. eigenvalues --   -0.39977  -0.39762  -0.39115  -0.38306  -0.37203
 Alpha  occ. eigenvalues --   -0.36747  -0.36092  -0.35966  -0.35334  -0.34168
 Alpha  occ. eigenvalues --   -0.33905  -0.33442  -0.32961  -0.32692  -0.31716
 Alpha  occ. eigenvalues --   -0.29615  -0.29348  -0.27092  -0.25131  -0.24043
 Alpha  occ. eigenvalues --   -0.23131  -0.22064  -0.20970
 Alpha virt. eigenvalues --   -0.09471  -0.05516  -0.04954  -0.03863  -0.02081
 Alpha virt. eigenvalues --   -0.00688  -0.00092   0.00339   0.00534   0.01030
 Alpha virt. eigenvalues --    0.01405   0.01514   0.01623   0.02688   0.02822
 Alpha virt. eigenvalues --    0.02921   0.03073   0.04252   0.04374   0.04522
 Alpha virt. eigenvalues --    0.04694   0.04977   0.05125   0.05475   0.05900
 Alpha virt. eigenvalues --    0.06542   0.06751   0.07332   0.07664   0.07908
 Alpha virt. eigenvalues --    0.08032   0.08170   0.08594   0.08764   0.08952
 Alpha virt. eigenvalues --    0.09384   0.10335   0.10547   0.10688   0.11036
 Alpha virt. eigenvalues --    0.11230   0.11632   0.11804   0.11968   0.12256
 Alpha virt. eigenvalues --    0.12500   0.12878   0.13533   0.13656   0.13894
 Alpha virt. eigenvalues --    0.13999   0.14448   0.14794   0.15121   0.15487
 Alpha virt. eigenvalues --    0.15816   0.15952   0.16211   0.16388   0.16415
 Alpha virt. eigenvalues --    0.16560   0.16726   0.17046   0.17293   0.17917
 Alpha virt. eigenvalues --    0.18106   0.18357   0.18503   0.18678   0.18873
 Alpha virt. eigenvalues --    0.18959   0.19113   0.19351   0.19484   0.19671
 Alpha virt. eigenvalues --    0.20050   0.20134   0.20301   0.20741   0.21044
 Alpha virt. eigenvalues --    0.21141   0.21308   0.21556   0.21877   0.22093
 Alpha virt. eigenvalues --    0.22272   0.22793   0.23043   0.23149   0.23330
 Alpha virt. eigenvalues --    0.23545   0.23869   0.23932   0.24195   0.24233
 Alpha virt. eigenvalues --    0.24564   0.24662   0.24983   0.25245   0.25448
 Alpha virt. eigenvalues --    0.25718   0.26013   0.26153   0.26465   0.26872
 Alpha virt. eigenvalues --    0.27144   0.27479   0.27605   0.28025   0.28397
 Alpha virt. eigenvalues --    0.28714   0.28879   0.29200   0.29292   0.29524
 Alpha virt. eigenvalues --    0.30097   0.30266   0.30374   0.30460   0.30973
 Alpha virt. eigenvalues --    0.31362   0.31491   0.31824   0.32248   0.32374
 Alpha virt. eigenvalues --    0.32937   0.33303   0.33577   0.33820   0.34281
 Alpha virt. eigenvalues --    0.34749   0.35047   0.35566   0.35769   0.35997
 Alpha virt. eigenvalues --    0.36493   0.36980   0.37328   0.37539   0.38198
 Alpha virt. eigenvalues --    0.39005   0.39573   0.40322   0.40789   0.41441
 Alpha virt. eigenvalues --    0.41758   0.42470   0.43007   0.43456   0.44027
 Alpha virt. eigenvalues --    0.44771   0.45245   0.45778   0.46307   0.46863
 Alpha virt. eigenvalues --    0.47662   0.48244   0.49183   0.49623   0.49836
 Alpha virt. eigenvalues --    0.50436   0.51107   0.52175   0.52596   0.52674
 Alpha virt. eigenvalues --    0.53162   0.53460   0.53663   0.54077   0.54233
 Alpha virt. eigenvalues --    0.54587   0.54882   0.55229   0.55627   0.55931
 Alpha virt. eigenvalues --    0.56375   0.56635   0.57180   0.57640   0.58056
 Alpha virt. eigenvalues --    0.58080   0.58227   0.58426   0.59454   0.59577
 Alpha virt. eigenvalues --    0.59901   0.60373   0.60701   0.60933   0.61784
 Alpha virt. eigenvalues --    0.61857   0.62151   0.62677   0.63076   0.63117
 Alpha virt. eigenvalues --    0.64060   0.64211   0.64398   0.64684   0.65306
 Alpha virt. eigenvalues --    0.65571   0.65664   0.66413   0.66640   0.67038
 Alpha virt. eigenvalues --    0.67261   0.67642   0.68297   0.69078   0.69330
 Alpha virt. eigenvalues --    0.69569   0.70055   0.70724   0.71080   0.71802
 Alpha virt. eigenvalues --    0.72092   0.72179   0.72473   0.72872   0.73047
 Alpha virt. eigenvalues --    0.73391   0.74038   0.74297   0.74392   0.74721
 Alpha virt. eigenvalues --    0.75186   0.75751   0.75941   0.76245   0.76397
 Alpha virt. eigenvalues --    0.77302   0.78030   0.78436   0.78724   0.80197
 Alpha virt. eigenvalues --    0.81116   0.81522   0.82492   0.83460   0.83773
 Alpha virt. eigenvalues --    0.84091   0.84940   0.85805   0.86842   0.87564
 Alpha virt. eigenvalues --    0.87925   0.88161   0.88671   0.89114   0.89658
 Alpha virt. eigenvalues --    0.89935   0.90615   0.91224   0.91965   0.92240
 Alpha virt. eigenvalues --    0.92615   0.93159   0.93768   0.94247   0.94554
 Alpha virt. eigenvalues --    0.94812   0.95006   0.95131   0.95477   0.95980
 Alpha virt. eigenvalues --    0.96261   0.96493   0.96855   0.97173   0.97799
 Alpha virt. eigenvalues --    0.98394   0.98579   0.98980   0.99542   0.99910
 Alpha virt. eigenvalues --    1.00250   1.01052   1.01267   1.01504   1.02360
 Alpha virt. eigenvalues --    1.02826   1.02846   1.03686   1.04338   1.05175
 Alpha virt. eigenvalues --    1.05658   1.06047   1.06565   1.07136   1.07320
 Alpha virt. eigenvalues --    1.08117   1.08628   1.09896   1.10403   1.11075
 Alpha virt. eigenvalues --    1.11765   1.13004   1.13131   1.13553   1.14291
 Alpha virt. eigenvalues --    1.14896   1.15490   1.16331   1.16780   1.17553
 Alpha virt. eigenvalues --    1.18713   1.19302   1.20709   1.21824   1.22661
 Alpha virt. eigenvalues --    1.23140   1.24267   1.26162   1.27578   1.28843
 Alpha virt. eigenvalues --    1.30008   1.31588   1.33281   1.34207   1.34738
 Alpha virt. eigenvalues --    1.35324   1.36708   1.39140   1.40550   1.41176
 Alpha virt. eigenvalues --    1.42665   1.43902   1.45725   1.46210   1.46558
 Alpha virt. eigenvalues --    1.47797   1.48297   1.48698   1.48923   1.49241
 Alpha virt. eigenvalues --    1.49699   1.50113   1.50428   1.50692   1.51173
 Alpha virt. eigenvalues --    1.51794   1.52449   1.53288   1.54027   1.54920
 Alpha virt. eigenvalues --    1.55119   1.56222   1.56340   1.57051   1.57620
 Alpha virt. eigenvalues --    1.57895   1.58598   1.58927   1.59314   1.60060
 Alpha virt. eigenvalues --    1.60472   1.61407   1.62471   1.63690   1.64551
 Alpha virt. eigenvalues --    1.65738   1.66318   1.67304   1.67605   1.69075
 Alpha virt. eigenvalues --    1.70478   1.70797   1.71107   1.71678   1.72204
 Alpha virt. eigenvalues --    1.72511   1.73364   1.73822   1.74657   1.74966
 Alpha virt. eigenvalues --    1.75248   1.76170   1.76983   1.77687   1.78514
 Alpha virt. eigenvalues --    1.80138   1.80823   1.81147   1.82257   1.82684
 Alpha virt. eigenvalues --    1.83141   1.83630   1.84350   1.84990   1.85793
 Alpha virt. eigenvalues --    1.86662   1.86985   1.87019   1.87721   1.88547
 Alpha virt. eigenvalues --    1.89073   1.89271   1.89909   1.90143   1.90409
 Alpha virt. eigenvalues --    1.91111   1.92003   1.92745   1.93156   1.93834
 Alpha virt. eigenvalues --    1.94395   1.95040   1.95759   1.96860   1.97119
 Alpha virt. eigenvalues --    1.97355   1.98205   1.99124   1.99679   2.00210
 Alpha virt. eigenvalues --    2.01163   2.01510   2.03277   2.03536   2.03949
 Alpha virt. eigenvalues --    2.05155   2.05503   2.06541   2.07679   2.08314
 Alpha virt. eigenvalues --    2.09624   2.10323   2.11146   2.11824   2.12161
 Alpha virt. eigenvalues --    2.13112   2.13808   2.14192   2.14788   2.15415
 Alpha virt. eigenvalues --    2.16013   2.16844   2.18390   2.18956   2.20206
 Alpha virt. eigenvalues --    2.21160   2.22462   2.24195   2.24713   2.24821
 Alpha virt. eigenvalues --    2.26563   2.27758   2.29100   2.31167   2.32184
 Alpha virt. eigenvalues --    2.33705   2.35075   2.35567   2.36364   2.37504
 Alpha virt. eigenvalues --    2.39581   2.40863   2.41153   2.42553   2.43474
 Alpha virt. eigenvalues --    2.44116   2.44569   2.44954   2.45811   2.47182
 Alpha virt. eigenvalues --    2.47485   2.49893   2.51443   2.55055   2.55713
 Alpha virt. eigenvalues --    2.56122   2.58186   2.58683   2.59421   2.62104
 Alpha virt. eigenvalues --    2.62562   2.63899   2.64872   2.65739   2.66238
 Alpha virt. eigenvalues --    2.66932   2.67319   2.68357   2.69341   2.69696
 Alpha virt. eigenvalues --    2.70230   2.70818   2.71072   2.71548   2.72215
 Alpha virt. eigenvalues --    2.72468   2.73568   2.74020   2.74185   2.74929
 Alpha virt. eigenvalues --    2.75179   2.75597   2.75903   2.76342   2.76771
 Alpha virt. eigenvalues --    2.76958   2.77207   2.78006   2.78887   2.79793
 Alpha virt. eigenvalues --    2.80462   2.81642   2.82219   2.83200   2.83660
 Alpha virt. eigenvalues --    2.84256   2.84583   2.85040   2.85220   2.86153
 Alpha virt. eigenvalues --    2.86658   2.87856   2.87901   2.88721   2.90180
 Alpha virt. eigenvalues --    2.90704   2.91405   2.91930   2.92634   2.92905
 Alpha virt. eigenvalues --    2.93440   2.93682   2.95830   2.97840   2.99747
 Alpha virt. eigenvalues --    3.01679   3.02202   3.04212   3.05662   3.07807
 Alpha virt. eigenvalues --    3.09099   3.11586   3.13397   3.13997   3.14733
 Alpha virt. eigenvalues --    3.16986   3.19115   3.21474   3.21720   3.23397
 Alpha virt. eigenvalues --    3.25028   3.25779   3.26924   3.30630   3.32122
 Alpha virt. eigenvalues --    3.34398   3.35396   3.36904   3.37758   3.38177
 Alpha virt. eigenvalues --    3.39104   3.40928   3.41949   3.43682   3.44500
 Alpha virt. eigenvalues --    3.45221   3.47253   3.47663   3.49970   3.50549
 Alpha virt. eigenvalues --    3.50702   3.53869   3.55723   3.55927   3.57555
 Alpha virt. eigenvalues --    3.57985   3.60062   3.61897   3.63111   3.64364
 Alpha virt. eigenvalues --    3.69226   3.71470   3.74164   3.79639   3.82849
 Alpha virt. eigenvalues --    3.83305   3.92187   3.99827   4.01891   4.05312
 Alpha virt. eigenvalues --    4.06426   4.07993   4.08365   4.10550   4.12393
 Alpha virt. eigenvalues --    4.14105   4.17664   4.22887   4.26635   4.31657
 Alpha virt. eigenvalues --    4.34513   4.42046   4.59541   4.71055   4.75746
 Alpha virt. eigenvalues --    4.77403   4.79074   4.80639   4.81144   4.82964
 Alpha virt. eigenvalues --    4.87321  23.41084  23.54818  23.65695  23.75124
 Alpha virt. eigenvalues --   23.77675  23.81747  23.83603  23.85248  23.87330
 Alpha virt. eigenvalues --   23.89951  23.90225  23.93112  23.94310  23.98494
 Alpha virt. eigenvalues --   23.99470  24.00272  24.00612  24.01470  24.04163
 Alpha virt. eigenvalues --   24.04520  24.07370  24.11474  24.14274  24.15925
 Alpha virt. eigenvalues --   24.17180  24.17978  24.18403  24.19980  24.23501
 Alpha virt. eigenvalues --   24.28091
          Condensed to atoms (all electrons):
               1          2          3          4          5          6
     1  C   11.856942  -0.700147  -0.334430   1.198983   0.060260  -0.877569
     2  C   -0.700147   7.529480  -0.304538  -0.767491  -0.529327  -0.188878
     3  C   -0.334430  -0.304538   6.953702  -0.173006   0.721346   0.421620
     4  C    1.198983  -0.767491  -0.173006   8.062718   0.747188   0.797493
     5  C    0.060260  -0.529327   0.721346   0.747188   6.794681   0.640019
     6  C   -0.877569  -0.188878   0.421620   0.797493   0.640019  10.273253
     7  C   -0.590261   0.133759  -0.825948  -0.364647   0.094541  -0.781088
     8  C   -0.592048   0.227381  -0.862083   0.492070  -0.289937  -1.688858
     9  C    0.008768  -0.299119  -0.002263   0.081024   0.421628   0.497242
    10  C   -0.538369   0.471885  -0.201624  -0.371625  -1.093850  -0.853187
    11  C   -0.253250  -1.091053   0.473031  -0.460634   1.014970   0.083604
    12  C    0.012671  -0.193517   0.308965  -0.595762  -0.512589  -0.184400
    13  C   -3.216467   1.540696  -0.251034  -2.314796  -0.351570   0.042604
    14  C   -2.454924  -0.726103   0.170475   0.944151  -0.271619  -0.250036
    15  C    1.773563  -0.050512   0.268235  -1.151362  -0.467584  -2.008447
    16  C    0.159011   0.726739   0.044759  -0.071398  -0.219202  -0.061557
    17  C   -1.195646   0.341068  -0.233926  -0.341490  -0.238113  -0.023377
    18  C   -0.164370   0.283761  -0.277522  -0.257382  -0.787081  -0.139424
    19  C    0.424193   0.201018  -0.163725   0.093866  -0.082616   0.035360
    20  C   -0.256631   0.207897   0.093286   0.124975   0.166772  -0.017826
    21  C    0.005549  -0.406663   0.120519  -0.006069   0.003935   0.012664
    22  C    0.534707  -0.204202   0.000490   0.248064   0.367740   0.057212
    23  C    1.014895   0.077601  -0.088672   0.416490   0.139195  -0.012488
    24  C   -0.354456  -0.161029   0.147284  -0.019683  -0.013828  -0.016558
    25  C   -0.036214   0.175344  -0.059695  -0.003943   0.000679  -0.002783
    26  C    0.117030  -0.046256   0.069935   0.054050   0.039904   0.003706
    27  C    0.036544  -0.061104   0.030292  -0.023815  -0.009732  -0.001376
    28  C    0.131270  -0.079570  -0.014625   0.002094   0.013003   0.009553
    29  C   -0.055652  -0.362306  -0.070796  -0.480872  -0.084492   0.076262
    30  C   -0.234759   0.111887   0.014443  -0.062910  -0.190159  -0.019863
    31  H    0.091200   0.027988  -0.000127   0.073110   0.003030  -0.030709
    32  H    0.026547   0.001829   0.001275  -0.002964  -0.001942  -0.005187
    33  H   -0.024593  -0.003231   0.002400   0.039720  -0.010894  -0.058905
    34  H   -0.005232   0.004312  -0.002338   0.014106   0.006386  -0.134307
    35  H    0.001236   0.002670  -0.015346   0.001381   0.016187  -0.031289
    36  H    0.000808  -0.002977   0.003270  -0.012103   0.030707   0.011982
    37  H    0.001749  -0.000334   0.020206  -0.001126  -0.003467   0.001627
    38  H   -0.000691  -0.018954   0.033885   0.003153  -0.005945  -0.000423
    39  H   -0.001694  -0.014214   0.003867  -0.000567   0.001104  -0.000028
    40  H    0.000285   0.000161   0.002268   0.000127   0.000109  -0.000002
    41  H   -0.000546   0.001927  -0.000568  -0.000020  -0.000000  -0.000003
    42  H   -0.000177  -0.000248   0.000093  -0.000003   0.000001  -0.000000
    43  H   -0.000225  -0.000012   0.000035   0.000020   0.000000  -0.000005
    44  H    0.001122   0.000234  -0.000013  -0.000211  -0.000005  -0.000000
    45  H    0.013126  -0.001292  -0.000806   0.002977   0.000805   0.003102
    46  H   -0.067237   0.005707   0.005787  -0.018333  -0.014411  -0.007855
               7          8          9         10         11         12
     1  C   -0.590261  -0.592048   0.008768  -0.538369  -0.253250   0.012671
     2  C    0.133759   0.227381  -0.299119   0.471885  -1.091053  -0.193517
     3  C   -0.825948  -0.862083  -0.002263  -0.201624   0.473031   0.308965
     4  C   -0.364647   0.492070   0.081024  -0.371625  -0.460634  -0.595762
     5  C    0.094541  -0.289937   0.421628  -1.093850   1.014970  -0.512589
     6  C   -0.781088  -1.688858   0.497242  -0.853187   0.083604  -0.184400
     7  C    8.817697   1.793471  -1.235863   0.141655   0.064157  -0.277694
     8  C    1.793471   9.497999  -1.156461   0.241497  -0.529703  -1.106302
     9  C   -1.235863  -1.156461   9.448268   0.087737  -0.640294  -0.360789
    10  C    0.141655   0.241497   0.087737   9.766184  -1.812240  -0.792052
    11  C    0.064157  -0.529703  -0.640294  -1.812240  10.362921   1.051746
    12  C   -0.277694  -1.106302  -0.360789  -0.792052   1.051746   8.572167
    13  C    0.417323   0.193440  -0.171300   0.983331  -0.209403  -0.059090
    14  C   -0.435944  -0.395765   0.315857  -0.064363   0.093885  -0.054476
    15  C   -1.118451   0.031487  -0.374051  -0.187170  -0.111126   0.142551
    16  C   -0.103219  -0.105005  -0.488914  -0.617258  -0.839503   0.001850
    17  C    0.001953   0.028139  -0.020562  -0.401998   0.033445   0.161652
    18  C    0.003584  -0.048295  -0.501788   1.412963  -1.315601   0.111066
    19  C   -0.008068   0.025950   0.050624  -0.365879  -0.101785  -0.015164
    20  C   -0.006800  -0.001551   0.007625   0.106530   0.191339   0.000418
    21  C    0.002796   0.008125   0.050913   0.244396  -0.034196  -0.033961
    22  C    0.008170   0.047412   0.140405  -0.243167   0.100804  -0.216289
    23  C   -0.022347  -0.002131   0.001749  -0.086341  -0.000808  -0.002177
    24  C   -0.000434  -0.001156   0.006285   0.113075   0.023787   0.001487
    25  C   -0.000113  -0.000185  -0.003758  -0.032953   0.000163  -0.000453
    26  C    0.000140   0.001740   0.008527   0.052319   0.034644  -0.006306
    27  C    0.000964   0.000309  -0.000492   0.016458   0.001308  -0.000144
    28  C   -0.002310   0.000032   0.000517  -0.007654   0.000128   0.000011
    29  C    0.030556   0.007977  -0.044005  -0.056589  -0.023858  -0.003990
    30  C    0.006325   0.003122  -0.006525  -0.033487  -0.082043  -0.008122
    31  H   -0.008743  -0.002179   0.002958   0.000136   0.000926   0.000261
    32  H    0.006902   0.000117   0.002311   0.000244  -0.000029   0.000318
    33  H    0.020742   0.013440   0.010176  -0.000605   0.000212  -0.000138
    34  H    0.413978   0.019673  -0.035773   0.002782  -0.002681  -0.002203
    35  H    0.006074   0.428409  -0.119375   0.008100   0.010359   0.034796
    36  H    0.014918   0.011265  -0.057649  -0.026588  -0.000648   0.370822
    37  H   -0.001171  -0.001158  -0.021395  -0.065571   0.349749  -0.019493
    38  H    0.000308   0.001204   0.015435  -0.034384   0.050644   0.018002
    39  H    0.000006  -0.000055  -0.000453   0.036757  -0.000776  -0.001039
    40  H   -0.000000   0.000003   0.000056   0.001967   0.000510  -0.000004
    41  H   -0.000000  -0.000000  -0.000006  -0.000011   0.000002   0.000003
    42  H    0.000000   0.000000   0.000001   0.000053   0.000002  -0.000000
    43  H   -0.000000  -0.000000   0.000001   0.000014   0.000001   0.000000
    44  H    0.000001   0.000000  -0.000002   0.000003   0.000000   0.000000
    45  H    0.000099   0.000030   0.000067  -0.000029  -0.000004   0.000010
    46  H   -0.001156  -0.000225   0.000979   0.000046  -0.000777   0.000046
              13         14         15         16         17         18
     1  C   -3.216467  -2.454924   1.773563   0.159011  -1.195646  -0.164370
     2  C    1.540696  -0.726103  -0.050512   0.726739   0.341068   0.283761
     3  C   -0.251034   0.170475   0.268235   0.044759  -0.233926  -0.277522
     4  C   -2.314796   0.944151  -1.151362  -0.071398  -0.341490  -0.257382
     5  C   -0.351570  -0.271619  -0.467584  -0.219202  -0.238113  -0.787081
     6  C    0.042604  -0.250036  -2.008447  -0.061557  -0.023377  -0.139424
     7  C    0.417323  -0.435944  -1.118451  -0.103219   0.001953   0.003584
[...]
 0.00629802,0.01761570,0.00582503,-0.00008666,0.00123106,0.00238465,0.0
 0010683,-0.00038843,0.00001652,-0.05934960,-0.03875267,-0.02341067,0.0
 0125438,-0.02397706,-0.00643919,-0.00087742,0.00009934,-0.00629733,-0.
 00159609,0.00032947,-0.00030669,0.00000096,-0.00000067,-0.00003496,-0.
 00000834,-0.00000019,-0.00000113,-0.00000210,-0.00000134,-0.00000184,-
 0.00000123,-0.00000046,-0.00000060,-0.00000017,-0.00000059,-0.00000061
 ,-0.00000020,-0.00000047,-0.00000075,0.00000054,-0.00000020,-0.0000006
 5,0.00000160,0.00001006,-0.00000330,-0.00000090,-0.00000388,-0.0000035
 6,-0.00001357,0.00001135,-0.00000575,0.00003569,0.00001622,-0.00010554
 ,-0.00012748,-0.00042049,-0.00030970,0.05551944,0.00000486,0.00001012,
 0.00001028,0.00005324,0.00000368,-0.00000951,-0.00001579,0.00000758,-0
 .00000389,-0.00002372,0.00001214,0.00000756,0.00000997,-0.00001518,-0.
 00000101,-0.00000689,0.00001118,0.00000333,-0.00000498,-0.00001415,-0.
 00000169,-0.00001084,0.00001203,0.00000729,0.00001322,-0.00001072,-0.0
 0001009,-0.00000687,-0.00000734,0.00000330,0.00000193,0.00002814,0.000
 00456,-0.00002276,-0.00000093,0.00000432,-0.00001721,-0.00000991,0.000
 02749,0.00002278,-0.00001869,-0.00000267,-0.00000970,-0.00001075,0.000
 00088,0.00033251,-0.00012101,0.00009628,-0.00008728,-0.00011801,-0.000
 00391,0.00004313,0.00001452,-0.00000832,-0.00085992,-0.00070115,-0.000
 50695,-0.00009238,0.00020284,0.00007062,0.00002447,0.00001947,-0.00000
 873,0.00006654,0.00001965,0.00001819,0.00392047,-0.00035223,0.00138100
 ,-0.00494383,-0.01872704,-0.00758640,-0.00225451,0.00077185,-0.0003853
 2,0.00037688,0.00009590,0.00017868,-0.03872155,-0.30054449,-0.07923406
 ,0.00107189,-0.00279330,-0.00043016,-0.00053032,0.00191284,-0.00147540
 ,0.00017528,0.00040796,0.00043501,0.00002307,-0.00000718,-0.00004826,-
 0.00001212,0.00000298,-0.00000015,-0.00000559,-0.00000278,-0.00000110,
 -0.00000431,-0.00000093,-0.00000035,-0.00000243,-0.00000410,-0.0000003
 4,-0.00000246,-0.00000437,-0.00000061,0.00000350,-0.00000290,-0.000000
 74,0.00000327,-0.00001387,-0.00000459,0.00000252,-0.00000458,0.0000071
 9,0.00002914,-0.00001035,0.00000093,0.00005852,-0.00002714,-0.00002211
 ,0.00089953,0.00056969,0.00051984,0.04123204,0.31915667,0.00000846,0.0
 0001879,-0.00000885,-0.00000144,-0.00000635,-0.00000544,0.00000357,-0.
 00000783,-0.00001560,0.00000113,-0.00001552,-0.00000558,0.00000055,0.0
 0000852,-0.00000314,0.00000597,-0.00001139,-0.00000285,0.00000293,0.00
 001106,0.00000315,0.00000945,-0.00000226,-0.00000548,-0.00000308,-0.00
 001447,0.00000278,-0.00001123,-0.00000620,0.00000105,0.00000143,0.0000
 0856,0.00000253,-0.00000877,-0.00000065,-0.00000046,0.00001877,0.00002
 008,-0.00000540,-0.00002090,-0.00000906,-0.00000107,0.00000539,0.00001
 871,0.00000051,-0.00015024,0.00007015,0.00012810,0.00001973,0.00002329
 ,-0.00000766,-0.00000969,0.00002259,-0.00002110,0.00000569,0.00039299,
 0.00015797,0.00011316,0.00013522,0.00004466,-0.00001758,-0.00005934,0.
 00001153,0.00001730,0.00002097,-0.00000265,-0.00397941,-0.00027354,0.0
 0259160,0.00030941,0.01052204,0.00507218,0.00141006,0.00118619,-0.0019
 7927,0.00018517,-0.00022304,-0.00006743,-0.02126793,-0.07903062,-0.065
 22985,-0.00311274,-0.01931729,-0.00209844,-0.00662226,-0.00018038,0.00
 316729,0.00095435,0.00021968,-0.00018645,-0.00000884,0.00000386,0.0000
 2431,0.00000828,0.00000169,-0.00000260,-0.00000122,-0.00000066,0.00000
 158,-0.00000186,-0.00000004,0.00000093,-0.00000039,-0.00000245,-0.0000
 0008,-0.00000061,-0.00000236,0.00000028,0.00000186,-0.00000193,0.00000
 026,0.00000220,0.00000249,0.00000855,0.00000136,-0.00000401,-0.0000024
 1,-0.00000143,0.00000378,0.00000674,-0.00002267,-0.00005255,0.00013202
 ,-0.00009192,-0.00026769,0.00016727,0.02919167,0.08648078,0.06159468,0
 .00001289,-0.00000010,0.00000539,-0.00001309,0.00006310,-0.00004196,-0
 .00000288,0.00000499,-0.00000890,0.00000325,-0.00000369,-0.00000114,-0
 .00000757,0.00000668,0.00000490,0.00000928,0.00000133,0.00000227,0.000
 00077,-0.00000020,-0.00000129,-0.00000166,-0.00000556,-0.00000126,-0.0
 0000180,0.00001484,0.00000545,0.00000758,0.00000814,0.00000159,-0.0000
 0103,-0.00001901,-0.00000110,0.00001567,-0.00000055,-0.00000225,-0.000
 00809,-0.00000374,0.00000091,0.00000145,0.00000510,-0.00000886,-0.0000
 0962,-0.00000057,-0.00000556,0.00006105,0.00000742,0.00007456,0.000003
 29,0.00006775,0.00001654,-0.00000219,-0.00001933,0.00000329,-0.0000357
 5,-0.00019904,0.00052795,-0.00003144,-0.00028464,-0.00019517,0.0000207
 3,0.00005154,-0.00001594,-0.00002092,-0.00003788,-0.00000914,-0.000352
 74,-0.00030507,0.00021252,0.00017921,-0.00202943,-0.00627336,0.0000984
 4,0.00104408,-0.00004592,-0.00060171,-0.00003775,0.00011565,-0.0109859
 3,0.01898488,-0.00651341,-0.16026546,0.12701085,-0.06187658,0.00576904
 ,-0.00449512,0.00115777,0.00290944,-0.00063624,-0.00236597,0.00000410,
 -0.00000323,0.00001010,-0.00000297,-0.00000340,0.00000964,0.00000289,-
 0.00000051,0.00000166,0.00000330,-0.00000021,-0.00000008,0.00000132,0.
 00000393,0.00000005,0.00000156,0.00000403,-0.00000020,-0.00000336,0.00
 000281,0.00000011,-0.00000265,0.00000196,-0.00000239,0.00000022,0.0000
 1037,-0.00000748,-0.00000190,-0.00000813,0.00000102,-0.00011688,0.0000
 8208,0.00003013,0.00002258,-0.00001994,-0.00009191,-0.00087711,-0.0007
 3976,0.00259643,0.16484888,0.00005447,-0.00000772,-0.00000501,0.000009
 68,-0.00003195,0.00002689,0.00001470,0.00006623,0.00002273,-0.00001205
 ,0.00001960,0.00002322,-0.00001459,-0.00002931,-0.00000896,-0.00000650
 ,0.00000678,0.00000439,-0.00000482,-0.00001306,-0.00000285,-0.00001359
 ,0.00000923,0.00000412,0.00001960,0.00000912,-0.00000570,0.00000735,-0
 .00001536,-0.00000138,-0.00000035,0.00001965,0.00000320,-0.00001118,-0
 .00001059,0.00000059,0.00001495,0.00000374,0.00002051,0.00002858,-0.00
 002567,-0.00003544,-0.00003091,-0.00001030,-0.00000835,0.00000408,0.00
 007080,0.00003233,-0.00001295,0.00000170,0.00001788,0.00001150,-0.0000
 0387,-0.00000345,0.00008706,-0.00009548,0.00028436,-0.00005099,-0.0001
 9642,-0.00010287,-0.00001247,0.00005270,-0.00000832,-0.00001061,-0.000
 04174,-0.00000780,-0.00083781,0.00004299,-0.00049774,-0.00115422,0.000
 96184,-0.00242226,0.00006361,0.00021201,-0.00003235,-0.00015558,0.0001
 7083,0.00009250,-0.00588220,0.00857023,-0.00324442,0.12768792,-0.20067
 309,0.05563836,0.01976659,-0.01550910,0.01066871,-0.00122602,-0.004037
 21,-0.00369406,0.00003058,-0.00002082,-0.00002966,-0.00001697,0.000001
 50,0.00003011,-0.00000724,-0.00000820,0.00000622,-0.00000474,-0.000003
 18,0.00000153,-0.00000215,-0.00000388,0.00000053,-0.00000147,-0.000003
 58,-0.00000025,0.00000235,-0.00000350,-0.00000081,0.00000335,-0.000004
 40,-0.00000152,0.00000491,-0.00000335,-0.00000294,0.00000992,-0.000001
 69,0.00000010,-0.00003646,0.00001747,0.00001403,0.00001519,0.00000376,
 -0.00001928,-0.00020991,0.00063740,0.00102189,-0.13823057,0.20984637,-
 0.00004599,0.00000078,-0.00001404,-0.00002126,-0.00009927,0.00005609,0
 .00001561,0.00005516,0.00003228,0.00000679,0.00000389,-0.00000824,-0.0
 0002244,-0.00001903,-0.00000361,0.00000404,-0.00002110,-0.00000222,0.0
 0000204,0.00001211,0.00000044,0.00001086,-0.00000655,-0.00000263,-0.00
 002935,0.00002641,0.00000607,0.00006656,0.00003224,0.00000549,-0.00001
 352,-0.00003488,-0.00000667,0.00003675,0.00000959,-0.00000322,0.000031
 24,-0.00000158,-0.00001745,-0.00003893,0.00001053,0.00002945,0.0000226
 6,0.00001785,0.00000280,-0.00010464,-0.00001218,-0.00008345,0.00004578
 ,0.00004553,0.00000923,-0.00003162,-0.00006531,-0.00002439,0.00043591,
 0.00022549,-0.00047041,-0.00000255,-0.00010378,0.00006298,-0.00001699,
 0.00005281,0.00005869,-0.00004747,-0.00001621,-0.00002035,-0.00003798,
 -0.00056167,-0.00092102,-0.00593828,-0.00251190,0.00367914,-0.00043743
 ,0.00095059,0.00013134,-0.00010210,-0.00001239,-0.00053208,-0.01140035
 ,0.01524473,-0.00145992,-0.06231815,0.05542726,-0.06986269,0.00707271,
 -0.00783612,0.00631359,-0.00263150,-0.00311586,0.00294405,-0.00004139,
 -0.00000309,0.00000929,0.00001867,0.00000356,-0.00001993,0.00000199,0.
 00000400,-0.00000058,0.00000029,0.00000103,-0.00000063,0.00000064,-0.0
 0000062,0.00000017,0.00000141,-0.00000100,0.00000046,-0.00000029,0.000
 00061,-0.00000050,-0.00000217,0.00000217,0.00000639,-0.00000314,0.0000
 0047,0.00000965,0.00000358,0.00000094,0.00000054,-0.00006316,0.0000644
 8,-0.00001604,-0.00003820,-0.00005705,0.00007225,0.00267917,0.00048052
 ,-0.00271484,0.07093511,-0.05875144,0.06400521,-0.00000463,-0.00002143
 ,0.00000230,-0.00001810,-0.00013017,0.00006666,0.00002868,0.00010025,0
 .00004864,0.00001983,0.00000907,-0.00000119,-0.00004076,-0.00002415,0.
 00000565,0.00001646,0.00000033,0.00001025,0.00000239,0.00000072,0.0000
 0179,0.00000056,-0.00000175,0.00000166,-0.00001274,0.00006380,0.000009
 84,0.00007500,0.00002330,-0.00000700,-0.00002322,-0.00005123,-0.000004
 34,0.00006012,-0.00000788,-0.00000494,0.00000501,-0.00004506,-0.000044
 93,0.00001282,0.00001239,0.00001635,-0.00000159,-0.00000962,-0.0000051
 2,-0.00001136,-0.00006683,-0.00010842,0.00005364,0.00011555,0.00002378
 ,-0.00006457,-0.00009347,-0.00000446,0.00008728,-0.00088194,-0.0003796
 8,-0.00045668,-0.00007632,0.00009462,-0.00009977,0.00000330,0.00003117
 ,-0.00010320,-0.00006634,-0.00003626,0.00174928,0.00421601,-0.00437415
 ,-0.00050213,0.00036860,0.00042831,0.00019655,-0.00019856,0.00066452,-
 0.00006509,0.00053878,-0.00005493,0.00342252,0.00011616,-0.00197758,0.
 00081531,0.00051675,-0.00150242,-0.19832399,-0.03954862,-0.14119609,-0
 .00950657,-0.00626351,-0.01243637,-0.00001736,0.00003874,-0.00001280,-
 0.00000736,-0.00000365,0.00001612,0.00000171,0.00000030,-0.00000003,0.
 00000262,0.00000031,-0.00000305,0.00000128,0.00000456,-0.00000175,0.00
 000239,0.00000497,-0.00000216,-0.00000451,0.00000360,-0.00000316,-0.00
 000477,0.00000584,0.00000306,-0.00000054,0.00001205,-0.00000968,-0.000
 04029,0.00002432,0.00000788,-0.00000871,0.00000700,-0.00003740,-0.0000
 0162,-0.00001151,-0.00002590,0.00006081,0.00014953,-0.00010718,-0.0007
 5195,-0.00080763,0.00171070,0.20479354,0.00006241,-0.00003101,-0.00001
 840,0.00005328,-0.00001979,0.00001517,-0.00000965,0.00000396,0.0000086
 1,-0.00001087,-0.00003110,0.00000943,0.00000829,-0.00001700,-0.0000187
 4,-0.00002009,0.00001774,-0.00000055,-0.00001200,-0.00003146,-0.000005
 07,-0.00002151,0.00001213,0.00000434,0.00002498,-0.00000489,-0.0000033
 2,-0.00001406,-0.00001779,-0.00000700,0.00000311,0.00001806,0.00000473
 ,-0.00001608,-0.00001299,-0.00000244,-0.00003711,0.00006515,0.00000640
 ,-0.00001164,0.00003030,0.00000973,-0.00001795,-0.00003865,-0.00000310
 ,0.00000259,0.00000544,-0.00006972,-0.00005582,-0.00002375,-0.00000052
 ,0.00001228,0.00001800,0.00000638,0.00057593,0.00076955,0.00050937,0.0
 0017033,-0.00018083,0.00017746,0.00009848,0.00002648,0.00000113,0.0000
 3728,0.00004283,0.00001171,0.00348038,-0.00296089,0.00021343,0.0004785
 5,-0.00088880,0.00024028,-0.00029270,0.00014453,0.00007533,0.00002902,
 -0.00014158,-0.00002407,0.00067449,-0.00512285,-0.00223372,-0.02259974
 ,-0.00165447,-0.01947872,-0.04106967,-0.07025513,-0.04276409,0.0181196
 3,0.00805463,0.01601587,0.00000811,0.00001587,-0.00002748,0.00000228,-
 0.00000126,0.00000170,0.00000250,0.00000202,0.00000142,0.00000267,0.00
 000073,0.00000183,-0.00000020,0.00000221,0.00000222,-0.00000073,0.0000
 0245,0.00000181,-0.00000151,0.00000025,0.00000137,-0.00000118,-0.00000
 257,-0.00000264,-0.00000080,-0.00000205,0.00000259,0.00002887,-0.00002
 056,0.00000030,-0.00000156,0.00001439,-0.00001421,0.00006978,0.0000367
 1,0.00004021,-0.00120441,-0.00028668,-0.00077855,-0.00004335,0.0008393
 0,0.00096941,0.04241929,0.07082640,-0.00017085,0.00010464,0.00002499,-
 0.00003207,0.00023072,-0.00008410,-0.00000826,-0.00019501,-0.00007272,
 0.00003138,0.00003285,-0.00001909,0.00004372,0.00008168,0.00001398,0.0
 0001020,-0.00005828,-0.00003818,0.00003146,0.00009295,0.00001658,0.000
 06891,-0.00005049,-0.00002616,-0.00007298,-0.00006215,0.00001119,-0.00
 005181,0.00003323,0.00002048,0.00001672,-0.00002827,-0.00000701,0.0000
 0431,0.00004052,0.00000327,0.00004863,-0.00008306,0.00003763,-0.000009
 16,-0.00006916,0.00004787,0.00007535,0.00011844,0.00004295,-0.00007693
 ,-0.00011835,0.00012269,-0.00002326,-0.00003687,-0.00006419,0.00004612
 ,0.00004360,0.00000639,-0.00078985,-0.00009588,-0.00017697,0.00028841,
 0.00054865,-0.00027233,0.00006680,-0.00003660,-0.00001612,-0.00002311,
 0.00006234,0.00002041,-0.00299968,0.00047240,0.00575038,0.00113330,0.0
 0015093,0.00002600,-0.00009829,0.00016320,-0.00075565,0.00008428,-0.00
 045855,0.00007555,-0.00182806,-0.00293435,0.00335494,-0.00731337,0.000
 59689,-0.00284427,-0.14101773,-0.04338938,-0.16211123,-0.00773050,-0.0
 0263117,-0.00303775,-0.00008250,-0.00006644,0.00001913,0.00002057,-0.0
 0000350,-0.00007485,0.00000232,0.00000652,-0.00001034,-0.00000132,0.00
 000125,-0.00000018,0.00000339,-0.00000294,-0.00000240,0.00000224,-0.00
 000337,-0.00000031,0.00000231,0.00000111,0.00000052,0.00000214,0.00000
 156,0.00000078,0.00000116,0.00000311,0.00000648,-0.00000966,0.00000227
 ,-0.00000343,-0.00002439,-0.00001287,0.00003630,-0.00000316,-0.0000137
 2,0.00002806,-0.00057894,-0.00003658,-0.00016533,0.00178405,0.00044589
 ,-0.00148532,0.15646000,0.04642444,0.16400272,0.00031934,-0.00055055,0
 .00033964,0.00071380,0.00046845,-0.00024726,0.00001276,0.00027155,0.00
 002137,-0.00014661,-0.00015041,0.00002638,0.00005080,-0.00001571,-0.00
 002769,-0.00007865,0.00004578,0.00002818,-0.00004993,-0.00006568,0.000
 00084,-0.00003310,0.00005764,0.00000962,0.00006855,-0.00004494,-0.0000
 1321,0.00001692,-0.00004535,0.00004425,0.00000409,0.00010302,0.0000132
 9,-0.00006855,-0.00005013,0.00000651,-0.00040718,-0.00011302,0.0004641
 7,0.00009385,0.00013356,0.00000921,-0.00004744,-0.00013657,-0.00002900
 ,-0.00035216,0.00013028,-0.00021534,-0.00040067,0.00019576,0.00010071,
 0.00008051,0.00000364,-0.00004006,0.00024009,-0.00113328,0.00193226,-0
 .00043760,-0.00019641,-0.00002021,0.00017537,-0.00013005,-0.00010950,0
 .00007896,0.00007248,0.00006545,-0.00029090,-0.02202975,-0.00832759,-0
 .00155975,0.00065607,-0.00525984,0.00026042,-0.00109312,-0.00007085,-0
 .00002682,0.00007839,0.00008027,-0.00061021,-0.00010145,0.00024717,0.0
 0062163,0.00329523,-0.00515382,0.00633737,0.02027681,0.00648492,-0.054
 00525,-0.03237956,-0.02342674,0.00003750,0.00010602,0.00000032,-0.0000
 0014,0.00000474,0.00000136,0.00000325,0.00000292,0.00000504,-0.0000003
 2,0.00000195,0.00000149,-0.00000567,-0.00000091,0.00000315,-0.00000759
 ,0.00000136,0.00000130,-0.00000110,-0.00000597,0.00000037,0.00000345,-
 0.00001272,-0.00001645,0.00001935,0.00001136,-0.00000078,0.00000687,0.
 00000026,-0.00000484,-0.00001344,0.00004118,-0.00001577,-0.00026466,-0
 .00010336,-0.00021618,-0.00026965,-0.00014305,0.00056709,0.00012178,0.
 00091755,0.00028638,-0.00133627,-0.00092189,0.00271813,0.05114702,-0.0
 0075924,-0.00147303,0.00221578,0.00022463,-0.00177409,0.00156875,-0.00
 000556,-0.00021171,0.00010951,0.00022083,0.00030590,0.00019336,-0.0000
 5834,-0.00019112,-0.00013072,-0.00016455,0.00011832,0.00004099,0.00004
 454,-0.00007257,-0.00002103,-0.00007539,-0.00000906,0.00003177,0.00003
 499,0.00010105,-0.00001027,0.00007578,-0.00001848,-0.00007929,-0.00001
 773,-0.00009037,-0.00000164,0.00007352,0.00000869,0.00000203,-0.000105
 41,-0.00039474,0.00032866,0.00036440,0.00005449,-0.00002209,-0.0000212
 3,-0.00018884,-0.00006561,0.00091513,0.00022698,0.00098627,-0.00011955
 ,0.00032351,-0.00002579,-0.00010781,-0.00008643,0.00003309,0.00028971,
 -0.00096162,0.00098466,-0.00019238,-0.00013210,-0.00018105,-0.00003415
 ,-0.00001466,0.00000529,0.00000235,-0.00001697,-0.00002371,-0.00075785
 ,-0.00175458,-0.00155013,0.00024730,0.00183285,-0.00119331,0.00032513,
 -0.00020818,0.00001383,-0.00004747,0.00017664,-0.00000836,0.00025283,0
 .00045320,0.00055960,0.00387660,-0.00090389,0.00115223,-0.00437000,-0.
 01698915,-0.00879323,-0.03173209,-0.30071314,-0.09855910,-0.00000721,-
 0.00000653,-0.00014621,0.00000160,0.00000258,-0.00000167,0.00000049,-0
 .00000519,-0.00001031,0.00000128,0.00000029,-0.00000911,0.00000411,0.0
 0000329,-0.00000121,0.00000398,0.00000333,-0.00000073,-0.00000352,0.00
 000720,-0.00000798,-0.00000649,-0.00000045,0.00001355,-0.00000113,0.00
 001011,-0.00001061,-0.00001537,0.00000469,-0.00000027,-0.00002078,0.00
 000360,0.00000434,-0.00008265,-0.00001249,0.00006522,-0.00010648,-0.00
 008687,0.00007486,-0.00024886,-0.00080974,-0.00041114,-0.00044581,0.00
 079697,0.00072779,0.03254785,0.32269232,0.00040808,0.00089014,-0.00079
 371,-0.00052200,0.00078906,-0.00028780,0.00026509,0.00050098,0.0002846
 1,-0.00000474,0.00034541,0.00011791,-0.00016986,-0.00027182,-0.0000787
 1,-0.00005567,-0.00007205,0.00000509,-0.00001135,0.00002609,0.00000326
 ,-0.00000371,-0.00001408,0.00000849,-0.00007922,0.00018115,0.00000904,
 0.00033274,0.00006371,0.00001680,-0.00004062,-0.00012302,-0.00003193,0
 .00014443,0.00002278,-0.00001643,0.00040227,-0.00013031,-0.00042166,0.
 00001000,-0.00005790,0.00002247,-0.00005878,0.00003991,0.00000240,-0.0
 0103790,-0.00016244,-0.00088318,0.00001312,0.00020135,0.00014098,-0.00
 002907,-0.00032346,-0.00012059,0.00128151,0.00090625,-0.00144012,0.000
 44736,0.00012614,0.00019080,0.00000877,0.00015370,0.00014736,-0.000159
 06,-0.00005348,-0.00006072,0.00001173,-0.01934724,-0.00198381,-0.00544
 358,-0.00031093,0.00147931,0.00017300,-0.00123531,0.00002094,0.0000096
 8,-0.00012298,-0.00015959,-0.00045636,0.00075511,-0.00112218,-0.004464
 79,0.00090830,0.00460375,0.00061440,0.01002796,0.00733712,-0.02399499,
 -0.09691652,-0.08283037,-0.00008087,-0.00008788,-0.00009101,-0.0000409
 1,0.00000539,0.00001989,-0.00001827,-0.00000944,-0.00000062,-0.0000158
 7,-0.00000895,-0.00000321,-0.00000566,-0.00001544,0.00000010,0.0000038
 6,-0.00001936,0.00000101,0.00000699,-0.00001163,-0.00000489,0.00000493
 ,-0.00000511,0.00000738,0.00001722,0.00000495,0.00001575,0.00000507,0.
 00000850,0.00000473,-0.00002054,0.00002799,0.00000560,-0.00035678,-0.0
 0010572,-0.00012886,0.00046362,0.00004487,-0.00058800,-0.00002721,0.00
 052675,0.00023463,0.00273772,0.00069562,-0.00240134,0.02973625,0.10215
 297,0.07876928\\-0.00000003,-0.00000008,-0.00000020,0.00000011,-0.0000
 0001,0.00000009,0.00000011,-0.00000011,0.,0.00000010,-0.00000010,-0.00
 000025,0.00000015,0.,-0.00000008,-0.00000006,-0.00000012,-0.00000051,0
 .00000014,-0.00000025,-0.00000053,0.00000016,-0.00000010,-0.00000031,0
 .00000044,-0.00000019,-0.00000018,0.00000004,-0.00000012,0.00000027,0.
 00000046,0.00000018,0.00000034,0.00000016,0.,0.00000012,-0.00000028,-0
 .00000011,-0.00000029,-0.00000017,-0.00000013,-0.00000061,-0.00000011,
 -0.00000021,-0.00000066,-0.00000013,0.00000007,0.00000020,0.00000005,-
 0.00000010,0.00000035,0.00000036,0.00000037,0.00000058,0.,0.00000039,0
 .00000040,-0.00000039,0.00000020,0.00000041,-0.00000002,0.00000007,0.0
 0000062,0.00000010,0.00000043,0.00000073,0.,-0.00000032,-0.00000010,-0
 .00000017,0.00000018,0.00000011,-0.00000038,0.00000012,0.00000026,-0.0
 0000026,0.00000018,0.00000039,-0.00000023,0.00000005,-0.00000012,-0.00
 000002,-0.00000014,-0.00000037,0.00000009,-0.00000005,-0.00000023,0.00
 000011,0.00000015,-0.00000006,-0.00000026,0.,-0.00000034,-0.00000037,-
 0.00000017,-0.00000067,-0.00000020,-0.00000022,-0.00000081,0.00000007,
 -0.00000023,-0.00000069,0.00000029,-0.00000017,-0.00000038,0.00000045,
 -0.00000004,0.00000010,0.00000041,0.00000005,0.00000044,0.00000021,0.0
 0000014,0.00000067,0.,0.00000022,0.00000082,-0.00000026,0.00000032,0.0
 0000083,-0.00000043,0.00000025,0.00000060,-0.00000045,0.00000017,0.000
 00018,-0.00000024,-0.00000002,-0.00000011,-0.00000004,-0.00000015,-0.0
 0000043,0.00000026,-0.00000019,-0.00000044,0.00000022,-0.00000019,-0.0
 0000013\\\@


 YOU SHOULDN'T LET PEOPLE DRIVE YOU CRAZY
 WHEN YOU KNOW IT'S WITHIN WALKING DISTANCE.
 Job cpu time:       0 days 21 hours 19 minutes 31.6 seconds.
 Elapsed time:       0 days  1 hours  4 minutes  9.5 seconds.
 File lengths (MBytes):  RWF=   2284 Int=      0 D2E=      0 Chk=     57 Scr=      1
 Normal termination of Gaussian 16 at Wed Jul 24 02:10:34 2019.
