 Entering Gaussian System, Link 0=/share/apps/gaussian16/g16/g16
 Initial command:
 /share/apps/gaussian16/g16/l1.exe "/home/amen01//scratch/651/Gau-21154.inp" -scrdir="/home/amen01//scratch/651/"
 Entering Link 1 = /share/apps/gaussian16/g16/l1.exe PID=     21155.
  
 Copyright (c) 1988-2017, Gaussian, Inc.  All Rights Reserved.
  
 This is part of the Gaussian(R) 16 program.  It is based on
 the Gaussian(R) 09 system (copyright 2009, Gaussian, Inc.),
 the Gaussian(R) 03 system (copyright 2003, Gaussian, Inc.),
 the Gaussian(R) 98 system (copyright 1998, Gaussian, Inc.),
 the Gaussian(R) 94 system (copyright 1995, Gaussian, Inc.),
 the Gaussian 92(TM) system (copyright 1992, Gaussian, Inc.),
 the Gaussian 90(TM) system (copyright 1990, Gaussian, Inc.),
 the Gaussian 88(TM) system (copyright 1988, Gaussian, Inc.),
 the Gaussian 86(TM) system (copyright 1986, Carnegie Mellon
 University), and the Gaussian 82(TM) system (copyright 1983,
 Carnegie Mellon University). Gaussian is a federally registered
 trademark of Gaussian, Inc.
  
 This software contains proprietary and confidential information,
 including trade secrets, belonging to Gaussian, Inc.
  
 This software is provided under written license and may be
 used, copied, transmitted, or stored only in accord with that
 written license.
  
 The following legend is applicable only to US Government
 contracts under FAR:
  
                    RESTRICTED RIGHTS LEGEND
  
 Use, reproduction and disclosure by the US Government is
 subject to restrictions as set forth in subparagraphs (a)
 and (c) of the Commercial Computer Software - Restricted
 Rights clause in FAR 52.227-19.
  
 Gaussian, Inc.
 340 Quinnipiac St., Bldg. 40, Wallingford CT 06492
  
  
 ---------------------------------------------------------------
 Warning -- This program may not be used in any manner that
 competes with the business of Gaussian, Inc. or will provide
 assistance to any competitor of Gaussian, Inc.  The licensee
 of this program is prohibited from giving any competitor of
 Gaussian, Inc. access to this program.  By using this program,
 the user acknowledges that Gaussian, Inc. is engaged in the
 business of creating and licensing software in the field of
 computational chemistry and represents and warrants to the
 licensee that it is not a competitor of Gaussian, Inc. and that
 it will not use this program in any manner prohibited above.
 ---------------------------------------------------------------
  

 Cite this work as:
 Gaussian 16, Revision B.01,
 M. J. Frisch, G. W. Trucks, H. B. Schlegel, G. E. Scuseria, 
 M. A. Robb, J. R. Cheeseman, G. Scalmani, V. Barone, 
 G. A. Petersson, H. Nakatsuji, X. Li, M. Caricato, A. V. Marenich, 
 J. Bloino, B. G. Janesko, R. Gomperts, B. Mennucci, H. P. Hratchian, 
 J. V. Ortiz, A. F. Izmaylov, J. L. Sonnenberg, D. Williams-Young, 
 F. Ding, F. Lipparini, F. Egidi, J. Goings, B. Peng, A. Petrone, 
 T. Henderson, D. Ranasinghe, V. G. Zakrzewski, J. Gao, N. Rega, 
 G. Zheng, W. Liang, M. Hada, M. Ehara, K. Toyota, R. Fukuda, 
 J. Hasegawa, M. Ishida, T. Nakajima, Y. Honda, O. Kitao, H. Nakai, 
 T. Vreven, K. Throssell, J. A. Montgomery, Jr., J. E. Peralta, 
 F. Ogliaro, M. J. Bearpark, J. J. Heyd, E. N. Brothers, K. N. Kudin, 
 V. N. Staroverov, T. A. Keith, R. Kobayashi, J. Normand, 
 K. Raghavachari, A. P. Rendell, J. C. Burant, S. S. Iyengar, 
 J. Tomasi, M. Cossi, J. M. Millam, M. Klene, C. Adamo, R. Cammi, 
 J. W. Ochterski, R. L. Martin, K. Morokuma, O. Farkas, 
 J. B. Foresman, and D. J. Fox, Gaussian, Inc., Wallingford CT, 2016.
 
 ******************************************
 Gaussian 16:  ES64L-G16RevB.01 20-Dec-2017
                29-Jun-2019 
 ******************************************
 %nprocshared=20
 Will use up to   20 processors via shared memory.
 %mem=100GB
 %chk=7-memb2-habs-1a.chk
 -------------------------------------------------
 # opt=tight freq b3lyp/6-311+g(d,p) int=grid=fine
 -------------------------------------------------
 1/7=10,18=20,19=15,26=3,38=1/1,3;
 2/9=110,12=2,17=6,18=5,40=1/2;
 3/5=4,6=6,7=111,11=2,25=1,30=1,71=1,74=-5,75=-4/1,2,3;
 4//1;
 5/5=2,38=5/2;
 6/7=2,8=2,9=2,10=2,28=1/1;
 7//1,2,3,16;
 1/7=10,18=20,19=15,26=3/3(2);
 2/9=110/2;
 99//99;
 2/9=110/2;
 3/5=4,6=6,7=111,11=2,25=1,30=1,71=1,74=-5,75=-4/1,2,3;
 4/5=5,16=3,69=1/1;
 5/5=2,38=5/2;
 7//1,2,3,16;
 1/7=10,18=20,19=15,26=3/3(-5);
 2/9=110/2;
 6/7=2,8=2,9=2,10=2,19=2,28=1/1;
 99/9=1/99;
 ---------------
 7-memb2-habs-1a
 ---------------
 Symbolic Z-matrix:
 Charge =  0 Multiplicity = 2
 C                     1.50883   0.27156  -0.11257 
 C                     0.        0.61428  -0.03216 
 C                     0.04041   2.04589  -0.01608 
 C                     2.23985   1.50313  -0.06433 
 C                     1.34837   2.56186  -0.01608 
 C                     3.62192   1.71094  -0.03216 
 C                     4.03784   3.08843   0. 
 C                     3.13334   4.13338   0.01608 
 C                     1.71791   3.89544   0. 
 C                    -1.00397   2.97464   0.01608 
 C                    -0.67256   4.38196   0.01608 
 C                     0.62305   4.83316   0.01608 
 C                     2.39605  -0.76582  -0.19298 
 C                     3.7949   -0.69237  -0.12865 
 C                     4.4283    0.54419  -0.04825 
 C                    -1.32336  -0.006     0.01608 
 C                    -2.41622   0.99877   0.03216 
 C                    -2.25723   2.39594   0.01608 
 C                    -1.796    -1.44326   0.04825 
 C                    -3.20536  -1.68632   0. 
 C                    -4.18071  -0.65108   0. 
 C                    -3.79696   0.63307   0.03216 
 C                    -0.99662  -2.68234   0.11257 
 C                    -1.61546  -3.98461  -0.12865 
 C                    -3.02558  -4.11369  -0.1769 
 C                    -3.78049  -2.99427  -0.06433 
 C                    -0.83955  -5.16819  -0.20906 
 C                     0.53381  -5.13445  -0.04825 
 C                     1.1576   -3.88      0.3538 
 C                     0.40618  -2.7247    0.51462 
 H                     4.38302  -1.60394  -0.1769 
 H                     5.5115    0.60657  -0.01608 
 H                     5.09976   3.31165   0.01608 
 H                     3.50373   5.1532    0.03216 
 H                     0.82274   5.89949   0.03216 
 H                    -1.4879    5.09797   0.03216 
 H                    -3.15203   3.00874   0.03216 
 H                    -4.53029   1.4306    0.03216 
 H                    -5.22907  -0.92472  -0.01608 
 H                    -4.86246  -3.06035  -0.06433 
 H                    -3.47313  -5.10137  -0.27339 
 H                    -1.36686  -6.11636  -0.38596 
 H                     1.11574  -6.04885  -0.14474 
 H                     2.2391   -3.80268   0.64327 
 H                     0.9565   -1.80717   1.14181 
 

 GradGradGradGradGradGradGradGradGradGradGradGradGradGradGradGradGradGrad
 Berny optimization.
 Initialization pass.
                           ----------------------------
                           !    Initial Parameters    !
                           ! (Angstroms and Degrees)  !
 --------------------------                            --------------------------
 ! Name  Definition              Value          Derivative Info.                !
 --------------------------------------------------------------------------------
 ! R1    R(1,2)                  1.5494         estimate D2E/DX2                !
 ! R2    R(1,4)                  1.433          estimate D2E/DX2                !
 ! R3    R(1,13)                 1.3674         estimate D2E/DX2                !
 ! R4    R(2,3)                  1.4323         estimate D2E/DX2                !
 ! R5    R(2,16)                 1.4623         estimate D2E/DX2                !
 ! R6    R(3,5)                  1.4061         estimate D2E/DX2                !
 ! R7    R(3,10)                 1.398          estimate D2E/DX2                !
 ! R8    R(4,5)                  1.3849         estimate D2E/DX2                !
 ! R9    R(4,6)                  1.398          estimate D2E/DX2                !
 ! R10   R(5,9)                  1.3839         estimate D2E/DX2                !
 ! R11   R(6,7)                  1.4393         estimate D2E/DX2                !
 ! R12   R(6,15)                 1.4184         estimate D2E/DX2                !
 ! R13   R(7,8)                  1.3821         estimate D2E/DX2                !
 ! R14   R(7,33)                 1.0852         estimate D2E/DX2                !
 ! R15   R(8,9)                  1.4354         estimate D2E/DX2                !
 ! R16   R(8,34)                 1.0851         estimate D2E/DX2                !
 ! R17   R(9,12)                 1.4416         estimate D2E/DX2                !
 ! R18   R(10,11)                1.4458         estimate D2E/DX2                !
 ! R19   R(10,18)                1.3804         estimate D2E/DX2                !
 ! R20   R(11,12)                1.3719         estimate D2E/DX2                !
 ! R21   R(11,36)                1.0852         estimate D2E/DX2                !
 ! R22   R(12,35)                1.085          estimate D2E/DX2                !
 ! R23   R(13,14)                1.4023         estimate D2E/DX2                !
 ! R24   R(14,15)                1.3917         estimate D2E/DX2                !
 ! R25   R(14,31)                1.0859         estimate D2E/DX2                !
 ! R26   R(15,32)                1.0855         estimate D2E/DX2                !
 ! R27   R(16,17)                1.4846         estimate D2E/DX2                !
 ! R28   R(16,19)                1.5133         estimate D2E/DX2                !
 ! R29   R(17,18)                1.4063         estimate D2E/DX2                !
 ! R30   R(17,22)                1.4283         estimate D2E/DX2                !
 ! R31   R(18,37)                1.0846         estimate D2E/DX2                !
 ! R32   R(19,20)                1.431          estimate D2E/DX2                !
 ! R33   R(19,23)                1.476          estimate D2E/DX2                !
 ! R34   R(20,21)                1.4223         estimate D2E/DX2                !
 ! R35   R(20,26)                1.4303         estimate D2E/DX2                !
 ! R36   R(21,22)                1.3406         estimate D2E/DX2                !
 ! R37   R(21,39)                1.0836         estimate D2E/DX2                !
 ! R38   R(22,38)                1.0834         estimate D2E/DX2                !
 ! R39   R(23,24)                1.4619         estimate D2E/DX2                !
 ! R40   R(23,30)                1.4599         estimate D2E/DX2                !
 ! R41   R(24,25)                1.4168         estimate D2E/DX2                !
 ! R42   R(24,27)                1.4175         estimate D2E/DX2                !
 ! R43   R(25,26)                1.3549         estimate D2E/DX2                !
 ! R44   R(25,41)                1.0886         estimate D2E/DX2                !
 ! R45   R(26,40)                1.084          estimate D2E/DX2                !
 ! R46   R(27,28)                1.3832         estimate D2E/DX2                !
 ! R47   R(27,42)                1.0993         estimate D2E/DX2                !
 ! R48   R(28,29)                1.4575         estimate D2E/DX2                !
 ! R49   R(28,43)                1.0882         estimate D2E/DX2                !
 ! R50   R(29,30)                1.3875         estimate D2E/DX2                !
 ! R51   R(29,44)                1.1222         estimate D2E/DX2                !
 ! R52   R(30,45)                1.2402         estimate D2E/DX2                !
 ! A1    A(2,1,4)              107.7543         estimate D2E/DX2                !
 ! A2    A(2,1,13)             143.3921         estimate D2E/DX2                !
 ! A3    A(4,1,13)             108.8444         estimate D2E/DX2                !
 ! A4    A(1,2,3)              101.1984         estimate D2E/DX2                !
 ! A5    A(1,2,16)             142.1101         estimate D2E/DX2                !
 ! A6    A(3,2,16)             116.6888         estimate D2E/DX2                !
 ! A7    A(2,3,5)              113.1438         estimate D2E/DX2                !
 ! A8    A(2,3,10)             130.0329         estimate D2E/DX2                !
 ! A9    A(5,3,10)             116.8177         estimate D2E/DX2                !
 ! A10   A(1,4,5)              109.2574         estimate D2E/DX2                !
 ! A11   A(1,4,6)              129.2614         estimate D2E/DX2                !
 ! A12   A(5,4,6)              121.4628         estimate D2E/DX2                !
 ! A13   A(3,5,4)              108.5582         estimate D2E/DX2                !
 ! A14   A(3,5,9)              127.0138         estimate D2E/DX2                !
 ! A15   A(4,5,9)              124.4151         estimate D2E/DX2                !
 ! A16   A(4,6,7)              115.3708         estimate D2E/DX2                !
 ! A17   A(4,6,15)             116.0727         estimate D2E/DX2                !
 ! A18   A(7,6,15)             128.5534         estimate D2E/DX2                !
 ! A19   A(6,7,8)              122.3257         estimate D2E/DX2                !
 ! A20   A(6,7,33)             118.6825         estimate D2E/DX2                !
 ! A21   A(8,7,33)             118.9913         estimate D2E/DX2                !
 ! A22   A(7,8,9)              121.3234         estimate D2E/DX2                !
 ! A23   A(7,8,34)             119.1659         estimate D2E/DX2                !
 ! A24   A(9,8,34)             119.5084         estimate D2E/DX2                !
 ! A25   A(5,9,8)              115.0355         estimate D2E/DX2                !
 ! A26   A(5,9,12)             115.0957         estimate D2E/DX2                !
 ! A27   A(8,9,12)             129.863          estimate D2E/DX2                !
 ! A28   A(3,10,11)            118.3868         estimate D2E/DX2                !
 ! A29   A(3,10,18)            113.5618         estimate D2E/DX2                !
 ! A30   A(11,10,18)           128.0366         estimate D2E/DX2                !
 ! A31   A(10,11,12)           122.452          estimate D2E/DX2                !
 ! A32   A(10,11,36)           118.0342         estimate D2E/DX2                !
 ! A33   A(12,11,36)           119.5069         estimate D2E/DX2                !
 ! A34   A(9,12,11)            120.2179         estimate D2E/DX2                !
 ! A35   A(9,12,35)            119.9776         estimate D2E/DX2                !
 ! A36   A(11,12,35)           119.8041         estimate D2E/DX2                !
 ! A37   A(1,13,14)            127.2164         estimate D2E/DX2                !
 ! A38   A(13,14,15)           120.2136         estimate D2E/DX2                !
 ! A39   A(13,14,31)           119.6219         estimate D2E/DX2                !
 ! A40   A(15,14,31)           120.1301         estimate D2E/DX2                !
 ! A41   A(6,15,14)            118.2169         estimate D2E/DX2                !
 ! A42   A(6,15,32)            121.3136         estimate D2E/DX2                !
 ! A43   A(14,15,32)           120.4615         estimate D2E/DX2                !
 ! A44   A(2,16,17)            112.2995         estimate D2E/DX2                !
 ! A45   A(2,16,19)            133.3302         estimate D2E/DX2                !
 ! A46   A(17,16,19)           114.3701         estimate D2E/DX2                !
 ! A47   A(16,17,18)           126.0893         estimate D2E/DX2                !
 ! A48   A(16,17,22)           122.568          estimate D2E/DX2                !
 ! A49   A(18,17,22)           111.3252         estimate D2E/DX2                !
 ! A50   A(10,18,17)           121.2751         estimate D2E/DX2                !
 ! A51   A(10,18,37)           120.8057         estimate D2E/DX2                !
 ! A52   A(17,18,37)           117.8968         estimate D2E/DX2                !
 ! A53   A(16,19,20)           117.9177         estimate D2E/DX2                !
 ! A54   A(16,19,23)           128.9828         estimate D2E/DX2                !
 ! A55   A(20,19,23)           113.0971         estimate D2E/DX2                !
 ! A56   A(19,20,21)           123.4872         estimate D2E/DX2                !
 ! A57   A(19,20,26)           123.5653         estimate D2E/DX2                !
 ! A58   A(21,20,26)           112.9456         estimate D2E/DX2                !
 ! A59   A(20,21,22)           120.0586         estimate D2E/DX2                !
 ! A60   A(20,21,39)           118.6616         estimate D2E/DX2                !
 ! A61   A(22,21,39)           121.2768         estimate D2E/DX2                !
 ! A62   A(17,22,21)           121.4626         estimate D2E/DX2                !
 ! A63   A(17,22,38)           117.764          estimate D2E/DX2                !
 ! A64   A(21,22,38)           120.7536         estimate D2E/DX2                !
 ! A65   A(19,23,24)           120.7567         estimate D2E/DX2                !
 ! A66   A(19,23,30)           123.8333         estimate D2E/DX2                !
 ! A67   A(24,23,30)           115.2368         estimate D2E/DX2                !
 ! A68   A(23,24,25)           120.5368         estimate D2E/DX2                !
 ! A69   A(23,24,27)           121.4299         estimate D2E/DX2                !
 ! A70   A(25,24,27)           117.8252         estimate D2E/DX2                !
 ! A71   A(24,25,26)           118.4532         estimate D2E/DX2                !
 ! A72   A(24,25,41)           119.659          estimate D2E/DX2                !
 ! A73   A(26,25,41)           121.8638         estimate D2E/DX2                !
 ! A74   A(20,26,25)           122.3609         estimate D2E/DX2                !
 ! A75   A(20,26,40)           117.2011         estimate D2E/DX2                !
 ! A76   A(25,26,40)           120.3832         estimate D2E/DX2                !
 ! A77   A(24,27,28)           121.0999         estimate D2E/DX2                !
 ! A78   A(24,27,42)           117.8241         estimate D2E/DX2                !
 ! A79   A(28,27,42)           121.0676         estimate D2E/DX2                !
 ! A80   A(27,28,29)           118.5556         estimate D2E/DX2                !
 ! A81   A(27,28,43)           120.0127         estimate D2E/DX2                !
 ! A82   A(29,28,43)           121.2532         estimate D2E/DX2                !
 ! A83   A(28,29,30)           121.1192         estimate D2E/DX2                !
 ! A84   A(28,29,44)           122.8806         estimate D2E/DX2                !
 ! A85   A(30,29,44)           115.762          estimate D2E/DX2                !
 ! A86   A(23,30,29)           120.8383         estimate D2E/DX2                !
 ! A87   A(23,30,45)           122.9694         estimate D2E/DX2                !
 ! A88   A(29,30,45)           115.7417         estimate D2E/DX2                !
 ! D1    D(4,1,2,3)              2.9156         estimate D2E/DX2                !
 ! D2    D(4,1,2,16)          -177.7618         estimate D2E/DX2                !
 ! D3    D(13,1,2,3)          -178.4175         estimate D2E/DX2                !
 ! D4    D(13,1,2,16)            0.9051         estimate D2E/DX2                !
 ! D5    D(2,1,4,5)             -2.303          estimate D2E/DX2                !
 ! D6    D(2,1,4,6)            176.1289         estimate D2E/DX2                !
 ! D7    D(13,1,4,5)           178.5369         estimate D2E/DX2                !
 ! D8    D(13,1,4,6)            -3.0311         estimate D2E/DX2                !
 ! D9    D(2,1,13,14)         -173.6681         estimate D2E/DX2                !
 ! D10   D(4,1,13,14)            4.9904         estimate D2E/DX2                !
 ! D11   D(1,2,3,5)             -2.6304         estimate D2E/DX2                !
 ! D12   D(1,2,3,10)           178.2758         estimate D2E/DX2                !
 ! D13   D(16,2,3,5)           177.8352         estimate D2E/DX2                !
 ! D14   D(16,2,3,10)           -1.2585         estimate D2E/DX2                !
 ! D15   D(1,2,16,17)         -177.4805         estimate D2E/DX2                !
 ! D16   D(1,2,16,19)            2.3063         estimate D2E/DX2                !
 ! D17   D(3,2,16,17)            1.7758         estimate D2E/DX2                !
 ! D18   D(3,2,16,19)         -178.4374         estimate D2E/DX2                !
 ! D19   D(2,3,5,4)              1.4066         estimate D2E/DX2                !
 ! D20   D(2,3,5,9)           -179.8658         estimate D2E/DX2                !
 ! D21   D(10,3,5,4)          -179.3709         estimate D2E/DX2                !
 ! D22   D(10,3,5,9)            -0.6433         estimate D2E/DX2                !
 ! D23   D(2,3,10,11)         -179.5547         estimate D2E/DX2                !
 ! D24   D(2,3,10,18)           -0.8422         estimate D2E/DX2                !
 ! D25   D(5,3,10,11)            1.379          estimate D2E/DX2                !
 ! D26   D(5,3,10,18)         -179.9085         estimate D2E/DX2                !
 ! D27   D(1,4,5,3)              0.6761         estimate D2E/DX2                !
 ! D28   D(1,4,5,9)           -178.0924         estimate D2E/DX2                !
 ! D29   D(6,4,5,3)           -177.9006         estimate D2E/DX2                !
 ! D30   D(6,4,5,9)              3.3309         estimate D2E/DX2                !
 ! D31   D(1,4,6,7)            179.378          estimate D2E/DX2                !
 ! D32   D(1,4,6,15)            -0.0447         estimate D2E/DX2                !
 ! D33   D(5,4,6,7)             -2.3575         estimate D2E/DX2                !
 ! D34   D(5,4,6,15)           178.2198         estimate D2E/DX2                !
 ! D35   D(3,5,9,8)            179.1005         estimate D2E/DX2                !
 ! D36   D(3,5,9,12)            -0.108          estimate D2E/DX2                !
 ! D37   D(4,5,9,8)             -2.3617         estimate D2E/DX2                !
 ! D38   D(4,5,9,12)           178.4298         estimate D2E/DX2                !
 ! D39   D(4,6,7,8)              0.831          estimate D2E/DX2                !
 ! D40   D(4,6,7,33)          -179.415          estimate D2E/DX2                !
 ! D41   D(15,6,7,8)          -179.8321         estimate D2E/DX2                !
 ! D42   D(15,6,7,33)           -0.0781         estimate D2E/DX2                !
 ! D43   D(4,6,15,14)            1.6237         estimate D2E/DX2                !
 ! D44   D(4,6,15,32)         -179.4025         estimate D2E/DX2                !
 ! D45   D(7,6,15,14)         -177.7092         estimate D2E/DX2                !
 ! D46   D(7,6,15,32)            1.2646         estimate D2E/DX2                !
 ! D47   D(6,7,8,9)             -0.0638         estimate D2E/DX2                !
 ! D48   D(6,7,8,34)          -179.507          estimate D2E/DX2                !
 ! D49   D(33,7,8,9)          -179.8171         estimate D2E/DX2                !
 ! D50   D(33,7,8,34)            0.7398         estimate D2E/DX2                !
 ! D51   D(7,8,9,5)              0.7361         estimate D2E/DX2                !
 ! D52   D(7,8,9,12)           179.8023         estimate D2E/DX2                !
 ! D53   D(34,8,9,5)          -179.8226         estimate D2E/DX2                !
 ! D54   D(34,8,9,12)           -0.7564         estimate D2E/DX2                !
 ! D55   D(5,9,12,11)            0.0636         estimate D2E/DX2                !
 ! D56   D(5,9,12,35)          179.8241         estimate D2E/DX2                !
 ! D57   D(8,9,12,11)         -179.0022         estimate D2E/DX2                !
 ! D58   D(8,9,12,35)            0.7584         estimate D2E/DX2                !
 ! D59   D(3,10,11,12)          -1.4984         estimate D2E/DX2                !
 ! D60   D(3,10,11,36)         179.4635         estimate D2E/DX2                !
 ! D61   D(18,10,11,12)        180.0            estimate D2E/DX2                !
 ! D62   D(18,10,11,36)          0.9619         estimate D2E/DX2                !
 ! D63   D(3,10,18,17)           2.2047         estimate D2E/DX2                !
 ! D64   D(3,10,18,37)        -179.5509         estimate D2E/DX2                !
 ! D65   D(11,10,18,17)       -179.2334         estimate D2E/DX2                !
 ! D66   D(11,10,18,37)         -0.989          estimate D2E/DX2                !
 ! D67   D(10,11,12,9)           0.7396         estimate D2E/DX2                !
 ! D68   D(10,11,12,35)       -179.0214         estimate D2E/DX2                !
 ! D69   D(36,11,12,9)         179.7641         estimate D2E/DX2                !
 ! D70   D(36,11,12,35)          0.0031         estimate D2E/DX2                !
 ! D71   D(1,13,14,15)          -3.9433         estimate D2E/DX2                !
 ! D72   D(1,13,14,31)         178.1861         estimate D2E/DX2                !
 ! D73   D(13,14,15,6)           0.0758         estimate D2E/DX2                !
 ! D74   D(13,14,15,32)       -178.9071         estimate D2E/DX2                !
 ! D75   D(31,14,15,6)         177.9355         estimate D2E/DX2                !
 ! D76   D(31,14,15,32)         -1.0474         estimate D2E/DX2                !
 ! D77   D(2,16,17,18)          -0.5256         estimate D2E/DX2                !
 ! D78   D(2,16,17,22)         177.8148         estimate D2E/DX2                !
 ! D79   D(19,16,17,18)        179.6447         estimate D2E/DX2                !
 ! D80   D(19,16,17,22)         -2.015          estimate D2E/DX2                !
 ! D81   D(2,16,19,20)        -175.7166         estimate D2E/DX2                !
 ! D82   D(2,16,19,23)           3.6774         estimate D2E/DX2                !
 ! D83   D(17,16,19,20)          4.0669         estimate D2E/DX2                !
 ! D84   D(17,16,19,23)       -176.5392         estimate D2E/DX2                !
 ! D85   D(16,17,18,10)         -1.6436         estimate D2E/DX2                !
 ! D86   D(16,17,18,37)       -179.9375         estimate D2E/DX2                !
 ! D87   D(22,17,18,10)        179.8578         estimate D2E/DX2                !
 ! D88   D(22,17,18,37)          1.5639         estimate D2E/DX2                !
 ! D89   D(16,17,22,21)         -0.8752         estimate D2E/DX2                !
 ! D90   D(16,17,22,38)       -179.2636         estimate D2E/DX2                !
 ! D91   D(18,17,22,21)        177.6851         estimate D2E/DX2                !
 ! D92   D(18,17,22,38)         -0.7033         estimate D2E/DX2                !
 ! D93   D(16,19,20,21)         -3.683          estimate D2E/DX2                !
 ! D94   D(16,19,20,26)        175.7837         estimate D2E/DX2                !
 ! D95   D(23,19,20,21)        176.8291         estimate D2E/DX2                !
 ! D96   D(23,19,20,26)         -3.7041         estimate D2E/DX2                !
 ! D97   D(16,19,23,24)       -167.8535         estimate D2E/DX2                !
 ! D98   D(16,19,23,30)         17.1606         estimate D2E/DX2                !
 ! D99   D(20,19,23,24)         11.5643         estimate D2E/DX2                !
 ! D100  D(20,19,23,30)       -163.4216         estimate D2E/DX2                !
 ! D101  D(19,20,21,22)          0.7288         estimate D2E/DX2                !
 ! D102  D(19,20,21,39)       -178.652          estimate D2E/DX2                !
 ! D103  D(26,20,21,22)       -178.7886         estimate D2E/DX2                !
 ! D104  D(26,20,21,39)          1.8306         estimate D2E/DX2                !
 ! D105  D(19,20,26,25)         -4.6193         estimate D2E/DX2                !
 ! D106  D(19,20,26,40)        178.0649         estimate D2E/DX2                !
 ! D107  D(21,20,26,25)        174.8977         estimate D2E/DX2                !
 ! D108  D(21,20,26,40)         -2.4181         estimate D2E/DX2                !
 ! D109  D(20,21,22,17)          1.637          estimate D2E/DX2                !
 ! D110  D(20,21,22,38)        179.9776         estimate D2E/DX2                !
 ! D111  D(39,21,22,17)       -178.9988         estimate D2E/DX2                !
 ! D112  D(39,21,22,38)         -0.6581         estimate D2E/DX2                !
 ! D113  D(19,23,24,25)        -12.0432         estimate D2E/DX2                !
 ! D114  D(19,23,24,27)        173.3129         estimate D2E/DX2                !
 ! D115  D(30,23,24,25)        163.3532         estimate D2E/DX2                !
 ! D116  D(30,23,24,27)        -11.2906         estimate D2E/DX2                !
 ! D117  D(19,23,30,29)       -169.7533         estimate D2E/DX2                !
 ! D118  D(19,23,30,45)         18.2815         estimate D2E/DX2                !
 ! D119  D(24,23,30,29)         15.0096         estimate D2E/DX2                !
 ! D120  D(24,23,30,45)       -156.9556         estimate D2E/DX2                !
 ! D121  D(23,24,25,26)          3.3908         estimate D2E/DX2                !
 ! D122  D(23,24,25,41)       -174.8608         estimate D2E/DX2                !
 ! D123  D(27,24,25,26)        178.2235         estimate D2E/DX2                !
 ! D124  D(27,24,25,41)         -0.0281         estimate D2E/DX2                !
 ! D125  D(23,24,27,28)          0.6565         estimate D2E/DX2                !
 ! D126  D(23,24,27,42)        179.6114         estimate D2E/DX2                !
 ! D127  D(25,24,27,28)       -174.1275         estimate D2E/DX2                !
 ! D128  D(25,24,27,42)          4.8274         estimate D2E/DX2                !
 ! D129  D(24,25,26,20)          4.7868         estimate D2E/DX2                !
 ! D130  D(24,25,26,40)       -177.9806         estimate D2E/DX2                !
 ! D131  D(41,25,26,20)       -177.0021         estimate D2E/DX2                !
 ! D132  D(41,25,26,40)          0.2305         estimate D2E/DX2                !
 ! D133  D(24,27,28,29)          6.7322         estimate D2E/DX2                !
 ! D134  D(24,27,28,43)       -178.0627         estimate D2E/DX2                !
 ! D135  D(42,27,28,29)       -172.1887         estimate D2E/DX2                !
 ! D136  D(42,27,28,43)          3.0164         estimate D2E/DX2                !
 ! D137  D(27,28,29,30)         -2.9146         estimate D2E/DX2                !
 ! D138  D(27,28,29,44)        171.2395         estimate D2E/DX2                !
 ! D139  D(43,28,29,30)       -178.0577         estimate D2E/DX2                !
 ! D140  D(43,28,29,44)         -3.9035         estimate D2E/DX2                !
 ! D141  D(28,29,30,23)         -8.4042         estimate D2E/DX2                !
 ! D142  D(28,29,30,45)        164.1155         estimate D2E/DX2                !
 ! D143  D(44,29,30,23)        177.0457         estimate D2E/DX2                !
 ! D144  D(44,29,30,45)        -10.4346         estimate D2E/DX2                !
 --------------------------------------------------------------------------------
 Trust Radius=3.00D-01 FncErr=1.00D-07 GrdErr=1.00D-06 EigMax=2.50D+02 EigMin=1.00D-04
 Number of steps in this run=    270 maximum allowed number of steps=    270.
 GradGradGradGradGradGradGradGradGradGradGradGradGradGradGradGradGradGrad

                          Input orientation:                          
 ---------------------------------------------------------------------
 Center     Atomic      Atomic             Coordinates (Angstroms)
 Number     Number       Type             X           Y           Z
 ---------------------------------------------------------------------
      1          6           0        1.508830    0.271560   -0.112570
      2          6           0        0.000000    0.614280   -0.032160
      3          6           0        0.040410    2.045890   -0.016080
      4          6           0        2.239850    1.503130   -0.064330
      5          6           0        1.348370    2.561860   -0.016080
      6          6           0        3.621920    1.710940   -0.032160
      7          6           0        4.037840    3.088430    0.000000
      8          6           0        3.133340    4.133380    0.016080
      9          6           0        1.717910    3.895440    0.000000
     10          6           0       -1.003970    2.974640    0.016080
     11          6           0       -0.672560    4.381960    0.016080
     12          6           0        0.623050    4.833160    0.016080
     13          6           0        2.396050   -0.765820   -0.192980
     14          6           0        3.794900   -0.692370   -0.128650
     15          6           0        4.428300    0.544190   -0.048250
     16          6           0       -1.323360   -0.006000    0.016080
     17          6           0       -2.416220    0.998770    0.032160
     18          6           0       -2.257230    2.395940    0.016080
     19          6           0       -1.796000   -1.443260    0.048250
     20          6           0       -3.205360   -1.686320    0.000000
     21          6           0       -4.180710   -0.651080    0.000000
     22          6           0       -3.796960    0.633070    0.032160
     23          6           0       -0.996620   -2.682340    0.112570
     24          6           0       -1.615460   -3.984610   -0.128650
     25          6           0       -3.025580   -4.113690   -0.176900
     26          6           0       -3.780490   -2.994270   -0.064330
     27          6           0       -0.839550   -5.168190   -0.209060
     28          6           0        0.533810   -5.134450   -0.048250
     29          6           0        1.157600   -3.880000    0.353800
     30          6           0        0.406180   -2.724700    0.514620
     31          1           0        4.383020   -1.603940   -0.176900
     32          1           0        5.511500    0.606570   -0.016080
     33          1           0        5.099760    3.311650    0.016080
     34          1           0        3.503730    5.153200    0.032160
     35          1           0        0.822740    5.899490    0.032160
     36          1           0       -1.487900    5.097970    0.032160
     37          1           0       -3.152030    3.008740    0.032160
     38          1           0       -4.530290    1.430600    0.032160
     39          1           0       -5.229070   -0.924720   -0.016080
     40          1           0       -4.862460   -3.060350   -0.064330
     41          1           0       -3.473130   -5.101370   -0.273390
     42          1           0       -1.366860   -6.116360   -0.385960
     43          1           0        1.115740   -6.048850   -0.144740
     44          1           0        2.239100   -3.802680    0.643270
     45          1           0        0.956500   -1.807170    1.141810
 ---------------------------------------------------------------------
                    Distance matrix (angstroms):
                    1          2          3          4          5
     1  C    0.000000
     2  C    1.549352   0.000000
     3  C    2.305171   1.432270   0.000000
     4  C    1.432998   2.409983   2.265933   0.000000
     5  C    2.297941   2.368845   1.406053   1.384909   0.000000
     6  C    2.558013   3.784305   3.597174   1.397976   2.427623
     7  C    3.787258   4.735674   4.131174   2.397933   2.740581
     8  C    4.191567   4.712134   3.731604   2.779030   2.378409
     9  C    3.631652   3.703817   2.497018   2.449430   1.383927
    10  C    3.692879   2.565459   1.397977   3.562889   2.388498
    11  C    4.655148   3.827542   2.442659   4.095883   2.719918
    12  C    4.648586   4.264911   2.847697   3.702649   2.384518
    13  C    1.367400   2.769764   3.672335   2.277956   3.493191
    14  C    2.481035   4.014712   4.648326   2.691196   4.072861
    15  C    2.932877   4.428884   4.637857   2.389380   3.682118
    16  C    2.848665   1.462312   2.463971   3.870453   3.705817
    17  C    3.994471   2.447466   2.670921   4.684301   4.076483
    18  C    4.325824   2.876061   2.324375   4.585554   3.609559
    19  C    3.726711   2.732316   3.943439   4.998197   5.092366
    20  C    5.105835   3.945647   4.946178   6.310867   6.227660
    21  C    5.764963   4.368124   5.009168   6.772618   6.394839
    22  C    5.320061   3.797551   4.089474   6.099950   5.495178
    23  C    3.879883   3.447013   4.842328   5.293788   5.746056
    24  C    5.279813   4.875327   6.254719   6.706925   7.187018
    25  C    6.308362   5.615050   6.882339   7.699746   7.982498
    26  C    6.216501   5.226354   6.324936   7.514726   7.561621
    27  C    5.925798   5.845776   7.270111   7.349161   8.036038
    28  C    5.493609   5.773483   7.197344   6.853342   7.739362
    29  C    4.192411   4.656990   6.041614   5.506740   6.455290
    30  C    3.253733   3.407747   4.813934   4.644575   5.396025
    31  H    3.432580   4.914500   5.674979   3.776206   5.156438
    32  H    4.017824   5.511529   5.657249   3.392616   4.599436
    33  H    4.706748   5.769375   5.215382   3.384715   3.825722
    34  H    5.275508   5.734288   4.653202   3.863899   3.370897
    35  H    5.671443   5.349251   3.932506   4.620118   3.379111
    36  H    5.682919   4.724559   3.413686   5.179605   3.805077
    37  H    5.407099   3.958897   3.334828   5.598977   4.522790
    38  H    6.151040   4.603699   4.612180   6.771216   5.986712
    39  H    6.843953   5.450867   6.049127   7.853760   7.444391
    40  H    7.190083   6.094871   7.079135   8.442047   8.377707
    41  H    7.328995   6.692494   7.968343   8.735060   9.057492
    42  H    7.010696   6.877136   8.290931   8.436138   9.100593
    43  H    6.332704   6.756837   8.166866   7.635607   8.614813
    44  H    4.207615   4.997931   6.282894   5.352786   6.460303
    45  H    2.489911   2.855962   4.126258   3.749646   4.536815
                    6          7          8          9         10
     6  C    0.000000
     7  C    1.439271   0.000000
     8  C    2.471690   1.382136   0.000000
     9  C    2.897987   2.456286   1.435380   0.000000
    10  C    4.795636   5.043120   4.296512   2.873458   0.000000
    11  C    5.057592   4.884808   3.814009   2.439530   1.445815
    12  C    4.329412   3.834727   2.606002   1.441630   2.470079
    13  C    2.768205   4.193800   4.958776   4.714283   5.059139
    14  C    2.411458   3.790781   4.873035   5.037702   6.041280
    15  C    1.418384   2.574479   3.816195   4.310385   5.951536
    16  C    5.235074   6.190171   6.082486   4.946799   2.997703
    17  C    6.080334   6.783996   6.373669   5.048045   2.428739
    18  C    5.919118   6.333065   5.663651   4.248588   1.380418
    19  C    6.269713   7.387302   7.443006   6.391526   4.488450
    20  C    7.625888   8.675378   8.605131   7.442757   5.154699
    21  C    8.152374   9.029313   8.739945   7.447453   4.820558
    22  C    7.497048   8.210598   7.764115   6.407643   3.644722
    23  C    6.375952   7.658998   7.969938   7.116778   5.657808
    24  C    7.738136   9.055620   9.406052   8.557049   6.987562
    25  C    8.839486  10.089288  10.294839   9.310110   7.373505
    26  C    8.771300   9.906042   9.930302   8.815024   6.583572
    27  C    8.201124   9.591893  10.117003   9.419857   8.147601
    28  C    7.509730   8.938474   9.625714   9.107323   8.253863
    29  C    6.122128   7.548508   8.260258   7.803627   7.195313
    30  C    5.505893   6.873592   7.397243   6.768436   5.892329
    31  H    3.404211   4.708373   5.875013   6.113697   7.072503
    32  H    2.188699   2.886444   4.253830   5.020782   6.932542
    33  H    2.179131   1.085246   2.131208   3.431906   6.113027
    34  H    3.444889   2.132975   1.085118   2.184525   5.006570
    35  H    5.038204   4.270827   2.908311   2.195126   3.448460
    36  H    6.130772   5.879888   4.720863   3.424081   2.177838
    37  H    6.897450   7.190384   6.385213   4.950110   2.148391
    38  H    8.157282   8.727101   8.126285   6.716880   3.849578
    39  H    9.235095  10.098577   9.773193   8.455456   5.749566
    40  H    9.734010  10.817901  10.755884   9.575407   7.163485
    41  H    9.838978  11.115855  11.358250  10.390584   8.449999
    42  H    9.288688  10.681194  11.201366  10.483364   9.107118
    43  H    8.155241   9.594243  10.381444   9.963557   9.270513
    44  H    5.724369   7.150990   8.010873   7.742512   7.539425
    45  H    4.567249   5.896209   6.426199   5.865427   5.289274
                   11         12         13         14         15
    11  C    0.000000
    12  C    1.371928   0.000000
    13  C    5.996642   5.876718   0.000000
    14  C    6.762246   6.372838   1.402253   0.000000
    15  C    6.383682   5.734050   2.422212   1.391668   0.000000
    16  C    4.435959   5.215935   3.801979   5.166105   5.778273
    17  C    3.806124   4.892849   5.130537   6.439241   6.860070
    18  C    2.540759   3.773070   5.629693   6.796093   6.937538
    19  C    5.932650   6.726536   4.253281   5.643872   6.534614
    20  C    6.575664   7.560463   5.679820   7.071642   7.953004
    21  C    6.135052   7.290628   6.580591   7.976754   8.691723
    22  C    4.880196   6.097336   6.353027   7.708371   8.226133
    23  C    7.072387   7.688653   3.908532   5.193923   6.313962
    24  C    8.420778   9.098623   5.143633   6.333312   7.552717
    25  C    8.817597   9.664154   6.372014   7.630643   8.790491
    26  C    8.004653   8.981441   6.567510   7.917665   8.938970
    27  C    9.554263  10.110237   5.463536   6.443412   7.772219
    28  C    9.592785   9.968217   4.751191   5.511193   6.885783
    29  C    8.468974   8.736072   3.395710   4.165224   5.516573
    30  C    7.205334   7.577389   2.880537   4.003447   5.213436
    31  H    7.837546   7.457270   2.156561   1.085897   2.152455
    32  H    7.245495   6.462356   3.408926   2.155605   1.085472
    33  H    5.870710   4.728205   4.896888   4.213761   2.848479
    34  H    4.246936   2.898448   6.025980   5.855026   4.701518
    35  H    2.130511   1.084986   6.852178   7.232718   6.456452
    36  H    1.085223   2.127556   7.037030   7.839762   7.466244
    37  H    2.834389   4.192851   6.714103   7.872986   7.971316
    38  H    4.857249   6.175321   7.269741   8.593116   9.002695
    39  H    6.994546   8.209843   7.628827   9.027663   9.768497
    40  H    8.541060   9.612741   7.613632   8.975597   9.965500
    41  H    9.892448  10.749761   7.297310   8.502029   9.713683
    42  H   10.528932  11.136129   6.544082   7.491972   8.835205
    43  H   10.584218  10.894345   5.436168   5.989160   7.379061
    44  H    8.709734   8.808105   3.153802   3.562359   4.915900
    45  H    6.498187   6.743326   2.222246   3.303538   4.358731
                   16         17         18         19         20
    16  C    0.000000
    17  C    1.484643   0.000000
    18  C    2.577097   1.406279   0.000000
    19  C    1.513321   2.519612   3.866940   0.000000
    20  C    2.523026   2.798836   4.190949   1.430979   0.000000
    21  C    2.929306   2.415878   3.603382   2.513308   1.422332
    22  C    2.554871   1.428349   2.340670   2.883617   2.393866
    23  C    2.697937   3.946175   5.233295   1.475962   2.425543
    24  C    3.991943   5.049867   6.414377   2.553889   2.797583
    25  C    4.450608   5.152890   6.557659   2.948518   2.440438
    26  C    3.869588   4.220771   5.601888   2.521211   1.430261
    27  C    5.189698   6.369888   7.699128   3.854362   4.214758
    28  C    5.454743   6.806286   8.031240   4.366029   5.086582
    29  C    4.612710   6.056240   7.152800   3.841200   4.896205
    30  C    3.260549   4.697120   5.793380   2.590210   3.792926
    31  H    5.929032   7.283369   7.754302   6.185208   7.590889
    32  H    6.862331   7.937562   7.972205   7.589829   9.013393
    33  H    7.229334   7.863818   7.413759   8.376259   9.693038
    34  H    7.065296   7.232226   6.386815   8.461719   9.580812
    35  H    6.283376   5.874344   4.664905   7.795770   8.589013
    36  H    5.106647   4.203001   2.809465   6.548502   6.998378
    37  H    3.526039   2.140420   1.084643   4.653964   4.695473
    38  H    3.514040   2.157723   2.469604   3.966821   3.386985
    39  H    4.012437   3.407971   4.456417   3.472606   2.162336
    40  H    4.675548   4.740238   6.046883   3.468549   2.153620
    41  H    5.537879   6.198559   7.600780   4.037076   3.436424
    42  H    6.123727   7.204239   8.568176   4.712808   4.811892
    43  H    6.518520   7.885111   9.094903   5.452241   6.142029
    44  H    5.243974   6.715607   7.683309   4.712000   5.876642
    45  H    3.115966   4.525468   5.409386   2.984051   4.317339
                   21         22         23         24         25
    21  C    0.000000
    22  C    1.340649   0.000000
    23  C    3.778507   4.340543   0.000000
    24  C    4.208263   5.109576   1.461868   0.000000
    25  C    3.654489   4.813571   2.499847   1.416837   0.000000
    26  C    2.377994   3.628661   2.806871   2.381652   1.354866
    27  C    5.622396   6.516063   2.511487   1.417520   2.427289
    28  C    6.506123   7.212927   2.894982   2.438844   3.705099
    29  C    6.248892   6.709614   2.476539   2.816658   4.223180
    30  C    5.060069   5.401275   1.459893   2.467427   3.766228
    31  H    8.618394   8.482924   5.494294   6.453811   7.822161
    32  H    9.773478   9.308623   7.293086   8.478512   9.756457
    33  H   10.091115   9.291215   8.550034   9.917184  11.008818
    34  H    9.630229   8.586714   9.036332  10.475282  11.338027
    35  H    8.242907   7.005484   8.772932  10.181656  10.729261
    36  H    6.348530   5.026638   7.796220   9.084899   9.341458
    37  H    3.801776   2.461654   6.086103   7.161973   7.126619
    38  H    2.111074   1.083433   5.423059   6.151958   5.748653
    39  H    1.083603   2.116595   4.584693   4.736431   3.879531
    40  H    2.504696   3.845251   3.888303   3.376596   2.120454
    41  H    4.514476   5.751698   3.483357   2.172335   1.088634
    42  H    6.159221   7.185751   3.489714   2.161566   2.608782
    43  H    7.563680   8.295419   3.982670   3.423565   4.571259
    44  H    7.180553   7.515541   3.465067   3.935301   5.337252
    45  H    5.388061   5.457241   2.374855   3.601429   4.787065
                   26         27         28         29         30
    26  C    0.000000
    27  C    3.660055   0.000000
    28  C    4.815996   1.383154   0.000000
    29  C    5.034291   2.442305   1.457533   0.000000
    30  C    4.235098   2.836582   2.477904   1.387521   0.000000
    31  H    8.281823   6.322986   5.224698   3.983143   4.189219
    32  H    9.965413   8.586089   7.598536   6.262792   6.119093
    33  H   10.891737  10.355374   9.601492   8.208198   7.662621
    34  H   10.929338  11.200596  10.708064   9.338441   8.478732
    35  H   10.014889  11.194415  11.038015   9.790506   8.647713
    36  H    8.411280  10.289441  10.430542   9.365152   8.063155
    37  H    6.036589   8.501055   8.938872   8.132103   6.765054
    38  H    4.488985   7.564640   8.291650   7.788326   6.470550
    39  H    2.526608   6.108368   7.136781   7.046988   5.939496
    40  H    1.083986   4.543979   5.781166   6.089974   5.310971
    41  H    2.139637   2.635213   4.013396   4.829987   4.617203
    42  H    3.959356   1.099261   2.165812   3.452745   3.931676
    43  H    5.771481   2.145427   1.088154   2.225804   3.462399
    44  H    6.114711   3.474071   2.271525   1.122236   2.130302
    45  H    5.030214   4.043155   3.558891   2.226662   1.240194
                   31         32         33         34         35
    31  H    0.000000
    32  H    2.487104   0.000000
    33  H    4.971316   2.736425   0.000000
    34  H    6.817316   4.970444   2.436981   0.000000
    35  H    8.307873   7.071195   4.999007   2.782922   0.000000
    36  H    8.912183   8.316646   6.825574   4.991936   2.445709
    37  H    8.837279   8.990523   8.257363   6.992700   4.914797
    38  H    9.418027  10.075659   9.812057   8.854560   6.973228
    39  H    9.637400  10.849179  11.163897  10.639795   9.121216
    40  H    9.360166  11.003076  11.826017  11.724540  10.611764
    41  H    8.600024  10.647552  12.014872  12.406697  11.813839
    42  H    7.312097   9.625302  11.439676  12.284155  12.220877
    43  H    5.516646   7.977084  10.174342  11.455117  11.953241
    44  H    3.178605   5.530355   7.693532   9.065348   9.824033
    45  H    3.677137   5.283453   6.681032   7.494428   7.787286
                   36         37         38         39         40
    36  H    0.000000
    37  H    2.670994   0.000000
    38  H    4.765054   2.095263   0.000000
    39  H    7.090238   4.448430   2.457265   0.000000
    40  H    8.829221   6.306246   4.504251   2.167405   0.000000
    41  H   10.395241   8.122213   6.624015   4.538055   2.477843
    42  H   11.222775   9.307476   8.193822   6.481250   4.654231
    43  H   11.448224  10.014244   9.372893   8.156585   6.684046
    44  H    9.668793   8.708225   8.578188   8.030626   7.175229
    45  H    7.408601   6.426845   6.466788   6.354581   6.073346
                   41         42         43         44         45
    41  H    0.000000
    42  H    2.340780   0.000000
    43  H    4.687430   2.495205   0.000000
    44  H    5.929286   4.406288   2.632143   0.000000
    45  H    5.698786   5.128470   4.435360   2.423977   0.000000
 Stoichiometry    C30H15(2)
 Framework group  C1[X(C30H15)]
 Deg. of freedom   129
 Full point group                 C1      NOp   1
 Largest Abelian subgroup         C1      NOp   1
 Largest concise Abelian subgroup C1      NOp   1
                         Standard orientation:                         
 ---------------------------------------------------------------------
 Center     Atomic      Atomic             Coordinates (Angstroms)
 Number     Number       Type             X           Y           Z
 ---------------------------------------------------------------------
      1          6           0       -1.029089    1.136158   -0.116498
      2          6           0       -0.521108   -0.325241   -0.034284
      3          6           0       -1.757042   -1.048853   -0.018399
      4          6           0       -2.460955    1.104370   -0.069274
      5          6           0       -2.887221   -0.212386   -0.020045
      6          6           0       -3.368960    2.166884   -0.038810
      7          6           0       -4.757791    1.790509   -0.007296
      8          6           0       -5.165450    0.469970    0.009780
      9          6           0       -4.214234   -0.604878   -0.004551
     10          6           0       -1.992079   -2.426527    0.014940
     11          6           0       -3.361452   -2.890422    0.014393
     12          6           0       -4.430144   -2.030143    0.012768
     13          6           0       -0.618657    2.437967   -0.197884
     14          6           0       -1.421583    3.585879   -0.135266
     15          6           0       -2.806025    3.468663   -0.055764
     16          6           0        0.705681   -1.119502    0.015632
     17          6           0        0.431830   -2.578567    0.032942
     18          6           0       -0.837640   -3.183379    0.016526
     19          6           0        2.175200   -0.759540    0.048524
     20          6           0        3.127569   -1.826560    0.002016
     21          6           0        2.765669   -3.202080    0.003100
     22          6           0        1.473056   -3.556332    0.034662
     23          6           0        2.803145    0.574672    0.111995
     24          6           0        4.235743    0.738870   -0.128338
     25          6           0        5.091818   -0.389137   -0.174856
     26          6           0        4.541716   -1.622099   -0.061480
     27          6           0        4.829134    2.023647   -0.209574
     28          6           0        4.073321    3.171052   -0.050441
     29          6           0        2.678554    3.036527    0.350721
     30          6           0        2.096130    1.787578    0.512339
     31          1           0       -0.959560    4.567368   -0.184141
     32          1           0       -3.432427    4.354619   -0.024921
     33          1           0       -5.509367    2.573245    0.007467
     34          1           0       -6.226730    0.244308    0.025305
     35          1           0       -5.440512   -2.425244    0.028497
     36          1           0       -3.537252   -3.961176    0.031394
     37          1           0       -0.883813   -4.266903    0.033635
     38          1           0        1.184692   -4.600685    0.035475
     39          1           0        3.552840   -3.946619   -0.011675
     40          1           0        5.170583   -2.505021   -0.060155
     41          1           0        6.166740   -0.246028   -0.270701
     42          1           0        5.912822    2.078094   -0.385735
     43          1           0        4.541057    4.148740   -0.147548
     44          1           0        2.040189    3.913384    0.638865
     45          1           0        1.025926    1.769314    1.138765
 ---------------------------------------------------------------------
 Rotational constants (GHZ):           0.2779962           0.1337374           0.0905889
 Standard basis: 6-311+G(d,p) (5D, 7F)
 There are   780 symmetry adapted cartesian basis functions of A   symmetry.
 There are   750 symmetry adapted basis functions of A   symmetry.
   750 basis functions,  1200 primitive gaussians,   780 cartesian basis functions
    98 alpha electrons       97 beta electrons
       nuclear repulsion energy      2521.2557295798 Hartrees.
 NAtoms=   45 NActive=   45 NUniq=   45 SFac= 1.00D+00 NAtFMM=   60 NAOKFM=F Big=F
 Integral buffers will be    131072 words long.
 Raffenetti 2 integral format.
 Two-electron integral symmetry is turned on.
 One-electron integrals computed using PRISM.
 NBasis=   750 RedAO= T EigKep=  1.16D-06  NBF=   750
 NBsUse=   728 1.00D-06 EigRej=  9.70D-07 NBFU=   728
 ExpMin= 4.38D-02 ExpMax= 4.56D+03 ExpMxC= 6.82D+02 IAcc=2 IRadAn=         4 AccDes= 0.00D+00
 Harris functional with IExCor=  402 and IRadAn=       4 diagonalized for initial guess.
 HarFok:  IExCor=  402 AccDes= 0.00D+00 IRadAn=         4 IDoV= 1 UseB2=F ITyADJ=14
 ICtDFT=  3500011 ScaDFX=  1.000000  1.000000  1.000000  1.000000
 FoFCou: FMM=F IPFlag=           0 FMFlag=      100000 FMFlg1=           0
         NFxFlg=           0 DoJE=T BraDBF=F KetDBF=T FulRan=T
         wScrn=  0.000000 ICntrl=       500 IOpCl=  0 I1Cent=   200000004 NGrid=           0
         NMat0=    1 NMatS0=      1 NMatT0=    0 NMatD0=    1 NMtDS0=    0 NMtDT0=    0
 Petite list used in FoFCou.
 Initial guess <Sx>= 0.0000 <Sy>= 0.0000 <Sz>= 0.5000 <S**2>= 0.7500 S= 0.5000
 Requested convergence on RMS density matrix=1.00D-08 within 128 cycles.
 Requested convergence on MAX density matrix=1.00D-06.
 Requested convergence on             energy=1.00D-06.
 No special actions if energy rises.
 Restarting incremental Fock formation.
 SCF Done:  E(UB3LYP) =  -1152.39879623     A.U. after   22 cycles
            NFock= 22  Conv=0.88D-08     -V/T= 2.0051
 <Sx>= 0.0000 <Sy>= 0.0000 <Sz>= 0.5000 <S**2>= 0.7589 S= 0.5044
 <L.S>=  0.00000000000    
 Annihilation of the first spin contaminant:
 S**2 before annihilation     0.7589,   after     0.7500

 **********************************************************************

            Population analysis using the SCF Density.

 **********************************************************************

 Orbital symmetries:
 Alpha Orbitals:
       Occupied  (A) (A) (A) (A) (A) (A) (A) (A) (A) (A) (A) (A)
                 (A) (A) (A) (A) (A) (A) (A) (A) (A) (A) (A) (A)
                 (A) (A) (A) (A) (A) (A) (A) (A) (A) (A) (A) (A)
                 (A) (A) (A) (A) (A) (A) (A) (A) (A) (A) (A) (A)
                 (A) (A) (A) (A) (A) (A) (A) (A) (A) (A) (A) (A)
                 (A) (A) (A) (A) (A) (A) (A) (A) (A) (A) (A) (A)
                 (A) (A) (A) (A) (A) (A) (A) (A) (A) (A) (A) (A)
                 (A) (A) (A) (A) (A) (A) (A) (A) (A) (A) (A) (A)
                 (A) (A)
       Virtual   (A) (A) (A) (A) (A) (A) (A) (A) (A) (A) (A) (A)
                 (A) (A) (A) (A) (A) (A) (A) (A) (A) (A) (A) (A)
                 (A) (A) (A) (A) (A) (A) (A) (A) (A) (A) (A) (A)
                 (A) (A) (A) (A) (A) (A) (A) (A) (A) (A) (A) (A)
                 (A) (A) (A) (A) (A) (A) (A) (A) (A) (A) (A) (A)
                 (A) (A) (A) (A) (A) (A) (A) (A) (A) (A) (A) (A)
                 (A) (A) (A) (A) (A) (A) (A) (A) (A) (A) (A) (A)
                 (A) (A) (A) (A) (A) (A) (A) (A) (A) (A) (A) (A)
                 (A) (A) (A) (A) (A) (A) (A) (A) (A) (A) (A) (A)
                 (A) (A) (A) (A) (A) (A) (A) (A) (A) (A) (A) (A)
                 (A) (A) (A) (A) (A) (A) (A) (A) (A) (A) (A) (A)
                 (A) (A) (A) (A) (A) (A) (A) (A) (A) (A) (A) (A)
                 (A) (A) (A) (A) (A) (A) (A) (A) (A) (A) (A) (A)
                 (A) (A) (A) (A) (A) (A) (A) (A) (A) (A) (A) (A)
                 (A) (A) (A) (A) (A) (A) (A) (A) (A) (A) (A) (A)
                 (A) (A) (A) (A) (A) (A) (A) (A) (A) (A) (A) (A)
                 (A) (A) (A) (A) (A) (A) (A) (A) (A) (A) (A) (A)
                 (A) (A) (A) (A) (A) (A) (A) (A) (A) (A) (A) (A)
                 (A) (A) (A) (A) (A) (A) (A) (A) (A) (A) (A) (A)
                 (A) (A) (A) (A) (A) (A) (A) (A) (A) (A) (A) (A)
                 (A) (A) (A) (A) (A) (A) (A) (A) (A) (A) (A) (A)
                 (A) (A) (A) (A) (A) (A) (A) (A) (A) (A) (A) (A)
                 (A) (A) (A) (A) (A) (A) (A) (A) (A) (A) (A) (A)
                 (A) (A) (A) (A) (A) (A) (A) (A) (A) (A) (A) (A)
                 (A) (A) (A) (A) (A) (A) (A) (A) (A) (A) (A) (A)
                 (A) (A) (A) (A) (A) (A) (A) (A) (A) (A) (A) (A)
                 (A) (A) (A) (A) (A) (A) (A) (A) (A) (A) (A) (A)
                 (A) (A) (A) (A) (A) (A) (A) (A) (A) (A) (A) (A)
                 (A) (A) (A) (A) (A) (A) (A) (A) (A) (A) (A) (A)
                 (A) (A) (A) (A) (A) (A) (A) (A) (A) (A) (A) (A)
                 (A) (A) (A) (A) (A) (A) (A) (A) (A) (A) (A) (A)
                 (A) (A) (A) (A) (A) (A) (A) (A) (A) (A) (A) (A)
                 (A) (A) (A) (A) (A) (A) (A) (A) (A) (A) (A) (A)
                 (A) (A) (A) (A) (A) (A) (A) (A) (A) (A) (A) (A)
                 (A) (A) (A) (A) (A) (A) (A) (A) (A) (A) (A) (A)
                 (A) (A) (A) (A) (A) (A) (A) (A) (A) (A) (A) (A)
                 (A) (A) (A) (A) (A) (A) (A) (A) (A) (A) (A) (A)
                 (A) (A) (A) (A) (A) (A) (A) (A) (A) (A) (A) (A)
                 (A) (A) (A) (A) (A) (A) (A) (A) (A) (A) (A) (A)
                 (A) (A) (A) (A) (A) (A) (A) (A) (A) (A) (A) (A)
                 (A) (A) (A) (A) (A) (A) (A) (A) (A) (A) (A) (A)
                 (A) (A) (A) (A) (A) (A) (A) (A) (A) (A) (A) (A)
                 (A) (A) (A) (A) (A) (A) (A) (A) (A) (A) (A) (A)
                 (A) (A) (A) (A) (A) (A) (A) (A) (A) (A) (A) (A)
                 (A) (A) (A) (A) (A) (A) (A) (A) (A) (A) (A) (A)
                 (A) (A) (A) (A) (A) (A) (A) (A) (A) (A) (A) (A)
                 (A) (A) (A) (A) (A) (A) (A) (A) (A) (A) (A) (A)
                 (A) (A) (A) (A) (A) (A) (A) (A) (A) (A) (A) (A)
                 (A) (A) (A) (A) (A) (A) (A) (A) (A) (A) (A) (A)
                 (A) (A) (A) (A) (A) (A) (A) (A) (A) (A) (A) (A)
                 (A) (A) (A) (A) (A) (A) (A) (A) (A) (A) (A) (A)
                 (A) (A) (A) (A) (A) (A) (A) (A) (A) (A) (A) (A)
                 (A) (A) (A) (A) (A) (A)
 Beta  Orbitals:
       Occupied  (A) (A) (A) (A) (A) (A) (A) (A) (A) (A) (A) (A)
                 (A) (A) (A) (A) (A) (A) (A) (A) (A) (A) (A) (A)
                 (A) (A) (A) (A) (A) (A) (A) (A) (A) (A) (A) (A)
                 (A) (A) (A) (A) (A) (A) (A) (A) (A) (A) (A) (A)
                 (A) (A) (A) (A) (A) (A) (A) (A) (A) (A) (A) (A)
                 (A) (A) (A) (A) (A) (A) (A) (A) (A) (A) (A) (A)
                 (A) (A) (A) (A) (A) (A) (A) (A) (A) (A) (A) (A)
                 (A) (A) (A) (A) (A) (A) (A) (A) (A) (A) (A) (A)
                 (A)
       Virtual   (A) (A) (A) (A) (A) (A) (A) (A) (A) (A) (A) (A)
                 (A) (A) (A) (A) (A) (A) (A) (A) (A) (A) (A) (A)
                 (A) (A) (A) (A) (A) (A) (A) (A) (A) (A) (A) (A)
                 (A) (A) (A) (A) (A) (A) (A) (A) (A) (A) (A) (A)
                 (A) (A) (A) (A) (A) (A) (A) (A) (A) (A) (A) (A)
                 (A) (A) (A) (A) (A) (A) (A) (A) (A) (A) (A) (A)
                 (A) (A) (A) (A) (A) (A) (A) (A) (A) (A) (A) (A)
                 (A) (A) (A) (A) (A) (A) (A) (A) (A) (A) (A) (A)
                 (A) (A) (A) (A) (A) (A) (A) (A) (A) (A) (A) (A)
                 (A) (A) (A) (A) (A) (A) (A) (A) (A) (A) (A) (A)
                 (A) (A) (A) (A) (A) (A) (A) (A) (A) (A) (A) (A)
                 (A) (A) (A) (A) (A) (A) (A) (A) (A) (A) (A) (A)
                 (A) (A) (A) (A) (A) (A) (A) (A) (A) (A) (A) (A)
                 (A) (A) (A) (A) (A) (A) (A) (A) (A) (A) (A) (A)
                 (A) (A) (A) (A) (A) (A) (A) (A) (A) (A) (A) (A)
                 (A) (A) (A) (A) (A) (A) (A) (A) (A) (A) (A) (A)
                 (A) (A) (A) (A) (A) (A) (A) (A) (A) (A) (A) (A)
                 (A) (A) (A) (A) (A) (A) (A) (A) (A) (A) (A) (A)
                 (A) (A) (A) (A) (A) (A) (A) (A) (A) (A) (A) (A)
                 (A) (A) (A) (A) (A) (A) (A) (A) (A) (A) (A) (A)
                 (A) (A) (A) (A) (A) (A) (A) (A) (A) (A) (A) (A)
                 (A) (A) (A) (A) (A) (A) (A) (A) (A) (A) (A) (A)
                 (A) (A) (A) (A) (A) (A) (A) (A) (A) (A) (A) (A)
                 (A) (A) (A) (A) (A) (A) (A) (A) (A) (A) (A) (A)
                 (A) (A) (A) (A) (A) (A) (A) (A) (A) (A) (A) (A)
                 (A) (A) (A) (A) (A) (A) (A) (A) (A) (A) (A) (A)
                 (A) (A) (A) (A) (A) (A) (A) (A) (A) (A) (A) (A)
                 (A) (A) (A) (A) (A) (A) (A) (A) (A) (A) (A) (A)
                 (A) (A) (A) (A) (A) (A) (A) (A) (A) (A) (A) (A)
                 (A) (A) (A) (A) (A) (A) (A) (A) (A) (A) (A) (A)
                 (A) (A) (A) (A) (A) (A) (A) (A) (A) (A) (A) (A)
                 (A) (A) (A) (A) (A) (A) (A) (A) (A) (A) (A) (A)
                 (A) (A) (A) (A) (A) (A) (A) (A) (A) (A) (A) (A)
                 (A) (A) (A) (A) (A) (A) (A) (A) (A) (A) (A) (A)
                 (A) (A) (A) (A) (A) (A) (A) (A) (A) (A) (A) (A)
                 (A) (A) (A) (A) (A) (A) (A) (A) (A) (A) (A) (A)
                 (A) (A) (A) (A) (A) (A) (A) (A) (A) (A) (A) (A)
                 (A) (A) (A) (A) (A) (A) (A) (A) (A) (A) (A) (A)
                 (A) (A) (A) (A) (A) (A) (A) (A) (A) (A) (A) (A)
                 (A) (A) (A) (A) (A) (A) (A) (A) (A) (A) (A) (A)
                 (A) (A) (A) (A) (A) (A) (A) (A) (A) (A) (A) (A)
                 (A) (A) (A) (A) (A) (A) (A) (A) (A) (A) (A) (A)
                 (A) (A) (A) (A) (A) (A) (A) (A) (A) (A) (A) (A)
                 (A) (A) (A) (A) (A) (A) (A) (A) (A) (A) (A) (A)
                 (A) (A) (A) (A) (A) (A) (A) (A) (A) (A) (A) (A)
                 (A) (A) (A) (A) (A) (A) (A) (A) (A) (A) (A) (A)
                 (A) (A) (A) (A) (A) (A) (A) (A) (A) (A) (A) (A)
                 (A) (A) (A) (A) (A) (A) (A) (A) (A) (A) (A) (A)
                 (A) (A) (A) (A) (A) (A) (A) (A) (A) (A) (A) (A)
                 (A) (A) (A) (A) (A) (A) (A) (A) (A) (A) (A) (A)
                 (A) (A) (A) (A) (A) (A) (A) (A) (A) (A) (A) (A)
                 (A) (A) (A) (A) (A) (A) (A) (A) (A) (A) (A) (A)
                 (A) (A) (A) (A) (A) (A) (A)
 The electronic state is 2-A.
 Alpha  occ. eigenvalues --  -10.22850 -10.21507 -10.21302 -10.20789 -10.20701
 Alpha  occ. eigenvalues --  -10.20502 -10.20060 -10.19731 -10.19595 -10.19563
 Alpha  occ. eigenvalues --  -10.19531 -10.19472 -10.19300 -10.19198 -10.19180
 Alpha  occ. eigenvalues --  -10.19160 -10.19125 -10.19012 -10.18932 -10.18868
 Alpha  occ. eigenvalues --  -10.18832 -10.18650 -10.18352 -10.18305 -10.18026
 Alpha  occ. eigenvalues --  -10.18013 -10.17902 -10.17695 -10.17672 -10.17054
 Alpha  occ. eigenvalues --   -0.92030  -0.88871  -0.87321  -0.85656  -0.84201
 Alpha  occ. eigenvalues --   -0.82286  -0.81330  -0.79383  -0.78395  -0.76314
 Alpha  occ. eigenvalues --   -0.74635  -0.74261  -0.73258  -0.72169  -0.71402
 Alpha  occ. eigenvalues --   -0.66467  -0.65197  -0.63337  -0.63135  -0.61892
 Alpha  occ. eigenvalues --   -0.60530  -0.59630  -0.58568  -0.56759  -0.53748
 Alpha  occ. eigenvalues --   -0.53335  -0.52375  -0.51558  -0.50470  -0.50243
 Alpha  occ. eigenvalues --   -0.49058  -0.47503  -0.47105  -0.46301  -0.45070
 Alpha  occ. eigenvalues --   -0.44409  -0.44101  -0.43645  -0.43479  -0.43288
 Alpha  occ. eigenvalues --   -0.42445  -0.41896  -0.41257  -0.40731  -0.40666
 Alpha  occ. eigenvalues --   -0.40028  -0.39825  -0.38676  -0.37643  -0.36914
 Alpha  occ. eigenvalues --   -0.36639  -0.36497  -0.35793  -0.35029  -0.34151
 Alpha  occ. eigenvalues --   -0.33903  -0.33260  -0.32669  -0.31898  -0.29670
 Alpha  occ. eigenvalues --   -0.29314  -0.27435  -0.25142  -0.24721  -0.23372
 Alpha  occ. eigenvalues --   -0.22895  -0.21859  -0.20853
 Alpha virt. eigenvalues --   -0.09615  -0.05682  -0.05137  -0.03976  -0.01990
 Alpha virt. eigenvalues --   -0.01020  -0.00095   0.00311   0.00487   0.00871
 Alpha virt. eigenvalues --    0.01399   0.01452   0.01518   0.02631   0.02724
 Alpha virt. eigenvalues --    0.02917   0.03173   0.04187   0.04343   0.04496
 Alpha virt. eigenvalues --    0.04714   0.04870   0.05066   0.05439   0.05899
 Alpha virt. eigenvalues --    0.06549   0.06611   0.07015   0.07708   0.07961
 Alpha virt. eigenvalues --    0.08205   0.08285   0.08590   0.08835   0.08984
 Alpha virt. eigenvalues --    0.09418   0.10107   0.10478   0.10686   0.11058
 Alpha virt. eigenvalues --    0.11284   0.11661   0.11834   0.12146   0.12264
 Alpha virt. eigenvalues --    0.12638   0.13229   0.13483   0.13607   0.14058
 Alpha virt. eigenvalues --    0.14263   0.14579   0.15026   0.15276   0.15462
 Alpha virt. eigenvalues --    0.15772   0.16127   0.16189   0.16444   0.16498
 Alpha virt. eigenvalues --    0.16607   0.16754   0.17146   0.17382   0.17643
 Alpha virt. eigenvalues --    0.18018   0.18072   0.18468   0.18661   0.18806
 Alpha virt. eigenvalues --    0.19161   0.19272   0.19374   0.19551   0.19756
 Alpha virt. eigenvalues --    0.19856   0.20045   0.20518   0.20786   0.20932
 Alpha virt. eigenvalues --    0.21173   0.21441   0.21702   0.21851   0.22154
 Alpha virt. eigenvalues --    0.22281   0.22595   0.22773   0.22958   0.23186
 Alpha virt. eigenvalues --    0.23277   0.23770   0.23943   0.24054   0.24278
 Alpha virt. eigenvalues --    0.24443   0.24661   0.24917   0.25364   0.25431
 Alpha virt. eigenvalues --    0.25502   0.25883   0.26260   0.26456   0.26939
 Alpha virt. eigenvalues --    0.27121   0.27308   0.27423   0.27618   0.28083
 Alpha virt. eigenvalues --    0.28597   0.28691   0.28875   0.29203   0.29620
 Alpha virt. eigenvalues --    0.29666   0.30024   0.30241   0.30827   0.30828
 Alpha virt. eigenvalues --    0.31074   0.31203   0.31859   0.32083   0.32149
 Alpha virt. eigenvalues --    0.33073   0.33348   0.33498   0.33816   0.34250
 Alpha virt. eigenvalues --    0.34549   0.34581   0.34865   0.35725   0.35903
 Alpha virt. eigenvalues --    0.36298   0.37043   0.37409   0.37836   0.38414
 Alpha virt. eigenvalues --    0.39164   0.39806   0.40402   0.41176   0.41599
 Alpha virt. eigenvalues --    0.42175   0.42829   0.43428   0.43915   0.44597
 Alpha virt. eigenvalues --    0.45155   0.45591   0.46267   0.46703   0.47337
 Alpha virt. eigenvalues --    0.48117   0.48837   0.49362   0.49670   0.50225
 Alpha virt. eigenvalues --    0.50443   0.51265   0.52226   0.52589   0.52989
 Alpha virt. eigenvalues --    0.53279   0.53521   0.53846   0.54132   0.54237
 Alpha virt. eigenvalues --    0.54582   0.55195   0.55581   0.55764   0.56071
 Alpha virt. eigenvalues --    0.56938   0.57135   0.57327   0.57511   0.57839
 Alpha virt. eigenvalues --    0.58165   0.58693   0.58872   0.59451   0.59617
 Alpha virt. eigenvalues --    0.60248   0.60396   0.60953   0.61387   0.62219
 Alpha virt. eigenvalues --    0.62237   0.62714   0.63041   0.63643   0.64092
 Alpha virt. eigenvalues --    0.64312   0.64679   0.64947   0.65146   0.65814
 Alpha virt. eigenvalues --    0.66250   0.66697   0.67059   0.67074   0.67650
 Alpha virt. eigenvalues --    0.68053   0.68529   0.69066   0.69877   0.70004
 Alpha virt. eigenvalues --    0.70440   0.71146   0.71554   0.71680   0.71867
 Alpha virt. eigenvalues --    0.72108   0.72523   0.72781   0.73087   0.73232
 Alpha virt. eigenvalues --    0.73878   0.74224   0.74306   0.74510   0.74924
 Alpha virt. eigenvalues --    0.75281   0.75480   0.76024   0.76481   0.77161
 Alpha virt. eigenvalues --    0.77449   0.77884   0.78878   0.80154   0.80895
 Alpha virt. eigenvalues --    0.81280   0.82483   0.82804   0.83389   0.83622
 Alpha virt. eigenvalues --    0.84567   0.85241   0.86537   0.87113   0.87584
 Alpha virt. eigenvalues --    0.88173   0.88541   0.89076   0.89412   0.89797
 Alpha virt. eigenvalues --    0.91043   0.91511   0.91923   0.92135   0.92551
 Alpha virt. eigenvalues --    0.92874   0.93086   0.93402   0.93974   0.94400
 Alpha virt. eigenvalues --    0.94728   0.95100   0.95591   0.96131   0.96349
 Alpha virt. eigenvalues --    0.96509   0.96803   0.97203   0.97445   0.98069
 Alpha virt. eigenvalues --    0.98452   0.98665   0.98906   0.99135   1.00120
 Alpha virt. eigenvalues --    1.00811   1.01288   1.01607   1.02072   1.02377
 Alpha virt. eigenvalues --    1.03293   1.03348   1.04671   1.04995   1.06006
 Alpha virt. eigenvalues --    1.06187   1.06302   1.07191   1.07468   1.08631
 Alpha virt. eigenvalues --    1.09136   1.09626   1.10278   1.10474   1.11912
 Alpha virt. eigenvalues --    1.12714   1.13327   1.14047   1.14373   1.15197
 Alpha virt. eigenvalues --    1.15657   1.15926   1.17589   1.18122   1.19762
 Alpha virt. eigenvalues --    1.20358   1.21848   1.22215   1.22912   1.24029
 Alpha virt. eigenvalues --    1.25097   1.28554   1.30026   1.30578   1.30731
 Alpha virt. eigenvalues --    1.32232   1.33658   1.34262   1.35571   1.36129
 Alpha virt. eigenvalues --    1.37261   1.39019   1.39930   1.41542   1.42908
 Alpha virt. eigenvalues --    1.44977   1.45410   1.46735   1.47320   1.47755
 Alpha virt. eigenvalues --    1.48010   1.48628   1.48806   1.48964   1.49446
 Alpha virt. eigenvalues --    1.49961   1.50091   1.50736   1.50857   1.52065
 Alpha virt. eigenvalues --    1.52383   1.53901   1.54707   1.55580   1.55738
 Alpha virt. eigenvalues --    1.56778   1.56983   1.57296   1.57408   1.58549
 Alpha virt. eigenvalues --    1.58864   1.59209   1.59523   1.60829   1.61405
 Alpha virt. eigenvalues --    1.62281   1.63213   1.63894   1.65519   1.66315
 Alpha virt. eigenvalues --    1.67219   1.67821   1.69316   1.69839   1.70699
 Alpha virt. eigenvalues --    1.71495   1.72188   1.72718   1.72781   1.73348
 Alpha virt. eigenvalues --    1.73842   1.74979   1.75499   1.76082   1.76743
 Alpha virt. eigenvalues --    1.78259   1.79164   1.79350   1.80194   1.81266
 Alpha virt. eigenvalues --    1.82141   1.82272   1.82899   1.82932   1.83559
 Alpha virt. eigenvalues --    1.83996   1.84637   1.85637   1.86230   1.86891
 Alpha virt. eigenvalues --    1.87131   1.87687   1.88542   1.89175   1.89292
 Alpha virt. eigenvalues --    1.89672   1.90148   1.91178   1.91372   1.91843
 Alpha virt. eigenvalues --    1.92594   1.93106   1.93530   1.94190   1.95474
 Alpha virt. eigenvalues --    1.95846   1.96208   1.96541   1.96940   1.98306
 Alpha virt. eigenvalues --    1.99119   2.00018   2.00414   2.02204   2.02569
 Alpha virt. eigenvalues --    2.02823   2.03001   2.03913   2.04711   2.05732
 Alpha virt. eigenvalues --    2.06561   2.09019   2.09549   2.09973   2.10481
 Alpha virt. eigenvalues --    2.11387   2.11840   2.12198   2.13576   2.14142
 Alpha virt. eigenvalues --    2.14570   2.15281   2.16234   2.16755   2.19111
 Alpha virt. eigenvalues --    2.19246   2.19708   2.21244   2.22080   2.23161
 Alpha virt. eigenvalues --    2.23982   2.24472   2.25920   2.28317   2.30217
 Alpha virt. eigenvalues --    2.30852   2.30985   2.33685   2.34580   2.34907
 Alpha virt. eigenvalues --    2.36639   2.37589   2.39532   2.40479   2.41530
 Alpha virt. eigenvalues --    2.41823   2.43269   2.43388   2.43814   2.43933
 Alpha virt. eigenvalues --    2.45879   2.46966   2.48503   2.50996   2.51489
 Alpha virt. eigenvalues --    2.54972   2.57048   2.57424   2.57740   2.59531
 Alpha virt. eigenvalues --    2.61226   2.62204   2.62354   2.63985   2.64477
 Alpha virt. eigenvalues --    2.66023   2.66706   2.66979   2.67217   2.68756
 Alpha virt. eigenvalues --    2.69285   2.69832   2.71088   2.71259   2.71626
 Alpha virt. eigenvalues --    2.72127   2.72677   2.73233   2.73778   2.73970
 Alpha virt. eigenvalues --    2.74574   2.75306   2.75637   2.75854   2.76273
 Alpha virt. eigenvalues --    2.76532   2.76795   2.77557   2.78561   2.79816
 Alpha virt. eigenvalues --    2.80407   2.81204   2.81548   2.82340   2.82760
 Alpha virt. eigenvalues --    2.82977   2.83385   2.83763   2.84922   2.85591
 Alpha virt. eigenvalues --    2.85763   2.86866   2.87738   2.88070   2.89660
 Alpha virt. eigenvalues --    2.90350   2.90852   2.91373   2.91994   2.92579
 Alpha virt. eigenvalues --    2.92999   2.93754   2.98521   2.99896   3.01076
 Alpha virt. eigenvalues --    3.02189   3.04313   3.05510   3.07578   3.08299
 Alpha virt. eigenvalues --    3.09403   3.11205   3.13406   3.13624   3.14351
 Alpha virt. eigenvalues --    3.15433   3.18262   3.19287   3.21492   3.21931
 Alpha virt. eigenvalues --    3.24336   3.25600   3.26345   3.29263   3.30543
 Alpha virt. eigenvalues --    3.33024   3.33905   3.34556   3.35341   3.36758
 Alpha virt. eigenvalues --    3.37775   3.38896   3.41002   3.41867   3.43757
 Alpha virt. eigenvalues --    3.45540   3.45992   3.47308   3.47800   3.49177
 Alpha virt. eigenvalues --    3.50898   3.51608   3.52239   3.54727   3.56405
 Alpha virt. eigenvalues --    3.57163   3.60702   3.61904   3.63200   3.65279
 Alpha virt. eigenvalues --    3.69371   3.70102   3.78260   3.80818   3.82948
 Alpha virt. eigenvalues --    3.86114   3.90545   3.93560   4.02987   4.05499
 Alpha virt. eigenvalues --    4.07074   4.07433   4.08520   4.10281   4.10486
 Alpha virt. eigenvalues --    4.14442   4.22018   4.25237   4.30266   4.34941
 Alpha virt. eigenvalues --    4.41905   4.61355   4.71725   4.73763   4.74757
 Alpha virt. eigenvalues --    4.77275   4.78393   4.78946   4.80864   4.86826
 Alpha virt. eigenvalues --   23.38682  23.54401  23.64575  23.72595  23.77059
 Alpha virt. eigenvalues --   23.80328  23.82475  23.84687  23.86719  23.87999
 Alpha virt. eigenvalues --   23.88835  23.90754  23.91627  23.93778  23.97957
 Alpha virt. eigenvalues --   23.99073  23.99653  23.99999  24.04832  24.05061
 Alpha virt. eigenvalues --   24.07755  24.09349  24.12075  24.12836  24.15513
 Alpha virt. eigenvalues --   24.15877  24.16483  24.20233  24.22097  24.27253
  Beta  occ. eigenvalues --  -10.22854 -10.21461 -10.21302 -10.20772 -10.20527
  Beta  occ. eigenvalues --  -10.20054 -10.19718 -10.19595 -10.19516 -10.19476
  Beta  occ. eigenvalues --  -10.19411 -10.19329 -10.19196 -10.19175 -10.19166
  Beta  occ. eigenvalues --  -10.19123 -10.19113 -10.19010 -10.18950 -10.18882
  Beta  occ. eigenvalues --  -10.18794 -10.18663 -10.18326 -10.18303 -10.18025
  Beta  occ. eigenvalues --  -10.18016 -10.17913 -10.17671 -10.17564 -10.17040
  Beta  occ. eigenvalues --   -0.91855  -0.88829  -0.87127  -0.85432  -0.84093
  Beta  occ. eigenvalues --   -0.82204  -0.81079  -0.79204  -0.78361  -0.76066
  Beta  occ. eigenvalues --   -0.74436  -0.73935  -0.73093  -0.71985  -0.71354
  Beta  occ. eigenvalues --   -0.66250  -0.65110  -0.63140  -0.62726  -0.61857
  Beta  occ. eigenvalues --   -0.60376  -0.59479  -0.58480  -0.56649  -0.53639
  Beta  occ. eigenvalues --   -0.53254  -0.52171  -0.51161  -0.50402  -0.50031
  Beta  occ. eigenvalues --   -0.48812  -0.47390  -0.47015  -0.45858  -0.44854
  Beta  occ. eigenvalues --   -0.44267  -0.43879  -0.43536  -0.43415  -0.43064
  Beta  occ. eigenvalues --   -0.42345  -0.41744  -0.41068  -0.40678  -0.40513
  Beta  occ. eigenvalues --   -0.39962  -0.39798  -0.38590  -0.37405  -0.36774
  Beta  occ. eigenvalues --   -0.36353  -0.36333  -0.35662  -0.34856  -0.34096
  Beta  occ. eigenvalues --   -0.33841  -0.33211  -0.32650  -0.31743  -0.29469
  Beta  occ. eigenvalues --   -0.29237  -0.27199  -0.24847  -0.24012  -0.23461
  Beta  occ. eigenvalues --   -0.22020  -0.20936
  Beta virt. eigenvalues --   -0.09455  -0.08327  -0.05603  -0.04973  -0.03712
  Beta virt. eigenvalues --   -0.01756  -0.01005  -0.00083   0.00342   0.00495
  Beta virt. eigenvalues --    0.00925   0.01417   0.01462   0.01567   0.02696
  Beta virt. eigenvalues --    0.02761   0.02946   0.03188   0.04208   0.04371
  Beta virt. eigenvalues --    0.04501   0.04747   0.04908   0.05161   0.05448
  Beta virt. eigenvalues --    0.06034   0.06559   0.06629   0.07032   0.07785
  Beta virt. eigenvalues --    0.07987   0.08237   0.08331   0.08654   0.08930
  Beta virt. eigenvalues --    0.09001   0.09429   0.10153   0.10486   0.10727
  Beta virt. eigenvalues --    0.11083   0.11302   0.11703   0.11870   0.12153
  Beta virt. eigenvalues --    0.12279   0.12696   0.13355   0.13508   0.13639
  Beta virt. eigenvalues --    0.14112   0.14294   0.14643   0.15089   0.15358
  Beta virt. eigenvalues --    0.15615   0.15824   0.16146   0.16229   0.16479
  Beta virt. eigenvalues --    0.16519   0.16635   0.16789   0.17190   0.17417
  Beta virt. eigenvalues --    0.17662   0.18077   0.18143   0.18523   0.18740
  Beta virt. eigenvalues --    0.18916   0.19187   0.19305   0.19394   0.19586
  Beta virt. eigenvalues --    0.19806   0.19893   0.20081   0.20586   0.20881
  Beta virt. eigenvalues --    0.20989   0.21210   0.21555   0.21746   0.21900
  Beta virt. eigenvalues --    0.22185   0.22314   0.22603   0.22791   0.23011
  Beta virt. eigenvalues --    0.23207   0.23341   0.23786   0.23969   0.24069
  Beta virt. eigenvalues --    0.24316   0.24473   0.24682   0.24939   0.25388
  Beta virt. eigenvalues --    0.25509   0.25559   0.25912   0.26291   0.26612
  Beta virt. eigenvalues --    0.26967   0.27145   0.27338   0.27443   0.27634
  Beta virt. eigenvalues --    0.28131   0.28640   0.28735   0.28923   0.29241
  Beta virt. eigenvalues --    0.29640   0.29789   0.30052   0.30312   0.30843
  Beta virt. eigenvalues --    0.30864   0.31118   0.31257   0.31871   0.32176
  Beta virt. eigenvalues --    0.32206   0.33152   0.33491   0.33537   0.34032
  Beta virt. eigenvalues --    0.34386   0.34616   0.34713   0.34947   0.35779
  Beta virt. eigenvalues --    0.35952   0.36385   0.37225   0.37547   0.37935
  Beta virt. eigenvalues --    0.38565   0.39193   0.39814   0.40487   0.41269
  Beta virt. eigenvalues --    0.41774   0.42205   0.42915   0.43505   0.44013
  Beta virt. eigenvalues --    0.44652   0.45215   0.45622   0.46346   0.46739
  Beta virt. eigenvalues --    0.47382   0.48169   0.48904   0.49765   0.49962
  Beta virt. eigenvalues --    0.50388   0.50554   0.51379   0.52341   0.52601
  Beta virt. eigenvalues --    0.53025   0.53303   0.53601   0.53930   0.54231
  Beta virt. eigenvalues --    0.54332   0.54955   0.55384   0.55605   0.55897
  Beta virt. eigenvalues --    0.56115   0.56973   0.57189   0.57372   0.57612
  Beta virt. eigenvalues --    0.58188   0.58273   0.58829   0.59268   0.59530
  Beta virt. eigenvalues --    0.59699   0.60299   0.60439   0.60970   0.61444
  Beta virt. eigenvalues --    0.62244   0.62310   0.62748   0.63243   0.63729
  Beta virt. eigenvalues --    0.64126   0.64339   0.64830   0.65017   0.65221
  Beta virt. eigenvalues --    0.65981   0.66286   0.66765   0.67189   0.67373
  Beta virt. eigenvalues --    0.67779   0.68156   0.68553   0.69288   0.70030
  Beta virt. eigenvalues --    0.70340   0.70531   0.71272   0.71632   0.71746
  Beta virt. eigenvalues --    0.71985   0.72153   0.72753   0.72949   0.73155
  Beta virt. eigenvalues --    0.73305   0.73982   0.74335   0.74341   0.74613
[...]
 77,0.00001697,-0.00002595,-0.00000890,-0.00000152,0.00000148,0.0000095
 2,-0.00021595,0.00009552,-0.00020089,0.00001212,0.00004392,0.00001423,
 -0.00002029,0.00002270,0.00002873,0.00048672,0.00087628,0.00012970,0.0
 0015323,0.00021547,0.00010636,-0.00000756,-0.00009031,-0.00002676,0.00
 003508,0.00003405,0.00001881,-0.00019691,0.00344664,-0.00273371,0.0073
 1272,0.01564012,0.00599146,-0.00001140,0.00122277,0.00238318,0.0001221
 6,-0.00040907,-0.00000761,-0.06860919,-0.05723717,-0.03234129,-0.00083
 929,-0.02443323,-0.00783314,-0.00140945,0.00065133,-0.00616740,-0.0015
 0905,0.00048829,-0.00020015,-0.00000808,-0.00000066,-0.00000998,-0.000
 00348,-0.00000321,-0.00000146,-0.00000196,-0.00000053,-0.00000061,-0.0
 0000038,-0.00000128,-0.00000040,-0.00000038,-0.00000116,-0.00000059,0.
 00000095,-0.00000077,-0.00000072,0.00000286,0.00000919,-0.00000454,-0.
 00000110,-0.00000441,-0.00000252,-0.00001079,0.00001188,-0.00000458,0.
 00003676,0.00001402,-0.00010222,-0.00016581,-0.00025695,-0.00031137,0.
 06586128,-0.00001081,0.00000333,0.00000540,0.00005254,0.00000122,-0.00
 000752,-0.00001743,0.00000912,-0.00000537,-0.00001296,0.00001504,0.000
 01168,0.00000661,-0.00002040,-0.00000318,-0.00000921,0.00001287,0.0000
 0290,-0.00000614,-0.00001449,-0.00000187,-0.00001147,0.00001299,0.0000
 0639,0.00001368,-0.00001049,-0.00000849,-0.00000418,-0.00000667,0.0000
 0306,0.00000422,0.00002691,0.00000317,-0.00002121,0.00000063,0.0000056
 8,0.00001962,0.00000655,0.00000362,0.00001483,-0.00001348,-0.00000840,
 -0.00000758,-0.00001387,0.00000691,0.00034949,-0.00016505,0.00007467,-
 0.00009411,-0.00011527,0.00000316,0.00004533,0.00000601,-0.00000902,-0
 .00097752,-0.00067808,-0.00052559,-0.00008322,0.00017866,0.00006801,0.
 00002345,0.00003540,-0.00000137,0.00006168,0.00000532,0.00001004,0.004
 16380,-0.00095786,0.00126203,-0.00718266,-0.01950940,-0.00905806,-0.00
 232806,0.00081573,-0.00032469,0.00037358,0.00011115,0.00017840,-0.0573
 1517,-0.28470141,-0.08739606,0.00117471,-0.00008751,0.00011850,-0.0000
 1585,0.00197303,-0.00108232,0.00026633,0.00032141,0.00045853,-0.000011
 09,0.00000222,-0.00000716,-0.00000585,-0.00000291,-0.00000073,-0.00000
 427,-0.00000063,-0.00000052,-0.00000267,-0.00000380,-0.00000008,-0.000
 00270,-0.00000407,-0.00000087,0.00000311,-0.00000306,-0.00000082,0.000
 00178,-0.00001514,-0.00000436,0.00000287,-0.00000396,0.00000592,0.0000
 2918,-0.00001341,-0.00000050,0.00005432,-0.00002850,-0.00002578,0.0010
 0817,0.00045005,0.00051851,0.06123622,0.30200110,0.00000567,0.00003592
 ,0.00000442,0.00001609,-0.00000716,-0.00000755,0.00000071,-0.00000736,
 -0.00001680,-0.00000255,-0.00001113,-0.00001824,0.00000102,0.00001008,
 -0.00000389,0.00000474,-0.00001190,-0.00000060,0.00000414,0.00001028,0
 .00000248,0.00000861,-0.00000244,-0.00000455,-0.00000257,-0.00001624,0
 .00000510,-0.00001040,-0.00000686,0.00000214,0.00000359,0.00001077,0.0
 0000266,-0.00001133,0.00000149,-0.00000115,0.00000039,-0.00000895,0.00
 000144,-0.00001913,-0.00000700,0.00000633,0.00000815,0.00002243,-0.000
 00379,-0.00012084,0.00006817,0.00015563,0.00001354,0.00001304,-0.00001
 940,-0.00000415,0.00002315,-0.00002383,-0.00001764,0.00029842,0.000160
 74,0.00010679,0.00012542,0.00004546,-0.00001910,-0.00005593,0.00001122
 ,0.00002329,0.00002162,-0.00000278,-0.00366772,-0.00034038,0.00285799,
 0.00053972,0.00858889,0.00489739,0.00130667,0.00118565,-0.00211045,0.0
 0017690,-0.00020382,-0.00007016,-0.03012304,-0.08730790,-0.07196658,-0
 .00454044,-0.01802501,-0.00264174,-0.00643393,0.00018840,0.00356318,0.
 00102997,0.00013501,-0.00015169,0.00001008,0.00000193,-0.00000094,-0.0
 0000103,-0.00000034,0.00000136,-0.00000185,0.00000019,0.00000116,-0.00
 000068,-0.00000248,-0.00000016,-0.00000084,-0.00000240,0.00000036,0.00
 000179,-0.00000200,0.00000040,0.00000231,0.00000115,0.00000979,0.00000
 089,-0.00000429,-0.00000146,0.00000110,0.00000222,0.00000729,-0.000020
 00,-0.00005964,0.00013371,-0.00005256,-0.00024009,0.00018235,0.0388416
 1,0.09519456,0.06860811,0.00000682,0.00000374,0.00001753,-0.00000426,0
 .00006098,-0.00004273,-0.00000005,0.00000882,-0.00000125,0.00000333,0.
 00000071,-0.00000264,-0.00000595,0.00000546,0.00000345,0.00000813,0.00
 000353,0.00000505,0.00000040,-0.00000065,0.00000003,-0.00000231,-0.000
 00495,-0.00000127,-0.00000181,0.00001670,0.00000372,0.00001074,0.00000
 917,0.00000269,-0.00000351,-0.00001944,-0.00000104,0.00001665,-0.00000
 199,-0.00000244,0.00000082,-0.00000049,-0.00001103,0.00001163,-0.00000
 324,0.00000036,-0.00001589,-0.00000454,-0.00001198,0.00005576,-0.00000
 470,0.00006342,0.00000781,0.00006762,0.00001452,-0.00000372,-0.0000218
 9,0.00000160,-0.00002181,-0.00020746,0.00053068,-0.00006587,-0.0002856
 3,-0.00020947,0.00002348,0.00005729,-0.00001556,-0.00002773,-0.0000379
 2,-0.00000650,-0.00039743,-0.00030062,0.00014328,-0.00050733,-0.001705
 93,-0.00635672,0.00016278,0.00107887,0.00001039,-0.00060982,0.00001675
 ,0.00013280,-0.01054936,0.02125581,-0.00525495,-0.14589902,0.12759034,
 -0.04792569,0.00707349,-0.00652385,0.00152362,0.00252170,-0.00107829,-
 0.00269477,-0.00000474,-0.00000454,0.00001421,0.00000186,-0.00000081,0
 .00000116,0.00000300,-0.00000063,-0.00000011,0.00000146,0.00000360,-0.
 00000006,0.00000174,0.00000360,-0.00000020,-0.00000295,0.00000280,0.00
 000008,-0.00000240,0.00000196,-0.00000241,0.00000093,0.00001007,-0.000
 00708,-0.00000150,-0.00000782,0.00000075,-0.00011272,0.00009185,0.0000
 3697,0.00001610,-0.00001825,-0.00009241,-0.00072770,-0.00076420,0.0025
 4901,0.14954032,-0.00000242,-0.00003532,-0.00000012,0.00000141,-0.0000
 2060,0.00001979,0.00001932,0.00005526,0.00001878,0.00001946,0.00002937
 ,0.00002687,-0.00002008,-0.00003688,-0.00000704,-0.00001556,0.00001150
 ,0.00000802,-0.00000473,-0.00001379,-0.00000019,-0.00001649,0.00001094
 ,0.00000251,0.00002605,0.00000494,-0.00000905,-0.00000022,-0.00002046,
 -0.00000076,0.00000458,0.00002331,0.00000122,-0.00001674,-0.00000940,0
 .00000258,0.00009724,0.00007102,-0.00003789,0.00003143,-0.00005690,-0.
 00003532,-0.00004024,-0.00001148,-0.00000887,0.00000894,0.00006747,0.0
 0002807,-0.00001262,-0.00000753,0.00001271,0.00001482,0.00000203,-0.00
 000190,0.00006112,-0.00010535,0.00025620,-0.00006018,-0.00015395,-0.00
 009124,-0.00000848,0.00004698,-0.00001016,-0.00001071,-0.00003638,-0.0
 0000430,-0.00077698,0.00017374,-0.00039893,-0.00081608,0.00141289,-0.0
 0204427,0.00007513,0.00008015,-0.00003770,-0.00008510,0.00016666,0.000
 12463,-0.00407623,0.00676096,-0.00217473,0.12829675,-0.22486961,0.0467
 8178,0.01808917,-0.01651800,0.00867826,-0.00167415,-0.00352621,-0.0038
 2300,-0.00002191,-0.00000428,0.00003210,-0.00001057,-0.00001080,0.0000
 0598,-0.00000547,-0.00000312,0.00000147,-0.00000258,-0.00000394,0.0000
 0058,-0.00000160,-0.00000401,0.00000028,0.00000235,-0.00000401,-0.0000
 0081,0.00000338,-0.00000490,-0.00000150,0.00000469,-0.00000449,-0.0000
 0311,0.00000954,-0.00000161,-0.00000015,-0.00002283,0.00000861,0.00001
 370,0.00001476,0.00000825,-0.00001709,-0.00019343,0.00062593,0.0010221
 5,-0.13895972,0.23594528,-0.00003281,-0.00000862,-0.00002709,-0.000033
 22,-0.00009820,0.00005863,0.00002411,0.00006006,0.00002892,0.00000375,
 -0.00000146,-0.00000549,-0.00003047,-0.00002190,0.00000123,0.00000687,
 -0.00002714,-0.00000073,0.00000251,0.00001182,-0.00000247,0.00000969,-
 0.00000730,-0.00000143,-0.00002506,0.00003189,0.00000365,0.00006987,0.
 00002610,-0.00000018,-0.00001769,-0.00003446,-0.00000458,0.00003851,0.
 00000467,-0.00000387,0.00001655,-0.00000518,-0.00000787,-0.00004684,0.
 00001937,0.00001481,0.00002714,0.00002310,0.00000433,-0.00010386,0.000
 00499,-0.00007202,0.00004952,0.00004546,0.00001117,-0.00003925,-0.0000
 6423,-0.00002021,0.00045435,0.00021443,-0.00049693,-0.00001199,-0.0001
 2060,0.00006016,-0.00001293,0.00005432,0.00006046,-0.00004953,-0.00001
 746,-0.00002033,-0.00018156,-0.00048229,-0.00096694,-0.00600150,-0.002
 13232,0.00389461,-0.00035545,0.00094151,0.00019151,-0.00011594,0.00003
 807,-0.00052527,-0.01007367,0.01572064,-0.00011504,-0.04843534,0.04662
 226,-0.06029019,0.00742176,-0.00932759,0.00605330,-0.00290485,-0.00323
 682,0.00279661,0.00002355,0.00001149,-0.00001457,0.00000254,0.00000324
 ,0.00000108,-0.00000006,0.00000077,-0.00000046,0.00000044,-0.00000101,
 0.00000032,0.00000137,-0.00000141,0.00000056,-0.00000016,0.00000030,-0
 .00000064,-0.00000154,0.00000185,0.00000587,-0.00000231,0.00000043,0.0
 0000922,0.00000412,0.00000027,0.00000022,-0.00005820,0.00006795,-0.000
 00954,-0.00003750,-0.00005723,0.00007279,0.00261634,0.00049032,-0.0028
 2041,0.05578726,-0.04925247,0.05346576,0.00001816,0.00000598,0.0000044
 9,-0.00002738,-0.00012661,0.00004866,0.00003491,0.00008877,0.00004413,
 0.00000423,0.00001208,0.00000480,-0.00002815,-0.00002102,0.00000596,0.
 00001451,-0.00000226,0.00001334,0.00000148,0.00000419,0.00000233,0.000
 00459,-0.00000284,0.00000178,-0.00001556,0.00006592,0.00000407,0.00007
 453,0.00002125,-0.00000945,-0.00003100,-0.00005151,-0.00000206,0.00006
 332,-0.00001503,-0.00000552,-0.00002904,-0.00006377,-0.00003841,0.0000
 2975,0.00002573,0.00001144,-0.00000217,-0.00000985,-0.00001719,-0.0000
 1320,-0.00006117,-0.00009784,0.00005239,0.00010856,0.00002098,-0.00006
 970,-0.00008567,0.00000018,0.00004245,-0.00082722,-0.00040042,-0.00044
 330,-0.00004764,0.00010459,-0.00008956,0.00000685,0.00003325,-0.000103
 86,-0.00005059,-0.00003014,0.00193351,0.00409581,-0.00399008,-0.000392
 48,0.00034025,0.00047658,0.00018687,-0.00022826,0.00063140,-0.00001972
 ,0.00052353,-0.00003246,0.00332828,-0.00049683,-0.00216800,-0.00112932
 ,0.00062313,-0.00303318,-0.21288691,-0.02290928,-0.14377187,-0.0091340
 5,-0.00455525,-0.01120260,-0.00000601,-0.00000830,0.00001740,0.0000031
 4,0.00000217,-0.00000020,0.00000306,0.00000058,-0.00000354,0.00000159,
 0.00000463,-0.00000175,0.00000264,0.00000488,-0.00000137,-0.00000439,0
 .00000361,-0.00000286,-0.00000419,0.00000595,0.00000196,-0.00000006,0.
 00001201,-0.00000896,-0.00003617,0.00002503,0.00000976,-0.00001073,0.0
 0001008,-0.00003588,0.00000191,-0.00000795,-0.00002187,-0.00004836,0.0
 0013786,-0.00015292,-0.00069251,-0.00078068,0.00172665,0.22062459,0.00
 006512,-0.00005998,-0.00000595,0.00004919,-0.00002584,-0.00000012,-0.0
 0001183,0.00000680,0.00000794,-0.00001863,-0.00004020,0.00001263,0.000
 00741,-0.00002124,-0.00001421,-0.00001238,0.00003119,0.00000906,-0.000
 01891,-0.00004305,-0.00000897,-0.00002820,0.00002129,0.00000921,0.0000
 3451,-0.00000648,-0.00000597,-0.00002517,-0.00002010,-0.00000429,0.000
 00601,0.00002533,0.00000370,-0.00002340,-0.00001357,-0.00000041,-0.000
 00926,0.00008709,-0.00003594,-0.00000900,0.00005095,0.00000259,-0.0000
 2880,-0.00005952,-0.00000803,0.00001016,0.00002527,-0.00005930,-0.0000
 5714,-0.00002980,0.00000601,0.00001879,0.00002582,0.00000564,0.0006949
 6,0.00074933,0.00055072,0.00017198,-0.00022953,0.00016435,0.00010324,0
 .00002183,-0.00000088,0.00004940,0.00003858,0.00001039,0.00319891,-0.0
 0352390,-0.00010721,0.00038746,-0.00093913,0.00012503,-0.00028299,0.00
 015999,0.00009360,0.00001856,-0.00014822,-0.00003303,0.00010600,-0.004
 84173,-0.00253649,-0.02285863,0.00091364,-0.01838532,-0.02453780,-0.06
 181211,-0.02637587,0.02029420,0.00623804,0.01674677,-0.00000053,0.0000
 0063,0.00000455,0.00000286,0.00000303,0.00000170,0.00000286,0.00000072
 ,0.00000178,-0.00000060,0.00000254,0.00000227,-0.00000091,0.00000276,0
 .00000173,-0.00000144,0.00000013,0.00000140,-0.00000130,-0.00000310,-0
 .00000257,-0.00000084,-0.00000281,0.00000230,0.00003035,-0.00002514,-0
 .00000118,0.00000088,0.00001508,-0.00001186,0.00007421,0.00003141,0.00
 003881,-0.00122581,-0.00017091,-0.00071060,0.00000797,0.00082503,0.000
 97739,0.02470135,0.06194511,-0.00016296,0.00013491,-0.00005647,0.00001
 571,0.00022887,-0.00005092,-0.00002173,-0.00018679,-0.00006922,0.00003
 086,0.00001489,-0.00003975,0.00003919,0.00008365,0.00001670,0.00001516
 ,-0.00010617,-0.00005813,0.00004211,0.00011253,0.00001181,0.00008070,-
 0.00006695,-0.00003008,-0.00008919,-0.00006468,0.00001908,-0.00003869,
 0.00003851,0.00002232,0.00001358,-0.00003405,-0.00000598,0.00000981,0.
 00004356,-0.00000042,-0.00003951,-0.00010664,0.00017797,-0.00007198,-0
 .00010371,0.00004482,0.00011063,0.00018911,0.00007446,-0.00009728,-0.0
 0013899,0.00010267,-0.00003891,-0.00002975,-0.00006453,0.00004548,0.00
 003533,0.00000120,-0.00075213,0.00006157,-0.00007870,0.00033744,0.0005
 2995,-0.00024386,0.00007848,-0.00004690,-0.00002760,-0.00000803,0.0000
 7554,0.00002632,-0.00250848,0.00002549,0.00596232,0.00118675,-0.000051
 62,-0.00000360,-0.00014121,0.00023243,-0.00076916,0.00004298,-0.000501
 55,0.00005403,-0.00209679,-0.00324384,0.00318615,-0.00863573,0.0013806
 0,-0.00334190,-0.14365582,-0.02728125,-0.15579263,-0.00666928,-0.00131
 998,-0.00174868,0.00003661,0.00000703,-0.00011917,0.00000294,0.0000021
 5,-0.00000684,-0.00000210,0.00000111,0.00000134,0.00000378,-0.00000463
 ,-0.00000149,0.00000208,-0.00000439,-0.00000132,0.00000296,0.00000106,
 0.00000078,0.00000226,0.00000136,0.00000038,0.00000129,0.00000211,0.00
 000851,-0.00000625,0.00000124,-0.00000403,-0.00002320,-0.00001176,0.00
 003606,0.00000134,-0.00001340,0.00002993,-0.00065486,-0.00000003,-0.00
 018853,0.00179955,0.00047958,-0.00154450,0.15920107,0.02883759,0.15690
 420,0.00028543,-0.00073017,0.00064862,0.00072915,0.00032414,-0.0002129
 8,0.00002074,0.00024137,0.00005737,-0.00016671,-0.00013063,0.00012785,
 0.00005434,-0.00000944,-0.00006171,-0.00008883,0.00010927,0.00002930,-
 0.00005083,-0.00009696,-0.00000336,-0.00005406,0.00006974,0.00001710,0
 .00007378,-0.00003756,-0.00000678,0.00000720,-0.00004892,0.00003723,0.
 00001565,0.00009702,0.00001240,-0.00007125,-0.00003493,0.00000567,-0.0
 0090452,-0.00029058,0.00105246,0.00019822,0.00013854,0.00007592,-0.000
 08259,-0.00021650,-0.00005665,-0.00023059,0.00016521,-0.00013698,-0.00
 036296,0.00022112,0.00011581,0.00007094,0.00000315,-0.00003620,0.00034
 572,-0.00127784,0.00191291,-0.00046051,-0.00018049,-0.00001957,0.00014
 791,-0.00014937,-0.00012105,0.00010155,0.00006836,0.00007465,-0.002352
 51,-0.02219507,-0.01006594,-0.00193355,0.00117860,-0.00511296,0.000196
 41,-0.00117537,-0.00013907,-0.00001962,0.00008717,0.00008367,-0.000619
 59,0.00000085,0.00022980,0.00081949,0.00346123,-0.00461600,0.00754447,
 0.01812161,0.00708902,-0.06089079,-0.04874301,-0.03460159,0.00001189,0
 .00000058,0.00001665,0.00000193,0.00000801,-0.00000570,0.00000171,0.00
 000269,0.00000024,-0.00000529,0.00000123,0.00000365,-0.00000797,0.0000
 0371,0.00000054,-0.00000200,-0.00000446,0.00000010,0.00000096,-0.00001
 117,-0.00001930,0.00001792,0.00000972,-0.00000244,0.00000706,-0.000001
 47,-0.00000646,-0.00001145,0.00004313,-0.00001357,-0.00029756,-0.00007
 747,-0.00020492,-0.00024448,-0.00015504,0.00054594,0.00019140,0.000855
 66,0.00028483,-0.00120809,-0.00088281,0.00261133,0.05922190,-0.0011348
 6,-0.00187809,0.00249725,-0.00001542,-0.00176587,0.00140562,-0.0000097
 0,-0.00026471,0.00010710,0.00034391,0.00033091,0.00039114,-0.00006086,
 -0.00021637,-0.00011430,-0.00016992,0.00013780,0.00003655,0.00003717,-
 0.00008658,-0.00003991,-0.00009788,-0.00000709,0.00003793,0.00006523,0
 .00011204,-0.00005033,-0.00001119,-0.00002132,-0.00006591,-0.00001524,
 -0.00008954,-0.00000323,0.00006262,0.00000242,0.00000445,-0.00053606,-
 0.00038733,0.00061099,0.00046912,0.00006187,-0.00002361,-0.00003953,-0
 .00024193,-0.00005696,0.00082158,0.00019128,0.00085725,-0.00003072,0.0
 0024494,-0.00006888,-0.00009292,-0.00001131,0.00005492,0.00013637,-0.0
 0090716,0.00087438,-0.00022951,-0.00011548,-0.00018604,-0.00004163,-0.
 00001793,0.00000353,0.00000604,-0.00001903,-0.00001776,-0.00058496,0.0
 0115000,-0.00072613,0.00071214,0.00180615,-0.00082794,0.00030379,-0.00
 008292,0.00001474,-0.00003994,0.00019182,0.00001314,0.00038589,0.00034
 729,0.00061099,0.00408519,-0.00155291,0.00100036,-0.00640340,-0.018072
 55,-0.01068754,-0.04815091,-0.28266229,-0.10958946,0.00000428,0.000001
 80,-0.00000217,-0.00000009,-0.00000447,-0.00001359,0.00000062,-0.00000
 242,-0.00001094,0.00000536,0.00000296,0.00000233,0.00000578,0.00000263
 ,0.00000194,-0.00000343,0.00000655,-0.00000801,-0.00000442,0.00000210,
 0.00001772,-0.00000357,0.00000896,-0.00000993,-0.00001497,0.00000495,-
 0.00000107,-0.00001756,0.00000173,0.00000416,-0.00003366,0.00000165,0.
 00007511,-0.00012130,-0.00007430,0.00007295,-0.00034007,-0.00086729,-0
 .00047507,-0.00047849,0.00079476,0.00079691,0.05123713,0.30394426,0.00
 049391,0.00086382,-0.00095881,-0.00054303,0.00077457,-0.00015125,0.000
 32138,0.00042879,0.00022709,0.00015779,0.00036339,0.00018092,-0.000231
 83,-0.00033573,-0.00008365,-0.00008327,-0.00008079,0.00000206,-0.00000
 297,0.00002840,-0.00000347,-0.00001967,-0.00002212,0.00000944,-0.00003
 852,0.00022351,0.00000015,0.00032615,0.00004188,0.00000932,-0.00005879
 ,-0.00014315,-0.00003535,0.00016591,0.00000576,-0.00001612,0.00098600,
 0.00005085,-0.00082511,-0.00008026,-0.00007651,-0.00010125,-0.00004301
 ,0.00005956,0.00003062,-0.00096578,-0.00011117,-0.00078320,0.00002858,
 0.00023139,0.00012757,-0.00007809,-0.00032359,-0.00009556,0.00129388,0
 .00090029,-0.00140629,0.00042432,0.00007022,0.00017377,0.00003479,0.00
 014419,0.00014749,-0.00016399,-0.00003835,-0.00006119,-0.00122716,-0.0
 1825967,-0.00268350,-0.00520440,0.00003861,0.00172333,0.00010631,-0.00
 120768,-0.00002218,-0.00001259,-0.00008279,-0.00017131,-0.00037520,0.0
 0085064,-0.00098306,-0.00401874,0.00075945,0.00484177,0.00085259,0.008
 27781,0.00708064,-0.03511333,-0.10798886,-0.09469042,-0.00005034,0.000
 01010,0.00000336,-0.00002047,-0.00002086,0.00001839,-0.00001851,-0.000
 01028,-0.00000277,-0.00000664,-0.00001564,0.00000033,0.00000460,-0.000
 02146,0.00000231,0.00000579,-0.00001249,-0.00000676,0.00000592,-0.0000
 0616,0.00000815,0.00001894,0.00000438,0.00001459,0.00000446,0.00000881
 ,0.00000468,-0.00002038,0.00002873,0.00000865,-0.00036099,-0.00007079,
 -0.00010104,0.00043451,0.00004131,-0.00060597,-0.00000182,0.00044332,0
 .00021552,0.00266375,0.00069106,-0.00243355,0.04041019,0.11348726,0.09
 139167\\-0.00000078,-0.00000071,0.00000100,0.00000016,-0.00000022,-0.0
 0000143,-0.00000043,0.00000008,0.00000299,0.00000077,0.00000026,0.0000
 0082,-0.00000028,-0.00000030,0.00000042,-0.00000027,-0.00000020,-0.000
 00102,-0.00000017,0.00000066,0.00000039,0.00000041,-0.00000050,0.00000
 133,0.00000015,-0.00000035,0.00000317,0.00000056,-0.00000053,0.0000031
 8,0.00000064,-0.00000034,0.00000440,0.00000041,-0.00000047,0.00000417,
 0.00000010,0.00000084,-0.00000157,-0.00000069,0.00000019,-0.00000260,-
 0.00000039,0.00000099,-0.00000119,0.00000039,0.00000010,0.00000175,0.0
 0000031,0.00000107,0.00000211,0.00000041,-0.00000076,0.00000305,-0.000
 00114,0.00000122,0.00000083,0.00000012,-0.00000047,-0.00000061,-0.0000
 0043,0.00000240,0.00000186,-0.00000040,-0.00000124,0.00000206,0.000001
 72,-0.00000256,-0.00000271,-0.00000270,0.00000125,-0.00000303,0.000000
 62,0.00000034,-0.00000117,-0.00000104,0.00000260,-0.00000098,0.0000001
 3,-0.00000070,-0.00000273,0.00000017,-0.00000150,-0.00000771,-0.000001
 06,0.00000083,-0.00000301,0.00000319,-0.00000023,-0.00000174,-0.000000
 79,0.00000119,-0.00000366,-0.00000056,0.00000080,-0.00000233,-0.000000
 22,0.00000027,0.00000030,0.00000022,-0.00000019,0.00000285,0.00000051,
 -0.00000065,0.00000481,0.00000069,-0.00000068,0.00000516,0.00000030,-0
 .00000019,0.00000433,0.00000014,0.00000053,0.00000369,-0.00000041,0.00
 000090,0.00000171,-0.00000076,0.00000084,-0.00000042,-0.00000082,0.000
 00130,-0.00000381,-0.00000007,-0.00000026,-0.00000497,-0.00000011,-0.0
 0000130,-0.00000503,0.00000127,-0.00000238,-0.00000293,0.00000012,-0.0
 0000193,-0.00000173\\\@


 SEE YOU NOW,
 YOUR BAIT OF FALSEHOOD TAKES THIS CARP OF TRUTH.
 AND THUS DO WE OF WISDOM AND OF REACH...
 BY INDIRECTIONS FIND DIRECTIONS OUT.    -- HAMLET, II, 1
 Job cpu time:       1 days 22 hours 32 minutes 21.1 seconds.
 Elapsed time:       0 days  2 hours 19 minutes 59.5 seconds.
 File lengths (MBytes):  RWF=   4319 Int=      0 D2E=      0 Chk=     75 Scr=      1
 Normal termination of Gaussian 16 at Sat Jun 29 23:30:20 2019.
