 Entering Gaussian System, Link 0=/share/apps/gaussian16/g16/g16
 Initial command:
 /share/apps/gaussian16/g16/l1.exe "/home/amen01//scratch/652/Gau-3270.inp" -scrdir="/home/amen01//scratch/652/"
 Entering Link 1 = /share/apps/gaussian16/g16/l1.exe PID=      3271.
  
 Copyright (c) 1988-2017, Gaussian, Inc.  All Rights Reserved.
  
 This is part of the Gaussian(R) 16 program.  It is based on
 the Gaussian(R) 09 system (copyright 2009, Gaussian, Inc.),
 the Gaussian(R) 03 system (copyright 2003, Gaussian, Inc.),
 the Gaussian(R) 98 system (copyright 1998, Gaussian, Inc.),
 the Gaussian(R) 94 system (copyright 1995, Gaussian, Inc.),
 the Gaussian 92(TM) system (copyright 1992, Gaussian, Inc.),
 the Gaussian 90(TM) system (copyright 1990, Gaussian, Inc.),
 the Gaussian 88(TM) system (copyright 1988, Gaussian, Inc.),
 the Gaussian 86(TM) system (copyright 1986, Carnegie Mellon
 University), and the Gaussian 82(TM) system (copyright 1983,
 Carnegie Mellon University). Gaussian is a federally registered
 trademark of Gaussian, Inc.
  
 This software contains proprietary and confidential information,
 including trade secrets, belonging to Gaussian, Inc.
  
 This software is provided under written license and may be
 used, copied, transmitted, or stored only in accord with that
 written license.
  
 The following legend is applicable only to US Government
 contracts under FAR:
  
                    RESTRICTED RIGHTS LEGEND
  
 Use, reproduction and disclosure by the US Government is
 subject to restrictions as set forth in subparagraphs (a)
 and (c) of the Commercial Computer Software - Restricted
 Rights clause in FAR 52.227-19.
  
 Gaussian, Inc.
 340 Quinnipiac St., Bldg. 40, Wallingford CT 06492
  
  
 ---------------------------------------------------------------
 Warning -- This program may not be used in any manner that
 competes with the business of Gaussian, Inc. or will provide
 assistance to any competitor of Gaussian, Inc.  The licensee
 of this program is prohibited from giving any competitor of
 Gaussian, Inc. access to this program.  By using this program,
 the user acknowledges that Gaussian, Inc. is engaged in the
 business of creating and licensing software in the field of
 computational chemistry and represents and warrants to the
 licensee that it is not a competitor of Gaussian, Inc. and that
 it will not use this program in any manner prohibited above.
 ---------------------------------------------------------------
  

 Cite this work as:
 Gaussian 16, Revision B.01,
 M. J. Frisch, G. W. Trucks, H. B. Schlegel, G. E. Scuseria, 
 M. A. Robb, J. R. Cheeseman, G. Scalmani, V. Barone, 
 G. A. Petersson, H. Nakatsuji, X. Li, M. Caricato, A. V. Marenich, 
 J. Bloino, B. G. Janesko, R. Gomperts, B. Mennucci, H. P. Hratchian, 
 J. V. Ortiz, A. F. Izmaylov, J. L. Sonnenberg, D. Williams-Young, 
 F. Ding, F. Lipparini, F. Egidi, J. Goings, B. Peng, A. Petrone, 
 T. Henderson, D. Ranasinghe, V. G. Zakrzewski, J. Gao, N. Rega, 
 G. Zheng, W. Liang, M. Hada, M. Ehara, K. Toyota, R. Fukuda, 
 J. Hasegawa, M. Ishida, T. Nakajima, Y. Honda, O. Kitao, H. Nakai, 
 T. Vreven, K. Throssell, J. A. Montgomery, Jr., J. E. Peralta, 
 F. Ogliaro, M. J. Bearpark, J. J. Heyd, E. N. Brothers, K. N. Kudin, 
 V. N. Staroverov, T. A. Keith, R. Kobayashi, J. Normand, 
 K. Raghavachari, A. P. Rendell, J. C. Burant, S. S. Iyengar, 
 J. Tomasi, M. Cossi, J. M. Millam, M. Klene, C. Adamo, R. Cammi, 
 J. W. Ochterski, R. L. Martin, K. Morokuma, O. Farkas, 
 J. B. Foresman, and D. J. Fox, Gaussian, Inc., Wallingford CT, 2016.
 
 ******************************************
 Gaussian 16:  ES64L-G16RevB.01 20-Dec-2017
                29-Jun-2019 
 ******************************************
 %nprocshared=20
 Will use up to   20 processors via shared memory.
 %mem=100GB
 %chk=7-memb2-habs-1b.chk
 -------------------------------------------------
 # opt=tight freq b3lyp/6-311+g(d,p) int=grid=fine
 -------------------------------------------------
 1/7=10,18=20,19=15,26=3,38=1/1,3;
 2/9=110,12=2,17=6,18=5,40=1/2;
 3/5=4,6=6,7=111,11=2,25=1,30=1,71=1,74=-5,75=-4/1,2,3;
 4//1;
 5/5=2,38=5/2;
 6/7=2,8=2,9=2,10=2,28=1/1;
 7//1,2,3,16;
 1/7=10,18=20,19=15,26=3/3(2);
 2/9=110/2;
 99//99;
 2/9=110/2;
 3/5=4,6=6,7=111,11=2,25=1,30=1,71=1,74=-5,75=-4/1,2,3;
 4/5=5,16=3,69=1/1;
 5/5=2,38=5/2;
 7//1,2,3,16;
 1/7=10,18=20,19=15,26=3/3(-5);
 2/9=110/2;
 6/7=2,8=2,9=2,10=2,19=2,28=1/1;
 99/9=1/99;
 ---------------
 7-memb2-habs-1b
 ---------------
 Symbolic Z-matrix:
 Charge =  0 Multiplicity = 2
 C                     1.51583   0.26703  -0.04714 
 C                     0.        0.60973  -0.03143 
 C                     0.02895   2.04346   0.00786 
 C                     2.22513   1.50441   0.055 
 C                     1.33424   2.56424   0.04714 
 C                     3.60458   1.73134   0.04714 
 C                     4.01581   3.10893   0.04714 
 C                     3.10768   4.14949   0.03929 
 C                     1.69517   3.90022   0.03143 
 C                    -1.01811   2.97043   0. 
 C                    -0.69485   4.37941   0. 
 C                     0.59814   4.83479   0.00786 
 C                     2.3737   -0.81693  -0.24357 
 C                     3.78714  -0.65843  -0.15714 
 C                     4.41592   0.57137  -0.00786 
 C                    -1.32426  -0.00172  -0.01571 
 C                    -2.42367   0.99631  -0.00786 
 C                    -2.27063   2.39266  -0.00786 
 C                    -1.79461  -1.43412   0. 
 C                    -3.20183  -1.68904  -0.00786 
 C                    -4.18283  -0.66011  -0.00786 
 C                    -3.80233   0.62515   0. 
 C                    -0.98981  -2.6647    0.03143 
 C                    -1.60125  -3.98377  -0.01571 
 C                    -3.01098  -4.11569  -0.03929 
 C                    -3.76938  -2.99946  -0.02357 
 C                    -0.82559  -5.168    -0.01571 
 C                     0.54695  -5.14309   0.06286 
 C                     1.18213  -3.88644   0.165 
 C                     0.39334  -2.77357   0.14929 
 H                     1.99413  -1.8179   -0.55786 
 H                     4.39052  -1.55993  -0.25929 
 H                     5.49842   0.64086   0.02357 
 H                     5.07735   3.33487   0.04714 
 H                     3.47113   5.17193   0.02357 
 H                     0.79514   5.90174   0. 
 H                    -1.5143    5.09079  -0.01571 
 H                    -3.1663    3.00419  -0.01571 
 H                    -4.53826   1.42031   0. 
 H                    -5.22976  -0.93871  -0.01571 
 H                    -4.85097  -3.0708   -0.02357 
 H                    -3.45374  -5.10549  -0.055 
 H                    -1.3556   -6.11407  -0.07071 
 H                     1.12944  -6.05752   0.06286 
 H                     2.26531  -3.82377   0.25929 
 

 GradGradGradGradGradGradGradGradGradGradGradGradGradGradGradGradGradGrad
 Berny optimization.
 Initialization pass.
                           ----------------------------
                           !    Initial Parameters    !
                           ! (Angstroms and Degrees)  !
 --------------------------                            --------------------------
 ! Name  Definition              Value          Derivative Info.                !
 --------------------------------------------------------------------------------
 ! R1    R(1,2)                  1.5542         estimate D2E/DX2                !
 ! R2    R(1,4)                  1.4299         estimate D2E/DX2                !
 ! R3    R(1,13)                 1.3962         estimate D2E/DX2                !
 ! R4    R(2,3)                  1.4346         estimate D2E/DX2                !
 ! R5    R(2,16)                 1.4587         estimate D2E/DX2                !
 ! R6    R(3,5)                  1.4059         estimate D2E/DX2                !
 ! R7    R(3,10)                 1.3985         estimate D2E/DX2                !
 ! R8    R(4,5)                  1.3846         estimate D2E/DX2                !
 ! R9    R(4,6)                  1.398          estimate D2E/DX2                !
 ! R10   R(5,9)                  1.384          estimate D2E/DX2                !
 ! R11   R(6,7)                  1.4377         estimate D2E/DX2                !
 ! R12   R(6,15)                 1.4166         estimate D2E/DX2                !
 ! R13   R(7,8)                  1.3811         estimate D2E/DX2                !
 ! R14   R(7,34)                 1.0853         estimate D2E/DX2                !
 ! R15   R(8,9)                  1.4344         estimate D2E/DX2                !
 ! R16   R(8,35)                 1.0852         estimate D2E/DX2                !
 ! R17   R(9,12)                 1.4413         estimate D2E/DX2                !
 ! R18   R(10,11)                1.4456         estimate D2E/DX2                !
 ! R19   R(10,18)                1.3794         estimate D2E/DX2                !
 ! R20   R(11,12)                1.3709         estimate D2E/DX2                !
 ! R21   R(11,37)                1.0853         estimate D2E/DX2                !
 ! R22   R(12,36)                1.085          estimate D2E/DX2                !
 ! R23   R(13,14)                1.4249         estimate D2E/DX2                !
 ! R24   R(13,31)                1.1157         estimate D2E/DX2                !
 ! R25   R(14,15)                1.3893         estimate D2E/DX2                !
 ! R26   R(14,32)                1.0896         estimate D2E/DX2                !
 ! R27   R(15,33)                1.0852         estimate D2E/DX2                !
 ! R28   R(16,17)                1.4849         estimate D2E/DX2                !
 ! R29   R(16,19)                1.5077         estimate D2E/DX2                !
 ! R30   R(17,18)                1.4047         estimate D2E/DX2                !
 ! R31   R(17,22)                1.4278         estimate D2E/DX2                !
 ! R32   R(18,38)                1.0846         estimate D2E/DX2                !
 ! R33   R(19,20)                1.4301         estimate D2E/DX2                !
 ! R34   R(19,23)                1.4707         estimate D2E/DX2                !
 ! R35   R(20,21)                1.4216         estimate D2E/DX2                !
 ! R36   R(20,26)                1.4281         estimate D2E/DX2                !
 ! R37   R(21,22)                1.3404         estimate D2E/DX2                !
 ! R38   R(21,40)                1.0834         estimate D2E/DX2                !
 ! R39   R(22,39)                1.0835         estimate D2E/DX2                !
 ! R40   R(23,24)                1.4547         estimate D2E/DX2                !
 ! R41   R(23,30)                1.3924         estimate D2E/DX2                !
 ! R42   R(24,25)                1.4161         estimate D2E/DX2                !
 ! R43   R(24,27)                1.4156         estimate D2E/DX2                !
 ! R44   R(25,26)                1.3496         estimate D2E/DX2                !
 ! R45   R(25,42)                1.0844         estimate D2E/DX2                !
 ! R46   R(26,41)                1.0839         estimate D2E/DX2                !
 ! R47   R(27,28)                1.375          estimate D2E/DX2                !
 ! R48   R(27,43)                1.0858         estimate D2E/DX2                !
 ! R49   R(28,29)                1.4118         estimate D2E/DX2                !
 ! R50   R(28,44)                1.0842         estimate D2E/DX2                !
 ! R51   R(29,30)                1.3642         estimate D2E/DX2                !
 ! R52   R(29,45)                1.0891         estimate D2E/DX2                !
 ! A1    A(2,1,4)              106.9941         estimate D2E/DX2                !
 ! A2    A(2,1,13)             140.5218         estimate D2E/DX2                !
 ! A3    A(4,1,13)             112.1531         estimate D2E/DX2                !
 ! A4    A(1,2,3)              101.5937         estimate D2E/DX2                !
 ! A5    A(1,2,16)             142.4786         estimate D2E/DX2                !
 ! A6    A(3,2,16)             115.9101         estimate D2E/DX2                !
 ! A7    A(2,3,5)              112.9367         estimate D2E/DX2                !
 ! A8    A(2,3,10)             130.3313         estimate D2E/DX2                !
 ! A9    A(5,3,10)             116.7288         estimate D2E/DX2                !
 ! A10   A(1,4,5)              110.0485         estimate D2E/DX2                !
 ! A11   A(1,4,6)              129.015          estimate D2E/DX2                !
 ! A12   A(5,4,6)              120.7052         estimate D2E/DX2                !
 ! A13   A(3,5,4)              108.3013         estimate D2E/DX2                !
 ! A14   A(3,5,9)              126.8268         estimate D2E/DX2                !
 ! A15   A(4,5,9)              124.8328         estimate D2E/DX2                !
 ! A16   A(4,6,7)              115.9626         estimate D2E/DX2                !
 ! A17   A(4,6,15)             115.6216         estimate D2E/DX2                !
 ! A18   A(7,6,15)             128.3738         estimate D2E/DX2                !
 ! A19   A(6,7,8)              122.2661         estimate D2E/DX2                !
 ! A20   A(6,7,34)             118.6367         estimate D2E/DX2                !
 ! A21   A(8,7,34)             119.0961         estimate D2E/DX2                !
 ! A22   A(7,8,9)              121.1051         estimate D2E/DX2                !
 ! A23   A(7,8,35)             119.3203         estimate D2E/DX2                !
 ! A24   A(9,8,35)             119.5679         estimate D2E/DX2                !
 ! A25   A(5,9,8)              115.1202         estimate D2E/DX2                !
 ! A26   A(5,9,12)             115.3162         estimate D2E/DX2                !
 ! A27   A(8,9,12)             129.5635         estimate D2E/DX2                !
 ! A28   A(3,10,11)            118.5966         estimate D2E/DX2                !
 ! A29   A(3,10,18)            113.7193         estimate D2E/DX2                !
 ! A30   A(11,10,18)           127.6842         estimate D2E/DX2                !
 ! A31   A(10,11,12)           122.3229         estimate D2E/DX2                !
 ! A32   A(10,11,37)           118.037          estimate D2E/DX2                !
 ! A33   A(12,11,37)           119.6378         estimate D2E/DX2                !
 ! A34   A(9,12,11)            120.1714         estimate D2E/DX2                !
 ! A35   A(9,12,36)            119.9693         estimate D2E/DX2                !
 ! A36   A(11,12,36)           119.8589         estimate D2E/DX2                !
 ! A37   A(1,13,14)            120.9689         estimate D2E/DX2                !
 ! A38   A(1,13,31)            121.8103         estimate D2E/DX2                !
 ! A39   A(14,13,31)           117.023          estimate D2E/DX2                !
 ! A40   A(13,14,15)           123.6374         estimate D2E/DX2                !
 ! A41   A(13,14,32)           116.8455         estimate D2E/DX2                !
 ! A42   A(15,14,32)           119.462          estimate D2E/DX2                !
 ! A43   A(6,15,14)            118.0209         estimate D2E/DX2                !
 ! A44   A(6,15,33)            121.1816         estimate D2E/DX2                !
 ! A45   A(14,15,33)           120.7489         estimate D2E/DX2                !
 ! A46   A(2,16,17)            112.9849         estimate D2E/DX2                !
 ! A47   A(2,16,19)            132.9653         estimate D2E/DX2                !
 ! A48   A(17,16,19)           114.0492         estimate D2E/DX2                !
 ! A49   A(16,17,18)           125.9775         estimate D2E/DX2                !
 ! A50   A(16,17,22)           122.7004         estimate D2E/DX2                !
 ! A51   A(18,17,22)           111.3221         estimate D2E/DX2                !
 ! A52   A(10,18,17)           121.0173         estimate D2E/DX2                !
 ! A53   A(10,18,38)           120.9143         estimate D2E/DX2                !
 ! A54   A(17,18,38)           118.0683         estimate D2E/DX2                !
 ! A55   A(16,19,20)           118.4403         estimate D2E/DX2                !
 ! A56   A(16,19,23)           128.6403         estimate D2E/DX2                !
 ! A57   A(20,19,23)           112.9183         estimate D2E/DX2                !
 ! A58   A(19,20,21)           123.3655         estimate D2E/DX2                !
 ! A59   A(19,20,26)           123.6868         estimate D2E/DX2                !
 ! A60   A(21,20,26)           112.9469         estimate D2E/DX2                !
 ! A61   A(20,21,22)           119.8741         estimate D2E/DX2                !
 ! A62   A(20,21,40)           118.7314         estimate D2E/DX2                !
 ! A63   A(22,21,40)           121.3944         estimate D2E/DX2                !
 ! A64   A(17,22,21)           121.5558         estimate D2E/DX2                !
 ! A65   A(17,22,39)           117.7164         estimate D2E/DX2                !
 ! A66   A(21,22,39)           120.7235         estimate D2E/DX2                !
 ! A67   A(19,23,24)           121.8721         estimate D2E/DX2                !
 ! A68   A(19,23,30)           127.6473         estimate D2E/DX2                !
 ! A69   A(24,23,30)           110.4492         estimate D2E/DX2                !
 ! A70   A(23,24,25)           120.2292         estimate D2E/DX2                !
 ! A71   A(23,24,27)           121.8873         estimate D2E/DX2                !
 ! A72   A(25,24,27)           117.8742         estimate D2E/DX2                !
 ! A73   A(24,25,26)           118.8281         estimate D2E/DX2                !
 ! A74   A(24,25,42)           119.4541         estimate D2E/DX2                !
 ! A75   A(26,25,42)           121.7118         estimate D2E/DX2                !
 ! A76   A(20,26,25)           122.393          estimate D2E/DX2                !
 ! A77   A(20,26,41)           117.1896         estimate D2E/DX2                !
 ! A78   A(25,26,41)           120.4174         estimate D2E/DX2                !
 ! A79   A(24,27,28)           122.1258         estimate D2E/DX2                !
 ! A80   A(24,27,43)           117.4787         estimate D2E/DX2                !
 ! A81   A(28,27,43)           120.3928         estimate D2E/DX2                !
 ! A82   A(27,28,29)           117.9936         estimate D2E/DX2                !
 ! A83   A(27,28,44)           121.4001         estimate D2E/DX2                !
 ! A84   A(29,28,44)           120.5993         estimate D2E/DX2                !
 ! A85   A(28,29,30)           117.7216         estimate D2E/DX2                !
 ! A86   A(28,29,45)           120.3293         estimate D2E/DX2                !
 ! A87   A(30,29,45)           121.9478         estimate D2E/DX2                !
 ! A88   A(23,30,29)           129.7273         estimate D2E/DX2                !
 ! D1    D(4,1,2,3)              2.978          estimate D2E/DX2                !
 ! D2    D(4,1,2,16)          -175.2791         estimate D2E/DX2                !
 ! D3    D(13,1,2,3)          -169.4186         estimate D2E/DX2                !
 ! D4    D(13,1,2,16)           12.3243         estimate D2E/DX2                !
 ! D5    D(2,1,4,5)             -3.7063         estimate D2E/DX2                !
 ! D6    D(2,1,4,6)           -178.1187         estimate D2E/DX2                !
 ! D7    D(13,1,4,5)           171.0824         estimate D2E/DX2                !
 ! D8    D(13,1,4,6)            -3.33           estimate D2E/DX2                !
 ! D9    D(2,1,13,14)         -179.9841         estimate D2E/DX2                !
 ! D10   D(2,1,13,31)            5.2799         estimate D2E/DX2                !
 ! D11   D(4,1,13,14)            7.8684         estimate D2E/DX2                !
 ! D12   D(4,1,13,31)         -166.8676         estimate D2E/DX2                !
 ! D13   D(1,2,3,5)             -1.3441         estimate D2E/DX2                !
 ! D14   D(1,2,3,10)           177.975          estimate D2E/DX2                !
 ! D15   D(16,2,3,5)           177.4759         estimate D2E/DX2                !
 ! D16   D(16,2,3,10)           -3.2051         estimate D2E/DX2                !
 ! D17   D(1,2,16,17)         -179.9203         estimate D2E/DX2                !
 ! D18   D(1,2,16,19)            0.3876         estimate D2E/DX2                !
 ! D19   D(3,2,16,17)            1.978          estimate D2E/DX2                !
 ! D20   D(3,2,16,19)         -177.7141         estimate D2E/DX2                !
 ! D21   D(2,3,5,4)             -0.84           estimate D2E/DX2                !
 ! D22   D(2,3,5,9)            176.9606         estimate D2E/DX2                !
 ! D23   D(10,3,5,4)           179.7412         estimate D2E/DX2                !
 ! D24   D(10,3,5,9)            -2.4582         estimate D2E/DX2                !
 ! D25   D(2,3,10,11)         -177.843          estimate D2E/DX2                !
 ! D26   D(2,3,10,18)            2.1175         estimate D2E/DX2                !
 ! D27   D(5,3,10,11)            1.4549         estimate D2E/DX2                !
 ! D28   D(5,3,10,18)         -178.5847         estimate D2E/DX2                !
 ! D29   D(1,4,5,3)              2.9013         estimate D2E/DX2                !
 ! D30   D(1,4,5,9)           -174.9539         estimate D2E/DX2                !
 ! D31   D(6,4,5,3)            177.8534         estimate D2E/DX2                !
 ! D32   D(6,4,5,9)             -0.0018         estimate D2E/DX2                !
 ! D33   D(1,4,6,7)            174.6197         estimate D2E/DX2                !
 ! D34   D(1,4,6,15)            -3.2239         estimate D2E/DX2                !
 ! D35   D(5,4,6,7)              0.7265         estimate D2E/DX2                !
 ! D36   D(5,4,6,15)          -177.1171         estimate D2E/DX2                !
 ! D37   D(3,5,9,8)           -178.1639         estimate D2E/DX2                !
 ! D38   D(3,5,9,12)             1.759          estimate D2E/DX2                !
 ! D39   D(4,5,9,8)             -0.7081         estimate D2E/DX2                !
 ! D40   D(4,5,9,12)           179.2148         estimate D2E/DX2                !
 ! D41   D(4,6,7,8)             -0.7434         estimate D2E/DX2                !
 ! D42   D(4,6,7,34)           179.6417         estimate D2E/DX2                !
 ! D43   D(15,6,7,8)           176.7763         estimate D2E/DX2                !
 ! D44   D(15,6,7,34)           -2.8386         estimate D2E/DX2                !
 ! D45   D(4,6,15,14)            5.0945         estimate D2E/DX2                !
 ! D46   D(4,6,15,33)         -177.4199         estimate D2E/DX2                !
 ! D47   D(7,6,15,14)         -172.4324         estimate D2E/DX2                !
 ! D48   D(7,6,15,33)            5.0532         estimate D2E/DX2                !
 ! D49   D(6,7,8,9)              0.0354         estimate D2E/DX2                !
 ! D50   D(6,7,8,35)          -179.0254         estimate D2E/DX2                !
 ! D51   D(34,7,8,9)           179.6486         estimate D2E/DX2                !
 ! D52   D(34,7,8,35)            0.5878         estimate D2E/DX2                !
 ! D53   D(7,8,9,5)              0.6747         estimate D2E/DX2                !
 ! D54   D(7,8,9,12)          -179.2349         estimate D2E/DX2                !
 ! D55   D(35,8,9,5)           179.7331         estimate D2E/DX2                !
 ! D56   D(35,8,9,12)           -0.1764         estimate D2E/DX2                !
 ! D57   D(5,9,12,11)           -0.1116         estimate D2E/DX2                !
 ! D58   D(5,9,12,36)          179.6625         estimate D2E/DX2                !
 ! D59   D(8,9,12,11)          179.7978         estimate D2E/DX2                !
 ! D60   D(8,9,12,36)           -0.4281         estimate D2E/DX2                !
 ! D61   D(3,10,11,12)          -0.022          estimate D2E/DX2                !
 ! D62   D(3,10,11,37)         179.4271         estimate D2E/DX2                !
 ! D63   D(18,10,11,12)       -179.9762         estimate D2E/DX2                !
 ! D64   D(18,10,11,37)         -0.5272         estimate D2E/DX2                !
 ! D65   D(3,10,18,17)          -0.012          estimate D2E/DX2                !
 ! D66   D(3,10,18,38)        -179.9204         estimate D2E/DX2                !
 ! D67   D(11,10,18,17)        179.9441         estimate D2E/DX2                !
 ! D68   D(11,10,18,38)          0.0357         estimate D2E/DX2                !
 ! D69   D(10,11,12,9)          -0.685          estimate D2E/DX2                !
 ! D70   D(10,11,12,36)        179.5407         estimate D2E/DX2                !
 ! D71   D(37,11,12,9)         179.8745         estimate D2E/DX2                !
 ! D72   D(37,11,12,36)          0.1002         estimate D2E/DX2                !
 ! D73   D(1,13,14,15)          -6.4878         estimate D2E/DX2                !
 ! D74   D(1,13,14,32)         176.2316         estimate D2E/DX2                !
 ! D75   D(31,13,14,15)        168.4913         estimate D2E/DX2                !
 ! D76   D(31,13,14,32)         -8.7894         estimate D2E/DX2                !
 ! D77   D(13,14,15,6)          -0.6824         estimate D2E/DX2                !
 ! D78   D(13,14,15,33)       -178.1794         estimate D2E/DX2                !
 ! D79   D(32,14,15,6)         176.5309         estimate D2E/DX2                !
 ! D80   D(32,14,15,33)         -0.9661         estimate D2E/DX2                !
 ! D81   D(2,16,17,18)          -0.3224         estimate D2E/DX2                !
 ! D82   D(2,16,17,22)         179.6381         estimate D2E/DX2                !
 ! D83   D(19,16,17,18)        179.4309         estimate D2E/DX2                !
 ! D84   D(19,16,17,22)         -0.6086         estimate D2E/DX2                !
 ! D85   D(2,16,19,20)        -179.0307         estimate D2E/DX2                !
 ! D86   D(2,16,19,23)           1.3783         estimate D2E/DX2                !
 ! D87   D(17,16,19,20)          1.2797         estimate D2E/DX2                !
 ! D88   D(17,16,19,23)       -178.3114         estimate D2E/DX2                !
 ! D89   D(16,17,18,10)         -0.7553         estimate D2E/DX2                !
 ! D90   D(16,17,18,38)        179.1557         estimate D2E/DX2                !
 ! D91   D(22,17,18,10)        179.2804         estimate D2E/DX2                !
 ! D92   D(22,17,18,38)         -0.8086         estimate D2E/DX2                !
 ! D93   D(16,17,22,21)         -0.4305         estimate D2E/DX2                !
 ! D94   D(16,17,22,39)       -179.6768         estimate D2E/DX2                !
 ! D95   D(18,17,22,21)        179.5351         estimate D2E/DX2                !
 ! D96   D(18,17,22,39)          0.2888         estimate D2E/DX2                !
 ! D97   D(16,19,20,21)         -1.0569         estimate D2E/DX2                !
 ! D98   D(16,19,20,26)        178.6029         estimate D2E/DX2                !
 ! D99   D(23,19,20,21)        178.5963         estimate D2E/DX2                !
 ! D100  D(23,19,20,26)         -1.7439         estimate D2E/DX2                !
 ! D101  D(16,19,23,24)       -177.2649         estimate D2E/DX2                !
 ! D102  D(16,19,23,30)          4.9742         estimate D2E/DX2                !
 ! D103  D(20,19,23,24)          3.1255         estimate D2E/DX2                !
 ! D104  D(20,19,23,30)       -174.6354         estimate D2E/DX2                !
 ! D105  D(19,20,21,22)         -0.0104         estimate D2E/DX2                !
 ! D106  D(19,20,21,40)        179.9036         estimate D2E/DX2                !
 ! D107  D(26,20,21,22)       -179.703          estimate D2E/DX2                !
 ! D108  D(26,20,21,40)          0.211          estimate D2E/DX2                !
 ! D109  D(19,20,26,25)         -0.3488         estimate D2E/DX2                !
 ! D110  D(19,20,26,41)        179.7179         estimate D2E/DX2                !
 ! D111  D(21,20,26,25)        179.3426         estimate D2E/DX2                !
 ! D112  D(21,20,26,41)         -0.5907         estimate D2E/DX2                !
 ! D113  D(20,21,22,17)          0.7695         estimate D2E/DX2                !
 ! D114  D(20,21,22,39)        179.9933         estimate D2E/DX2                !
 ! D115  D(40,21,22,17)       -179.1422         estimate D2E/DX2                !
 ! D116  D(40,21,22,39)          0.0816         estimate D2E/DX2                !
 ! D117  D(19,23,24,25)         -2.5762         estimate D2E/DX2                !
 ! D118  D(19,23,24,27)        178.5573         estimate D2E/DX2                !
 ! D119  D(30,23,24,25)        175.5318         estimate D2E/DX2                !
 ! D120  D(30,23,24,27)         -3.3347         estimate D2E/DX2                !
 ! D121  D(19,23,30,29)       -179.0178         estimate D2E/DX2                !
 ! D122  D(24,23,30,29)          3.0114         estimate D2E/DX2                !
 ! D123  D(23,24,25,26)          0.3063         estimate D2E/DX2                !
 ! D124  D(23,24,25,42)       -178.8211         estimate D2E/DX2                !
 ! D125  D(27,24,25,26)        179.2175         estimate D2E/DX2                !
 ! D126  D(27,24,25,42)          0.0901         estimate D2E/DX2                !
 ! D127  D(23,24,27,28)          1.6816         estimate D2E/DX2                !
 ! D128  D(23,24,27,43)       -178.9142         estimate D2E/DX2                !
 ! D129  D(25,24,27,28)       -177.2105         estimate D2E/DX2                !
 ! D130  D(25,24,27,43)          2.1937         estimate D2E/DX2                !
 ! D131  D(24,25,26,20)          1.1336         estimate D2E/DX2                !
 ! D132  D(24,25,26,41)       -178.9352         estimate D2E/DX2                !
 ! D133  D(42,25,26,20)       -179.7596         estimate D2E/DX2                !
 ! D134  D(42,25,26,41)          0.1715         estimate D2E/DX2                !
 ! D135  D(24,27,28,29)          0.9008         estimate D2E/DX2                !
 ! D136  D(24,27,28,44)        179.9425         estimate D2E/DX2                !
 ! D137  D(43,27,28,29)       -178.4864         estimate D2E/DX2                !
 ! D138  D(43,27,28,44)          0.5553         estimate D2E/DX2                !
 ! D139  D(27,28,29,30)         -1.4243         estimate D2E/DX2                !
 ! D140  D(27,28,29,45)        178.1759         estimate D2E/DX2                !
 ! D141  D(44,28,29,30)        179.526          estimate D2E/DX2                !
 ! D142  D(44,28,29,45)         -0.8738         estimate D2E/DX2                !
 ! D143  D(28,29,30,23)         -0.7312         estimate D2E/DX2                !
 ! D144  D(45,29,30,23)        179.6756         estimate D2E/DX2                !
 --------------------------------------------------------------------------------
 Trust Radius=3.00D-01 FncErr=1.00D-07 GrdErr=1.00D-06 EigMax=2.50D+02 EigMin=1.00D-04
 Number of steps in this run=    270 maximum allowed number of steps=    270.
 GradGradGradGradGradGradGradGradGradGradGradGradGradGradGradGradGradGrad

                          Input orientation:                          
 ---------------------------------------------------------------------
 Center     Atomic      Atomic             Coordinates (Angstroms)
 Number     Number       Type             X           Y           Z
 ---------------------------------------------------------------------
      1          6           0        1.515830    0.267030   -0.047140
      2          6           0        0.000000    0.609730   -0.031430
      3          6           0        0.028950    2.043460    0.007860
      4          6           0        2.225130    1.504410    0.055000
      5          6           0        1.334240    2.564240    0.047140
      6          6           0        3.604580    1.731340    0.047140
      7          6           0        4.015810    3.108930    0.047140
      8          6           0        3.107680    4.149490    0.039290
      9          6           0        1.695170    3.900220    0.031430
     10          6           0       -1.018110    2.970430    0.000000
     11          6           0       -0.694850    4.379410    0.000000
     12          6           0        0.598140    4.834790    0.007860
     13          6           0        2.373700   -0.816930   -0.243570
     14          6           0        3.787140   -0.658430   -0.157140
     15          6           0        4.415920    0.571370   -0.007860
     16          6           0       -1.324260   -0.001720   -0.015710
     17          6           0       -2.423670    0.996310   -0.007860
     18          6           0       -2.270630    2.392660   -0.007860
     19          6           0       -1.794610   -1.434120    0.000000
     20          6           0       -3.201830   -1.689040   -0.007860
     21          6           0       -4.182830   -0.660110   -0.007860
     22          6           0       -3.802330    0.625150    0.000000
     23          6           0       -0.989810   -2.664700    0.031430
     24          6           0       -1.601250   -3.983770   -0.015710
     25          6           0       -3.010980   -4.115690   -0.039290
     26          6           0       -3.769380   -2.999460   -0.023570
     27          6           0       -0.825590   -5.168000   -0.015710
     28          6           0        0.546950   -5.143090    0.062860
     29          6           0        1.182130   -3.886440    0.165000
     30          6           0        0.393340   -2.773570    0.149290
     31          1           0        1.994130   -1.817900   -0.557860
     32          1           0        4.390520   -1.559930   -0.259290
     33          1           0        5.498420    0.640860    0.023570
     34          1           0        5.077350    3.334870    0.047140
     35          1           0        3.471130    5.171930    0.023570
     36          1           0        0.795140    5.901740    0.000000
     37          1           0       -1.514300    5.090790   -0.015710
     38          1           0       -3.166300    3.004190   -0.015710
     39          1           0       -4.538260    1.420310    0.000000
     40          1           0       -5.229760   -0.938710   -0.015710
     41          1           0       -4.850970   -3.070800   -0.023570
     42          1           0       -3.453740   -5.105490   -0.055000
     43          1           0       -1.355600   -6.114070   -0.070710
     44          1           0        1.129440   -6.057520    0.062860
     45          1           0        2.265310   -3.823770    0.259290
 ---------------------------------------------------------------------
                    Distance matrix (angstroms):
                    1          2          3          4          5
     1  C    0.000000
     2  C    1.554166   0.000000
     3  C    2.317227   1.434560   0.000000
     4  C    1.429912   2.399818   2.261858   0.000000
     5  C    2.306304   2.367800   1.405894   1.384553   0.000000
     6  C    2.552640   3.775868   3.589442   1.398013   2.418298
     7  C    3.786183   4.730635   4.126963   2.404388   2.736331
     8  C    4.197017   4.710900   3.730272   2.788474   2.378691
     9  C    3.638462   3.702010   2.494875   2.453838   1.383965
    10  C    3.705597   2.571078   1.398453   3.559613   2.387627
    11  C    4.669154   3.833313   2.445529   4.098162   2.722916
    12  C    4.659357   4.267370   2.848772   3.706852   2.387212
    13  C    1.396243   2.777555   3.707142   2.345173   3.549268
    14  C    2.455082   3.995806   4.631568   2.676332   4.055126
    15  C    2.916280   4.416150   4.627397   2.382032   3.670328
    16  C    2.852950   1.458692   2.452447   3.856371   3.695365
    17  C    4.006626   2.454420   2.666855   4.676907   4.072262
    18  C    4.342479   2.887067   2.325996   4.583099   3.609370
    19  C    3.722250   2.720098   3.926703   4.979588   5.077283
    20  C    5.107256   3.941651   4.936572   6.297140   6.218468
    21  C    5.773721   4.371397   5.004861   6.763952   6.390424
    22  C    5.330413   3.802491   4.085385   6.091502   5.490596
    23  C    3.857388   3.421340   4.817177   5.264777   5.722173
    24  C    5.271288   4.864616   6.243846   6.690763   7.176175
    25  C    6.300818   5.603183   6.868663   7.681879   7.969308
    26  C    6.213208   5.218672   6.313425   7.498344   7.550278
    27  C    5.918005   5.836438   7.261952   7.337094   8.028471
    28  C    5.497293   5.779531   7.205404   6.856063   7.747452
    29  C    4.172250   4.653124   6.043032   5.491922   6.453549
    30  C    3.247124   3.410879   4.832863   4.654617   5.421065
    31  H    2.199213   3.185447   4.369448   3.386252   4.472654
    32  H    3.412716   4.902653   5.663840   3.765351   5.142327
    33  H    4.000721   5.498783   5.646471   3.385430   4.586975
    34  H    4.701591   5.762989   5.211106   3.389071   3.821615
    35  H    5.280743   5.732839   4.651470   3.873526   3.371484
    36  H    5.680807   5.351505   3.933629   4.624328   3.381088
    37  H    5.696607   4.730037   3.415903   5.181743   3.808095
    38  H    5.423594   3.969779   3.336642   5.596593   4.522429
    39  H    6.163139   4.610188   4.609532   6.764136   5.983064
    40  H    6.852575   5.454201   6.045488   7.845331   7.440477
    41  H    7.188728   6.089193   7.068965   8.426738   8.367526
    42  H    7.318515   6.677770   7.952394   8.715070   9.042121
    43  H    6.997435   6.859204   8.274566   8.418947   9.086374
    44  H    6.337297   6.762895   8.175572   7.640902   8.624206
    45  H    4.170164   4.987191   6.284020   5.332246   6.458991
                    6          7          8          9         10
     6  C    0.000000
     7  C    1.437659   0.000000
     8  C    2.468688   1.381132   0.000000
     9  C    2.889660   2.451888   1.434358   0.000000
    10  C    4.786108   5.036046   4.291138   2.868342   0.000000
    11  C    5.049712   4.879207   3.809677   2.437787   1.445587
    12  C    4.321068   3.828917   2.601618   1.441337   2.467421
    13  C    2.844865   4.265374   5.028326   4.773629   5.089970
    14  C    2.405423   3.779818   4.859665   5.019282   6.023599
    15  C    1.416626   2.569499   3.810073   4.299450   5.940053
    16  C    5.225027   6.180327   6.072698   4.933996   2.987917
    17  C    6.073145   6.777396   6.367150   5.039750   2.423388
    18  C    5.912568   6.327353   5.658170   4.242859   1.379379
    19  C    6.258883   7.375805   7.430390   6.374538   4.472473
    20  C    7.617693   8.667056   8.596544   7.431149   5.145810
    21  C    8.146522   9.023657   8.734186   7.439693   4.816257
    22  C    7.489205   8.203335   7.756981   6.399186   3.640360
    23  C    6.358760   7.641419   7.951269   7.092763   5.635289
    24  C    7.730918   9.047746   9.398243   8.545520   6.978624
    25  C    8.829545  10.078610  10.283841   9.295572   7.361126
    26  C    8.761322   9.895788   9.919949   8.801700   6.573403
    27  C    8.199466   9.589091  10.113815   9.412177   8.140722
    28  C    7.523771   8.951484   9.638980   9.115967   8.263327
    29  C    6.118955   7.548433   8.264364   7.804686   7.203121
    30  C    5.533237   6.909163   7.436969   6.800597   5.916757
    31  H    3.944196   5.359745   6.099699   5.756174   5.684444
    32  H    3.397655   4.693885   5.859378   6.096119   7.060076
    33  H    2.185482   2.879246   4.245747   5.008812   6.920449
    34  H    2.177237   1.085318   2.131494   3.429141   6.106527
    35  H    3.443258   2.133823   1.085231   2.184340   5.000043
    36  H    5.028659   4.263183   2.901683   2.194795   3.446803
    37  H    6.123135   5.874848   4.717178   3.423504   2.177700
    38  H    6.889769   7.183149   6.377896   4.943580   2.148513
    39  H    8.148914   8.719276   8.118520   6.708695   3.846340
    40  H    9.229230  10.092963   9.767585   8.448202   5.746270
    41  H    9.724293  10.808046  10.746006   9.562954   7.154567
    42  H    9.827134  11.103212  11.345298  10.374081   8.435390
    43  H    9.282658  10.673784  11.192570  10.469175   9.091042
    44  H    8.172693   9.610160  10.396973   9.973847   9.280076
    45  H    5.718208   7.153432   8.020652   7.748355   7.550446
                   11         12         13         14         15
    11  C    0.000000
    12  C    1.370860   0.000000
    13  C    6.039642   5.929399   0.000000
    14  C    6.744832   6.353929   1.424923   0.000000
    15  C    6.373476   5.722975   2.480645   1.389265   0.000000
    16  C    4.426139   5.204614   3.793599   5.155355   5.768723
    17  C    3.799243   4.885234   5.134020   6.429200   6.852778
    18  C    2.535808   3.767504   5.650383   6.784395   6.930155
    19  C    5.916638   6.710033   4.220789   5.637581   6.526311
    20  C    6.565904   7.549859   5.648245   7.066126   7.946041
    21  C    6.128852   7.283670   6.562640   7.971368   8.686486
    22  C    4.873490   6.089767   6.346831   7.698852   8.218430
    23  C    7.050353   7.665800   3.847477   5.184586   6.300445
    24  C    8.412169   9.088722   5.087340   6.333454   7.546900
    25  C    8.805267   9.650858   6.318095   7.627645   8.782275
    26  C    7.993811   8.969487   6.522980   7.911969   8.930297
    27  C    9.548318  10.103632   5.405477   6.452403   7.772635
    28  C    9.603334   9.978163   4.706015   5.537094   6.901375
    29  C    8.477886   8.742173   3.317930   4.160517   5.509932
    30  C    7.236820   7.612430   2.811513   4.010685   5.233973
    31  H    6.778530   6.821078   1.115703   2.172517   3.446183
    32  H    7.823297   7.439486   2.149386   1.089589   2.146230
    33  H    7.234218   6.449964   3.458380   2.156221   1.085183
    34  H    5.866138   4.723836   4.963031   4.201526   2.842085
    35  H    4.240759   2.892746   6.094437   5.841713   4.696676
    36  H    2.130155   1.085013   6.905918   7.211975   6.443831
    37  H    1.085268   2.128026   7.075989   7.821688   7.456053
    38  H    2.828346   4.186008   6.733831   7.860351   7.962960
    39  H    4.850575   6.167766   7.269096   8.582432   8.994337
    40  H    6.989138   8.203553   7.607848   9.022364   9.763173
    41  H    8.531091   9.601674   7.571274   8.969633   9.956952
    42  H    9.878149  10.734563   7.237842   8.498066   9.703634
    43  H   10.514500  11.122087   6.480529   7.497950   8.832299
    44  H   10.595352  10.905399   5.394985   6.021789   7.399198
    45  H    8.724789   8.821187   3.050525   3.536772   4.900382
                   16         17         18         19         20
    16  C    0.000000
    17  C    1.484866   0.000000
    18  C    2.574633   1.404712   0.000000
    19  C    1.507729   2.510531   3.856281   0.000000
    20  C    2.524357   2.795825   4.186575   1.430145   0.000000
    21  C    2.933421   2.416272   3.602210   2.510527   1.421639
    22  C    2.556178   1.427769   2.338858   2.876027   2.390844
    23  C    2.684314   3.931983   5.217177   1.470720   2.417951
    24  C    3.991672   5.047537   6.411473   2.557020   2.797803
    25  C    4.446384   5.145723   6.550399   2.944812   2.434346
    26  C    3.868478   4.216321   5.596558   2.520032   1.428132
    27  C    5.190291   6.368095   7.697518   3.857604   4.213044
    28  C    5.471863   6.820690   8.045576   4.386720   5.097923
    29  C    4.626629   6.072308   7.167882   3.860321   4.906888
    30  C    3.265046   4.708740   5.814754   2.569735   3.758477
    31  H    3.821537   5.266805   6.018263   3.848772   5.226577
    32  H    5.928411   7.282223   7.749652   6.191841   7.597609
    33  H    6.852986   7.930122   7.964165   7.582505   9.006874
    34  H    7.219238   7.857302   7.408346   8.364767   9.684396
    35  H    7.054358   7.223950   6.379117   8.447986   9.570909
    36  H    6.272395   5.867201   4.659683   7.779566   8.578798
    37  H    5.096055   4.194256   2.802142   6.530947   6.986695
    38  H    3.525423   2.140828   1.084553   4.645468   4.693371
    39  H    3.514571   2.156694   2.467321   3.959215   3.384400
    40  H    4.016327   3.408593   4.455843   3.470725   2.162304
    41  H    4.675147   4.736393   6.042168   3.467076   2.151551
    42  H    5.530343   6.188314   7.591062   4.029230   3.426049
    43  H    6.112678   7.190426   8.556032   4.701028   4.795144
    44  H    6.534488   7.898488   9.108843   5.470818   6.152115
    45  H    5.250591   6.729864   7.700008   4.718115   5.875207
                   21         22         23         24         25
    21  C    0.000000
    22  C    1.340424   0.000000
    23  C    3.770318   4.328322   0.000000
    24  C    4.208483   5.107557   1.454657   0.000000
    25  C    3.649007   4.806594   2.489076   1.416085   0.000000
    26  C    2.375657   3.624836   2.800196   2.381116   1.349588
    27  C    5.620693   6.513203   2.509124   1.415644   2.425663
    28  C    6.517126   7.224457   2.916340   2.442327   3.704707
    29  C    6.262738   6.725066   2.495559   2.790938   4.204338
    30  C    5.043088   5.401595   1.392425   2.338846   3.664184
    31  H    6.308551   6.314954   3.157251   4.232219   5.531716
    32  H    8.624107   8.483195   5.500271   6.468048   7.833423
    33  H    9.768322   9.300793   7.281752   8.473138   9.748775
    34  H   10.085327   9.284047   8.532615   9.908085  10.997245
    35  H    9.622722   8.577703   9.017362  10.466968  11.326146
    36  H    8.236390   6.998509   8.750482  10.171836  10.716203
    37  H    6.339871   5.017696   7.773348   9.074977   9.327373
    38  H    3.802695   2.462643   6.072532   7.161073   7.121613
    39  H    2.110578   1.083454   5.411080   6.150639   5.742946
    40  H    1.083394   2.117419   4.578039   4.736927   3.875144
    41  H    2.501616   3.841907   3.882847   3.375538   2.116035
    42  H    4.505019   5.741496   3.469276   2.165991   1.084429
    43  H    6.143522   7.169977   3.470214   2.145122   2.595148
    44  H    7.573457   8.305684   4.000429   3.429764   4.574300
    45  H    7.187393   7.528371   3.462827   3.879628   5.292788
                   26         27         28         29         30
    26  C    0.000000
    27  C    3.656300   0.000000
    28  C    4.820096   1.375013   0.000000
    29  C    5.033860   2.388722   1.411756   0.000000
    30  C    4.172427   2.691897   2.376066   1.364154   0.000000
    31  H    5.907588   4.412246   3.679200   2.336820   1.993965
    32  H    8.289257   6.347070   5.264584   3.985779   4.197298
    33  H    9.957222   8.587054   7.613979   6.256741   6.142962
    34  H   10.880872  10.351205   9.612522   8.205727   7.698274
    35  H   10.917821  11.197209  10.721568   9.344174   8.521712
    36  H   10.003337  11.187768  11.047797   9.797217   8.685893
    37  H    8.398666  10.281882  10.439695   9.375183   8.094101
    38  H    6.033869   8.500801   8.953914   8.149987   6.788282
    39  H    4.486212   7.562407   8.303104   7.804594   6.475461
    40  H    2.525760   6.106030   7.145164   7.059327   5.917194
    41  H    1.083940   4.538942   5.782681   6.090905   5.255570
    42  H    2.129784   2.629187   4.002602   4.798518   4.503289
    43  H    3.940730   1.085810   2.140173   3.384962   3.777053
    44  H    5.775607   2.149316   1.084194   2.174120   3.366547
    45  H    6.097293   3.381751   2.175305   1.089081   2.149254
                   31         32         33         34         35
    31  H    0.000000
    32  H    2.428658   0.000000
    33  H    4.320140   2.480107   0.000000
    34  H    6.035173   4.952242   2.726820   0.000000
    35  H    7.167797   6.800237   4.963920   2.440346   0.000000
    36  H    7.832090   8.286767   7.056788   4.992831   2.773824
    37  H    7.767432   8.897095   8.305520   6.821807   4.986245
    38  H    7.083538   8.831537   8.981328   8.250519   6.982558
    39  H    7.312273   9.416590  10.066928   9.804474   8.844520
    40  H    7.297362   9.643393  10.843912  11.158134  10.632354
    41  H    6.979299   9.367146  10.994931  11.815631  11.713333
    42  H    6.382821   8.610758  10.638039  12.001234  12.392956
    43  H    5.469468   7.334415   9.623698  11.431500  12.275179
    44  H    4.371197   5.564777   7.997364  10.188387  11.471077
    45  H    2.182839   3.148081   5.517380   7.694069   9.079217
                   36         37         38         39         40
    36  H    0.000000
    37  H    2.447734   0.000000
    38  H    4.908060   2.661391   0.000000
    39  H    6.966231   4.755734   2.095518   0.000000
    40  H    9.115450   7.082338   4.450205   2.458332   0.000000
    41  H   10.601207   8.817311   6.304259   4.502045   2.165491
    42  H   11.798946  10.379166   8.114868   6.615533   4.529663
    43  H   12.206980  11.206119   9.296468   8.179316   6.465021
    44  H   11.964097  11.457764  10.028666   9.383215   8.163811
    45  H    9.839419   9.686612   8.729207   8.593961   8.035874
                   41         42         43         44         45
    41  H    0.000000
    42  H    2.468441   0.000000
    43  H    4.634795   2.328019   0.000000
    44  H    6.685303   4.682498   2.489270   0.000000
    45  H    7.161593   5.869337   4.297134   2.513648   0.000000
 Stoichiometry    C30H15(2)
 Framework group  C1[X(C30H15)]
 Deg. of freedom   129
 Full point group                 C1      NOp   1
 Largest Abelian subgroup         C1      NOp   1
 Largest concise Abelian subgroup C1      NOp   1
                         Standard orientation:                         
 ---------------------------------------------------------------------
 Center     Atomic      Atomic             Coordinates (Angstroms)
 Number     Number       Type             X           Y           Z
 ---------------------------------------------------------------------
      1          6           0        1.022073    1.150846    0.045636
      2          6           0        0.519213   -0.319642    0.030593
      3          6           0        1.755303   -1.046660   -0.008024
      4          6           0        2.447655    1.106090   -0.056150
      5          6           0        2.883099   -0.208178   -0.047489
      6          6           0        3.364091    2.161804   -0.048640
      7          6           0        4.752779    1.789772   -0.048120
      8          6           0        5.162776    0.470926   -0.039473
      9          6           0        4.209981   -0.601220   -0.031262
     10          6           0        1.995735   -2.424263    0.000625
     11          6           0        3.365035   -2.887663    0.001189
     12          6           0        4.430684   -2.025351   -0.006883
     13          6           0        0.548723    2.449755    0.241265
     14          6           0        1.424727    3.570238    0.154441
     15          6           0        2.801652    3.460863    0.005539
     16          6           0       -0.695727   -1.126774    0.015021
     17          6           0       -0.422224   -2.586217    0.008011
     18          6           0        0.847080   -3.187948    0.008626
     19          6           0       -2.162080   -0.776359   -0.001215
     20          6           0       -3.116913   -1.841038    0.006990
     21          6           0       -2.755021   -3.215844    0.007806
     22          6           0       -1.461065   -3.565644    0.000432
     23          6           0       -2.788056    0.554103   -0.033499
     24          6           0       -4.231885    0.724990    0.013216
     25          6           0       -5.083295   -0.406302    0.037201
     26          6           0       -4.530359   -1.637328    0.022265
     27          6           0       -4.833675    2.006356    0.012394
     28          6           0       -4.092874    3.162051   -0.066619
     29          6           0       -2.689740    3.044074   -0.168372
     30          6           0       -2.155604    1.788948   -0.151870
     31          1           0       -0.502727    2.651467    0.555204
     32          1           0        0.973354    4.556727    0.255962
     33          1           0        3.428348    4.346226   -0.026218
     34          1           0        5.501705    2.575282   -0.048365
     35          1           0        6.223981    0.244406   -0.023386
     36          1           0        5.442530   -2.416951    0.001420
     37          1           0        3.541205   -3.958412    0.017510
     38          1           0        0.898265   -4.271259    0.017064
     39          1           0       -1.169762   -4.609202    0.001055
     40          1           0       -3.541132   -3.961301    0.015871
     41          1           0       -5.158145   -2.520962    0.022590
     42          1           0       -6.158292   -0.264414    0.052587
     43          1           0       -5.917184    2.051040    0.067120
     44          1           0       -4.566186    4.137475   -0.067248
     45          1           0       -2.068481    3.933558   -0.262991
 ---------------------------------------------------------------------
 Rotational constants (GHZ):           0.2782097           0.1341396           0.0905795
 Standard basis: 6-311+G(d,p) (5D, 7F)
 There are   780 symmetry adapted cartesian basis functions of A   symmetry.
 There are   750 symmetry adapted basis functions of A   symmetry.
   750 basis functions,  1200 primitive gaussians,   780 cartesian basis functions
    98 alpha electrons       97 beta electrons
       nuclear repulsion energy      2525.2981757132 Hartrees.
 NAtoms=   45 NActive=   45 NUniq=   45 SFac= 1.00D+00 NAtFMM=   60 NAOKFM=F Big=F
 Integral buffers will be    131072 words long.
 Raffenetti 2 integral format.
 Two-electron integral symmetry is turned on.
 One-electron integrals computed using PRISM.
 NBasis=   750 RedAO= T EigKep=  1.35D-06  NBF=   750
 NBsUse=   727 1.00D-06 EigRej=  9.65D-07 NBFU=   727
 ExpMin= 4.38D-02 ExpMax= 4.56D+03 ExpMxC= 6.82D+02 IAcc=2 IRadAn=         4 AccDes= 0.00D+00
 Harris functional with IExCor=  402 and IRadAn=       4 diagonalized for initial guess.
 HarFok:  IExCor=  402 AccDes= 0.00D+00 IRadAn=         4 IDoV= 1 UseB2=F ITyADJ=14
 ICtDFT=  3500011 ScaDFX=  1.000000  1.000000  1.000000  1.000000
 FoFCou: FMM=F IPFlag=           0 FMFlag=      100000 FMFlg1=           0
         NFxFlg=           0 DoJE=T BraDBF=F KetDBF=T FulRan=T
         wScrn=  0.000000 ICntrl=       500 IOpCl=  0 I1Cent=   200000004 NGrid=           0
         NMat0=    1 NMatS0=      1 NMatT0=    0 NMatD0=    1 NMtDS0=    0 NMtDT0=    0
 Petite list used in FoFCou.
 Initial guess <Sx>= 0.0000 <Sy>= 0.0000 <Sz>= 0.5000 <S**2>= 0.7500 S= 0.5000
 Requested convergence on RMS density matrix=1.00D-08 within 128 cycles.
 Requested convergence on MAX density matrix=1.00D-06.
 Requested convergence on             energy=1.00D-06.
 No special actions if energy rises.
 Restarting incremental Fock formation.
 SCF Done:  E(UB3LYP) =  -1152.41803543     A.U. after   23 cycles
            NFock= 23  Conv=0.55D-08     -V/T= 2.0046
 <Sx>= 0.0000 <Sy>= 0.0000 <Sz>= 0.5000 <S**2>= 0.7588 S= 0.5044
 <L.S>=  0.00000000000    
 Annihilation of the first spin contaminant:
 S**2 before annihilation     0.7588,   after     0.7500

 **********************************************************************

            Population analysis using the SCF Density.

 **********************************************************************

 Orbital symmetries:
 Alpha Orbitals:
       Occupied  (A) (A) (A) (A) (A) (A) (A) (A) (A) (A) (A) (A)
                 (A) (A) (A) (A) (A) (A) (A) (A) (A) (A) (A) (A)
                 (A) (A) (A) (A) (A) (A) (A) (A) (A) (A) (A) (A)
                 (A) (A) (A) (A) (A) (A) (A) (A) (A) (A) (A) (A)
                 (A) (A) (A) (A) (A) (A) (A) (A) (A) (A) (A) (A)
                 (A) (A) (A) (A) (A) (A) (A) (A) (A) (A) (A) (A)
                 (A) (A) (A) (A) (A) (A) (A) (A) (A) (A) (A) (A)
                 (A) (A) (A) (A) (A) (A) (A) (A) (A) (A) (A) (A)
                 (A) (A)
       Virtual   (A) (A) (A) (A) (A) (A) (A) (A) (A) (A) (A) (A)
                 (A) (A) (A) (A) (A) (A) (A) (A) (A) (A) (A) (A)
                 (A) (A) (A) (A) (A) (A) (A) (A) (A) (A) (A) (A)
                 (A) (A) (A) (A) (A) (A) (A) (A) (A) (A) (A) (A)
                 (A) (A) (A) (A) (A) (A) (A) (A) (A) (A) (A) (A)
                 (A) (A) (A) (A) (A) (A) (A) (A) (A) (A) (A) (A)
                 (A) (A) (A) (A) (A) (A) (A) (A) (A) (A) (A) (A)
                 (A) (A) (A) (A) (A) (A) (A) (A) (A) (A) (A) (A)
                 (A) (A) (A) (A) (A) (A) (A) (A) (A) (A) (A) (A)
                 (A) (A) (A) (A) (A) (A) (A) (A) (A) (A) (A) (A)
                 (A) (A) (A) (A) (A) (A) (A) (A) (A) (A) (A) (A)
                 (A) (A) (A) (A) (A) (A) (A) (A) (A) (A) (A) (A)
                 (A) (A) (A) (A) (A) (A) (A) (A) (A) (A) (A) (A)
                 (A) (A) (A) (A) (A) (A) (A) (A) (A) (A) (A) (A)
                 (A) (A) (A) (A) (A) (A) (A) (A) (A) (A) (A) (A)
                 (A) (A) (A) (A) (A) (A) (A) (A) (A) (A) (A) (A)
                 (A) (A) (A) (A) (A) (A) (A) (A) (A) (A) (A) (A)
                 (A) (A) (A) (A) (A) (A) (A) (A) (A) (A) (A) (A)
                 (A) (A) (A) (A) (A) (A) (A) (A) (A) (A) (A) (A)
                 (A) (A) (A) (A) (A) (A) (A) (A) (A) (A) (A) (A)
                 (A) (A) (A) (A) (A) (A) (A) (A) (A) (A) (A) (A)
                 (A) (A) (A) (A) (A) (A) (A) (A) (A) (A) (A) (A)
                 (A) (A) (A) (A) (A) (A) (A) (A) (A) (A) (A) (A)
                 (A) (A) (A) (A) (A) (A) (A) (A) (A) (A) (A) (A)
                 (A) (A) (A) (A) (A) (A) (A) (A) (A) (A) (A) (A)
                 (A) (A) (A) (A) (A) (A) (A) (A) (A) (A) (A) (A)
                 (A) (A) (A) (A) (A) (A) (A) (A) (A) (A) (A) (A)
                 (A) (A) (A) (A) (A) (A) (A) (A) (A) (A) (A) (A)
                 (A) (A) (A) (A) (A) (A) (A) (A) (A) (A) (A) (A)
                 (A) (A) (A) (A) (A) (A) (A) (A) (A) (A) (A) (A)
                 (A) (A) (A) (A) (A) (A) (A) (A) (A) (A) (A) (A)
                 (A) (A) (A) (A) (A) (A) (A) (A) (A) (A) (A) (A)
                 (A) (A) (A) (A) (A) (A) (A) (A) (A) (A) (A) (A)
                 (A) (A) (A) (A) (A) (A) (A) (A) (A) (A) (A) (A)
                 (A) (A) (A) (A) (A) (A) (A) (A) (A) (A) (A) (A)
                 (A) (A) (A) (A) (A) (A) (A) (A) (A) (A) (A) (A)
                 (A) (A) (A) (A) (A) (A) (A) (A) (A) (A) (A) (A)
                 (A) (A) (A) (A) (A) (A) (A) (A) (A) (A) (A) (A)
                 (A) (A) (A) (A) (A) (A) (A) (A) (A) (A) (A) (A)
                 (A) (A) (A) (A) (A) (A) (A) (A) (A) (A) (A) (A)
                 (A) (A) (A) (A) (A) (A) (A) (A) (A) (A) (A) (A)
                 (A) (A) (A) (A) (A) (A) (A) (A) (A) (A) (A) (A)
                 (A) (A) (A) (A) (A) (A) (A) (A) (A) (A) (A) (A)
                 (A) (A) (A) (A) (A) (A) (A) (A) (A) (A) (A) (A)
                 (A) (A) (A) (A) (A) (A) (A) (A) (A) (A) (A) (A)
                 (A) (A) (A) (A) (A) (A) (A) (A) (A) (A) (A) (A)
                 (A) (A) (A) (A) (A) (A) (A) (A) (A) (A) (A) (A)
                 (A) (A) (A) (A) (A) (A) (A) (A) (A) (A) (A) (A)
                 (A) (A) (A) (A) (A) (A) (A) (A) (A) (A) (A) (A)
                 (A) (A) (A) (A) (A) (A) (A) (A) (A) (A) (A) (A)
                 (A) (A) (A) (A) (A) (A) (A) (A) (A) (A) (A) (A)
                 (A) (A) (A) (A) (A) (A) (A) (A) (A) (A) (A) (A)
                 (A) (A) (A) (A) (A)
 Beta  Orbitals:
       Occupied  (A) (A) (A) (A) (A) (A) (A) (A) (A) (A) (A) (A)
                 (A) (A) (A) (A) (A) (A) (A) (A) (A) (A) (A) (A)
                 (A) (A) (A) (A) (A) (A) (A) (A) (A) (A) (A) (A)
                 (A) (A) (A) (A) (A) (A) (A) (A) (A) (A) (A) (A)
                 (A) (A) (A) (A) (A) (A) (A) (A) (A) (A) (A) (A)
                 (A) (A) (A) (A) (A) (A) (A) (A) (A) (A) (A) (A)
                 (A) (A) (A) (A) (A) (A) (A) (A) (A) (A) (A) (A)
                 (A) (A) (A) (A) (A) (A) (A) (A) (A) (A) (A) (A)
                 (A)
       Virtual   (A) (A) (A) (A) (A) (A) (A) (A) (A) (A) (A) (A)
                 (A) (A) (A) (A) (A) (A) (A) (A) (A) (A) (A) (A)
                 (A) (A) (A) (A) (A) (A) (A) (A) (A) (A) (A) (A)
                 (A) (A) (A) (A) (A) (A) (A) (A) (A) (A) (A) (A)
                 (A) (A) (A) (A) (A) (A) (A) (A) (A) (A) (A) (A)
                 (A) (A) (A) (A) (A) (A) (A) (A) (A) (A) (A) (A)
                 (A) (A) (A) (A) (A) (A) (A) (A) (A) (A) (A) (A)
                 (A) (A) (A) (A) (A) (A) (A) (A) (A) (A) (A) (A)
                 (A) (A) (A) (A) (A) (A) (A) (A) (A) (A) (A) (A)
                 (A) (A) (A) (A) (A) (A) (A) (A) (A) (A) (A) (A)
                 (A) (A) (A) (A) (A) (A) (A) (A) (A) (A) (A) (A)
                 (A) (A) (A) (A) (A) (A) (A) (A) (A) (A) (A) (A)
                 (A) (A) (A) (A) (A) (A) (A) (A) (A) (A) (A) (A)
                 (A) (A) (A) (A) (A) (A) (A) (A) (A) (A) (A) (A)
                 (A) (A) (A) (A) (A) (A) (A) (A) (A) (A) (A) (A)
                 (A) (A) (A) (A) (A) (A) (A) (A) (A) (A) (A) (A)
                 (A) (A) (A) (A) (A) (A) (A) (A) (A) (A) (A) (A)
                 (A) (A) (A) (A) (A) (A) (A) (A) (A) (A) (A) (A)
                 (A) (A) (A) (A) (A) (A) (A) (A) (A) (A) (A) (A)
                 (A) (A) (A) (A) (A) (A) (A) (A) (A) (A) (A) (A)
                 (A) (A) (A) (A) (A) (A) (A) (A) (A) (A) (A) (A)
                 (A) (A) (A) (A) (A) (A) (A) (A) (A) (A) (A) (A)
                 (A) (A) (A) (A) (A) (A) (A) (A) (A) (A) (A) (A)
                 (A) (A) (A) (A) (A) (A) (A) (A) (A) (A) (A) (A)
                 (A) (A) (A) (A) (A) (A) (A) (A) (A) (A) (A) (A)
                 (A) (A) (A) (A) (A) (A) (A) (A) (A) (A) (A) (A)
                 (A) (A) (A) (A) (A) (A) (A) (A) (A) (A) (A) (A)
                 (A) (A) (A) (A) (A) (A) (A) (A) (A) (A) (A) (A)
                 (A) (A) (A) (A) (A) (A) (A) (A) (A) (A) (A) (A)
                 (A) (A) (A) (A) (A) (A) (A) (A) (A) (A) (A) (A)
                 (A) (A) (A) (A) (A) (A) (A) (A) (A) (A) (A) (A)
                 (A) (A) (A) (A) (A) (A) (A) (A) (A) (A) (A) (A)
                 (A) (A) (A) (A) (A) (A) (A) (A) (A) (A) (A) (A)
                 (A) (A) (A) (A) (A) (A) (A) (A) (A) (A) (A) (A)
                 (A) (A) (A) (A) (A) (A) (A) (A) (A) (A) (A) (A)
                 (A) (A) (A) (A) (A) (A) (A) (A) (A) (A) (A) (A)
                 (A) (A) (A) (A) (A) (A) (A) (A) (A) (A) (A) (A)
                 (A) (A) (A) (A) (A) (A) (A) (A) (A) (A) (A) (A)
                 (A) (A) (A) (A) (A) (A) (A) (A) (A) (A) (A) (A)
                 (A) (A) (A) (A) (A) (A) (A) (A) (A) (A) (A) (A)
                 (A) (A) (A) (A) (A) (A) (A) (A) (A) (A) (A) (A)
                 (A) (A) (A) (A) (A) (A) (A) (A) (A) (A) (A) (A)
                 (A) (A) (A) (A) (A) (A) (A) (A) (A) (A) (A) (A)
                 (A) (A) (A) (A) (A) (A) (A) (A) (A) (A) (A) (A)
                 (A) (A) (A) (A) (A) (A) (A) (A) (A) (A) (A) (A)
                 (A) (A) (A) (A) (A) (A) (A) (A) (A) (A) (A) (A)
                 (A) (A) (A) (A) (A) (A) (A) (A) (A) (A) (A) (A)
                 (A) (A) (A) (A) (A) (A) (A) (A) (A) (A) (A) (A)
                 (A) (A) (A) (A) (A) (A) (A) (A) (A) (A) (A) (A)
                 (A) (A) (A) (A) (A) (A) (A) (A) (A) (A) (A) (A)
                 (A) (A) (A) (A) (A) (A) (A) (A) (A) (A) (A) (A)
                 (A) (A) (A) (A) (A) (A) (A) (A) (A) (A) (A) (A)
                 (A) (A) (A) (A) (A) (A)
 The electronic state is 2-A.
 Alpha  occ. eigenvalues --  -10.22623 -10.21564 -10.21127 -10.20949 -10.20025
 Alpha  occ. eigenvalues --  -10.19957 -10.19949 -10.19932 -10.19763 -10.19363
 Alpha  occ. eigenvalues --  -10.18918 -10.18912 -10.18855 -10.18848 -10.18845
 Alpha  occ. eigenvalues --  -10.18792 -10.18788 -10.18770 -10.18662 -10.18645
 Alpha  occ. eigenvalues --  -10.18607 -10.18430 -10.18333 -10.18302 -10.18300
 Alpha  occ. eigenvalues --  -10.18097 -10.17699 -10.17619 -10.16807 -10.16653
 Alpha  occ. eigenvalues --   -0.91491  -0.89572  -0.87447  -0.85701  -0.84312
 Alpha  occ. eigenvalues --   -0.82482  -0.81048  -0.79496  -0.78915  -0.76323
 Alpha  occ. eigenvalues --   -0.75197  -0.74649  -0.72597  -0.72263  -0.71509
 Alpha  occ. eigenvalues --   -0.66734  -0.65230  -0.63575  -0.62959  -0.62582
 Alpha  occ. eigenvalues --   -0.60451  -0.59614  -0.58480  -0.56903  -0.54096
 Alpha  occ. eigenvalues --   -0.53671  -0.52344  -0.51955  -0.50987  -0.50287
 Alpha  occ. eigenvalues --   -0.49157  -0.48085  -0.47407  -0.46850  -0.44794
 Alpha  occ. eigenvalues --   -0.44586  -0.43937  -0.43713  -0.43382  -0.43024
 Alpha  occ. eigenvalues --   -0.42484  -0.41854  -0.41356  -0.41274  -0.40318
 Alpha  occ. eigenvalues --   -0.40181  -0.39730  -0.38921  -0.38241  -0.37063
 Alpha  occ. eigenvalues --   -0.36759  -0.36274  -0.35376  -0.35149  -0.34863
 Alpha  occ. eigenvalues --   -0.33486  -0.33131  -0.32753  -0.31806  -0.29981
 Alpha  occ. eigenvalues --   -0.29511  -0.27184  -0.25537  -0.24706  -0.23200
 Alpha  occ. eigenvalues --   -0.22792  -0.22032  -0.20985
 Alpha virt. eigenvalues --   -0.09380  -0.05603  -0.05174  -0.03841  -0.02138
 Alpha virt. eigenvalues --   -0.00605  -0.00126   0.00399   0.00557   0.01132
 Alpha virt. eigenvalues --    0.01409   0.01521   0.01799   0.02712   0.02897
 Alpha virt. eigenvalues --    0.02988   0.03328   0.04327   0.04430   0.04522
 Alpha virt. eigenvalues --    0.04726   0.05051   0.05118   0.05516   0.06007
 Alpha virt. eigenvalues --    0.06574   0.06805   0.07660   0.07843   0.07906
 Alpha virt. eigenvalues --    0.08201   0.08372   0.08763   0.08895   0.09142
 Alpha virt. eigenvalues --    0.09429   0.10423   0.10761   0.10867   0.11149
 Alpha virt. eigenvalues --    0.11514   0.11806   0.12060   0.12328   0.12515
 Alpha virt. eigenvalues --    0.13018   0.13065   0.13694   0.13749   0.14152
 Alpha virt. eigenvalues --    0.14768   0.15109   0.15237   0.15336   0.15603
 Alpha virt. eigenvalues --    0.16119   0.16268   0.16375   0.16444   0.16600
 Alpha virt. eigenvalues --    0.16822   0.16903   0.17375   0.17410   0.18194
 Alpha virt. eigenvalues --    0.18466   0.18500   0.18715   0.18777   0.19111
 Alpha virt. eigenvalues --    0.19336   0.19400   0.19616   0.19734   0.19807
 Alpha virt. eigenvalues --    0.20258   0.20408   0.20531   0.20948   0.21288
 Alpha virt. eigenvalues --    0.21373   0.21487   0.21798   0.22078   0.22410
 Alpha virt. eigenvalues --    0.22574   0.23035   0.23122   0.23225   0.23607
 Alpha virt. eigenvalues --    0.23914   0.23998   0.24091   0.24273   0.24425
 Alpha virt. eigenvalues --    0.24686   0.24981   0.25222   0.25661   0.25802
 Alpha virt. eigenvalues --    0.26090   0.26294   0.26545   0.26589   0.27226
 Alpha virt. eigenvalues --    0.27399   0.27743   0.28010   0.28198   0.28580
 Alpha virt. eigenvalues --    0.28941   0.29243   0.29709   0.29786   0.30012
 Alpha virt. eigenvalues --    0.30269   0.30568   0.30823   0.31065   0.31190
 Alpha virt. eigenvalues --    0.31620   0.31843   0.32354   0.32451   0.33276
 Alpha virt. eigenvalues --    0.33452   0.33832   0.34241   0.34401   0.35019
 Alpha virt. eigenvalues --    0.35258   0.35641   0.35982   0.36633   0.36830
 Alpha virt. eigenvalues --    0.37399   0.38105   0.38357   0.39055   0.39902
 Alpha virt. eigenvalues --    0.40532   0.41075   0.41429   0.41792   0.42838
 Alpha virt. eigenvalues --    0.43174   0.43690   0.44154   0.44648   0.45186
 Alpha virt. eigenvalues --    0.45872   0.46645   0.46998   0.47506   0.47951
 Alpha virt. eigenvalues --    0.48872   0.49323   0.50104   0.50338   0.51841
 Alpha virt. eigenvalues --    0.52379   0.52688   0.53115   0.53333   0.53527
 Alpha virt. eigenvalues --    0.53683   0.53982   0.54276   0.54404   0.54868
 Alpha virt. eigenvalues --    0.55107   0.55456   0.56301   0.56349   0.56796
 Alpha virt. eigenvalues --    0.57012   0.57231   0.57607   0.58060   0.58076
 Alpha virt. eigenvalues --    0.59200   0.59411   0.59605   0.59863   0.60312
 Alpha virt. eigenvalues --    0.60832   0.61291   0.61561   0.61835   0.62538
 Alpha virt. eigenvalues --    0.63025   0.63223   0.63597   0.63910   0.64299
 Alpha virt. eigenvalues --    0.64543   0.64872   0.65254   0.65460   0.65604
 Alpha virt. eigenvalues --    0.66566   0.66827   0.67061   0.67375   0.68035
 Alpha virt. eigenvalues --    0.68492   0.68842   0.69499   0.69653   0.70505
 Alpha virt. eigenvalues --    0.71124   0.71704   0.71924   0.72031   0.72150
 Alpha virt. eigenvalues --    0.72175   0.73047   0.73430   0.73579   0.73912
 Alpha virt. eigenvalues --    0.74084   0.74620   0.74663   0.75095   0.75599
 Alpha virt. eigenvalues --    0.75912   0.76500   0.77131   0.77289   0.77421
 Alpha virt. eigenvalues --    0.78662   0.79473   0.79770   0.81228   0.82135
 Alpha virt. eigenvalues --    0.83116   0.83240   0.84219   0.84624   0.86018
 Alpha virt. eigenvalues --    0.86203   0.87068   0.87815   0.88374   0.88617
 Alpha virt. eigenvalues --    0.88883   0.89425   0.90165   0.91184   0.91334
 Alpha virt. eigenvalues --    0.91601   0.92222   0.92444   0.93308   0.93724
 Alpha virt. eigenvalues --    0.94042   0.94647   0.94794   0.94970   0.95554
 Alpha virt. eigenvalues --    0.95689   0.96130   0.96512   0.96867   0.96995
 Alpha virt. eigenvalues --    0.97443   0.97466   0.98061   0.98594   0.99014
 Alpha virt. eigenvalues --    0.99228   0.99706   1.00639   1.00735   1.01040
 Alpha virt. eigenvalues --    1.01758   1.02118   1.02501   1.03304   1.03822
 Alpha virt. eigenvalues --    1.04035   1.04632   1.04873   1.05582   1.06065
 Alpha virt. eigenvalues --    1.06575   1.07073   1.07534   1.08188   1.09550
 Alpha virt. eigenvalues --    1.09802   1.10889   1.11870   1.12280   1.12679
 Alpha virt. eigenvalues --    1.13353   1.14429   1.15327   1.15465   1.16300
 Alpha virt. eigenvalues --    1.17005   1.17841   1.18502   1.19584   1.21072
 Alpha virt. eigenvalues --    1.22028   1.22749   1.23614   1.24884   1.26542
 Alpha virt. eigenvalues --    1.28071   1.30412   1.31281   1.32296   1.33478
 Alpha virt. eigenvalues --    1.34607   1.35440   1.36749   1.37234   1.39307
 Alpha virt. eigenvalues --    1.40652   1.41384   1.42783   1.43143   1.45605
 Alpha virt. eigenvalues --    1.45893   1.47017   1.47620   1.48150   1.48548
 Alpha virt. eigenvalues --    1.49092   1.49179   1.49606   1.50299   1.50520
 Alpha virt. eigenvalues --    1.50722   1.50740   1.52069   1.52376   1.53858
 Alpha virt. eigenvalues --    1.54914   1.55416   1.56188   1.56731   1.56951
 Alpha virt. eigenvalues --    1.57207   1.57555   1.57775   1.58338   1.59403
 Alpha virt. eigenvalues --    1.59563   1.60082   1.61186   1.61204   1.62627
 Alpha virt. eigenvalues --    1.63304   1.65034   1.65916   1.66641   1.67893
 Alpha virt. eigenvalues --    1.69267   1.69310   1.70154   1.71274   1.71924
 Alpha virt. eigenvalues --    1.72209   1.72671   1.73129   1.73617   1.74593
 Alpha virt. eigenvalues --    1.74825   1.75303   1.75602   1.76793   1.77978
 Alpha virt. eigenvalues --    1.78842   1.79574   1.80826   1.81396   1.81920
 Alpha virt. eigenvalues --    1.82574   1.83258   1.84359   1.84586   1.85680
 Alpha virt. eigenvalues --    1.85762   1.86119   1.86573   1.87540   1.87909
 Alpha virt. eigenvalues --    1.88767   1.89046   1.89200   1.89667   1.90162
 Alpha virt. eigenvalues --    1.91123   1.91233   1.91752   1.92503   1.92806
 Alpha virt. eigenvalues --    1.93709   1.94781   1.95269   1.96084   1.96630
 Alpha virt. eigenvalues --    1.97254   1.98096   1.98862   1.99854   2.00377
 Alpha virt. eigenvalues --    2.00940   2.01554   2.01730   2.02799   2.03601
 Alpha virt. eigenvalues --    2.03899   2.04471   2.05490   2.06561   2.07251
 Alpha virt. eigenvalues --    2.08868   2.09401   2.10609   2.11333   2.12240
 Alpha virt. eigenvalues --    2.12664   2.13702   2.14152   2.14428   2.15414
 Alpha virt. eigenvalues --    2.16002   2.16541   2.17666   2.20088   2.20460
 Alpha virt. eigenvalues --    2.21183   2.22621   2.23632   2.24131   2.24980
 Alpha virt. eigenvalues --    2.26774   2.27912   2.29599   2.31201   2.31860
 Alpha virt. eigenvalues --    2.33534   2.33891   2.34960   2.36368   2.38075
 Alpha virt. eigenvalues --    2.40396   2.41233   2.41445   2.42859   2.43087
 Alpha virt. eigenvalues --    2.44009   2.44083   2.45152   2.45955   2.47201
 Alpha virt. eigenvalues --    2.47654   2.49527   2.53236   2.55582   2.55861
 Alpha virt. eigenvalues --    2.57623   2.58444   2.59115   2.61415   2.62061
 Alpha virt. eigenvalues --    2.63800   2.64209   2.66048   2.66341   2.66822
 Alpha virt. eigenvalues --    2.67536   2.68736   2.68909   2.69501   2.69857
 Alpha virt. eigenvalues --    2.71010   2.71365   2.71995   2.72442   2.72709
 Alpha virt. eigenvalues --    2.73133   2.73504   2.74117   2.74443   2.74885
 Alpha virt. eigenvalues --    2.75479   2.75751   2.76378   2.76584   2.77111
 Alpha virt. eigenvalues --    2.77384   2.78616   2.78654   2.79105   2.80494
 Alpha virt. eigenvalues --    2.81173   2.82171   2.82532   2.83563   2.83949
 Alpha virt. eigenvalues --    2.84418   2.84851   2.85091   2.86347   2.86689
 Alpha virt. eigenvalues --    2.87574   2.88374   2.88914   2.89181   2.90378
 Alpha virt. eigenvalues --    2.91064   2.91547   2.92359   2.93281   2.93745
 Alpha virt. eigenvalues --    2.94533   2.96728   2.99352   3.01094   3.02233
 Alpha virt. eigenvalues --    3.04434   3.05607   3.07831   3.08797   3.11120
 Alpha virt. eigenvalues --    3.12236   3.13646   3.13754   3.15474   3.16541
 Alpha virt. eigenvalues --    3.20921   3.21188   3.21780   3.23412   3.24897
 Alpha virt. eigenvalues --    3.25131   3.26759   3.30764   3.31874   3.34483
 Alpha virt. eigenvalues --    3.35788   3.36102   3.37712   3.38639   3.39267
 Alpha virt. eigenvalues --    3.41940   3.42941   3.43543   3.44588   3.45264
 Alpha virt. eigenvalues --    3.46995   3.47875   3.49858   3.50427   3.51185
 Alpha virt. eigenvalues --    3.53348   3.55861   3.56772   3.57900   3.58571
 Alpha virt. eigenvalues --    3.61407   3.62897   3.63328   3.66789   3.69526
 Alpha virt. eigenvalues --    3.73104   3.75699   3.83300   3.83717   3.85576
 Alpha virt. eigenvalues --    3.94648   3.99691   4.04769   4.06019   4.07698
 Alpha virt. eigenvalues --    4.07961   4.10652   4.11553   4.13488   4.15112
 Alpha virt. eigenvalues --    4.22955   4.26434   4.31553   4.36306   4.43648
 Alpha virt. eigenvalues --    4.64775   4.74224   4.76380   4.77287   4.78490
 Alpha virt. eigenvalues --    4.79971   4.81138   4.81552   4.87654  23.40319
 Alpha virt. eigenvalues --   23.51954  23.65991  23.74367  23.78289  23.81751
 Alpha virt. eigenvalues --   23.83921  23.85400  23.87966  23.90394  23.91084
 Alpha virt. eigenvalues --   23.91997  23.94351  23.98290  23.99237  24.00001
 Alpha virt. eigenvalues --   24.00304  24.00513  24.05163  24.06151  24.08407
 Alpha virt. eigenvalues --   24.13182  24.13334  24.14146  24.16190  24.16976
 Alpha virt. eigenvalues --   24.19394  24.20810  24.24064  24.27434
  Beta  occ. eigenvalues --  -10.22627 -10.21506 -10.21123 -10.20946 -10.19938
  Beta  occ. eigenvalues --  -10.19929 -10.19901 -10.19780 -10.19365 -10.18918
  Beta  occ. eigenvalues --  -10.18869 -10.18855 -10.18844 -10.18809 -10.18787
  Beta  occ. eigenvalues --  -10.18772 -10.18700 -10.18665 -10.18641 -10.18602
  Beta  occ. eigenvalues --  -10.18420 -10.18376 -10.18359 -10.18315 -10.18286
  Beta  occ. eigenvalues --  -10.18107 -10.17693 -10.17619 -10.16810 -10.16650
  Beta  occ. eigenvalues --   -0.91476  -0.89270  -0.87256  -0.85557  -0.84186
  Beta  occ. eigenvalues --   -0.82356  -0.80970  -0.79352  -0.78677  -0.76171
  Beta  occ. eigenvalues --   -0.74933  -0.74302  -0.72537  -0.72172  -0.71273
  Beta  occ. eigenvalues --   -0.66651  -0.65045  -0.63444  -0.62881  -0.62425
  Beta  occ. eigenvalues --   -0.60133  -0.59381  -0.58129  -0.56755  -0.53819
  Beta  occ. eigenvalues --   -0.53497  -0.52166  -0.51797  -0.50825  -0.50007
  Beta  occ. eigenvalues --   -0.48984  -0.47972  -0.47224  -0.46724  -0.44678
  Beta  occ. eigenvalues --   -0.44441  -0.43648  -0.43595  -0.43318  -0.42999
  Beta  occ. eigenvalues --   -0.42384  -0.41620  -0.41273  -0.41166  -0.40195
  Beta  occ. eigenvalues --   -0.39863  -0.39546  -0.38751  -0.38096  -0.36825
  Beta  occ. eigenvalues --   -0.36695  -0.36178  -0.35259  -0.34993  -0.34731
  Beta  occ. eigenvalues --   -0.33464  -0.33065  -0.32699  -0.31710  -0.29849
  Beta  occ. eigenvalues --   -0.29461  -0.27026  -0.25422  -0.24192  -0.22853
  Beta  occ. eigenvalues --   -0.22095  -0.20849
  Beta virt. eigenvalues --   -0.09422  -0.08302  -0.05603  -0.04899  -0.03694
  Beta virt. eigenvalues --   -0.02022  -0.00512  -0.00115   0.00422   0.00560
  Beta virt. eigenvalues --    0.01341   0.01439   0.01548   0.01838   0.02728
  Beta virt. eigenvalues --    0.02902   0.03075   0.03358   0.04357   0.04472
  Beta virt. eigenvalues --    0.04526   0.04754   0.05050   0.05183   0.05544
  Beta virt. eigenvalues --    0.06039   0.06596   0.06819   0.07703   0.07889
  Beta virt. eigenvalues --    0.07921   0.08219   0.08399   0.08794   0.08938
  Beta virt. eigenvalues --    0.09164   0.09434   0.10532   0.10800   0.10893
  Beta virt. eigenvalues --    0.11161   0.11536   0.11827   0.12087   0.12396
  Beta virt. eigenvalues --    0.12549   0.13059   0.13115   0.13759   0.13770
  Beta virt. eigenvalues --    0.14177   0.14797   0.15148   0.15258   0.15361
  Beta virt. eigenvalues --    0.15665   0.16130   0.16281   0.16394   0.16507
  Beta virt. eigenvalues --    0.16669   0.16867   0.16925   0.17421   0.17479
  Beta virt. eigenvalues --    0.18218   0.18480   0.18599   0.18761   0.18806
  Beta virt. eigenvalues --    0.19151   0.19360   0.19494   0.19672   0.19767
  Beta virt. eigenvalues --    0.19849   0.20298   0.20427   0.20543   0.20988
  Beta virt. eigenvalues --    0.21324   0.21426   0.21601   0.21820   0.22154
  Beta virt. eigenvalues --    0.22444   0.22627   0.23054   0.23146   0.23383
  Beta virt. eigenvalues --    0.23659   0.23938   0.24014   0.24163   0.24320
  Beta virt. eigenvalues --    0.24458   0.24775   0.25087   0.25291   0.25702
  Beta virt. eigenvalues --    0.25821   0.26104   0.26329   0.26581   0.26695
  Beta virt. eigenvalues --    0.27249   0.27495   0.27788   0.28058   0.28279
  Beta virt. eigenvalues --    0.28634   0.29039   0.29302   0.29729   0.29860
  Beta virt. eigenvalues --    0.30072   0.30304   0.30598   0.30878   0.31094
  Beta virt. eigenvalues --    0.31234   0.31649   0.31914   0.32470   0.32666
  Beta virt. eigenvalues --    0.33469   0.33575   0.34006   0.34313   0.34456
  Beta virt. eigenvalues --    0.35063   0.35374   0.35649   0.36076   0.36847
  Beta virt. eigenvalues --    0.36919   0.37475   0.38186   0.38502   0.39103
  Beta virt. eigenvalues --    0.40047   0.40634   0.41105   0.41512   0.41836
  Beta virt. eigenvalues --    0.42886   0.43298   0.43718   0.44310   0.44668
  Beta virt. eigenvalues --    0.45248   0.45985   0.46706   0.47032   0.47604
  Beta virt. eigenvalues --    0.48091   0.48971   0.49468   0.50310   0.50391
  Beta virt. eigenvalues --    0.52048   0.52535   0.52770   0.53127   0.53436
  Beta virt. eigenvalues --    0.53665   0.53830   0.54038   0.54354   0.54672
  Beta virt. eigenvalues --    0.54936   0.55254   0.55539   0.56343   0.56475
  Beta virt. eigenvalues --    0.56850   0.57090   0.57449   0.57668   0.58098
  Beta virt. eigenvalues --    0.58135   0.59280   0.59473   0.59733   0.59859
  Beta virt. eigenvalues --    0.60350   0.61000   0.61472   0.61742   0.61837
  Beta virt. eigenvalues --    0.62536   0.63009   0.63405   0.63703   0.63999
  Beta virt. eigenvalues --    0.64351   0.64865   0.64966   0.65315   0.65506
  Beta virt. eigenvalues --    0.65778   0.66593   0.67055   0.67163   0.67440
  Beta virt. eigenvalues --    0.68081   0.68722   0.68990   0.69610   0.69874
  Beta virt. eigenvalues --    0.70581   0.71201   0.71743   0.72002   0.72096
  Beta virt. eigenvalues --    0.72239   0.72279   0.73082   0.73513   0.73709
  Beta virt. eigenvalues --    0.73988   0.74134   0.74672   0.74764   0.75341
[...]
 ,0.00001983,0.00001846,-0.00001101,0.00000173,-0.00000471,-0.00000380,
 -0.00000198,-0.00008264,-0.00024834,0.00038924,-0.00016380,-0.00008345
 ,-0.00013062,0.00006002,0.00004262,-0.00000671,-0.00052634,0.00057594,
 0.00003735,-0.00160661,0.00276076,-0.00397052,0.00068782,0.00044494,0.
 00012437,-0.00020898,0.00029799,0.00020002,-0.00307409,-0.00014555,-0.
 00377069,-0.00362706,-0.02646753,-0.00374312,-0.07244640,-0.06825657,-
 0.01921463,0.00902812,0.02104202,0.00272563,0.00057228,-0.00146509,0.0
 0155476,-0.00015648,0.00034175,0.00012911,0.00021127,0.00024558,0.0000
 7081,-0.00031133,-0.00132950,-0.00017032,0.00000620,-0.00000650,-0.000
 03398,-0.00000542,0.00000122,-0.00000020,-0.00000211,-0.00000128,-0.00
 000165,-0.00000104,-0.00000046,-0.00000190,-0.00000039,-0.00000009,-0.
 00000039,0.00000083,-0.00000092,0.00000044,-0.00000022,0.00000054,-0.0
 0000210,-0.00000356,-0.00000603,0.00000142,0.00000669,0.00009728,0.000
 05746,-0.00001925,0.00000567,-0.00004912,0.00008661,-0.00046986,0.0021
 5170,0.07155466,0.00000985,-0.00000219,0.00001939,-0.00000831,-0.00006
 832,-0.00002580,-0.00002187,0.00003662,0.00000615,-0.00002743,0.000006
 20,0.00000752,-0.00000480,-0.00002743,-0.00000202,-0.00000192,0.000010
 46,0.00000229,-0.00000719,-0.00001600,-0.00000257,-0.00001123,0.000013
 31,0.00000684,0.00000739,0.00000515,-0.00000674,0.00001852,-0.00000146
 ,0.00000777,-0.00000560,0.00001923,0.00000056,-0.00001030,-0.00000209,
 0.00000231,-0.00000784,-0.00002466,0.00001619,0.00001435,-0.00000997,-
 0.00000149,-0.00000775,-0.00001057,-0.00000072,-0.00002579,0.00002772,
 0.00005499,0.00004057,0.00003517,0.00003953,-0.00001881,-0.00000669,-0
 .00001749,0.00019008,0.00033384,0.00009688,0.00393055,-0.00048626,0.00
 091852,-0.00080939,-0.00078858,-0.00026216,0.00040745,-0.00021130,0.00
 005962,-0.00049755,0.00169118,-0.00046212,-0.00013607,-0.00419833,-0.0
 0021333,-0.06694710,-0.30760638,-0.04092819,-0.00846035,-0.01801233,-0
 .00434557,0.00141719,0.00061398,0.00089284,-0.00039612,0.00009401,-0.0
 0019521,0.00006796,0.00031852,0.00005701,0.00006669,-0.00045937,0.0000
 2928,0.00000772,-0.00000174,-0.00002510,-0.00000624,0.00000549,-0.0000
 0022,-0.00000591,-0.00000144,-0.00000013,-0.00000539,-0.00000051,-0.00
 000012,-0.00000312,-0.00000422,-0.00000037,-0.00000316,-0.00000540,-0.
 00000059,0.00000395,-0.00000373,-0.00000075,0.00000411,0.00000075,-0.0
 0000028,-0.00002225,-0.00011050,-0.00005451,0.00004414,0.00000210,0.00
 002053,0.00010969,0.00088972,0.00036874,0.07160246,0.32735490,-0.00011
 528,0.00000330,0.00005209,-0.00008132,0.00009059,-0.00000648,0.0000253
 1,0.00002688,0.00004309,0.00003304,0.00005134,0.00001576,-0.00001018,-
 0.00000910,0.00000278,-0.00001833,0.00000601,0.00000927,0.00001185,0.0
 0000671,-0.00000355,-0.00000358,-0.00000854,-0.00000341,-0.00001053,0.
 00001261,0.00000086,0.00002275,-0.00001181,-0.00001486,0.00001622,-0.0
 0000491,0.00000440,0.00000623,0.00001484,0.00000170,0.00002053,-0.0000
 2436,-0.00001899,-0.00000273,-0.00002690,0.00000513,-0.00000068,-0.000
 00342,-0.00000026,0.00039918,0.00012258,-0.00074773,0.00005038,-0.0000
 3265,0.00012569,0.00000484,-0.00000871,0.00002455,-0.00026269,0.000222
 50,-0.00089807,-0.00318492,0.00084099,0.00767611,0.00015010,0.00055173
 ,0.00020088,-0.00001857,0.00001738,-0.00043054,-0.00388694,0.00046188,
 0.00253728,-0.00294141,-0.01241565,0.00152343,-0.01943859,-0.04044887,
 -0.04632537,0.00214197,0.00682265,0.00550983,0.00139500,-0.00070433,-0
 .00169103,0.00021037,0.00028900,-0.00029194,0.00007741,0.00013355,0.00
 016059,-0.00012395,-0.00090070,-0.00014416,-0.00000221,0.00000262,-0.0
 0001056,0.00000436,-0.00000071,0.00000065,-0.00000046,-0.00000014,-0.0
 0000301,0.00000015,-0.00000067,0.00000011,0.00000146,-0.00000019,0.000
 00029,0.00000103,-0.00000039,-0.00000115,0.00000017,0.00000110,0.00000
 104,0.00000563,-0.00000081,-0.00000324,0.00000339,0.00002588,0.0000174
 7,-0.00003019,-0.00003666,0.00006193,0.00202340,0.00013855,-0.00442567
 ,0.02394144,0.04428198,0.03664095,-0.00001979,0.00000656,-0.00000485,0
 .00000574,0.00002541,-0.00000268,0.00000408,-0.00003070,0.00000538,0.0
 0000540,0.00001926,0.00001234,0.00001408,0.00000810,-0.00000140,-0.000
 00779,0.00000439,-0.00000149,0.00000286,0.00000530,0.00000111,0.000002
 73,0.00000094,0.00000144,0.00000226,-0.00001258,-0.00000487,-0.0000278
 6,-0.00000522,-0.00000330,0.00000868,0.00001291,0.00000162,-0.00001248
 ,0.00000493,0.00000282,0.00002552,-0.00001253,0.00000153,0.00001382,-0
 .00001399,-0.00001017,-0.00000062,-0.00000022,0.00000620,-0.00019195,0
 .00008301,-0.00017244,-0.00000063,0.00002615,0.00000982,-0.00000667,0.
 00003623,0.00002847,0.00044060,0.00079250,0.00006823,0.00014056,0.0002
 2988,0.00007000,-0.00000013,-0.00010554,-0.00003091,0.00004352,0.00004
 373,0.00002325,-0.00052671,0.00276734,-0.00291594,0.00766532,0.0166194
 7,0.00272634,0.00005131,0.00145941,0.00186659,0.00010211,-0.00039873,0
 .00010307,-0.07325363,-0.07189026,-0.02207788,-0.00246521,-0.02600104,
 -0.00352076,-0.00182928,-0.00081958,-0.00538698,-0.00155097,0.00062652
 ,-0.00027882,0.00000624,0.00000783,-0.00002469,-0.00000649,0.00000134,
 -0.00000125,-0.00000236,-0.00000110,-0.00000139,-0.00000201,-0.0000002
 4,-0.00000048,-0.00000035,-0.00000128,-0.00000066,-0.00000070,-0.00000
 131,-0.00000089,0.00000122,-0.00000059,-0.00000086,0.00000321,0.000008
 29,-0.00000392,-0.00000078,-0.00000488,-0.00000164,-0.00000927,0.00001
 091,-0.00000635,0.00003616,-0.00000582,-0.00009479,-0.00010706,-0.0004
 2537,-0.00027429,0.07226971,0.00000251,0.00001020,0.00001316,0.0000466
 9,-0.00000171,-0.00000154,-0.00000994,0.00001350,-0.00000672,-0.000018
 66,0.00001219,0.00000708,0.00000121,-0.00002304,0.00000107,-0.00000547
 ,0.00001123,0.00000554,-0.00000357,-0.00001341,-0.00000280,-0.00001068
 ,0.00001110,0.00000678,0.00001072,-0.00000294,-0.00000927,-0.00000026,
 -0.00000458,0.00000428,0.00000157,0.00001970,0.00000441,-0.00001593,0.
 00000045,0.00000237,-0.00001455,-0.00001787,0.00002036,0.00001751,-0.0
 0001667,-0.00000153,-0.00000848,-0.00000972,-0.00000145,0.00031762,-0.
 00015906,0.00013035,-0.00009715,-0.00009495,-0.00000952,0.00004067,0.0
 0000283,-0.00001210,-0.00091048,-0.00065516,-0.00035377,-0.00008092,0.
 00019247,0.00004588,0.00003240,0.00001400,-0.00000831,0.00006273,0.000
 01542,0.00001824,0.00321441,-0.00114726,0.00173302,-0.00798649,-0.0187
 6871,-0.00440681,-0.00187361,0.00080080,-0.00084997,0.00039304,0.00008
 379,0.00012880,-0.07169619,-0.30575294,-0.04011728,0.00025958,-0.00258
 799,0.00033526,-0.00097274,0.00193998,-0.00049253,0.00067900,0.0005939
 8,0.00039869,0.00001749,-0.00000133,-0.00003682,-0.00000721,0.00000378
 ,0.00000003,-0.00000543,-0.00000177,-0.00000105,-0.00000459,-0.0000005
 7,-0.00000043,-0.00000271,-0.00000424,-0.00000045,-0.00000257,-0.00000
 458,-0.00000046,0.00000320,-0.00000325,-0.00000076,0.00000215,-0.00001
 413,-0.00000391,0.00000280,-0.00000390,0.00000732,0.00002770,-0.000013
 78,0.00000432,0.00004356,-0.00003832,0.00001117,0.00093760,0.00055831,
 0.00045283,0.07776802,0.32449525,-0.00000496,-0.00001466,0.00003226,-0
 .00006856,-0.00003442,0.00004114,0.00000730,-0.00000538,-0.00000702,0.
 00001533,0.00000204,0.00000605,-0.00000749,-0.00001159,-0.00001053,0.0
 0000170,-0.00000974,-0.00000295,0.00000535,0.00000516,0.00000102,0.000
 00336,-0.00000659,-0.00000304,-0.00000658,0.00000699,0.00000369,0.0000
 0551,0.00000350,-0.00000003,-0.00000687,-0.00000941,-0.00000118,0.0000
 0791,-0.00000173,-0.00000248,0.00000331,-0.00002690,0.00001639,-0.0000
 0157,-0.00000791,0.00000764,0.00000946,0.00000978,-0.00000097,-0.00019
 890,0.00009022,0.00007074,0.00004684,0.00004220,-0.00001970,-0.0000256
 2,0.00000304,-0.00002597,0.00014730,0.00046865,0.00012500,0.00013756,0
 .00008048,0.00001966,-0.00003418,-0.00003152,0.00003734,-0.00000470,0.
 00000801,-0.00001459,-0.00322029,0.00101346,0.00274047,0.00245435,0.01
 108386,0.00396614,0.00165626,0.00057451,-0.00217157,0.00011194,-0.0002
 1066,-0.00010557,-0.02087975,-0.03988144,-0.04593227,-0.00475238,-0.01
 624509,0.00126516,-0.00561596,0.00019332,0.00369984,0.00047617,0.00050
 313,-0.00072844,-0.00002666,-0.00001160,0.00001094,0.00000770,0.000001
 01,-0.00000351,-0.00000173,-0.00000029,0.00000007,-0.00000174,-0.00000
 021,0.00000030,-0.00000027,-0.00000206,0.,0.00000008,-0.00000228,0.000
 00057,0.00000126,-0.00000180,0.00000019,0.00000079,0.00000273,0.000014
 85,0.00000031,-0.00000298,-0.00000307,-0.00000451,0.00000538,0.0000066
 5,-0.00003252,-0.00002823,0.00014086,-0.00025883,-0.00027055,0.0002035
 9,0.02769763,0.04320118,0.03994582,0.00001164,-0.00002209,0.00001443,-
 0.00008046,-0.00003234,0.00001062,0.00002513,0.00006810,0.00003350,0.0
 0000626,0.00000246,0.00001327,-0.00004889,-0.00003642,-0.00001263,0.00
 000811,0.00000513,0.00000833,0.00000091,-0.00001897,-0.00000679,-0.000
 02134,0.00000263,0.00000622,0.00000855,0.00005344,0.00000742,0.0000424
 3,0.00001321,0.00000222,-0.00001139,-0.00003170,-0.00000408,0.00003364
 ,-0.00000119,-0.00000141,-0.00001228,-0.00002204,0.00000548,0.00001920
 ,0.00000032,-0.00000266,-0.00001126,-0.00000800,-0.00001145,0.00004191
 ,0.00001839,-0.00000052,0.00003287,0.00005873,0.00001507,-0.00001833,-
 0.00004016,-0.00000781,0.00008198,-0.00013497,0.00041322,-0.00005666,-
 0.00031094,-0.00015304,0.00001616,0.00006723,-0.00000512,-0.00004283,-
 0.00004176,-0.00001418,-0.00061949,-0.00002470,0.00005986,-0.00115525,
 -0.00249520,-0.00550162,0.00023723,0.00119071,-0.00020332,-0.00061060,
 0.00004056,0.00005851,-0.01023147,0.02099690,-0.00834356,-0.14215735,0
 .11697234,-0.06471548,0.00735210,-0.00846010,0.00222824,0.00227935,-0.
 00164350,-0.00178943,-0.00000648,-0.00001012,-0.00000158,-0.00000512,-
 0.00000133,0.00001305,0.00000022,-0.00000178,0.00000081,0.00000182,-0.
 00000083,-0.00000146,0.00000053,0.00000234,-0.00000014,0.00000217,0.00
 000210,-0.00000038,-0.00000256,0.00000276,-0.00000124,-0.00000266,0.00
 000191,0.00000099,0.00000089,0.00000906,-0.00000731,-0.00000152,-0.000
 00799,0.00000322,-0.00010985,0.00010308,0.00001992,0.00001493,-0.00004
 746,-0.00004139,-0.00056296,-0.00024091,0.00245771,0.14591991,0.000002
 92,-0.00002565,0.00005961,-0.00006908,-0.00001796,0.00002647,0.0000301
 9,0.00004998,0.00004065,0.00001624,0.00005672,0.00005956,-0.00003008,-
 0.00007656,-0.00002748,-0.00002706,0.00003276,0.00001879,0.00000232,-0
 .00003691,-0.00001429,-0.00003702,0.00001401,0.00001320,0.00003087,0.0
 0004297,-0.00001103,0.00001668,-0.00001130,0.00000275,-0.00000325,0.00
 000034,-0.00000007,0.00000573,-0.00000283,0.00000117,0.00001812,-0.000
 08628,0.00003208,0.00005854,-0.00002520,-0.00002775,-0.00003840,-0.000
 03631,-0.00002057,-0.00000802,0.00005821,-0.00000651,-0.00000699,-0.00
 000341,0.00000015,0.00001016,-0.00001585,-0.00000870,0.00012372,-0.000
 08512,0.00013354,-0.00006803,-0.00017288,-0.00005804,-0.00000627,0.000
 06341,0.00000663,-0.00003022,-0.00003910,-0.00001113,-0.00105157,0.000
 80694,-0.00071582,-0.00154704,0.00080301,-0.00095554,-0.00007763,0.000
 35678,-0.00005915,-0.00008738,0.00018238,-0.00002238,-0.00539597,0.008
 25653,-0.00335081,0.11842663,-0.20957982,0.07160856,0.01737732,-0.0170
 7543,0.01057440,-0.00126933,-0.00561546,-0.00095585,0.00001049,-0.0000
 1905,-0.00004124,-0.00001681,0.00000514,0.00002981,-0.00001060,-0.0000
 0834,0.00000430,-0.00000762,-0.00000355,-0.00000024,-0.00000294,-0.000
 00540,0.00000090,-0.00000111,-0.00000612,-0.00000025,0.00000321,-0.000
 00440,-0.00000265,0.00000315,-0.00000631,0.00000284,0.00000514,-0.0000
 0509,-0.00000051,0.00001122,-0.00000108,0.00000118,-0.00002518,0.00002
 136,0.00000315,0.00004575,0.00000822,0.00003758,0.00036283,0.00079224,
 0.00021146,-0.12661991,0.22021442,-0.00008162,0.00002925,0.00002276,0.
 00004542,0.00005943,-0.00003318,-0.00001627,-0.00004543,-0.00002130,0.
 00002274,0.00002920,-0.00001321,0.00003421,0.00002675,0.00001069,-0.00
 001154,-0.00001214,-0.00000072,0.00000730,0.00003017,0.00000378,0.0000
 2731,-0.00001773,-0.00000980,-0.00003455,-0.00001567,0.00000247,0.0000
 2209,0.00001854,0.00000911,-0.00000247,-0.00002139,-0.00000639,0.00001
 689,0.00000965,-0.00000022,0.00002977,-0.00002715,-0.00001104,-0.00002
 495,0.00001732,0.00002042,0.00001448,0.00000565,0.00000371,-0.00009682
 ,-0.00002386,0.00002220,0.00002229,0.00004930,0.00000348,-0.00001450,-
 0.00003532,-0.00001244,0.00028409,0.00010198,-0.00045000,-0.00001850,-
 0.00005197,0.00010214,0.00000576,0.00003869,0.00003738,-0.00003294,-0.
 00000566,-0.00001551,0.00000758,-0.00029561,-0.00070272,-0.00519102,-0
 .00141196,0.00488865,-0.00030202,0.00091249,0.00019775,-0.00007119,-0.
 00007568,-0.00050524,-0.00804070,0.01301814,-0.00148706,-0.06491400,0.
 07067743,-0.07524329,0.00238707,-0.00540712,0.00511276,-0.00193479,-0.
 00138840,0.00388203,-0.00002376,0.00001367,0.00000837,0.00001845,0.000
 00160,-0.00002254,0.00000360,0.00000380,-0.00000019,0.00000115,0.00000
 079,0.00000094,0.00000155,-0.00000059,0.00000041,0.00000119,-0.0000002
 8,0.00000049,-0.00000030,0.00000070,0.00000038,-0.00000109,0.00000142,
 0.00000401,-0.00000229,0.00000081,0.00001144,0.00000349,0.00000175,-0.
 00000327,-0.00004096,0.00005785,-0.00002992,-0.00001031,-0.00004023,0.
 00005620,0.00240836,-0.00022647,-0.00317384,0.07390168,-0.07645650,0.0
 6929129,-0.00008827,0.00008613,0.00002251,0.00004745,0.00001376,-0.000
 05970,0.00001340,0.00001807,-0.00001052,0.00001145,0.00001976,-0.00002
 761,0.00000142,0.00003417,0.00002941,0.00001187,-0.00000893,0.00001058
 ,0.00000543,0.00001983,0.00000201,0.00001627,-0.00000694,-0.00000265,-
 0.00001164,-0.00000010,0.00000276,0.00000753,0.00000015,-0.00000338,0.
 00000516,-0.00000712,0.00000051,0.00001267,0.00000511,0.00000347,0.000
 05678,-0.00002804,-0.00005916,0.00000696,0.00002316,-0.00005082,-0.000
 00804,-0.00000482,0.00000186,-0.00000780,0.00001753,-0.00003407,0.0000
 3889,0.00004200,0.00000630,-0.00001832,-0.00001312,0.00000438,0.000040
 65,-0.00061292,-0.00008331,-0.00024491,0.00006973,0.00014905,-0.000032
 23,-0.00001585,-0.00000868,-0.00006017,-0.00001898,-0.00001279,0.00104
 008,0.00158088,-0.00348472,-0.00002610,0.00034040,0.00031577,0.0000244
 5,-0.00005288,0.00035706,0.00000154,0.00022401,-0.00000079,0.00259672,
 -0.00145455,-0.00163324,-0.00215935,0.00054486,-0.00492585,-0.23748253
 ,-0.05342713,-0.12713665,-0.01405379,-0.00063446,-0.00807151,0.0000008
 6,0.00005101,0.00000546,0.00000343,-0.00000149,0.00001082,0.00000085,-
 0.00000239,0.00000423,0.00000259,-0.00000030,-0.00000064,0.00000254,0.
 00000434,-0.00000177,0.00000192,0.00000445,-0.00000202,-0.00000280,0.0
 0000372,-0.00000143,-0.00000234,0.00000583,-0.00000131,-0.00000075,0.0
 0000764,-0.00000378,-0.00002382,0.00001851,0.00000132,-0.00001026,0.00
 000129,-0.00002125,0.00005866,-0.00001833,-0.00009796,-0.00025943,0.00
 008636,-0.00010106,-0.00036919,-0.00012372,0.00160012,0.25085222,0.000
 08468,-0.00002730,-0.00005720,0.00006352,-0.00000717,-0.00000061,-0.00
 002728,-0.00002564,-0.00001163,-0.00003587,-0.00007331,-0.00002380,0.0
 0003519,-0.00001140,-0.00001213,-0.00002448,0.00000704,0.00000919,-0.0
 0002368,-0.00003890,-0.00000886,-0.00001954,0.00001912,0.00000456,0.00
 003044,-0.00003249,-0.00001013,-0.00004269,-0.00002703,-0.00000649,0.0
 0001138,0.00003903,0.00000829,-0.00003931,-0.00001273,-0.00000091,-0.0
 0002344,0.00008721,0.00003837,-0.00004217,0.00004613,0.00001167,-0.000
 02360,-0.00003372,-0.00000529,0.00002096,0.00002696,-0.00001143,-0.000
 07691,-0.00005261,-0.00001055,0.00003196,0.00004891,0.00001314,0.00026
 487,0.00086925,0.00018412,0.00026951,-0.00002530,0.00010863,0.00008460
 ,-0.00001444,0.00000217,0.00007386,0.00005715,0.00002155,0.00342254,-0
 .00311542,0.00220377,0.00034412,-0.00109464,0.00019844,-0.00033795,0.0
 0012818,-0.00015379,0.00006584,-0.00029744,0.00003666,-0.00072107,-0.0
 0514720,-0.00053658,-0.02554473,-0.00190754,-0.01602313,-0.04882823,-0
 .06613506,-0.03108615,0.01826039,0.00757864,0.01161068,0.00000359,-0.0
 0001012,-0.00000975,0.00001133,-0.00000326,-0.00001335,0.00000509,0.00
 000320,0.00000253,0.00000400,0.00000156,0.00000263,-0.00000025,0.00000
 301,0.00000338,-0.00000161,0.00000359,0.00000257,-0.00000171,0.0000003
 0,0.00000237,-0.00000147,-0.00000220,-0.00000425,-0.00000185,-0.000002
 85,0.00000296,0.00002361,-0.00002382,0.00000085,-0.00000184,0.00000818
 ,-0.00000533,0.00005611,0.00003456,0.00002443,-0.00120029,-0.00022939,
 -0.00069307,0.00064303,0.00119998,0.00045277,0.05320936,0.06818896,-0.
 00007569,0.00008057,0.00010805,-0.00016446,0.00014316,0.00008292,-0.00
 001246,-0.00014358,-0.00004137,0.00003838,0.00001483,-0.00001605,0.000
 00631,0.00004984,-0.00001009,0.00001445,-0.00008933,-0.00007008,0.0000
 4421,0.00010802,0.00002164,0.00007652,-0.00007982,-0.00003694,-0.00010
 360,-0.00002551,0.00002450,0.00001971,0.00006127,0.00001714,-0.0000192
 3,-0.00006788,-0.00001547,0.00004690,0.00002055,-0.00000769,0.00003712
 ,-0.00019896,0.00011685,0.00003593,-0.00011381,0.00010581,0.00011200,0
 .00014447,0.00006650,-0.00004114,-0.00014240,0.00003042,0.00001004,0.0
 0001764,-0.00002722,-0.00000786,-0.00004224,-0.00000544,-0.00042193,-0
 .00017373,-0.00005193,0.00015492,0.00029199,-0.00035111,0.00000802,0.0
 0001079,0.00002199,-0.00005376,0.00001939,-0.00001035,-0.00296406,0.00
 051290,0.00457468,0.00046720,0.00058099,-0.00016918,0.00009960,-0.0000
 5690,-0.00049619,0.00003836,-0.00014689,0.00002059,-0.00143482,-0.0010
 7200,0.00416700,-0.00471802,0.00018930,0.00249980,-0.12770910,-0.03435
 988,-0.11364723,-0.00792468,0.00094902,-0.00592184,-0.00012173,-0.0000
 6626,-0.00007260,0.00001777,-0.00000093,-0.00008338,-0.00000425,0.0000
 0436,-0.00000874,-0.00000587,-0.00000152,0.00000382,0.00000272,-0.0000
 0706,-0.00000137,0.00000239,-0.00000743,0.00000066,0.00000420,-0.00000
 214,0.00000100,0.00000351,-0.00000057,0.00000534,0.00000286,0.00000105
 ,0.00000373,-0.00000884,0.00000718,-0.00000389,-0.00001561,-0.00000404
 ,0.00002493,-0.00008740,-0.00003267,0.00014434,-0.00021049,0.00001181,
 -0.00014967,0.00155282,-0.00012227,-0.00195096,0.14330903,0.03373869,0
 .11110707\\-0.00000117,-0.00000002,0.00000040,0.00000171,0.00000050,0.
 00000054,-0.00000133,-0.00000055,-0.00000032,0.00000025,0.00000127,-0.
 00000013,0.00000043,0.00000105,-0.00000056,-0.00000088,0.00000094,-0.0
 0000072,-0.00000093,0.00000154,-0.00000006,-0.00000039,0.00000053,-0.0
 0000079,-0.00000103,-0.00000027,0.00000009,-0.00000212,-0.00000079,-0.
 00000015,0.00000031,0.00000032,0.00000067,-0.00000234,0.00000041,-0.00
 000035,-0.00000010,-0.00000029,-0.00000121,0.,0.00000098,-0.00000012,-
 0.00000027,0.00000080,-0.00000104,-0.00000176,-0.00000126,0.00000005,-
 0.00000023,-0.00000104,0.00000054,0.00000049,0.00000018,0.00000106,0.0
 0000166,-0.00000004,-0.00000073,-0.00000045,-0.00000126,0.00000059,0.0
 0000040,-0.00000094,0.00000101,-0.00000018,-0.00000100,0.00000087,-0.0
 0000054,-0.00000056,0.00000121,0.00000044,0.00000066,-0.00000071,0.000
 00143,-0.00000102,0.00000064,0.00000041,-0.00000031,0.00000059,0.00000
 202,-0.00000072,0.00000049,0.00000079,-0.00000040,-0.00000044,0.000001
 29,0.00000121,-0.00000067,0.00000155,0.00000004,-0.00000018,0.00000028
 ,0.00000056,-0.00000009,0.00000022,0.00000096,-0.00000099,-0.00000033,
 0.00000135,-0.00000107,-0.00000086,0.00000127,-0.00000098,-0.00000124,
 0.00000096,-0.00000061,-0.00000125,0.00000021,0.00000004,-0.00000120,-
 0.00000036,0.00000043,-0.00000093,-0.00000101,0.00000051,-0.00000048,-
 0.00000118,0.00000078,0.,-0.00000138,0.00000098,0.00000067,-0.00000119
 ,0.00000075,0.00000122,-0.00000072,0.00000037,0.00000148,-0.00000019,-
 0.00000019,0.00000175,0.00000036,-0.00000029,0.00000120,0.00000038,-0.
 00000022\\\@


 A great many people think they are thinking when they
 are merely rearranging their prejudices.
                               -- William James
 Job cpu time:       1 days 23 hours 45 minutes 40.3 seconds.
 Elapsed time:       0 days  2 hours 23 minutes 40.9 seconds.
 File lengths (MBytes):  RWF=   4328 Int=      0 D2E=      0 Chk=     71 Scr=      1
 Normal termination of Gaussian 16 at Sat Jun 29 23:44:09 2019.
