 Entering Gaussian System, Link 0=/share/apps/gaussian16/g16/g16
 Initial command:
 /share/apps/gaussian16/g16/l1.exe "/home/amen01//scratch/621/Gau-31139.inp" -scrdir="/home/amen01//scratch/621/"
 Entering Link 1 = /share/apps/gaussian16/g16/l1.exe PID=     31140.
  
 Copyright (c) 1988-2017, Gaussian, Inc.  All Rights Reserved.
  
 This is part of the Gaussian(R) 16 program.  It is based on
 the Gaussian(R) 09 system (copyright 2009, Gaussian, Inc.),
 the Gaussian(R) 03 system (copyright 2003, Gaussian, Inc.),
 the Gaussian(R) 98 system (copyright 1998, Gaussian, Inc.),
 the Gaussian(R) 94 system (copyright 1995, Gaussian, Inc.),
 the Gaussian 92(TM) system (copyright 1992, Gaussian, Inc.),
 the Gaussian 90(TM) system (copyright 1990, Gaussian, Inc.),
 the Gaussian 88(TM) system (copyright 1988, Gaussian, Inc.),
 the Gaussian 86(TM) system (copyright 1986, Carnegie Mellon
 University), and the Gaussian 82(TM) system (copyright 1983,
 Carnegie Mellon University). Gaussian is a federally registered
 trademark of Gaussian, Inc.
  
 This software contains proprietary and confidential information,
 including trade secrets, belonging to Gaussian, Inc.
  
 This software is provided under written license and may be
 used, copied, transmitted, or stored only in accord with that
 written license.
  
 The following legend is applicable only to US Government
 contracts under FAR:
  
                    RESTRICTED RIGHTS LEGEND
  
 Use, reproduction and disclosure by the US Government is
 subject to restrictions as set forth in subparagraphs (a)
 and (c) of the Commercial Computer Software - Restricted
 Rights clause in FAR 52.227-19.
  
 Gaussian, Inc.
 340 Quinnipiac St., Bldg. 40, Wallingford CT 06492
  
  
 ---------------------------------------------------------------
 Warning -- This program may not be used in any manner that
 competes with the business of Gaussian, Inc. or will provide
 assistance to any competitor of Gaussian, Inc.  The licensee
 of this program is prohibited from giving any competitor of
 Gaussian, Inc. access to this program.  By using this program,
 the user acknowledges that Gaussian, Inc. is engaged in the
 business of creating and licensing software in the field of
 computational chemistry and represents and warrants to the
 licensee that it is not a competitor of Gaussian, Inc. and that
 it will not use this program in any manner prohibited above.
 ---------------------------------------------------------------
  

 Cite this work as:
 Gaussian 16, Revision B.01,
 M. J. Frisch, G. W. Trucks, H. B. Schlegel, G. E. Scuseria, 
 M. A. Robb, J. R. Cheeseman, G. Scalmani, V. Barone, 
 G. A. Petersson, H. Nakatsuji, X. Li, M. Caricato, A. V. Marenich, 
 J. Bloino, B. G. Janesko, R. Gomperts, B. Mennucci, H. P. Hratchian, 
 J. V. Ortiz, A. F. Izmaylov, J. L. Sonnenberg, D. Williams-Young, 
 F. Ding, F. Lipparini, F. Egidi, J. Goings, B. Peng, A. Petrone, 
 T. Henderson, D. Ranasinghe, V. G. Zakrzewski, J. Gao, N. Rega, 
 G. Zheng, W. Liang, M. Hada, M. Ehara, K. Toyota, R. Fukuda, 
 J. Hasegawa, M. Ishida, T. Nakajima, Y. Honda, O. Kitao, H. Nakai, 
 T. Vreven, K. Throssell, J. A. Montgomery, Jr., J. E. Peralta, 
 F. Ogliaro, M. J. Bearpark, J. J. Heyd, E. N. Brothers, K. N. Kudin, 
 V. N. Staroverov, T. A. Keith, R. Kobayashi, J. Normand, 
 K. Raghavachari, A. P. Rendell, J. C. Burant, S. S. Iyengar, 
 J. Tomasi, M. Cossi, J. M. Millam, M. Klene, C. Adamo, R. Cammi, 
 J. W. Ochterski, R. L. Martin, K. Morokuma, O. Farkas, 
 J. B. Foresman, and D. J. Fox, Gaussian, Inc., Wallingford CT, 2016.
 
 ******************************************
 Gaussian 16:  ES64L-G16RevB.01 20-Dec-2017
                25-Jun-2019 
 ******************************************
 %nprocshared=20
 Will use up to   20 processors via shared memory.
 %mem=100GB
 %chk=7-memb2-hadd-1a.chk
 -------------------------------------------
 # opt freq b3lyp/6-311+g(d,p) int=grid=fine
 -------------------------------------------
 1/18=20,19=15,26=3,38=1/1,3;
 2/9=110,12=2,17=6,18=5,40=1/2;
 3/5=4,6=6,7=111,11=2,25=1,30=1,71=1,74=-5,75=-4/1,2,3;
 4//1;
 5/5=2,38=5/2;
 6/7=2,8=2,9=2,10=2,28=1/1;
 7//1,2,3,16;
 1/18=20,19=15,26=3/3(2);
 2/9=110/2;
 99//99;
 2/9=110/2;
 3/5=4,6=6,7=111,11=2,25=1,30=1,71=1,74=-5,75=-4/1,2,3;
 4/5=5,16=3,69=1/1;
 5/5=2,38=5/2;
 7//1,2,3,16;
 1/18=20,19=15,26=3/3(-5);
 2/9=110/2;
 6/7=2,8=2,9=2,10=2,19=2,28=1/1;
 99/9=1/99;
 ---------------
 7-memb2-hadd-1a
 ---------------
 Symbolic Z-matrix:
 Charge =  0 Multiplicity = 2
 C                    -4.15311   0.29702  -0.18038 
 C                    -2.69138   0.17874   0.07092 
 C                    -2.51524  -1.25813   0.34392 
 C                    -4.72459  -1.03927  -0.00643 
 C                    -3.77839  -1.9235    0.3049 
 C                    -6.08348  -1.46505  -0.18898 
 C                    -6.40499  -2.88685   0.05266 
 C                    -5.42772  -3.77696   0.38233 
 C                    -4.03219  -3.32554   0.50546 
 C                    -1.3969   -1.94976   0.61114 
 C                    -1.59262  -3.39382   0.84909 
 C                    -2.92724  -4.05688   0.78643 
 C                    -5.03628   1.29817  -0.71746 
 C                    -6.51079   0.95309  -0.87327 
 C                    -6.93028  -0.49821  -0.59216 
 C                    -1.61609   1.00048   0.14888 
 C                    -0.27384   0.2781    0.17158 
 C                    -0.19126  -1.14032   0.57715 
 C                    -1.62977   2.48837   0.06377 
 C                    -0.4424    3.0988   -0.63096 
 C                     0.72747   2.2533   -0.84734 
 C                     0.8206    0.91255  -0.29794 
 C                    -2.53258   3.31347   0.67097 
 C                    -2.48834   4.77368   0.36372 
 C                    -1.48684   5.26765  -0.56207 
 C                    -0.39997   4.40548  -0.9599 
 C                    -3.4072    5.59551   0.91477 
 C                    -4.43132   5.11245   1.83076 
 C                    -4.49485   3.82111   2.1961 
 C                    -3.51853   2.8892    1.66781 
 H                    -4.65597   2.25171  -1.05794 
 H                    -7.08725   1.6093   -0.2108 
 H                    -7.97838  -0.72936  -0.75826 
 H                    -7.43667  -3.20599  -0.04876 
 H                    -5.65491  -4.82302   0.55386 
 H                    -2.96958  -5.12606   0.9599 
 H                    -0.72487  -4.01098   1.05285 
 H                     0.77221  -1.6221    0.68861 
 H                     1.79016   0.42712  -0.34275 
 H                     1.60267   2.65998  -1.34242 
 H                     0.46048   4.86093  -1.43738 
 H                    -1.47139   6.30925  -0.85884 
 H                    -3.41529   6.65945   0.69816 
 H                    -5.14379   5.83406   2.21754 
 H                    -5.24539   3.45511   2.88727 
 H                    -3.44062   1.91804   2.14206 
 H                    -6.80506   1.1919   -1.90216 
 

 GradGradGradGradGradGradGradGradGradGradGradGradGradGradGradGradGradGrad
 Berny optimization.
 Initialization pass.
                           ----------------------------
                           !    Initial Parameters    !
                           ! (Angstroms and Degrees)  !
 --------------------------                            --------------------------
 ! Name  Definition              Value          Derivative Info.                !
 --------------------------------------------------------------------------------
 ! R1    R(1,2)                  1.4879         estimate D2E/DX2                !
 ! R2    R(1,4)                  1.4637         estimate D2E/DX2                !
 ! R3    R(1,13)                 1.439          estimate D2E/DX2                !
 ! R4    R(2,3)                  1.4731         estimate D2E/DX2                !
 ! R5    R(2,16)                 1.3556         estimate D2E/DX2                !
 ! R6    R(3,5)                  1.4282         estimate D2E/DX2                !
 ! R7    R(3,10)                 1.3418         estimate D2E/DX2                !
 ! R8    R(4,5)                  1.3319         estimate D2E/DX2                !
 ! R9    R(4,6)                  1.4357         estimate D2E/DX2                !
 ! R10   R(5,9)                  1.4389         estimate D2E/DX2                !
 ! R11   R(6,7)                  1.4776         estimate D2E/DX2                !
 ! R12   R(6,15)                 1.347          estimate D2E/DX2                !
 ! R13   R(7,8)                  1.3624         estimate D2E/DX2                !
 ! R14   R(7,34)                 1.0847         estimate D2E/DX2                !
 ! R15   R(8,9)                  1.4719         estimate D2E/DX2                !
 ! R16   R(8,35)                 1.0841         estimate D2E/DX2                !
 ! R17   R(9,12)                 1.3545         estimate D2E/DX2                !
 ! R18   R(10,11)                1.4766         estimate D2E/DX2                !
 ! R19   R(10,18)                1.4526         estimate D2E/DX2                !
 ! R20   R(11,12)                1.4916         estimate D2E/DX2                !
 ! R21   R(11,37)                1.0842         estimate D2E/DX2                !
 ! R22   R(12,36)                1.084          estimate D2E/DX2                !
 ! R23   R(13,14)                1.5223         estimate D2E/DX2                !
 ! R24   R(13,31)                1.0816         estimate D2E/DX2                !
 ! R25   R(14,15)                1.5366         estimate D2E/DX2                !
 ! R26   R(14,32)                1.0963         estimate D2E/DX2                !
 ! R27   R(14,47)                1.0965         estimate D2E/DX2                !
 ! R28   R(15,33)                1.0861         estimate D2E/DX2                !
 ! R29   R(16,17)                1.5245         estimate D2E/DX2                !
 ! R30   R(16,19)                1.4904         estimate D2E/DX2                !
 ! R31   R(17,18)                1.4776         estimate D2E/DX2                !
 ! R32   R(17,22)                1.3494         estimate D2E/DX2                !
 ! R33   R(18,38)                1.083          estimate D2E/DX2                !
 ! R34   R(19,20)                1.505          estimate D2E/DX2                !
 ! R35   R(19,23)                1.3655         estimate D2E/DX2                !
 ! R36   R(20,21)                1.4596         estimate D2E/DX2                !
 ! R37   R(20,26)                1.3481         estimate D2E/DX2                !
 ! R38   R(21,22)                1.4519         estimate D2E/DX2                !
 ! R39   R(21,40)                1.0847         estimate D2E/DX2                !
 ! R40   R(22,39)                1.0852         estimate D2E/DX2                !
 ! R41   R(23,24)                1.4928         estimate D2E/DX2                !
 ! R42   R(23,30)                1.4649         estimate D2E/DX2                !
 ! R43   R(24,25)                1.4506         estimate D2E/DX2                !
 ! R44   R(24,27)                1.3503         estimate D2E/DX2                !
 ! R45   R(25,26)                1.4432         estimate D2E/DX2                !
 ! R46   R(25,42)                1.0832         estimate D2E/DX2                !
 ! R47   R(26,41)                1.0843         estimate D2E/DX2                !
 ! R48   R(27,28)                1.4564         estimate D2E/DX2                !
 ! R49   R(27,43)                1.0858         estimate D2E/DX2                !
 ! R50   R(28,29)                1.3435         estimate D2E/DX2                !
 ! R51   R(28,44)                1.0853         estimate D2E/DX2                !
 ! R52   R(29,30)                1.4494         estimate D2E/DX2                !
 ! R53   R(29,45)                1.084          estimate D2E/DX2                !
 ! R54   R(30,46)                1.0836         estimate D2E/DX2                !
 ! A1    A(2,1,4)              106.9129         estimate D2E/DX2                !
 ! A2    A(2,1,13)             136.1612         estimate D2E/DX2                !
 ! A3    A(4,1,13)             116.0964         estimate D2E/DX2                !
 ! A4    A(1,2,3)              103.0796         estimate D2E/DX2                !
 ! A5    A(1,2,16)             137.801          estimate D2E/DX2                !
 ! A6    A(3,2,16)             119.0625         estimate D2E/DX2                !
 ! A7    A(2,3,5)              110.096          estimate D2E/DX2                !
 ! A8    A(2,3,10)             129.7408         estimate D2E/DX2                !
 ! A9    A(5,3,10)             120.1616         estimate D2E/DX2                !
 ! A10   A(1,4,5)              110.8845         estimate D2E/DX2                !
 ! A11   A(1,4,6)              128.6953         estimate D2E/DX2                !
 ! A12   A(5,4,6)              120.3465         estimate D2E/DX2                !
 ! A13   A(3,5,4)              108.9895         estimate D2E/DX2                !
 ! A14   A(3,5,9)              127.3113         estimate D2E/DX2                !
 ! A15   A(4,5,9)              123.6519         estimate D2E/DX2                !
 ! A16   A(4,6,7)              118.0686         estimate D2E/DX2                !
 ! A17   A(4,6,15)             114.8484         estimate D2E/DX2                !
 ! A18   A(7,6,15)             127.073          estimate D2E/DX2                !
 ! A19   A(6,7,8)              120.8089         estimate D2E/DX2                !
 ! A20   A(6,7,34)             118.3457         estimate D2E/DX2                !
 ! A21   A(8,7,34)             120.8427         estimate D2E/DX2                !
 ! A22   A(7,8,9)              119.9989         estimate D2E/DX2                !
 ! A23   A(7,8,35)             121.2243         estimate D2E/DX2                !
 ! A24   A(9,8,35)             118.7762         estimate D2E/DX2                !
 ! A25   A(5,9,8)              117.0277         estimate D2E/DX2                !
 ! A26   A(5,9,12)             114.2758         estimate D2E/DX2                !
 ! A27   A(8,9,12)             128.6964         estimate D2E/DX2                !
 ! A28   A(3,10,11)            115.1961         estimate D2E/DX2                !
 ! A29   A(3,10,18)            113.5712         estimate D2E/DX2                !
 ! A30   A(11,10,18)           131.2066         estimate D2E/DX2                !
 ! A31   A(10,11,12)           123.1331         estimate D2E/DX2                !
 ! A32   A(10,11,37)           118.7454         estimate D2E/DX2                !
 ! A33   A(12,11,37)           118.0999         estimate D2E/DX2                !
 ! A34   A(9,12,11)            119.9081         estimate D2E/DX2                !
 ! A35   A(9,12,36)            122.2682         estimate D2E/DX2                !
 ! A36   A(11,12,36)           117.8198         estimate D2E/DX2                !
 ! A37   A(1,13,14)            118.3558         estimate D2E/DX2                !
 ! A38   A(1,13,31)            121.0009         estimate D2E/DX2                !
 ! A39   A(14,13,31)           120.5441         estimate D2E/DX2                !
 ! A40   A(13,14,15)           117.3727         estimate D2E/DX2                !
 ! A41   A(13,14,32)           108.1668         estimate D2E/DX2                !
 ! A42   A(13,14,47)           107.8555         estimate D2E/DX2                !
 ! A43   A(15,14,32)           108.1343         estimate D2E/DX2                !
 ! A44   A(15,14,47)           107.7041         estimate D2E/DX2                !
 ! A45   A(32,14,47)           107.191          estimate D2E/DX2                !
 ! A46   A(6,15,14)            124.1284         estimate D2E/DX2                !
 ! A47   A(6,15,33)            119.9797         estimate D2E/DX2                !
 ! A48   A(14,15,33)           115.8797         estimate D2E/DX2                !
 ! A49   A(2,16,17)            114.3324         estimate D2E/DX2                !
 ! A50   A(2,16,19)            126.4851         estimate D2E/DX2                !
 ! A51   A(17,16,19)           118.816          estimate D2E/DX2                !
 ! A52   A(16,17,18)           120.543          estimate D2E/DX2                !
 ! A53   A(16,17,22)           119.088          estimate D2E/DX2                !
 ! A54   A(18,17,22)           120.102          estimate D2E/DX2                !
 ! A55   A(10,18,17)           119.6683         estimate D2E/DX2                !
 ! A56   A(10,18,38)           119.2168         estimate D2E/DX2                !
 ! A57   A(17,18,38)           120.3336         estimate D2E/DX2                !
 ! A58   A(16,19,20)           115.0894         estimate D2E/DX2                !
 ! A59   A(16,19,23)           125.7266         estimate D2E/DX2                !
 ! A60   A(20,19,23)           118.8029         estimate D2E/DX2                !
 ! A61   A(19,20,21)           117.764          estimate D2E/DX2                !
 ! A62   A(19,20,26)           122.0452         estimate D2E/DX2                !
 ! A63   A(21,20,26)           120.0055         estimate D2E/DX2                !
 ! A64   A(20,21,22)           122.0218         estimate D2E/DX2                !
 ! A65   A(20,21,40)           119.8161         estimate D2E/DX2                !
 ! A66   A(22,21,40)           117.8518         estimate D2E/DX2                !
 ! A67   A(17,22,21)           120.9185         estimate D2E/DX2                !
 ! A68   A(17,22,39)           121.9168         estimate D2E/DX2                !
 ! A69   A(21,22,39)           117.0481         estimate D2E/DX2                !
 ! A70   A(19,23,24)           118.6809         estimate D2E/DX2                !
 ! A71   A(19,23,30)           124.932          estimate D2E/DX2                !
 ! A72   A(24,23,30)           116.3151         estimate D2E/DX2                !
 ! A73   A(23,24,25)           119.0069         estimate D2E/DX2                !
 ! A74   A(23,24,27)           119.4168         estimate D2E/DX2                !
 ! A75   A(25,24,27)           121.5348         estimate D2E/DX2                !
 ! A76   A(24,25,26)           119.5015         estimate D2E/DX2                !
 ! A77   A(24,25,42)           120.8096         estimate D2E/DX2                !
 ! A78   A(26,25,42)           119.2225         estimate D2E/DX2                !
 ! A79   A(20,26,25)           119.2137         estimate D2E/DX2                !
 ! A80   A(20,26,41)           122.6519         estimate D2E/DX2                !
 ! A81   A(25,26,41)           117.908          estimate D2E/DX2                !
 ! A82   A(24,27,28)           122.2276         estimate D2E/DX2                !
 ! A83   A(24,27,43)           121.334          estimate D2E/DX2                !
 ! A84   A(28,27,43)           116.4377         estimate D2E/DX2                !
 ! A85   A(27,28,29)           121.5377         estimate D2E/DX2                !
 ! A86   A(27,28,44)           117.7238         estimate D2E/DX2                !
 ! A87   A(29,28,44)           120.7374         estimate D2E/DX2                !
 ! A88   A(28,29,30)           119.1451         estimate D2E/DX2                !
 ! A89   A(28,29,45)           122.0502         estimate D2E/DX2                !
 ! A90   A(30,29,45)           118.7977         estimate D2E/DX2                !
 ! A91   A(23,30,29)           121.0107         estimate D2E/DX2                !
 ! A92   A(23,30,46)           120.5992         estimate D2E/DX2                !
 ! A93   A(29,30,46)           117.721          estimate D2E/DX2                !
 ! D1    D(4,1,2,3)              1.4475         estimate D2E/DX2                !
 ! D2    D(4,1,2,16)          -175.6007         estimate D2E/DX2                !
 ! D3    D(13,1,2,3)          -167.2049         estimate D2E/DX2                !
 ! D4    D(13,1,2,16)           15.747          estimate D2E/DX2                !
 ! D5    D(2,1,4,5)             -0.4625         estimate D2E/DX2                !
 ! D6    D(2,1,4,6)           -177.3008         estimate D2E/DX2                !
 ! D7    D(13,1,4,5)           170.8089         estimate D2E/DX2                !
 ! D8    D(13,1,4,6)            -6.0294         estimate D2E/DX2                !
 ! D9    D(2,1,13,14)          176.284          estimate D2E/DX2                !
 ! D10   D(2,1,13,31)           -0.1144         estimate D2E/DX2                !
 ! D11   D(4,1,13,14)            8.3842         estimate D2E/DX2                !
 ! D12   D(4,1,13,31)         -168.0142         estimate D2E/DX2                !
 ! D13   D(1,2,3,5)             -1.9634         estimate D2E/DX2                !
 ! D14   D(1,2,3,10)           178.5067         estimate D2E/DX2                !
 ! D15   D(16,2,3,5)           175.7686         estimate D2E/DX2                !
 ! D16   D(16,2,3,10)           -3.7613         estimate D2E/DX2                !
 ! D17   D(1,2,16,17)         -168.5901         estimate D2E/DX2                !
 ! D18   D(1,2,16,19)            4.3239         estimate D2E/DX2                !
 ! D19   D(3,2,16,17)           14.6997         estimate D2E/DX2                !
 ! D20   D(3,2,16,19)         -172.3863         estimate D2E/DX2                !
 ! D21   D(2,3,5,4)              1.7911         estimate D2E/DX2                !
 ! D22   D(2,3,5,9)            179.3413         estimate D2E/DX2                !
 ! D23   D(10,3,5,4)          -178.6269         estimate D2E/DX2                !
 ! D24   D(10,3,5,9)            -1.0767         estimate D2E/DX2                !
 ! D25   D(2,3,10,11)          179.4736         estimate D2E/DX2                !
 ! D26   D(2,3,10,18)           -2.1729         estimate D2E/DX2                !
 ! D27   D(5,3,10,11)           -0.0158         estimate D2E/DX2                !
 ! D28   D(5,3,10,18)          178.3377         estimate D2E/DX2                !
 ! D29   D(1,4,5,3)             -0.7982         estimate D2E/DX2                !
 ! D30   D(1,4,5,9)           -178.4575         estimate D2E/DX2                !
 ! D31   D(6,4,5,3)            176.3427         estimate D2E/DX2                !
 ! D32   D(6,4,5,9)             -1.3167         estimate D2E/DX2                !
 ! D33   D(1,4,6,7)            179.9416         estimate D2E/DX2                !
 ! D34   D(1,4,6,15)             1.0097         estimate D2E/DX2                !
 ! D35   D(5,4,6,7)              3.3649         estimate D2E/DX2                !
 ! D36   D(5,4,6,15)          -175.567          estimate D2E/DX2                !
 ! D37   D(3,5,9,8)           -178.5688         estimate D2E/DX2                !
 ! D38   D(3,5,9,12)             1.4119         estimate D2E/DX2                !
 ! D39   D(4,5,9,8)             -1.3518         estimate D2E/DX2                !
 ! D40   D(4,5,9,12)           178.6289         estimate D2E/DX2                !
 ! D41   D(4,6,7,8)             -2.7976         estimate D2E/DX2                !
 ! D42   D(4,6,7,34)           177.8086         estimate D2E/DX2                !
 ! D43   D(15,6,7,8)           175.9876         estimate D2E/DX2                !
 ! D44   D(15,6,7,34)           -3.4062         estimate D2E/DX2                !
 ! D45   D(4,6,15,14)            1.1795         estimate D2E/DX2                !
 ! D46   D(4,6,15,33)          179.8572         estimate D2E/DX2                !
 ! D47   D(7,6,15,14)         -177.6392         estimate D2E/DX2                !
 ! D48   D(7,6,15,33)            1.0385         estimate D2E/DX2                !
 ! D49   D(6,7,8,9)              0.1771         estimate D2E/DX2                !
 ! D50   D(6,7,8,35)          -179.5407         estimate D2E/DX2                !
 ! D51   D(34,7,8,9)           179.5557         estimate D2E/DX2                !
 ! D52   D(34,7,8,35)           -0.1621         estimate D2E/DX2                !
 ! D53   D(7,8,9,5)              1.8826         estimate D2E/DX2                !
 ! D54   D(7,8,9,12)          -178.0948         estimate D2E/DX2                !
 ! D55   D(35,8,9,5)          -178.3927         estimate D2E/DX2                !
 ! D56   D(35,8,9,12)            1.6299         estimate D2E/DX2                !
 ! D57   D(5,9,12,11)           -0.6751         estimate D2E/DX2                !
 ! D58   D(5,9,12,36)         -179.9374         estimate D2E/DX2                !
 ! D59   D(8,9,12,11)          179.3029         estimate D2E/DX2                !
 ! D60   D(8,9,12,36)            0.0405         estimate D2E/DX2                !
 ! D61   D(3,10,11,12)           0.6509         estimate D2E/DX2                !
 ! D62   D(3,10,11,37)         178.9272         estimate D2E/DX2                !
 ! D63   D(18,10,11,12)       -177.3431         estimate D2E/DX2                !
 ! D64   D(18,10,11,37)          0.9332         estimate D2E/DX2                !
 ! D65   D(3,10,18,17)          -4.4639         estimate D2E/DX2                !
 ! D66   D(3,10,18,38)        -174.3772         estimate D2E/DX2                !
 ! D67   D(11,10,18,17)        173.5557         estimate D2E/DX2                !
 ! D68   D(11,10,18,38)          3.6424         estimate D2E/DX2                !
 ! D69   D(10,11,12,9)          -0.2777         estimate D2E/DX2                !
 ! D70   D(10,11,12,36)        179.0171         estimate D2E/DX2                !
 ! D71   D(37,11,12,9)        -178.5645         estimate D2E/DX2                !
 ! D72   D(37,11,12,36)          0.7302         estimate D2E/DX2                !
 ! D73   D(1,13,14,15)          -6.6751         estimate D2E/DX2                !
 ! D74   D(1,13,14,32)         115.9248         estimate D2E/DX2                !
 ! D75   D(1,13,14,47)        -128.4482         estimate D2E/DX2                !
 ! D76   D(31,13,14,15)        169.7404         estimate D2E/DX2                !
 ! D77   D(31,13,14,32)        -67.6596         estimate D2E/DX2                !
 ! D78   D(31,13,14,47)         47.9673         estimate D2E/DX2                !
 ! D79   D(13,14,15,6)           1.6537         estimate D2E/DX2                !
 ! D80   D(13,14,15,33)       -177.0732         estimate D2E/DX2                !
 ! D81   D(32,14,15,6)        -120.9628         estimate D2E/DX2                !
 ! D82   D(32,14,15,33)         60.3102         estimate D2E/DX2                !
 ! D83   D(47,14,15,6)         123.5051         estimate D2E/DX2                !
 ! D84   D(47,14,15,33)        -55.2218         estimate D2E/DX2                !
 ! D85   D(2,16,17,18)         -21.289          estimate D2E/DX2                !
 ! D86   D(2,16,17,22)         152.7818         estimate D2E/DX2                !
 ! D87   D(19,16,17,18)        165.2107         estimate D2E/DX2                !
 ! D88   D(19,16,17,22)        -20.7184         estimate D2E/DX2                !
 ! D89   D(2,16,19,20)        -144.5265         estimate D2E/DX2                !
 ! D90   D(2,16,19,23)          42.6855         estimate D2E/DX2                !
 ! D91   D(17,16,19,20)         28.1029         estimate D2E/DX2                !
 ! D92   D(17,16,19,23)       -144.6851         estimate D2E/DX2                !
 ! D93   D(16,17,18,10)         16.3885         estimate D2E/DX2                !
 ! D94   D(16,17,18,38)       -173.8125         estimate D2E/DX2                !
 ! D95   D(22,17,18,10)       -157.6221         estimate D2E/DX2                !
 ! D96   D(22,17,18,38)         12.1768         estimate D2E/DX2                !
 ! D97   D(16,17,22,21)         -1.387          estimate D2E/DX2                !
 ! D98   D(16,17,22,39)       -177.3455         estimate D2E/DX2                !
 ! D99   D(18,17,22,21)        172.7105         estimate D2E/DX2                !
 ! D100  D(18,17,22,39)         -3.248          estimate D2E/DX2                !
 ! D101  D(16,19,20,21)        -14.8167         estimate D2E/DX2                !
 ! D102  D(16,19,20,26)        170.1338         estimate D2E/DX2                !
 ! D103  D(23,19,20,21)        158.5044         estimate D2E/DX2                !
 ! D104  D(23,19,20,26)        -16.5452         estimate D2E/DX2                !
 ! D105  D(16,19,23,24)       -173.5824         estimate D2E/DX2                !
 ! D106  D(16,19,23,30)          9.6231         estimate D2E/DX2                !
 ! D107  D(20,19,23,24)         13.8727         estimate D2E/DX2                !
 ! D108  D(20,19,23,30)       -162.9219         estimate D2E/DX2                !
 ! D109  D(19,20,21,22)         -6.3749         estimate D2E/DX2                !
 ! D110  D(19,20,21,40)       -179.8384         estimate D2E/DX2                !
 ! D111  D(26,20,21,22)        168.7798         estimate D2E/DX2                !
 ! D112  D(26,20,21,40)         -4.6837         estimate D2E/DX2                !
 ! D113  D(19,20,26,25)          3.9664         estimate D2E/DX2                !
 ! D114  D(19,20,26,41)        178.3816         estimate D2E/DX2                !
 ! D115  D(21,20,26,25)       -170.9749         estimate D2E/DX2                !
 ! D116  D(21,20,26,41)          3.4403         estimate D2E/DX2                !
 ! D117  D(20,21,22,17)         15.2471         estimate D2E/DX2                !
 ! D118  D(20,21,22,39)       -168.6043         estimate D2E/DX2                !
 ! D119  D(40,21,22,17)       -171.1666         estimate D2E/DX2                !
 ! D120  D(40,21,22,39)          4.982          estimate D2E/DX2                !
 ! D121  D(19,23,24,25)         -0.2869         estimate D2E/DX2                !
 ! D122  D(19,23,24,27)        177.4063         estimate D2E/DX2                !
 ! D123  D(30,23,24,25)        176.7816         estimate D2E/DX2                !
 ! D124  D(30,23,24,27)         -5.5252         estimate D2E/DX2                !
 ! D125  D(19,23,30,29)       -176.013          estimate D2E/DX2                !
 ! D126  D(19,23,30,46)         13.5757         estimate D2E/DX2                !
 ! D127  D(24,23,30,29)          7.1242         estimate D2E/DX2                !
 ! D128  D(24,23,30,46)       -163.2871         estimate D2E/DX2                !
 ! D129  D(23,24,25,26)        -12.1641         estimate D2E/DX2                !
 ! D130  D(23,24,25,42)        175.7319         estimate D2E/DX2                !
 ! D131  D(27,24,25,26)        170.1935         estimate D2E/DX2                !
 ! D132  D(27,24,25,42)         -1.9104         estimate D2E/DX2                !
 ! D133  D(23,24,27,28)          1.4583         estimate D2E/DX2                !
 ! D134  D(23,24,27,43)       -178.852          estimate D2E/DX2                !
 ! D135  D(25,24,27,28)        179.0912         estimate D2E/DX2                !
 ! D136  D(25,24,27,43)         -1.2191         estimate D2E/DX2                !
 ! D137  D(24,25,26,20)         10.0944         estimate D2E/DX2                !
 ! D138  D(24,25,26,41)       -164.5853         estimate D2E/DX2                !
 ! D139  D(42,25,26,20)       -177.6755         estimate D2E/DX2                !
 ! D140  D(42,25,26,41)          7.6447         estimate D2E/DX2                !
 ! D141  D(24,27,28,29)          1.4075         estimate D2E/DX2                !
 ! D142  D(24,27,28,44)       -178.9726         estimate D2E/DX2                !
 ! D143  D(43,27,28,29)       -178.2964         estimate D2E/DX2                !
 ! D144  D(43,27,28,44)          1.3234         estimate D2E/DX2                !
 ! D145  D(27,28,29,30)          0.1534         estimate D2E/DX2                !
 ! D146  D(27,28,29,45)        179.1815         estimate D2E/DX2                !
 ! D147  D(44,28,29,30)       -179.4551         estimate D2E/DX2                !
 ! D148  D(44,28,29,45)         -0.427          estimate D2E/DX2                !
 ! D149  D(28,29,30,23)         -4.5773         estimate D2E/DX2                !
 ! D150  D(28,29,30,46)        166.1014         estimate D2E/DX2                !
 ! D151  D(45,29,30,23)        176.3627         estimate D2E/DX2                !
 ! D152  D(45,29,30,46)        -12.9585         estimate D2E/DX2                !
 --------------------------------------------------------------------------------
 Trust Radius=3.00D-01 FncErr=1.00D-07 GrdErr=1.00D-06 EigMax=2.50D+02 EigMin=1.00D-04
 Number of steps in this run=    282 maximum allowed number of steps=    282.
 GradGradGradGradGradGradGradGradGradGradGradGradGradGradGradGradGradGrad

                          Input orientation:                          
 ---------------------------------------------------------------------
 Center     Atomic      Atomic             Coordinates (Angstroms)
 Number     Number       Type             X           Y           Z
 ---------------------------------------------------------------------
      1          6           0       -4.153110    0.297020   -0.180380
      2          6           0       -2.691380    0.178740    0.070920
      3          6           0       -2.515240   -1.258130    0.343920
      4          6           0       -4.724590   -1.039270   -0.006430
      5          6           0       -3.778390   -1.923500    0.304900
      6          6           0       -6.083480   -1.465050   -0.188980
      7          6           0       -6.404990   -2.886850    0.052660
      8          6           0       -5.427720   -3.776960    0.382330
      9          6           0       -4.032190   -3.325540    0.505460
     10          6           0       -1.396900   -1.949760    0.611140
     11          6           0       -1.592620   -3.393820    0.849090
     12          6           0       -2.927240   -4.056880    0.786430
     13          6           0       -5.036280    1.298170   -0.717460
     14          6           0       -6.510790    0.953090   -0.873270
     15          6           0       -6.930280   -0.498210   -0.592160
     16          6           0       -1.616090    1.000480    0.148880
     17          6           0       -0.273840    0.278100    0.171580
     18          6           0       -0.191260   -1.140320    0.577150
     19          6           0       -1.629770    2.488370    0.063770
     20          6           0       -0.442400    3.098800   -0.630960
     21          6           0        0.727470    2.253300   -0.847340
     22          6           0        0.820600    0.912550   -0.297940
     23          6           0       -2.532580    3.313470    0.670970
     24          6           0       -2.488340    4.773680    0.363720
     25          6           0       -1.486840    5.267650   -0.562070
     26          6           0       -0.399970    4.405480   -0.959900
     27          6           0       -3.407200    5.595510    0.914770
     28          6           0       -4.431320    5.112450    1.830760
     29          6           0       -4.494850    3.821110    2.196100
     30          6           0       -3.518530    2.889200    1.667810
     31          1           0       -4.655970    2.251710   -1.057940
     32          1           0       -7.087250    1.609300   -0.210800
     33          1           0       -7.978380   -0.729360   -0.758260
     34          1           0       -7.436670   -3.205990   -0.048760
     35          1           0       -5.654910   -4.823020    0.553860
     36          1           0       -2.969580   -5.126060    0.959900
     37          1           0       -0.724870   -4.010980    1.052850
     38          1           0        0.772210   -1.622100    0.688610
     39          1           0        1.790160    0.427120   -0.342750
     40          1           0        1.602670    2.659980   -1.342420
     41          1           0        0.460480    4.860930   -1.437380
     42          1           0       -1.471390    6.309250   -0.858840
     43          1           0       -3.415290    6.659450    0.698160
     44          1           0       -5.143790    5.834060    2.217540
     45          1           0       -5.245390    3.455110    2.887270
     46          1           0       -3.440620    1.918040    2.142060
     47          1           0       -6.805060    1.191900   -1.902160
 ---------------------------------------------------------------------
                    Distance matrix (angstroms):
                    1          2          3          4          5
     1  C    0.000000
     2  C    1.487883   0.000000
     3  C    2.318620   1.473143   0.000000
     4  C    1.463735   2.371387   2.247637   0.000000
     5  C    2.303610   2.378182   1.428211   1.331947   0.000000
     6  C    2.613674   3.778351   3.613743   1.435686   2.401569
     7  C    3.906699   4.815504   4.227022   2.498157   2.809038
     8  C    4.305646   4.819968   3.850782   2.853151   2.482257
     9  C    3.688894   3.777112   2.569322   2.443047   1.438873
    10  C    3.642968   2.549123   1.341806   3.504840   2.401243
    11  C    4.608494   3.817854   2.380671   4.010618   2.689902
    12  C    4.625357   4.302100   2.863313   3.600703   2.346836
    13  C    1.439009   2.715368   3.743907   2.462994   3.606475
    14  C    2.543458   4.009864   4.726041   2.812725   4.138703
    15  C    2.917983   4.343525   4.576713   2.345398   3.573595
    16  C    2.653251   1.355575   2.438817   3.721219   3.639992
    17  C    3.895250   2.421674   2.722789   4.645032   4.140856
    18  C    4.282062   2.871722   2.338623   4.571855   3.681711
    19  C    3.350950   2.541940   3.859897   4.693302   4.913177
    20  C    4.671441   3.751972   4.922387   5.987555   6.101488
    21  C    5.300182   4.103113   4.925892   6.424415   6.251087
    22  C    5.013032   3.606735   4.031335   5.885891   5.436663
    23  C    3.528439   3.195592   4.583316   4.920378   5.395545
    24  C    4.807077   4.608734   6.031902   6.239248   6.820550
    25  C    5.653481   5.267694   6.668150   7.111188   7.597070
    26  C    5.618999   4.917162   6.184722   7.018315   7.284877
    27  C    5.461660   5.528642   6.934973   6.826744   7.552830
    28  C    5.225940   5.519594   6.816623   6.426891   7.229050
    29  C    4.264230   4.586475   5.757439   5.341087   6.090197
    30  C    3.246212   3.252819   4.467619   4.437402   5.008706
    31  H    2.200862   3.071017   4.343606   3.455565   4.478823
    32  H    3.214371   4.631365   5.425232   3.555116   4.867769
    33  H    4.002511   5.428126   5.598241   3.353870   4.494018
    34  H    4.803142   5.829965   5.307432   3.471577   3.892669
    35  H    5.386030   5.833810   4.755002   3.936519   3.462734
    36  H    5.666637   5.385962   3.942935   4.551451   3.367431
    37  H    5.642034   4.731290   3.359492   5.094202   3.773723
    38  H    5.356953   3.952344   3.325449   5.571138   4.576684
    39  H    5.946911   4.507440   4.674190   6.686208   6.078948
    40  H    6.329528   5.156835   5.928955   7.450070   7.257945
    41  H    6.610184   5.842268   7.033551   7.984042   8.187310
    42  H    6.618069   6.319492   7.733143   8.081501   8.628714
    43  H    6.465039   6.551113   7.976443   7.840982   8.599624
    44  H    6.114759   6.527246   7.792232   7.236328   8.105692
    45  H    4.536197   5.018904   6.011404   5.370678   6.144117
    46  H    2.920458   2.806447   3.765328   3.874309   4.271613
    47  H    3.286058   4.673532   5.426793   3.591694   4.872121
                    6          7          8          9         10
     6  C    0.000000
     7  C    1.477591   0.000000
     8  C    2.470090   1.362364   0.000000
     9  C    2.855076   2.455129   1.471885   0.000000
    10  C    4.779034   5.125525   4.431537   2.974675   0.000000
    11  C    4.996555   4.904103   3.882351   2.464598   1.476562
    12  C    4.198912   3.741943   2.548343   1.354517   2.610100
    13  C    3.001883   4.469994   5.207659   4.886965   5.055622
    14  C    2.549166   3.951415   5.012279   5.133325   6.064807
    15  C    1.346998   2.529293   3.735976   4.194936   5.845787
    16  C    5.113762   6.168805   6.116123   4.967810   2.994269
    17  C    6.076224   6.900873   6.561281   5.217556   2.533345
    18  C    5.950686   6.475793   5.866033   4.419623   1.452555
    19  C    5.960616   7.189982   7.333503   6.306208   4.477816
    20  C    7.269516   8.476309   8.553143   7.446488   5.286004
    21  C    7.787721   8.837597   8.704165   7.457070   4.930094
    22  C    7.302820   8.171139   7.841924   6.492798   3.733169
    23  C    6.015202   7.336337   7.664160   6.808280   5.384695
    24  C    7.221652   8.609334   9.041778   8.246267   6.815945
    25  C    8.160732   9.542639   9.910974   9.025594   7.312696
    26  C    8.207297   9.500717   9.697019   8.666543   6.622017
    27  C    7.631006   9.037721   9.602561   8.952278   7.814384
    28  C    7.076192   8.428868   9.061588   8.550754   7.782672
    29  C    6.012973   7.296554   7.867063   7.358459   6.738867
    30  C    5.383877   6.656058   7.052316   6.343335   5.388265
    31  H    4.075191   5.540515   6.246186   5.825722   5.573124
    32  H    3.234139   4.555245   5.667243   5.847997   6.761847
    33  H    2.110916   2.790683   4.134571   4.889740   6.832314
    34  H    2.209447   1.084666   2.132540   3.451367   6.204225
    35  H    3.465753   2.136019   1.084103   2.208622   5.137076
    36  H    4.941588   4.199903   2.862885   2.139516   3.561438
    37  H    6.061238   5.876037   4.756171   3.421671   2.212546
    38  H    6.913416   7.315478   6.570872   5.100736   2.195086
    39  H    8.099269   8.848685   8.384380   6.978659   4.088620
    40  H    8.799045   9.840538   9.686864   8.425720   5.836396
    41  H    9.186944  10.458632  10.611097   9.538187   7.350632
    42  H    9.064206  10.475662  10.905259  10.062216   8.389138
    43  H    8.597311  10.024311  10.633357  10.005884   8.843075
    44  H    7.742827   9.073676   9.788785   9.384303   8.786783
    45  H    5.862907   7.042737   7.655769   7.288490   7.014575
    46  H    4.885054   6.019971   6.283171   5.524812   4.634694
    47  H    3.242691   4.540658   5.639639   5.821744   6.740541
                   11         12         13         14         15
    11  C    0.000000
    12  C    1.491571   0.000000
    13  C    6.027242   5.948638   0.000000
    14  C    6.786055   6.379360   1.522346   0.000000
    15  C    6.241184   5.530730   2.613411   1.536641   0.000000
    16  C    4.449800   5.263314   3.540743   5.000512   5.570981
    17  C    3.959949   5.119631   4.950936   6.359785   6.744935
    18  C    2.667588   4.004461   5.576421   6.813409   6.869788
    19  C    5.934498   6.711629   3.692046   5.201873   6.119257
    20  C    6.757786   7.706308   4.934925   6.441129   7.418394
    21  C    6.336455   7.472917   5.843796   7.354157   8.141072
    22  C    5.067951   6.318022   5.884534   7.354042   7.883714
    23  C    6.775175   7.381812   3.501098   4.876702   5.955180
    24  C    8.230793   8.851560   4.442985   5.683938   6.959696
    25  C    8.776310   9.531005   5.327236   6.629657   7.929507
    26  C    8.094686   9.002683   5.586548   7.019161   8.174739
    27  C    9.170882   9.665168   4.877008   5.863567   7.198358
    28  C    9.021005   9.350374   4.626892   5.379242   6.602639
    29  C    7.892565   8.155201   3.891941   4.659462   5.688782
    30  C    6.622369   7.026698   3.244142   4.377126   5.312443
    31  H    6.700215   6.796213   1.081573   2.271756   3.598819
    32  H    7.506366   7.099700   2.135412   1.096259   2.147481
    33  H    7.103580   6.242794   3.573303   2.235550   1.086063
    34  H    5.915601   4.664388   5.147474   4.339933   2.807808
    35  H    4.316477   2.842753   6.282350   6.011046   4.652302
    36  H    2.215616   1.083988   6.953813   7.270264   6.285939
    37  H    1.084156   2.218901   7.064653   7.863129   7.317973
    38  H    2.959251   4.429859   6.651584   7.881190   7.888717
    39  H    5.240541   6.605692   6.891982   8.334499   8.772942
    40  H    7.187565   8.376652   6.805936   8.304325   9.129528
    41  H    8.808182   9.795372   6.589834   8.011744   9.168321
    42  H    9.852984  10.596370   6.151370   7.354197   8.729955
    43  H   10.218275  10.727801   5.777102   6.679375   8.077882
    44  H    9.981845  10.236790   5.403710   5.936806   7.154272
    45  H    8.025257   8.137404   4.205971   4.690736   5.529378
    46  H    5.770852   6.148249   3.332750   4.410135   5.048955
    47  H    7.467780   7.058023   2.131523   1.096467   2.142021
                   16         17         18         19         20
    16  C    0.000000
    17  C    1.524462   0.000000
    18  C    2.607025   1.477573   0.000000
    19  C    1.490385   2.595277   3.937037   0.000000
    20  C    2.527577   2.937487   4.415058   1.505032   0.000000
    21  C    2.838007   2.437670   3.793401   2.538102   1.459550
    22  C    2.478878   1.349361   2.450289   2.935704   2.546716
    23  C    2.542136   3.816382   5.032577   1.365484   2.471833
    24  C    3.878661   5.015094   6.348033   2.459625   2.824975
    25  C    4.327920   5.187024   6.636146   2.852455   2.408217
    26  C    3.781847   4.281521   5.758644   2.497122   1.348115
    27  C    4.990888   6.216520   7.471791   3.679372   4.172874
    28  C    5.259519   6.588510   7.658119   4.225723   5.101601
    29  C    4.520434   5.870990   6.764442   3.812048   4.993631
    30  C    3.081183   4.425445   5.338286   2.510184   3.845888
    31  H    3.501837   4.960839   5.840635   3.236067   4.319033
    32  H    5.516668   6.952759   7.465652   5.534640   6.822696
    33  H    6.655373   7.825568   7.911476   7.164801   8.453520
    34  H    7.184191   7.968285   7.560074   8.133787   9.434466
    35  H    7.098537   7.424519   6.588952   8.360524   9.556636
    36  H    6.326467   6.090436   4.873570   7.783167   8.750188
    37  H    5.169736   4.401849   2.958330   6.636164   7.311907
    38  H    3.587926   2.229866   1.082963   4.801656   5.050093
    39  H    3.488980   2.132332   2.688700   4.013718   3.493603
    40  H    3.916418   3.389224   4.620088   3.529233   2.209310
    41  H    4.661699   4.912261   6.363812   3.500234   2.137898
    42  H    5.405504   6.234634   7.693952   3.933881   3.379014
    43  H    5.963453   7.132154   8.440700   4.581314   4.825232
    44  H    6.331470   7.666228   8.709788   5.308550   6.139924
    45  H    5.166798   6.494973   7.211024   4.688224   5.964362
    46  H    2.853698   4.074394   4.728726   2.814914   4.251254
    47  H    5.582904   6.913195   7.438318   5.685890   6.762814
                   21         22         23         24         25
    21  C    0.000000
    22  C    1.451938   0.000000
    23  C    3.749287   4.236392   0.000000
    24  C    4.261504   5.127885   1.492841   0.000000
    25  C    3.751114   4.935680   2.536292   1.450550   0.000000
    26  C    2.432215   3.758795   2.898318   2.499766   1.443223
    27  C    5.600973   6.424568   2.456034   1.350320   2.444654
    28  C    6.477659   7.053594   2.861233   2.458077   3.797326
    29  C    6.244452   6.552402   2.536577   2.879425   4.329908
    30  C    4.975828   5.157457   1.464852   2.512610   3.841504
    31  H    5.387558   5.688916   2.936877   3.616638   4.402859
    32  H    7.867005   7.938964   4.942341   5.611893   6.698620
    33  H    9.203044   8.962690   6.931371   7.853842   8.839837
    34  H    9.853667   9.230762   8.189717   9.398470  10.366607
    35  H    9.631845   8.692212   8.715798  10.107422  10.974504
    36  H    8.449216   7.239643   8.455774   9.929344  10.608681
    37  H    6.705313   5.334253   7.553887   8.986377   9.448891
    38  H    4.168917   2.720308   5.939848   7.186288   7.357728
    39  H    2.172292   1.085217   5.295727   6.139808   5.849578
    40  H    1.084651   2.180845   4.645544   4.910703   4.117519
    41  H    2.686850   4.125253   3.974692   3.456460   2.173395
    42  H    4.613659   5.890008   3.527200   2.210614   1.083163
    43  H    6.242210   7.208456   3.460563   2.127725   2.691506
    44  H    7.529079   8.131596   3.945082   3.407707   4.628211
    45  H    7.146098   7.307969   3.505907   3.963364   5.413866
    46  H    5.140222   5.012246   2.221681   3.496285   4.727522
    47  H    7.679728   7.797580   5.419976   6.049581   6.833084
                   26         27         28         29         30
    26  C    0.000000
    27  C    3.738180   0.000000
    28  C    4.953723   1.456436   0.000000
    29  C    5.202871   2.444030   1.343528   0.000000
    30  C    4.350791   2.811330   2.408854   1.449395   0.000000
    31  H    4.770940   4.078236   4.071718   3.616318   3.021569
    32  H    7.286939   5.540717   4.847060   4.172027   4.231203
    33  H    9.156393   7.981146   7.308311   6.447480   6.234585
    34  H   10.405758   9.727868   9.042188   7.941904   7.446461
    35  H   10.727119  10.664344  10.091641   8.874890   8.079811
    36  H   10.056778  10.730592  10.378929   9.160049   8.065164
    37  H    8.659880   9.974899   9.878253   8.767064   7.469618
    38  H    6.357933   8.343411   8.586932   7.722887   6.302469
    39  H    4.583109   7.436811   8.085993   7.580652   6.187599
    40  H    2.683963   6.229851   7.245186   7.144865   5.944806
    41  H    1.084341   4.585975   5.888439   6.232070   5.418712
    42  H    2.186891   2.720749   4.174621   4.966368   4.719267
    43  H    4.113599   1.085796   2.169864   3.386067   3.894312
    44  H    5.885643   2.184001   1.085326   2.115077   3.408207
    45  H    6.259554   3.442530   2.127369   1.083966   2.188466
    46  H    5.005504   3.877002   3.358966   2.176235   1.083575
    47  H    7.227733   6.234768   5.911011   5.389392   5.140700
                   31         32         33         34         35
    31  H    0.000000
    32  H    2.653575   0.000000
    33  H    4.473812   2.561866   0.000000
    34  H    6.207836   4.830670   2.632591   0.000000
    35  H    7.324451   6.634082   4.886535   2.480445   0.000000
    36  H    7.832438   7.980653   6.882668   4.965779   2.732709
    37  H    7.689621   8.582787   8.164714   6.849074   5.021324
    38  H    6.893619   8.545291   8.914216   8.392743   7.181359
    39  H    6.737449   8.956750   9.845530   9.920701   9.154067
    40  H    6.278391   8.826052  10.179656  10.853240  10.595453
    41  H    5.755872   8.309382  10.145290  11.374025  11.625056
    42  H    5.161862   7.351692   9.586087  11.259689  11.976018
    43  H    4.904217   6.309795   8.805536  10.679714  11.699737
    44  H    4.878521   5.246186   7.743950   9.597704  10.798260
    45  H    4.166566   4.049383   6.186187   7.602120   8.610456
    46  H    3.439246   4.350768   6.000987   6.857390   7.270994
    47  H    2.540569   1.764810   2.525159   4.814090   6.598041
                   36         37         38         39         40
    36  H    0.000000
    37  H    2.508140   0.000000
    38  H    5.133452   2.842651   0.000000
    39  H    7.428986   5.288649   2.509826   0.000000
    40  H    9.318185   7.460326   4.811544   2.453601   0.000000
    41  H   10.828307   9.290699   6.829838   4.756568   2.481491
    42  H   11.675560  10.522310   8.386576   6.745629   4.795922
    43  H   11.796839  11.010097   9.280049   8.186705   6.733472
    44  H   11.244246  10.853947   9.640073   9.158043   8.262132
    45  H    9.084632   8.918671   8.174575   8.312684   8.088166
    46  H    7.158123   6.611729   5.691489   5.979815   6.174694
    47  H    7.925838   8.530578   8.487974   8.768948   8.553274
                   41         42         43         44         45
    41  H    0.000000
    42  H    2.482833   0.000000
    43  H    4.776693   2.515082   0.000000
    44  H    6.761159   4.814192   2.444892   0.000000
    45  H    7.296292   6.035108   4.290602   2.473512   0.000000
    46  H    6.057357   5.671507   4.956456   4.271030   2.484978
    47  H    8.152660   7.464839   6.938754   6.425060   5.522077
                   46         47
    46  H    0.000000
    47  H    5.310598   0.000000
 Stoichiometry    C30H17(2)
 Framework group  C1[X(C30H17)]
 Deg. of freedom   135
 Full point group                 C1      NOp   1
 Largest Abelian subgroup         C1      NOp   1
 Largest concise Abelian subgroup C1      NOp   1
                         Standard orientation:                         
 ---------------------------------------------------------------------
 Center     Atomic      Atomic             Coordinates (Angstroms)
 Number     Number       Type             X           Y           Z
 ---------------------------------------------------------------------
      1          6           0        0.795065   -0.895821   -0.450553
      2          6           0        0.413401    0.504292   -0.122204
      3          6           0        1.707054    1.139788    0.182353
      4          6           0        2.246269   -0.991544   -0.285134
      5          6           0        2.759798    0.179191    0.088699
      6          6           0        3.105473   -2.115190   -0.530866
      7          6           0        4.552917   -1.950792   -0.283579
      8          6           0        5.061535   -0.749864    0.110267
      9          6           0        4.165677    0.402777    0.298151
     10          6           0        1.981058    2.409719    0.517973
     11          6           0        3.406968    2.700046    0.768430
     12          6           0        4.481613    1.672776    0.647441
     13          6           0        0.149639   -2.034565   -1.048410
     14          6           0        0.971994   -3.295542   -1.274699
     15          6           0        2.480391   -3.215410   -0.992593
     16          6           0       -0.722990    1.233480   -0.001863
     17          6           0       -0.496263    2.737429    0.101655
     18          6           0        0.811948    3.271610    0.533460
     19          6           0       -2.119062    0.723311   -0.111221
     20          6           0       -3.096324    1.670851   -0.753286
     21          6           0       -2.696092    3.067236   -0.895448
     22          6           0       -1.464194    3.577364   -0.320714
     23          6           0       -2.589307   -0.436308    0.435314
     24          6           0       -3.979435   -0.870707    0.107574
     25          6           0       -4.784886   -0.046089   -0.772966
     26          6           0       -4.341385    1.287713   -1.100336
     27          6           0       -4.441322   -2.041275    0.597264
     28          6           0       -3.638526   -2.890303    1.466676
     29          6           0       -2.400688   -2.534136    1.848738
     30          6           0       -1.854536   -1.273661    1.386495
     31          1           0       -0.877157   -1.980404   -1.383906
     32          1           0        0.550648   -4.094459   -0.653424
     33          1           0        3.051488   -4.113508   -1.208935
     34          1           0        5.201450   -2.807269   -0.433087
     35          1           0        6.123288   -0.619783    0.286444
     36          1           0        5.502710    1.984280    0.835476
     37          1           0        3.695342    3.712770    1.026550
     38          1           0        0.940342    4.333613    0.702208
     39          1           0       -1.334808    4.654761   -0.307635
     40          1           0       -3.375661    3.779335   -1.351046
     41          1           0       -5.061834    1.968547   -1.539898
     42          1           0       -5.771249   -0.366903   -1.085070
     43          1           0       -5.440564   -2.396077    0.363630
     44          1           0       -4.076185   -3.824218    1.804596
     45          1           0       -1.801020   -3.153388    2.505934
     46          1           0       -0.965562   -0.898452    1.879524
     47          1           0        0.844033   -3.597094   -2.321089
 ---------------------------------------------------------------------
 Rotational constants (GHZ):           0.2700347           0.1384395           0.1002214
 Standard basis: 6-311+G(d,p) (5D, 7F)
 There are   792 symmetry adapted cartesian basis functions of A   symmetry.
 There are   762 symmetry adapted basis functions of A   symmetry.
   762 basis functions,  1216 primitive gaussians,   792 cartesian basis functions
    99 alpha electrons       98 beta electrons
       nuclear repulsion energy      2588.2146222847 Hartrees.
 NAtoms=   47 NActive=   47 NUniq=   47 SFac= 1.00D+00 NAtFMM=   60 NAOKFM=F Big=F
 Integral buffers will be    131072 words long.
 Raffenetti 2 integral format.
 Two-electron integral symmetry is turned on.
 One-electron integrals computed using PRISM.
 NBasis=   762 RedAO= T EigKep=  1.01D-06  NBF=   762
 NBsUse=   744 1.00D-06 EigRej=  7.83D-07 NBFU=   744
 ExpMin= 4.38D-02 ExpMax= 4.56D+03 ExpMxC= 6.82D+02 IAcc=2 IRadAn=         4 AccDes= 0.00D+00
 Harris functional with IExCor=  402 and IRadAn=       4 diagonalized for initial guess.
 HarFok:  IExCor=  402 AccDes= 0.00D+00 IRadAn=         4 IDoV= 1 UseB2=F ITyADJ=14
 ICtDFT=  3500011 ScaDFX=  1.000000  1.000000  1.000000  1.000000
 FoFCou: FMM=F IPFlag=           0 FMFlag=      100000 FMFlg1=           0
         NFxFlg=           0 DoJE=T BraDBF=F KetDBF=T FulRan=T
         wScrn=  0.000000 ICntrl=       500 IOpCl=  0 I1Cent=   200000004 NGrid=           0
         NMat0=    1 NMatS0=      1 NMatT0=    0 NMatD0=    1 NMtDS0=    0 NMtDT0=    0
 Petite list used in FoFCou.
 Initial guess <Sx>= 0.0000 <Sy>= 0.0000 <Sz>= 0.5000 <S**2>= 0.7500 S= 0.5000
 Requested convergence on RMS density matrix=1.00D-08 within 128 cycles.
 Requested convergence on MAX density matrix=1.00D-06.
 Requested convergence on             energy=1.00D-06.
 No special actions if energy rises.
 Restarting incremental Fock formation.
 SCF Done:  E(UB3LYP) =  -1153.59099474     A.U. after   30 cycles
            NFock= 30  Conv=0.66D-08     -V/T= 2.0052
 <Sx>= 0.0000 <Sy>= 0.0000 <Sz>= 0.5000 <S**2>= 0.8200 S= 0.5344
 <L.S>=  0.00000000000    
 Annihilation of the first spin contaminant:
 S**2 before annihilation     0.8200,   after     0.7539

 **********************************************************************

            Population analysis using the SCF Density.

 **********************************************************************

 Orbital symmetries:
 Alpha Orbitals:
       Occupied  (A) (A) (A) (A) (A) (A) (A) (A) (A) (A) (A) (A)
                 (A) (A) (A) (A) (A) (A) (A) (A) (A) (A) (A) (A)
                 (A) (A) (A) (A) (A) (A) (A) (A) (A) (A) (A) (A)
                 (A) (A) (A) (A) (A) (A) (A) (A) (A) (A) (A) (A)
                 (A) (A) (A) (A) (A) (A) (A) (A) (A) (A) (A) (A)
                 (A) (A) (A) (A) (A) (A) (A) (A) (A) (A) (A) (A)
                 (A) (A) (A) (A) (A) (A) (A) (A) (A) (A) (A) (A)
                 (A) (A) (A) (A) (A) (A) (A) (A) (A) (A) (A) (A)
                 (A) (A) (A)
       Virtual   (A) (A) (A) (A) (A) (A) (A) (A) (A) (A) (A) (A)
                 (A) (A) (A) (A) (A) (A) (A) (A) (A) (A) (A) (A)
                 (A) (A) (A) (A) (A) (A) (A) (A) (A) (A) (A) (A)
                 (A) (A) (A) (A) (A) (A) (A) (A) (A) (A) (A) (A)
                 (A) (A) (A) (A) (A) (A) (A) (A) (A) (A) (A) (A)
                 (A) (A) (A) (A) (A) (A) (A) (A) (A) (A) (A) (A)
                 (A) (A) (A) (A) (A) (A) (A) (A) (A) (A) (A) (A)
                 (A) (A) (A) (A) (A) (A) (A) (A) (A) (A) (A) (A)
                 (A) (A) (A) (A) (A) (A) (A) (A) (A) (A) (A) (A)
                 (A) (A) (A) (A) (A) (A) (A) (A) (A) (A) (A) (A)
                 (A) (A) (A) (A) (A) (A) (A) (A) (A) (A) (A) (A)
                 (A) (A) (A) (A) (A) (A) (A) (A) (A) (A) (A) (A)
                 (A) (A) (A) (A) (A) (A) (A) (A) (A) (A) (A) (A)
                 (A) (A) (A) (A) (A) (A) (A) (A) (A) (A) (A) (A)
                 (A) (A) (A) (A) (A) (A) (A) (A) (A) (A) (A) (A)
                 (A) (A) (A) (A) (A) (A) (A) (A) (A) (A) (A) (A)
                 (A) (A) (A) (A) (A) (A) (A) (A) (A) (A) (A) (A)
                 (A) (A) (A) (A) (A) (A) (A) (A) (A) (A) (A) (A)
                 (A) (A) (A) (A) (A) (A) (A) (A) (A) (A) (A) (A)
                 (A) (A) (A) (A) (A) (A) (A) (A) (A) (A) (A) (A)
                 (A) (A) (A) (A) (A) (A) (A) (A) (A) (A) (A) (A)
                 (A) (A) (A) (A) (A) (A) (A) (A) (A) (A) (A) (A)
                 (A) (A) (A) (A) (A) (A) (A) (A) (A) (A) (A) (A)
                 (A) (A) (A) (A) (A) (A) (A) (A) (A) (A) (A) (A)
                 (A) (A) (A) (A) (A) (A) (A) (A) (A) (A) (A) (A)
                 (A) (A) (A) (A) (A) (A) (A) (A) (A) (A) (A) (A)
                 (A) (A) (A) (A) (A) (A) (A) (A) (A) (A) (A) (A)
                 (A) (A) (A) (A) (A) (A) (A) (A) (A) (A) (A) (A)
                 (A) (A) (A) (A) (A) (A) (A) (A) (A) (A) (A) (A)
                 (A) (A) (A) (A) (A) (A) (A) (A) (A) (A) (A) (A)
                 (A) (A) (A) (A) (A) (A) (A) (A) (A) (A) (A) (A)
                 (A) (A) (A) (A) (A) (A) (A) (A) (A) (A) (A) (A)
                 (A) (A) (A) (A) (A) (A) (A) (A) (A) (A) (A) (A)
                 (A) (A) (A) (A) (A) (A) (A) (A) (A) (A) (A) (A)
                 (A) (A) (A) (A) (A) (A) (A) (A) (A) (A) (A) (A)
                 (A) (A) (A) (A) (A) (A) (A) (A) (A) (A) (A) (A)
                 (A) (A) (A) (A) (A) (A) (A) (A) (A) (A) (A) (A)
                 (A) (A) (A) (A) (A) (A) (A) (A) (A) (A) (A) (A)
                 (A) (A) (A) (A) (A) (A) (A) (A) (A) (A) (A) (A)
                 (A) (A) (A) (A) (A) (A) (A) (A) (A) (A) (A) (A)
                 (A) (A) (A) (A) (A) (A) (A) (A) (A) (A) (A) (A)
                 (A) (A) (A) (A) (A) (A) (A) (A) (A) (A) (A) (A)
                 (A) (A) (A) (A) (A) (A) (A) (A) (A) (A) (A) (A)
                 (A) (A) (A) (A) (A) (A) (A) (A) (A) (A) (A) (A)
                 (A) (A) (A) (A) (A) (A) (A) (A) (A) (A) (A) (A)
                 (A) (A) (A) (A) (A) (A) (A) (A) (A) (A) (A) (A)
                 (A) (A) (A) (A) (A) (A) (A) (A) (A) (A) (A) (A)
                 (A) (A) (A) (A) (A) (A) (A) (A) (A) (A) (A) (A)
                 (A) (A) (A) (A) (A) (A) (A) (A) (A) (A) (A) (A)
                 (A) (A) (A) (A) (A) (A) (A) (A) (A) (A) (A) (A)
                 (A) (A) (A) (A) (A) (A) (A) (A) (A) (A) (A) (A)
                 (A) (A) (A) (A) (A) (A) (A) (A) (A) (A) (A) (A)
                 (A) (A) (A) (A) (A) (A) (A) (A) (A) (A) (A) (A)
                 (A) (A) (A) (A) (A) (A) (A) (A) (A)
 Beta  Orbitals:
       Occupied  (A) (A) (A) (A) (A) (A) (A) (A) (A) (A) (A) (A)
                 (A) (A) (A) (A) (A) (A) (A) (A) (A) (A) (A) (A)
                 (A) (A) (A) (A) (A) (A) (A) (A) (A) (A) (A) (A)
                 (A) (A) (A) (A) (A) (A) (A) (A) (A) (A) (A) (A)
                 (A) (A) (A) (A) (A) (A) (A) (A) (A) (A) (A) (A)
                 (A) (A) (A) (A) (A) (A) (A) (A) (A) (A) (A) (A)
                 (A) (A) (A) (A) (A) (A) (A) (A) (A) (A) (A) (A)
                 (A) (A) (A) (A) (A) (A) (A) (A) (A) (A) (A) (A)
                 (A) (A)
       Virtual   (A) (A) (A) (A) (A) (A) (A) (A) (A) (A) (A) (A)
                 (A) (A) (A) (A) (A) (A) (A) (A) (A) (A) (A) (A)
                 (A) (A) (A) (A) (A) (A) (A) (A) (A) (A) (A) (A)
                 (A) (A) (A) (A) (A) (A) (A) (A) (A) (A) (A) (A)
                 (A) (A) (A) (A) (A) (A) (A) (A) (A) (A) (A) (A)
                 (A) (A) (A) (A) (A) (A) (A) (A) (A) (A) (A) (A)
                 (A) (A) (A) (A) (A) (A) (A) (A) (A) (A) (A) (A)
                 (A) (A) (A) (A) (A) (A) (A) (A) (A) (A) (A) (A)
                 (A) (A) (A) (A) (A) (A) (A) (A) (A) (A) (A) (A)
                 (A) (A) (A) (A) (A) (A) (A) (A) (A) (A) (A) (A)
                 (A) (A) (A) (A) (A) (A) (A) (A) (A) (A) (A) (A)
                 (A) (A) (A) (A) (A) (A) (A) (A) (A) (A) (A) (A)
                 (A) (A) (A) (A) (A) (A) (A) (A) (A) (A) (A) (A)
                 (A) (A) (A) (A) (A) (A) (A) (A) (A) (A) (A) (A)
                 (A) (A) (A) (A) (A) (A) (A) (A) (A) (A) (A) (A)
                 (A) (A) (A) (A) (A) (A) (A) (A) (A) (A) (A) (A)
                 (A) (A) (A) (A) (A) (A) (A) (A) (A) (A) (A) (A)
                 (A) (A) (A) (A) (A) (A) (A) (A) (A) (A) (A) (A)
                 (A) (A) (A) (A) (A) (A) (A) (A) (A) (A) (A) (A)
                 (A) (A) (A) (A) (A) (A) (A) (A) (A) (A) (A) (A)
                 (A) (A) (A) (A) (A) (A) (A) (A) (A) (A) (A) (A)
                 (A) (A) (A) (A) (A) (A) (A) (A) (A) (A) (A) (A)
                 (A) (A) (A) (A) (A) (A) (A) (A) (A) (A) (A) (A)
                 (A) (A) (A) (A) (A) (A) (A) (A) (A) (A) (A) (A)
                 (A) (A) (A) (A) (A) (A) (A) (A) (A) (A) (A) (A)
                 (A) (A) (A) (A) (A) (A) (A) (A) (A) (A) (A) (A)
                 (A) (A) (A) (A) (A) (A) (A) (A) (A) (A) (A) (A)
                 (A) (A) (A) (A) (A) (A) (A) (A) (A) (A) (A) (A)
                 (A) (A) (A) (A) (A) (A) (A) (A) (A) (A) (A) (A)
                 (A) (A) (A) (A) (A) (A) (A) (A) (A) (A) (A) (A)
                 (A) (A) (A) (A) (A) (A) (A) (A) (A) (A) (A) (A)
                 (A) (A) (A) (A) (A) (A) (A) (A) (A) (A) (A) (A)
                 (A) (A) (A) (A) (A) (A) (A) (A) (A) (A) (A) (A)
                 (A) (A) (A) (A) (A) (A) (A) (A) (A) (A) (A) (A)
                 (A) (A) (A) (A) (A) (A) (A) (A) (A) (A) (A) (A)
                 (A) (A) (A) (A) (A) (A) (A) (A) (A) (A) (A) (A)
                 (A) (A) (A) (A) (A) (A) (A) (A) (A) (A) (A) (A)
                 (A) (A) (A) (A) (A) (A) (A) (A) (A) (A) (A) (A)
                 (A) (A) (A) (A) (A) (A) (A) (A) (A) (A) (A) (A)
                 (A) (A) (A) (A) (A) (A) (A) (A) (A) (A) (A) (A)
                 (A) (A) (A) (A) (A) (A) (A) (A) (A) (A) (A) (A)
                 (A) (A) (A) (A) (A) (A) (A) (A) (A) (A) (A) (A)
                 (A) (A) (A) (A) (A) (A) (A) (A) (A) (A) (A) (A)
                 (A) (A) (A) (A) (A) (A) (A) (A) (A) (A) (A) (A)
                 (A) (A) (A) (A) (A) (A) (A) (A) (A) (A) (A) (A)
                 (A) (A) (A) (A) (A) (A) (A) (A) (A) (A) (A) (A)
                 (A) (A) (A) (A) (A) (A) (A) (A) (A) (A) (A) (A)
                 (A) (A) (A) (A) (A) (A) (A) (A) (A) (A) (A) (A)
                 (A) (A) (A) (A) (A) (A) (A) (A) (A) (A) (A) (A)
                 (A) (A) (A) (A) (A) (A) (A) (A) (A) (A) (A) (A)
                 (A) (A) (A) (A) (A) (A) (A) (A) (A) (A) (A) (A)
                 (A) (A) (A) (A) (A) (A) (A) (A) (A) (A) (A) (A)
                 (A) (A) (A) (A) (A) (A) (A) (A) (A) (A) (A) (A)
                 (A) (A) (A) (A) (A) (A) (A) (A) (A) (A)
 The electronic state is 2-A.
 Alpha  occ. eigenvalues --  -10.20769 -10.20539 -10.20105 -10.20074 -10.20066
 Alpha  occ. eigenvalues --  -10.19900 -10.19793 -10.19739 -10.19696 -10.19488
 Alpha  occ. eigenvalues --  -10.19424 -10.19390 -10.19309 -10.19024 -10.18956
 Alpha  occ. eigenvalues --  -10.18921 -10.18845 -10.18835 -10.18807 -10.18721
 Alpha  occ. eigenvalues --  -10.18639 -10.18566 -10.18529 -10.18491 -10.18221
 Alpha  occ. eigenvalues --  -10.18213 -10.18020 -10.17703 -10.17326 -10.16510
 Alpha  occ. eigenvalues --   -0.91210  -0.88485  -0.86164  -0.84493  -0.83612
 Alpha  occ. eigenvalues --   -0.81775  -0.80215  -0.78836  -0.78231  -0.76755
 Alpha  occ. eigenvalues --   -0.75302  -0.73571  -0.71987  -0.71160  -0.69930
 Alpha  occ. eigenvalues --   -0.66841  -0.64907  -0.63944  -0.62911  -0.61066
 Alpha  occ. eigenvalues --   -0.60716  -0.59545  -0.58592  -0.56075  -0.54344
 Alpha  occ. eigenvalues --   -0.53339  -0.52464  -0.51008  -0.50814  -0.49533
 Alpha  occ. eigenvalues --   -0.49213  -0.47099  -0.46806  -0.46721  -0.45386
 Alpha  occ. eigenvalues --   -0.44894  -0.44368  -0.43861  -0.43138  -0.42760
 Alpha  occ. eigenvalues --   -0.42258  -0.41907  -0.41666  -0.41094  -0.40535
 Alpha  occ. eigenvalues --   -0.39986  -0.39772  -0.39473  -0.38581  -0.37338
 Alpha  occ. eigenvalues --   -0.37203  -0.36091  -0.35990  -0.35004  -0.34580
 Alpha  occ. eigenvalues --   -0.34257  -0.33591  -0.33501  -0.32440  -0.31792
 Alpha  occ. eigenvalues --   -0.30015  -0.29205  -0.28244  -0.25965  -0.24941
 Alpha  occ. eigenvalues --   -0.23642  -0.21748  -0.19359  -0.16177
 Alpha virt. eigenvalues --   -0.09687  -0.06120  -0.05658  -0.04190  -0.01024
 Alpha virt. eigenvalues --   -0.00186   0.00338   0.00500   0.00807   0.01044
 Alpha virt. eigenvalues --    0.01509   0.01548   0.02315   0.02493   0.02918
 Alpha virt. eigenvalues --    0.03034   0.03109   0.03883   0.04105   0.04361
 Alpha virt. eigenvalues --    0.04683   0.04841   0.05305   0.05621   0.05870
 Alpha virt. eigenvalues --    0.06259   0.06703   0.06994   0.07141   0.07549
 Alpha virt. eigenvalues --    0.07993   0.08132   0.08661   0.08847   0.09249
 Alpha virt. eigenvalues --    0.09476   0.10001   0.10358   0.10625   0.10910
 Alpha virt. eigenvalues --    0.11040   0.11412   0.11616   0.11876   0.12343
 Alpha virt. eigenvalues --    0.12707   0.13234   0.13610   0.13748   0.13993
 Alpha virt. eigenvalues --    0.14258   0.14476   0.14686   0.14962   0.15280
 Alpha virt. eigenvalues --    0.15649   0.15987   0.16114   0.16370   0.16487
 Alpha virt. eigenvalues --    0.16732   0.16969   0.17101   0.17199   0.17348
 Alpha virt. eigenvalues --    0.17535   0.17647   0.18019   0.18049   0.18535
 Alpha virt. eigenvalues --    0.18622   0.18764   0.19050   0.19141   0.19366
 Alpha virt. eigenvalues --    0.19552   0.19789   0.19950   0.20070   0.20256
 Alpha virt. eigenvalues --    0.20539   0.20669   0.20784   0.21024   0.21243
 Alpha virt. eigenvalues --    0.21469   0.21799   0.22018   0.22069   0.22387
 Alpha virt. eigenvalues --    0.22615   0.22818   0.23096   0.23262   0.23414
 Alpha virt. eigenvalues --    0.23726   0.23729   0.24169   0.24314   0.24526
 Alpha virt. eigenvalues --    0.24643   0.25113   0.25288   0.25436   0.25872
 Alpha virt. eigenvalues --    0.26019   0.26350   0.26398   0.26705   0.27188
 Alpha virt. eigenvalues --    0.27472   0.27808   0.27943   0.28264   0.28614
 Alpha virt. eigenvalues --    0.28908   0.29042   0.29134   0.29367   0.29477
 Alpha virt. eigenvalues --    0.29950   0.30089   0.30333   0.30485   0.30898
 Alpha virt. eigenvalues --    0.31105   0.31281   0.31838   0.32019   0.32250
 Alpha virt. eigenvalues --    0.32496   0.32888   0.33236   0.33625   0.34010
 Alpha virt. eigenvalues --    0.34409   0.35050   0.35212   0.35427   0.35827
 Alpha virt. eigenvalues --    0.35993   0.36369   0.37464   0.37804   0.37935
 Alpha virt. eigenvalues --    0.38637   0.39235   0.39335   0.39853   0.40151
 Alpha virt. eigenvalues --    0.40456   0.42041   0.42173   0.42615   0.43051
 Alpha virt. eigenvalues --    0.43697   0.44527   0.45278   0.45795   0.46055
 Alpha virt. eigenvalues --    0.46339   0.46994   0.47793   0.48931   0.49410
 Alpha virt. eigenvalues --    0.49757   0.50337   0.51320   0.52017   0.52169
 Alpha virt. eigenvalues --    0.52591   0.53198   0.53990   0.54356   0.54623
 Alpha virt. eigenvalues --    0.55000   0.55311   0.55935   0.56186   0.56542
 Alpha virt. eigenvalues --    0.57020   0.57058   0.57672   0.58111   0.58517
 Alpha virt. eigenvalues --    0.58752   0.59242   0.59342   0.59698   0.60186
 Alpha virt. eigenvalues --    0.60903   0.60933   0.61387   0.61547   0.62006
 Alpha virt. eigenvalues --    0.62114   0.62760   0.63214   0.63359   0.64232
 Alpha virt. eigenvalues --    0.64982   0.65289   0.65607   0.65929   0.66350
 Alpha virt. eigenvalues --    0.66644   0.67018   0.67085   0.67740   0.67906
 Alpha virt. eigenvalues --    0.68640   0.68971   0.69234   0.69635   0.69701
 Alpha virt. eigenvalues --    0.70107   0.70695   0.71071   0.71122   0.71606
 Alpha virt. eigenvalues --    0.72022   0.72697   0.72740   0.73070   0.73832
 Alpha virt. eigenvalues --    0.74199   0.74447   0.74813   0.74942   0.75063
 Alpha virt. eigenvalues --    0.75686   0.76105   0.76785   0.76938   0.77371
 Alpha virt. eigenvalues --    0.77663   0.77953   0.78397   0.79391   0.79450
 Alpha virt. eigenvalues --    0.79873   0.80139   0.81284   0.81623   0.81835
 Alpha virt. eigenvalues --    0.82847   0.83503   0.83607   0.84280   0.85201
 Alpha virt. eigenvalues --    0.85645   0.85909   0.86070   0.87277   0.87416
 Alpha virt. eigenvalues --    0.88523   0.88846   0.89150   0.89523   0.89859
 Alpha virt. eigenvalues --    0.91773   0.91846   0.92241   0.93227   0.93547
 Alpha virt. eigenvalues --    0.93864   0.93995   0.94519   0.94867   0.95403
 Alpha virt. eigenvalues --    0.95564   0.95925   0.96274   0.96912   0.97269
 Alpha virt. eigenvalues --    0.97827   0.98186   0.98468   0.98905   0.99556
 Alpha virt. eigenvalues --    0.99983   1.00754   1.01135   1.01503   1.01762
 Alpha virt. eigenvalues --    1.02624   1.03168   1.03466   1.04661   1.05118
 Alpha virt. eigenvalues --    1.05709   1.06135   1.06980   1.07415   1.07558
 Alpha virt. eigenvalues --    1.08141   1.08433   1.09235   1.09402   1.09887
 Alpha virt. eigenvalues --    1.11504   1.12419   1.12860   1.13394   1.14206
 Alpha virt. eigenvalues --    1.14766   1.14974   1.15980   1.17240   1.17575
 Alpha virt. eigenvalues --    1.18174   1.19117   1.19732   1.21631   1.21924
 Alpha virt. eigenvalues --    1.23809   1.24320   1.24584   1.26079   1.28528
 Alpha virt. eigenvalues --    1.29360   1.30905   1.31612   1.33088   1.34270
 Alpha virt. eigenvalues --    1.36389   1.37308   1.38026   1.38691   1.38966
 Alpha virt. eigenvalues --    1.41105   1.41998   1.42729   1.44177   1.45687
 Alpha virt. eigenvalues --    1.46211   1.46332   1.47375   1.48010   1.48655
 Alpha virt. eigenvalues --    1.48938   1.49296   1.49833   1.50081   1.50687
 Alpha virt. eigenvalues --    1.51015   1.51503   1.52546   1.52704   1.53392
 Alpha virt. eigenvalues --    1.53875   1.54727   1.55133   1.55685   1.57091
 Alpha virt. eigenvalues --    1.57589   1.58062   1.58597   1.59271   1.59614
 Alpha virt. eigenvalues --    1.59982   1.60237   1.61566   1.62137   1.62722
 Alpha virt. eigenvalues --    1.63662   1.64682   1.65639   1.66059   1.66974
 Alpha virt. eigenvalues --    1.67416   1.68551   1.69092   1.69869   1.70788
 Alpha virt. eigenvalues --    1.71456   1.71722   1.72156   1.73314   1.73995
 Alpha virt. eigenvalues --    1.74364   1.74927   1.75293   1.75707   1.76294
 Alpha virt. eigenvalues --    1.77844   1.78484   1.79526   1.80723   1.80979
 Alpha virt. eigenvalues --    1.81491   1.82004   1.82304   1.83036   1.83567
 Alpha virt. eigenvalues --    1.84159   1.84220   1.85165   1.86555   1.86607
 Alpha virt. eigenvalues --    1.87016   1.88117   1.88507   1.89213   1.89749
 Alpha virt. eigenvalues --    1.90677   1.91307   1.91559   1.91867   1.91912
 Alpha virt. eigenvalues --    1.92232   1.93123   1.93416   1.93996   1.95116
 Alpha virt. eigenvalues --    1.95644   1.96816   1.97480   1.97823   1.98638
 Alpha virt. eigenvalues --    1.99449   2.00710   2.01341   2.01737   2.01954
 Alpha virt. eigenvalues --    2.02394   2.03371   2.03710   2.04860   2.04905
 Alpha virt. eigenvalues --    2.05908   2.06414   2.07502   2.08532   2.09053
 Alpha virt. eigenvalues --    2.10142   2.11120   2.11934   2.12370   2.13234
 Alpha virt. eigenvalues --    2.14212   2.15424   2.16204   2.17530   2.18039
 Alpha virt. eigenvalues --    2.18304   2.19688   2.20145   2.20596   2.22219
 Alpha virt. eigenvalues --    2.23505   2.24336   2.24805   2.25935   2.26430
 Alpha virt. eigenvalues --    2.27307   2.28330   2.29308   2.32435   2.33349
 Alpha virt. eigenvalues --    2.33837   2.35384   2.36699   2.37475   2.40345
 Alpha virt. eigenvalues --    2.40950   2.41285   2.41853   2.42662   2.43447
 Alpha virt. eigenvalues --    2.43921   2.44812   2.45660   2.45812   2.48542
 Alpha virt. eigenvalues --    2.51354   2.51885   2.53189   2.54375   2.55710
 Alpha virt. eigenvalues --    2.56450   2.56896   2.58291   2.59485   2.61246
 Alpha virt. eigenvalues --    2.62464   2.63642   2.64335   2.65033   2.66332
 Alpha virt. eigenvalues --    2.67499   2.67891   2.69067   2.70377   2.70809
 Alpha virt. eigenvalues --    2.71624   2.72054   2.72683   2.72800   2.73152
 Alpha virt. eigenvalues --    2.73310   2.73886   2.73999   2.74702   2.75012
 Alpha virt. eigenvalues --    2.75521   2.75894   2.76667   2.77212   2.77344
 Alpha virt. eigenvalues --    2.77835   2.78025   2.78755   2.79163   2.79187
 Alpha virt. eigenvalues --    2.79728   2.79944   2.81770   2.82598   2.83605
 Alpha virt. eigenvalues --    2.83870   2.84690   2.85482   2.86062   2.87769
 Alpha virt. eigenvalues --    2.88237   2.88677   2.88878   2.90151   2.91555
 Alpha virt. eigenvalues --    2.92639   2.92794   2.95412   2.96020   2.98203
 Alpha virt. eigenvalues --    2.98688   3.00053   3.00580   3.01207   3.03906
 Alpha virt. eigenvalues --    3.04511   3.06537   3.07305   3.08890   3.09148
 Alpha virt. eigenvalues --    3.10803   3.11432   3.13035   3.13569   3.14464
 Alpha virt. eigenvalues --    3.15165   3.16938   3.17568   3.18104   3.19195
 Alpha virt. eigenvalues --    3.20523   3.24099   3.26428   3.27670   3.29871
 Alpha virt. eigenvalues --    3.30715   3.32110   3.33872   3.34722   3.37171
 Alpha virt. eigenvalues --    3.37817   3.38450   3.39789   3.40257   3.41109
 Alpha virt. eigenvalues --    3.42166   3.46679   3.47902   3.49083   3.49606
 Alpha virt. eigenvalues --    3.50696   3.53014   3.54681   3.56278   3.58127
 Alpha virt. eigenvalues --    3.64403   3.64621   3.65082   3.67587   3.70428
 Alpha virt. eigenvalues --    3.73218   3.76394   3.80958   3.83763   3.84617
 Alpha virt. eigenvalues --    3.92689   3.96895   4.02057   4.05046   4.05958
 Alpha virt. eigenvalues --    4.06076   4.07838   4.07962   4.09778   4.14284
 Alpha virt. eigenvalues --    4.16576   4.18870   4.26098   4.28818   4.34206
 Alpha virt. eigenvalues --    4.40394   4.60987   4.63061   4.63918   4.66624
 Alpha virt. eigenvalues --    4.72623   4.74791   4.76187   4.76782   4.81923
 Alpha virt. eigenvalues --   23.44815  23.58486  23.70141  23.75227  23.76857
 Alpha virt. eigenvalues --   23.78717  23.79687  23.81291  23.83127  23.83495
 Alpha virt. eigenvalues --   23.84792  23.87622  23.89534  23.91721  23.92825
 Alpha virt. eigenvalues --   23.93482  23.94468  23.94997  23.95610  24.11453
 Alpha virt. eigenvalues --   24.15664  24.16768  24.18300  24.19035  24.20300
 Alpha virt. eigenvalues --   24.21512  24.22241  24.23458  24.23884  24.28774
  Beta  occ. eigenvalues --  -10.20608 -10.20460 -10.20194 -10.20147 -10.20115
  Beta  occ. eigenvalues --  -10.19875 -10.19782 -10.19750 -10.19522 -10.19507
  Beta  occ. eigenvalues --  -10.19371 -10.19343 -10.19135 -10.19036 -10.19023
  Beta  occ. eigenvalues --  -10.18954 -10.18916 -10.18895 -10.18853 -10.18596
  Beta  occ. eigenvalues --  -10.18584 -10.18519 -10.18465 -10.18204 -10.18194
  Beta  occ. eigenvalues --  -10.18042 -10.17870 -10.17574 -10.16963 -10.16658
  Beta  occ. eigenvalues --   -0.91016  -0.88452  -0.86001  -0.84252  -0.83508
  Beta  occ. eigenvalues --   -0.81673  -0.79898  -0.78708  -0.78124  -0.76675
  Beta  occ. eigenvalues --   -0.75220  -0.73320  -0.71928  -0.70840  -0.69763
  Beta  occ. eigenvalues --   -0.66481  -0.64755  -0.63561  -0.62787  -0.61027
  Beta  occ. eigenvalues --   -0.60616  -0.59406  -0.58363  -0.56006  -0.54139
  Beta  occ. eigenvalues --   -0.53299  -0.52436  -0.50893  -0.50739  -0.49438
  Beta  occ. eigenvalues --   -0.49116  -0.47004  -0.46752  -0.46631  -0.44880
  Beta  occ. eigenvalues --   -0.44665  -0.44314  -0.43735  -0.43078  -0.42700
  Beta  occ. eigenvalues --   -0.41970  -0.41771  -0.41440  -0.41032  -0.40442
  Beta  occ. eigenvalues --   -0.39891  -0.39684  -0.39385  -0.38423  -0.37260
  Beta  occ. eigenvalues --   -0.37005  -0.35964  -0.35863  -0.34726  -0.34432
  Beta  occ. eigenvalues --   -0.33737  -0.33535  -0.33340  -0.32242  -0.31618
  Beta  occ. eigenvalues --   -0.29744  -0.28733  -0.27990  -0.25667  -0.23867
  Beta  occ. eigenvalues --   -0.22675  -0.21626  -0.18918
  Beta virt. eigenvalues --   -0.09977  -0.08793  -0.05968  -0.05380  -0.03209
  Beta virt. eigenvalues --   -0.00854  -0.00156   0.00500   0.00658   0.00823
  Beta virt. eigenvalues --    0.01381   0.01530   0.01655   0.02352   0.02531
[...]
 2,-0.00000136,0.00001003,0.00000776,-0.00000332,-0.00000893,-0.0000005
 4,-0.00011719,0.00006097,-0.00002111,0.00003023,-0.00001507,0.00009085
 ,-0.00113274,-0.00093046,-0.00258827,0.18606154,0.00004392,0.00000144,
 -0.00000060,-0.00000038,-0.00001832,-0.00003406,0.00000645,0.00005164,
 -0.00001666,-0.00001474,0.00003320,-0.00001515,0.00000468,-0.00004135,
 0.00001264,0.00001254,-0.00001051,0.00000263,-0.00000733,-0.00000017,-
 0.00000011,-0.00000226,0.00000089,0.00000029,-0.00000411,0.00002982,-0
 .00000322,0.00001414,0.00000633,-0.00000144,-0.00001786,0.00000253,-0.
 00000383,0.00001826,-0.00001518,0.00000368,0.00004276,-0.00000504,-0.0
 0001444,0.00002493,-0.00002509,-0.00002185,-0.00002763,0.00000220,0.00
 000965,-0.00000410,0.00005979,-0.00003483,-0.00001212,0.00001362,-0.00
 002024,0.00000782,-0.00001702,0.00000398,0.00007171,-0.00008938,-0.000
 34694,-0.00001638,-0.00023746,0.00012037,-0.00001854,0.00005936,0.0000
 1126,-0.00000843,-0.00005155,0.00001012,-0.00081827,-0.00011078,0.0005
 3344,-0.00104500,0.00046048,0.00319747,0.00003553,0.00035247,0.0000368
 1,-0.00025415,0.00014019,-0.00007612,-0.00829547,0.00998151,0.00481334
 ,0.12365633,-0.16769808,-0.05857093,0.02129864,-0.01327257,-0.01270819
 ,-0.00010045,-0.00425891,0.00390312,0.00002237,-0.00001545,0.00002598,
 -0.00002326,0.00000610,0.00002136,-0.00000548,-0.00000784,-0.00000556,
 -0.00000353,-0.00000341,-0.00000143,-0.00000122,-0.00000294,-0.0000003
 1,-0.00000049,-0.00000322,0.00000062,0.00000208,-0.00000377,0.00000094
 ,0.00000399,-0.00000382,0.00000161,0.00000545,-0.00000143,0.00000352,0
 .00001060,-0.00000084,-0.00000130,-0.00005531,0.00002175,-0.00001322,0
 .00001873,0.00000167,0.00002766,-0.00043579,0.00053410,-0.00125374,-0.
 13408321,0.17412709,0.00001108,0.00000588,-0.00002562,0.00003229,0.000
 10845,0.00005753,0.00000622,-0.00007486,0.00003511,-0.00001442,0.00001
 249,-0.00001146,0.00003233,-0.00000784,0.00000080,0.00001011,0.0000056
 8,0.00000688,-0.00000194,-0.00000008,-0.00000268,-0.00000254,0.0000033
 7,-0.00000008,0.00000986,0.00000481,-0.00000145,-0.00005859,-0.0000146
 2,0.00000466,-0.00001194,0.00000931,-0.00000647,0.00000310,-0.00001446
 ,0.00000269,0.00001069,-0.00000787,-0.00000771,0.00001130,-0.00000745,
 -0.00001265,-0.00002137,-0.00000370,0.00000368,0.00008543,0.00000029,-
 0.00008312,-0.00003874,-0.00005002,0.00001286,0.00001308,0.00005917,-0
 .00002278,-0.00042819,-0.00023795,-0.00041535,-0.00001349,0.00011375,0
 .00005151,0.00002277,-0.00005673,0.00005425,0.00004481,0.00002350,-0.0
 0002269,-0.00008883,0.00059994,-0.00088940,0.00573329,0.00332227,0.002
 87028,0.00056663,-0.00096946,0.00007777,0.00010078,0.00005540,-0.00052
 480,0.01370651,-0.01480424,-0.00312457,0.07884375,-0.05825907,-0.08247
 781,-0.00746498,0.00676674,0.00677159,0.00217856,0.00330772,0.00271698
 ,0.00003752,0.00001060,0.00000956,-0.00002330,-0.00000505,0.00002936,-
 0.00000126,-0.00000241,-0.00000062,-0.00000041,-0.00000078,-0.00000049
 ,-0.00000050,0.00000040,0.00000030,-0.00000090,0.00000038,0.00000102,0
 .00000027,-0.00000113,0.00000053,0.00000302,-0.00000236,0.00000553,0.0
 0000392,-0.00000112,0.00000903,-0.00000286,-0.00000046,0.00000089,0.00
 007777,-0.00006090,-0.00002087,0.00003266,0.00006155,0.00006231,-0.002
 72283,-0.00068643,-0.00234833,-0.08873352,0.06157043,0.07820959,0.0000
 0564,0.00000897,-0.00000923,-0.00001538,-0.00015042,-0.00006622,0.0000
 0217,0.00013912,-0.00005537,0.00002187,-0.00003496,0.00000804,-0.00006
 368,-0.00000637,-0.00001253,0.00001837,-0.00000013,-0.00000703,0.00000
 253,0.00000488,-0.00000241,0.00000270,-0.00000063,-0.00000201,-0.00000
 812,0.00003258,-0.00000259,0.00008037,-0.00000133,0.00000771,-0.000000
 14,-0.00002118,0.00000356,0.00002380,0.00000186,-0.00000262,0.00003593
 ,-0.00006864,0.00002665,0.00001257,0.00000736,-0.00001327,-0.00000332,
 -0.00000684,0.00000411,-0.00000082,-0.00002383,0.00009880,0.00006026,0
 .00011460,-0.00003428,-0.00004990,-0.00009187,0.00000646,0.00022061,-0
 .00098410,0.00040718,-0.00046733,-0.00014339,-0.00005981,-0.00012490,-
 0.00000110,-0.00002175,-0.00009578,-0.00009456,0.00004676,0.00131698,0
 .00461492,0.00479966,-0.00073569,0.00041594,-0.00034248,0.00020646,-0.
 00018486,-0.00073089,-0.00013891,0.00056357,0.00007471,0.00348554,0.00
 133079,0.00170631,0.00378417,0.00109099,-0.00137043,-0.16434770,-0.050
 16054,0.13420219,-0.00899432,-0.00850091,0.01472089,-0.00001203,0.0000
 3188,-0.00001436,-0.00000181,-0.00000138,-0.00000018,0.00000270,0.0000
 0272,-0.00000196,0.00000253,0.00000101,0.00000286,0.00000067,0.0000045
 9,0.00000186,0.00000138,0.00000532,0.00000165,-0.00000416,0.00000384,0
 .00000288,-0.00000635,0.00000600,-0.00000233,-0.00000193,0.00001126,0.
 00001038,-0.00004739,0.00002040,-0.00000567,-0.00000467,0.00000470,0.0
 0003892,-0.00000526,-0.00001633,0.00003353,0.00023245,0.00021403,0.000
 00128,-0.00089361,-0.00102544,-0.00164969,0.16805404,0.00003204,-0.000
 01698,0.00001087,0.00006538,-0.00001931,-0.00001886,0.00000947,0.00001
 092,-0.00001180,-0.00001437,-0.00004077,-0.00000815,-0.00000474,-0.000
 02711,0.00001434,-0.00000266,0.00000397,0.00000537,-0.00000492,-0.0000
 1605,0.00000444,-0.00001434,0.00000438,-0.00000143,0.00001024,0.000017
 39,-0.00000072,-0.00000661,-0.00000605,0.00000512,-0.00000709,-0.00000
 181,-0.00000247,0.00001270,-0.00001242,0.00000473,-0.00002257,0.000032
 44,-0.00002039,-0.00001035,-0.00000054,-0.00001422,-0.00001714,-0.0000
 0968,0.00000510,0.00000139,-0.00001683,0.00007938,-0.00005035,-0.00001
 599,0.00000422,0.00000136,0.00000838,-0.00000589,0.00045668,0.00072680
 ,-0.00047351,0.00011531,-0.00016465,-0.00019724,0.00008469,0.00003364,
 -0.00000772,0.00001964,0.00004038,-0.00001051,0.00389251,-0.00192978,-
 0.00003146,0.00050044,-0.00076725,-0.00034026,-0.00029004,0.00008978,-
 0.00012914,0.00003399,-0.00007422,0.00002598,0.00188661,-0.00497985,0.
 00221763,-0.02047177,-0.00453641,0.02119811,-0.05173595,-0.08330931,0.
 06497613,0.01445671,0.00936208,-0.01539533,0.00000812,0.00000864,0.000
 00949,-0.00001393,0.00002291,-0.00001882,0.00000321,0.00000251,-0.0000
 0231,0.00000238,0.00000086,-0.00000201,-0.00000015,0.00000243,-0.00000
 173,-0.00000036,0.00000296,-0.00000136,-0.00000228,0.00000053,-0.00000
 053,-0.00000130,-0.00000213,0.00000215,-0.00000076,-0.00000038,-0.0000
 0134,0.00002454,-0.00001467,-0.00000332,-0.00000349,0.00001432,0.00001
 921,0.00006146,0.00004407,-0.00004134,-0.00109666,-0.00042523,0.000864
 74,-0.00029308,0.00072504,-0.00113724,0.05362090,0.08459955,0.00008796
 ,-0.00003077,-0.00001878,0.00008623,-0.00019711,-0.00007785,0.00002213
 ,0.00017031,-0.00005917,-0.00006234,-0.00007942,0.00000564,-0.00004571
 ,-0.00012343,0.00001451,0.00005489,0.00000179,-0.00000259,-0.00001689,
 -0.00003449,0.00000600,-0.00004120,0.00002224,-0.00001015,0.00001193,0
 .00011861,-0.00000703,0.00004496,0.00000497,0.00001201,-0.00005050,-0.
 00000987,-0.00000678,0.00007055,-0.00004353,0.00001164,0.00007621,0.00
 004009,0.00001498,0.00002187,-0.00006997,-0.00008497,-0.00008010,-0.00
 002672,0.00003354,0.00004640,0.00010611,0.00011121,0.00000893,0.000024
 79,-0.00006095,-0.00004416,-0.00004338,0.00000728,0.00075610,0.0003059
 2,-0.00026558,-0.00021176,-0.00056816,-0.00025824,-0.00005637,0.000022
 42,-0.00000364,0.00004572,-0.00005052,0.00000941,0.00335557,-0.0005949
 8,0.00514534,-0.00104236,-0.00031599,0.00011602,0.00003551,-0.00013221
 ,-0.00070007,-0.00011575,0.00039791,0.00007972,0.00145186,0.00293789,0
 .00315956,0.00650696,0.00010783,-0.00311677,0.13420035,0.06563807,-0.1
 8198623,0.00793822,0.00441548,-0.00498762,0.00005703,0.00005196,-0.000
 00886,-0.00014421,0.00004465,-0.00003829,0.00000085,-0.00000231,-0.000
 01409,0.00000085,-0.00000135,-0.00000195,-0.00000260,0.00000247,-0.000
 00173,-0.00000124,0.00000283,0.00000030,-0.00000224,-0.00000271,0.0000
 0144,-0.00000050,-0.00000264,0.00000161,0.00000028,-0.00000416,0.00000
 590,0.00001416,-0.00000362,-0.00000509,0.00002594,0.00001483,0.0000323
 2,0.00000515,0.00001621,0.00002520,0.00053947,0.00009021,-0.00018706,-
 0.00176586,-0.00054832,-0.00124037,-0.14908478,-0.07069730,0.18629873,
 0.00020886,-0.00033284,-0.00016503,0.00077356,0.00068786,0.00041553,0.
 00003473,0.00022655,0.00006688,-0.00016067,-0.00021279,0.00001001,0.00
 005474,-0.00001974,-0.00001234,-0.00000354,-0.00000244,-0.00001382,-0.
 00003682,-0.00001650,-0.00001091,-0.00000312,0.00003903,0.00001298,-0.
 00000073,0.00002157,-0.00001042,0.00000857,0.00004052,-0.00008073,-0.0
 0006423,0.00002378,-0.00000536,0.00005537,-0.00005529,0.00000511,-0.00
 034826,-0.00014653,-0.00046458,-0.00007392,0.00004321,-0.00006116,-0.0
 0004098,-0.00003676,0.00002732,-0.00038123,0.00002002,0.00023224,-0.00
 039483,0.00012069,-0.00008429,0.00005088,0.00000251,0.00004128,0.00009
 774,-0.00106261,-0.00190149,-0.00038695,-0.00024364,0.00003221,0.00018
 898,-0.00010228,0.00011042,0.00006571,0.00008225,-0.00007128,0.0028947
 8,-0.02012176,0.00755509,-0.00082126,0.00027188,0.00525054,0.00031314,
 -0.00093134,0.00001732,-0.00003814,0.00005171,-0.00008436,-0.00056062,
 -0.00029629,-0.00023074,0.00048051,0.00321284,0.00562008,0.00347960,0.
 02212790,-0.00699976,-0.04822867,0.00695102,0.00830677,0.00003198,0.00
 012663,-0.00000848,-0.00006936,0.00002356,-0.00005100,0.00000455,0.000
 00725,-0.00000808,0.00000016,0.00000192,-0.00000549,-0.00000369,-0.000
 00090,-0.00000255,-0.00000600,0.00000143,0.00000065,-0.00000189,-0.000
 00633,0.00000206,0.00000656,-0.00001127,0.00002096,0.00001576,0.000011
 12,-0.00000082,0.00000803,-0.00000026,0.00000312,-0.00001271,0.0000357
 6,0.00001844,-0.00019727,-0.00012433,0.00022294,-0.00031141,-0.0001600
 0,-0.00057615,0.00001689,0.00098622,-0.00029691,-0.00154641,-0.0012314
 5,-0.00267338,0.04490893,-0.00066776,-0.00130214,-0.00239689,0.0001866
 1,-0.00148483,-0.00152522,0.00003495,-0.00020202,-0.00012314,0.0000811
 9,0.00022442,-0.00011488,-0.00005632,-0.00018817,0.00013188,-0.0000953
 3,0.00001368,0.00000090,0.00003775,-0.00002876,0.00000484,-0.00004712,
 -0.00001738,-0.00000968,0.00003809,0.00006140,0.00000402,0.00002725,-0
 .00006363,0.00007065,0.00002220,-0.00003721,0.00000822,0.00001844,0.00
 000429,-0.00001003,0.00011009,-0.00066001,-0.00049062,0.00013304,-0.00
 002920,0.00000228,0.00004584,0.00000518,-0.00000290,0.00066818,0.00037
 523,-0.00089125,-0.00015549,0.00028675,0.00003125,-0.00007819,-0.00004
 806,-0.00003477,0.00039606,-0.00094830,-0.00124909,-0.00022160,-0.0001
 8865,0.00018420,-0.00000836,-0.00003774,0.00001213,0.00001920,-0.00000
 591,0.00001133,0.00001367,-0.00490848,0.00256749,-0.00015192,0.0018398
 1,0.00183308,0.00039835,-0.00031463,-0.00004315,-0.00007651,0.00017171
 ,0.00000244,0.00005931,0.00047602,-0.00057046,0.00386709,0.00002309,-0
 .00084841,-0.00117874,-0.01459210,0.00778093,0.00776296,-0.30711891,0.
 09794845,-0.00000514,0.00001614,0.00016264,-0.00000425,0.00000202,0.00
 003715,0.00000141,-0.00000784,0.00000115,0.00000160,-0.00000127,0.0000
 0502,0.00000294,0.00000319,-0.00000025,0.00000244,0.00000405,-0.000000
 62,-0.00000313,0.00000537,0.00000292,-0.00000591,-0.00000096,-0.000010
 96,0.00000027,0.00001123,0.00001017,-0.00001438,0.00000250,0.00000258,
 -0.00002350,0.00000638,-0.00000018,-0.00011171,-0.00003847,-0.00001384
 ,-0.00012975,-0.00011710,-0.00013158,-0.00011457,-0.00071012,0.0003738
 8,-0.00073230,0.00062417,-0.00097897,-0.01001505,0.32889921,-0.0005482
 4,-0.00086437,-0.00078677,0.00062736,-0.00069106,-0.00029303,-0.000110
 66,-0.00059937,0.00031358,0.00003436,-0.00032163,0.00005044,0.00010798
 ,0.00015449,-0.00010171,0.00003492,0.00007642,0.00001917,0.00004196,0.
 00000097,-0.00000564,0.00000381,0.00002162,0.00000990,0.00005919,-0.00
 007052,0.00000463,-0.00031703,-0.00005136,0.00001272,-0.00001942,0.000
 01487,-0.00001980,-0.00001947,-0.00001363,-0.00000367,-0.00037288,0.00
 007394,-0.00042090,-0.00008871,0.00000340,0.00002887,0.00000547,-0.000
 02026,-0.00000057,0.00092250,0.00020502,-0.00096861,0.00006181,-0.0001
 9619,0.00014967,-0.00006254,0.00031335,-0.00011312,-0.00123218,-0.0008
 6746,-0.00127111,-0.00041640,-0.00021513,0.00023222,-0.00001233,-0.000
 15133,0.00013657,0.00013485,0.00005872,-0.00006176,-0.00279067,0.02075
 859,-0.00208406,0.00549077,0.00099679,0.00067358,-0.00029943,0.0012591
 4,0.00002340,-0.00006951,0.00017960,-0.00014256,0.00053763,-0.00066909
 ,-0.00118160,0.00487927,-0.00070906,0.00379548,0.00087534,-0.01204205,
 0.00776035,0.00922919,0.09636795,-0.08200633,0.00010260,0.00010871,-0.
 00005102,0.00002597,-0.00001955,-0.00002462,0.00001999,0.00001715,-0.0
 0000034,0.00001345,0.00001254,-0.00000259,0.00000527,0.00001507,0.0000
 0043,-0.00000239,0.00001856,0.00000300,-0.00000981,0.00001464,0.000001
 68,-0.00000808,0.00000495,0.00000348,-0.00001799,-0.00000823,0.0000171
 8,-0.00000512,-0.00000878,0.00000624,0.00002434,-0.00002795,0.00000212
 ,0.00035185,0.00016215,-0.00016018,-0.00047222,-0.00008187,-0.00051041
 ,0.00011756,-0.00060813,0.00026076,-0.00271630,-0.00088190,-0.00197446
 ,-0.01415817,-0.10173398,0.07866546,-0.00410036,-0.00332825,-0.0003726
 6,0.00019696,0.00122638,0.00187070,-0.00002036,-0.00002384,-0.00012945
 ,0.00010608,-0.00002555,-0.00061790,-0.00012235,-0.00045659,0.00015558
 ,-0.00092793,0.00004916,0.00012767,0.00050813,-0.00045708,-0.00031163,
 -0.00051943,0.00013042,-0.00014395,0.00035511,0.00049366,0.00007462,-0
 .00030945,-0.00005101,-0.00018933,0.00008225,-0.00016305,0.00002838,0.
 00011581,0.00010324,0.00000560,-0.01124397,0.01002243,-0.03111104,-0.0
 5169335,0.00776053,-0.04752304,0.00381269,-0.00126779,0.00748926,-0.00
 032322,0.00008738,-0.00015861,0.00007894,-0.00019780,-0.00011315,-0.00
 005287,0.00029888,-0.00002525,-0.00000722,0.00008910,0.00013411,-0.000
 03237,-0.00000418,-0.00000806,0.00002131,-0.00005414,0.00001002,0.0000
 5075,0.00005564,-0.00000983,-0.00004431,-0.00009062,0.00003224,-0.0000
 0115,0.00004650,-0.00002211,-0.00004027,-0.00004282,0.00005238,0.00003
 142,-0.00003450,-0.00001454,0.00001743,-0.00001230,0.00000726,0.000027
 33,-0.00002520,-0.00000552,0.00003779,-0.00002377,0.00002438,0.0000293
 4,0.00013092,-0.00000813,0.00073302,-0.00022853,0.00114500,0.00305038,
 -0.00272804,0.01740849,0.00013631,0.00009815,-0.00012985,-0.00001222,-
 0.00002753,0.00003054,0.00000018,-0.00000511,0.00005438,0.00000644,-0.
 00000082,-0.00001586,-0.00000227,0.00002626,-0.00000305,0.00000099,0.0
 0000641,0.00002209,-0.00001100,-0.00000066,-0.00000304,-0.00000553,-0.
 00000744,0.00000033,-0.00000518,-0.00000725,-0.00000026,-0.00000227,-0
 .00000640,-0.00000438,-0.00000074,-0.00000580,-0.00000612,0.,-0.000006
 19,-0.00000049,-0.00000410,-0.00000340,-0.00002411,-0.00000735,-0.0000
 3188,0.00004211,0.06009061,-0.00103970,0.00176519,-0.00083862,0.000409
 14,0.00008959,0.00070438,0.00027632,0.00037347,-0.00016242,0.00015307,
 -0.00167129,0.00086027,-0.00106732,0.00066978,-0.00024356,-0.00388827,
 -0.00182177,0.00037532,0.00113671,-0.00100614,-0.00040224,-0.00032671,
 -0.00012751,-0.00020399,0.00034569,-0.00062745,0.00015034,-0.00003384,
 -0.00009838,-0.00004071,0.00026172,-0.00009016,0.00005721,-0.00037708,
 0.00017561,-0.00007812,0.00346558,0.00109613,-0.00395740,0.00751795,-0
 .05498140,0.06199671,0.00722931,-0.01575527,0.02762177,0.00001099,0.00
 019733,-0.00009802,0.00002753,0.00005669,-0.00004371,-0.00014438,0.000
 13443,-0.00001821,-0.00002472,-0.00007814,0.00005941,0.00006259,0.0000
 1099,-0.00001292,-0.00000702,0.00003546,-0.00000787,-0.00001528,-0.000
 01402,0.00001184,-0.00003017,-0.00000301,0.00003875,-0.00000563,-0.000
 00170,0.00000684,-0.00002580,-0.00000463,0.00002170,0.00001024,-0.0000
 2372,-0.00000612,0.00000095,-0.00000895,0.00002187,0.00001464,0.000009
 30,0.00000094,0.00000600,0.00001293,-0.00002010,0.00003449,0.00004964,
 -0.00004972,0.00006751,0.00015695,-0.00002513,-0.00261538,0.00401688,-
 0.01899922,-0.00013729,0.00064201,-0.00107305,-0.00005233,-0.00000934,
 0.00007890,0.00006029,-0.00007072,0.00006898,-0.00000122,-0.00000876,0
 .00000299,0.00000490,0.00002292,0.00000845,0.00000103,-0.00000444,-0.0
 0000111,0.00000052,-0.00000182,0.00000071,-0.00000002,0.00000099,-0.00
 000074,0.00000145,-0.00000147,-0.00000002,-0.00000285,-0.00000186,-0.0
 0000107,-0.00000651,-0.00000612,-0.00000324,-0.00000167,-0.00000700,-0
 .00000979,-0.00000108,0.00000931,0.00002434,0.00001318,-0.00000396,0.0
 0001426,-0.01130751,0.06690341,-0.00008571,-0.00236477,0.00005866,0.00
 010351,0.00013116,0.00010830,-0.00002008,-0.00016647,0.00006790,-0.000
 10726,0.00054079,-0.00051672,0.00044079,-0.00057171,0.00005775,0.00181
 441,-0.00069384,-0.00075381,-0.00008075,0.00010020,-0.00021174,-0.0000
 8534,0.00002969,0.00009601,-0.00001444,0.00054155,-0.00005139,-0.00016
 453,0.00000175,0.00004563,-0.00010868,-0.00001167,-0.00003413,0.000245
 41,-0.00008052,0.00005673,-0.00405729,0.00127832,-0.00330397,-0.047744
 40,0.05840966,-0.24993768,0.00049691,0.00554566,-0.00045486,-0.0001627
 0,0.00000853,-0.00005156,0.00004283,-0.00012972,-0.00001332,0.00003934
 ,0.00010890,-0.00002407,-0.00000232,0.00008103,0.00004312,-0.00005070,
 0.00000864,-0.00001389,0.00000977,-0.00006480,0.00001571,0.00006480,0.
 00003823,-0.00002697,-0.00002866,-0.00004732,0.00003838,0.00000104,0.0
 0001927,0.00000101,-0.00003885,-0.00002651,0.00003322,0.00003542,-0.00
 002563,-0.00000936,0.00000274,-0.00001079,0.00002927,0.00002203,0.0000
 1462,0.00000097,0.00001721,0.00000893,-0.00003676,0.00003031,0.0000309
 6,-0.00001380,-0.00072342,-0.00015789,0.00065760,-0.00226068,0.0026030
 5,-0.02388850,0.00016674,0.00069207,0.00068609,0.00000973,-0.00000057,
 -0.00000596,-0.00001160,0.00001706,0.00000740,0.00000210,0.00001338,-0
 .00000186,-0.00000803,-0.00000342,-0.00001439,-0.00000249,0.00000645,0
 .00001050,-0.00000654,0.00000367,0.00000213,-0.00000530,-0.00000768,0.
 00000379,-0.00000605,-0.00000414,0.00000259,-0.00000379,-0.00001169,-0
 .00000333,-0.00001155,-0.00001785,-0.00000444,0.00000277,-0.00001030,-
 0.00001617,0.00000178,0.00001128,0.00002592,0.00000532,-0.00000871,0.0
 0001393,0.05223621,-0.06582886,0.27732607\\-0.00000691,0.00000366,-0.0
 0000952,-0.00000134,-0.00002670,0.00000540,-0.00002477,0.00002042,-0.0
 0000995,-0.00001614,0.00000102,0.00000417,0.00000768,-0.00000835,0.000
 00147,0.00000586,0.00000496,0.00000605,0.00000793,-0.00000482,-0.00000
 337,-0.00000426,0.00000669,0.00000291,-0.00000466,0.00000260,-0.000006
 79,0.00002010,-0.00001123,0.00000536,-0.00000391,-0.00000200,-0.000009
 00,0.00002019,0.00000026,0.00000265,0.00000767,-0.00000963,0.00000142,
 0.00000276,0.00000777,0.00000504,-0.00000873,-0.00000201,-0.00000677,0
 .00001680,0.00001688,0.00000094,-0.00000584,0.00000173,0.00000558,-0.0
 0000624,-0.00000255,-0.00000987,0.00001563,-0.00000374,-0.00001615,-0.
 00001330,-0.00001362,0.00000123,0.00000874,0.00000691,0.00000215,-0.00
 000618,0.00000577,-0.00000047,-0.00001028,-0.00000863,0.00001865,0.000
 01017,0.00000328,0.00000112,-0.00000595,-0.00000576,0.00000466,0.00000
 003,0.00000517,0.00000257,-0.00000709,-0.00000488,0.00000582,-0.000006
 53,0.00001026,-0.00000654,0.00000563,-0.00001054,0.00000314,0.00000774
 ,0.00001282,0.00000104,-0.00000223,0.00000500,0.00000393,0.00000116,-0
 .00000303,-0.00000197,-0.00000068,0.00000408,0.00000517,-0.00000050,-0
 .00000149,-0.00000022,-0.00000256,-0.00000021,-0.00000316,-0.00000228,
 -0.00000023,-0.00000437,-0.00000059,0.00000108,-0.00000002,0.00000132,
 0.00000006,0.00000009,0.00000051,-0.00000157,-0.00000650,-0.00000213,-
 0.00000249,0.00000084,-0.00000358,0.00000091,-0.00000326,0.00000212,0.
 00000120,0.00000174,0.00000450,0.00000119,0.00000536,0.00000485,0.0000
 0124,0.00000304,0.00000050,-0.00000476,-0.00000108,-0.00000468,0.00000
 220,-0.00000121,-0.00000052,0.00000108,-0.00000132\\\@


 ONE THORN OF EXPERIENCE IS WORTH A WHOLE WILDERNESS OF
 WARNING....  LOWELL - AMONG MY BOOKS
 Job cpu time:       2 days  4 hours 52 minutes 57.4 seconds.
 Elapsed time:       0 days  2 hours 39 minutes  4.3 seconds.
 File lengths (MBytes):  RWF=   4619 Int=      0 D2E=      0 Chk=     65 Scr=      1
 Normal termination of Gaussian 16 at Tue Jun 25 22:10:50 2019.
