 Entering Gaussian System, Link 0=/share/apps/gaussian16/g16/g16
 Initial command:
 /share/apps/gaussian16/g16/l1.exe "/home/amen01//scratch/622/Gau-3062.inp" -scrdir="/home/amen01//scratch/622/"
 Entering Link 1 = /share/apps/gaussian16/g16/l1.exe PID=      3063.
  
 Copyright (c) 1988-2017, Gaussian, Inc.  All Rights Reserved.
  
 This is part of the Gaussian(R) 16 program.  It is based on
 the Gaussian(R) 09 system (copyright 2009, Gaussian, Inc.),
 the Gaussian(R) 03 system (copyright 2003, Gaussian, Inc.),
 the Gaussian(R) 98 system (copyright 1998, Gaussian, Inc.),
 the Gaussian(R) 94 system (copyright 1995, Gaussian, Inc.),
 the Gaussian 92(TM) system (copyright 1992, Gaussian, Inc.),
 the Gaussian 90(TM) system (copyright 1990, Gaussian, Inc.),
 the Gaussian 88(TM) system (copyright 1988, Gaussian, Inc.),
 the Gaussian 86(TM) system (copyright 1986, Carnegie Mellon
 University), and the Gaussian 82(TM) system (copyright 1983,
 Carnegie Mellon University). Gaussian is a federally registered
 trademark of Gaussian, Inc.
  
 This software contains proprietary and confidential information,
 including trade secrets, belonging to Gaussian, Inc.
  
 This software is provided under written license and may be
 used, copied, transmitted, or stored only in accord with that
 written license.
  
 The following legend is applicable only to US Government
 contracts under FAR:
  
                    RESTRICTED RIGHTS LEGEND
  
 Use, reproduction and disclosure by the US Government is
 subject to restrictions as set forth in subparagraphs (a)
 and (c) of the Commercial Computer Software - Restricted
 Rights clause in FAR 52.227-19.
  
 Gaussian, Inc.
 340 Quinnipiac St., Bldg. 40, Wallingford CT 06492
  
  
 ---------------------------------------------------------------
 Warning -- This program may not be used in any manner that
 competes with the business of Gaussian, Inc. or will provide
 assistance to any competitor of Gaussian, Inc.  The licensee
 of this program is prohibited from giving any competitor of
 Gaussian, Inc. access to this program.  By using this program,
 the user acknowledges that Gaussian, Inc. is engaged in the
 business of creating and licensing software in the field of
 computational chemistry and represents and warrants to the
 licensee that it is not a competitor of Gaussian, Inc. and that
 it will not use this program in any manner prohibited above.
 ---------------------------------------------------------------
  

 Cite this work as:
 Gaussian 16, Revision B.01,
 M. J. Frisch, G. W. Trucks, H. B. Schlegel, G. E. Scuseria, 
 M. A. Robb, J. R. Cheeseman, G. Scalmani, V. Barone, 
 G. A. Petersson, H. Nakatsuji, X. Li, M. Caricato, A. V. Marenich, 
 J. Bloino, B. G. Janesko, R. Gomperts, B. Mennucci, H. P. Hratchian, 
 J. V. Ortiz, A. F. Izmaylov, J. L. Sonnenberg, D. Williams-Young, 
 F. Ding, F. Lipparini, F. Egidi, J. Goings, B. Peng, A. Petrone, 
 T. Henderson, D. Ranasinghe, V. G. Zakrzewski, J. Gao, N. Rega, 
 G. Zheng, W. Liang, M. Hada, M. Ehara, K. Toyota, R. Fukuda, 
 J. Hasegawa, M. Ishida, T. Nakajima, Y. Honda, O. Kitao, H. Nakai, 
 T. Vreven, K. Throssell, J. A. Montgomery, Jr., J. E. Peralta, 
 F. Ogliaro, M. J. Bearpark, J. J. Heyd, E. N. Brothers, K. N. Kudin, 
 V. N. Staroverov, T. A. Keith, R. Kobayashi, J. Normand, 
 K. Raghavachari, A. P. Rendell, J. C. Burant, S. S. Iyengar, 
 J. Tomasi, M. Cossi, J. M. Millam, M. Klene, C. Adamo, R. Cammi, 
 J. W. Ochterski, R. L. Martin, K. Morokuma, O. Farkas, 
 J. B. Foresman, and D. J. Fox, Gaussian, Inc., Wallingford CT, 2016.
 
 ******************************************
 Gaussian 16:  ES64L-G16RevB.01 20-Dec-2017
                25-Jun-2019 
 ******************************************
 %nprocshared=20
 Will use up to   20 processors via shared memory.
 %mem=100GB
 %chk=7-memb2-hadd-1b.chk
 -------------------------------------------
 # opt freq b3lyp/6-311+g(d,p) int=grid=fine
 -------------------------------------------
 1/18=20,19=15,26=3,38=1/1,3;
 2/9=110,12=2,17=6,18=5,40=1/2;
 3/5=4,6=6,7=111,11=2,25=1,30=1,71=1,74=-5,75=-4/1,2,3;
 4//1;
 5/5=2,38=5/2;
 6/7=2,8=2,9=2,10=2,28=1/1;
 7//1,2,3,16;
 1/18=20,19=15,26=3/3(2);
 2/9=110/2;
 99//99;
 2/9=110/2;
 3/5=4,6=6,7=111,11=2,25=1,30=1,71=1,74=-5,75=-4/1,2,3;
 4/5=5,16=3,69=1/1;
 5/5=2,38=5/2;
 7//1,2,3,16;
 1/18=20,19=15,26=3/3(-5);
 2/9=110/2;
 6/7=2,8=2,9=2,10=2,19=2,28=1/1;
 99/9=1/99;
 ---------------
 7-memb2-hadd-1b
 ---------------
 Symbolic Z-matrix:
 Charge =  0 Multiplicity = 2
 C                    -4.13067   0.27082  -0.27839 
 C                    -2.68379   0.16947   0.03177 
 C                    -2.51191  -1.26747   0.32317 
 C                    -4.71325  -1.06688  -0.0949 
 C                    -3.77107  -1.94191   0.25217 
 C                    -6.07415  -1.50379  -0.30588 
 C                    -6.39024  -2.92574  -0.06285 
 C                    -5.41514  -3.80389   0.30425 
 C                    -4.02592  -3.3419    0.46529 
 C                    -1.40052  -1.95045   0.63847 
 C                    -1.59787  -3.39256   0.88774 
 C                    -2.92676  -4.06329   0.79122 
 C                    -4.97237   1.20721  -0.74811 
 C                    -6.38409   0.82972  -0.94938 
 C                    -6.9105   -0.53308  -0.73055 
 C                    -1.61422   0.99488   0.14468 
 C                    -0.27202   0.27745   0.21516 
 C                    -0.19763  -1.13581   0.63895 
 C                    -1.63089   2.48328   0.04938 
 C                    -0.4329    3.08417  -0.63366 
 C                     0.74639   2.24155  -0.80705 
 C                     0.83204   0.90978  -0.2343 
 C                    -2.54534   3.31167   0.6431 
 C                    -2.50983   4.75644   0.29478 
 C                    -1.49512   5.23873  -0.62611 
 C                    -0.39195   4.38343  -0.98641 
 C                    -3.44059   5.59666   0.78066 
 C                    -4.48729   5.16805   1.67315 
 C                    -4.57399   3.75742   2.15981 
 C                    -3.50637   2.85034   1.63838 
 H                    -4.66024   2.21415  -0.99412 
 H                    -7.95797  -0.71742  -0.93837 
 H                    -7.41595  -3.25406  -0.19133 
 H                    -5.63896  -4.8503    0.47883 
 H                    -2.96941  -5.13009   0.97878 
 H                    -0.73481  -4.00231   1.13015 
 H                     0.76348  -1.6122    0.78768 
 H                     1.80423   0.42783  -0.24768 
 H                     1.63139   2.64476  -1.28731 
 H                     0.47393   4.83723  -1.45517 
 H                    -1.48897   6.27122  -0.95427 
 H                    -3.43996   6.64959   0.51214 
 H                    -5.21998   5.89342   2.00726 
 H                    -4.52463   3.76288   3.2546 
 H                    -3.4011    1.87507   2.09801 
 H                    -7.06684   1.59039  -1.3133 
 H                    -5.55082   3.34559   1.88272 
 

 GradGradGradGradGradGradGradGradGradGradGradGradGradGradGradGradGradGrad
 Berny optimization.
 Initialization pass.
                           ----------------------------
                           !    Initial Parameters    !
                           ! (Angstroms and Degrees)  !
 --------------------------                            --------------------------
 ! Name  Definition              Value          Derivative Info.                !
 --------------------------------------------------------------------------------
 ! R1    R(1,2)                  1.4832         estimate D2E/DX2                !
 ! R2    R(1,4)                  1.4705         estimate D2E/DX2                !
 ! R3    R(1,13)                 1.3438         estimate D2E/DX2                !
 ! R4    R(2,3)                  1.4762         estimate D2E/DX2                !
 ! R5    R(2,16)                 1.3557         estimate D2E/DX2                !
 ! R6    R(3,5)                  1.4302         estimate D2E/DX2                !
 ! R7    R(3,10)                 1.342          estimate D2E/DX2                !
 ! R8    R(4,5)                  1.3319         estimate D2E/DX2                !
 ! R9    R(4,6)                  1.4448         estimate D2E/DX2                !
 ! R10   R(5,9)                  1.4389         estimate D2E/DX2                !
 ! R11   R(6,7)                  1.4768         estimate D2E/DX2                !
 ! R12   R(6,15)                 1.3499         estimate D2E/DX2                !
 ! R13   R(7,8)                  1.3626         estimate D2E/DX2                !
 ! R14   R(7,33)                 1.0846         estimate D2E/DX2                !
 ! R15   R(8,9)                  1.4729         estimate D2E/DX2                !
 ! R16   R(8,34)                 1.0842         estimate D2E/DX2                !
 ! R17   R(9,12)                 1.3545         estimate D2E/DX2                !
 ! R18   R(10,11)                1.4767         estimate D2E/DX2                !
 ! R19   R(10,18)                1.4528         estimate D2E/DX2                !
 ! R20   R(11,12)                1.4917         estimate D2E/DX2                !
 ! R21   R(11,36)                1.0842         estimate D2E/DX2                !
 ! R22   R(12,35)                1.084          estimate D2E/DX2                !
 ! R23   R(13,14)                1.4751         estimate D2E/DX2                !
 ! R24   R(13,31)                1.0825         estimate D2E/DX2                !
 ! R25   R(14,15)                1.4772         estimate D2E/DX2                !
 ! R26   R(14,46)                1.085          estimate D2E/DX2                !
 ! R27   R(15,32)                1.0837         estimate D2E/DX2                !
 ! R28   R(16,17)                1.5235         estimate D2E/DX2                !
 ! R29   R(16,19)                1.4915         estimate D2E/DX2                !
 ! R30   R(17,18)                1.4773         estimate D2E/DX2                !
 ! R31   R(17,22)                1.3494         estimate D2E/DX2                !
 ! R32   R(18,37)                1.083          estimate D2E/DX2                !
 ! R33   R(19,20)                1.5043         estimate D2E/DX2                !
 ! R34   R(19,23)                1.3693         estimate D2E/DX2                !
 ! R35   R(20,21)                1.4597         estimate D2E/DX2                !
 ! R36   R(20,26)                1.3469         estimate D2E/DX2                !
 ! R37   R(21,22)                1.4522         estimate D2E/DX2                !
 ! R38   R(21,39)                1.0846         estimate D2E/DX2                !
 ! R39   R(22,38)                1.0852         estimate D2E/DX2                !
 ! R40   R(23,24)                1.4866         estimate D2E/DX2                !
 ! R41   R(23,30)                1.4584         estimate D2E/DX2                !
 ! R42   R(24,25)                1.4527         estimate D2E/DX2                !
 ! R43   R(24,27)                1.3448         estimate D2E/DX2                !
 ! R44   R(25,26)                1.4416         estimate D2E/DX2                !
 ! R45   R(25,41)                1.0834         estimate D2E/DX2                !
 ! R46   R(26,40)                1.0842         estimate D2E/DX2                !
 ! R47   R(27,28)                1.4408         estimate D2E/DX2                !
 ! R48   R(27,42)                1.0866         estimate D2E/DX2                !
 ! R49   R(28,29)                1.4947         estimate D2E/DX2                !
 ! R50   R(28,43)                1.0838         estimate D2E/DX2                !
 ! R51   R(29,30)                1.4948         estimate D2E/DX2                !
 ! R52   R(29,44)                1.0959         estimate D2E/DX2                !
 ! R53   R(29,47)                1.0957         estimate D2E/DX2                !
 ! R54   R(30,45)                1.0833         estimate D2E/DX2                !
 ! A1    A(2,1,4)              107.3501         estimate D2E/DX2                !
 ! A2    A(2,1,13)             137.0289         estimate D2E/DX2                !
 ! A3    A(4,1,13)             115.4251         estimate D2E/DX2                !
 ! A4    A(1,2,3)              102.7895         estimate D2E/DX2                !
 ! A5    A(1,2,16)             138.194          estimate D2E/DX2                !
 ! A6    A(3,2,16)             118.9684         estimate D2E/DX2                !
 ! A7    A(2,3,5)              110.2868         estimate D2E/DX2                !
 ! A8    A(2,3,10)             129.6552         estimate D2E/DX2                !
 ! A9    A(5,3,10)             120.0518         estimate D2E/DX2                !
 ! A10   A(1,4,5)              110.4817         estimate D2E/DX2                !
 ! A11   A(1,4,6)              129.0517         estimate D2E/DX2                !
 ! A12   A(5,4,6)              120.3788         estimate D2E/DX2                !
 ! A13   A(3,5,4)              109.0224         estimate D2E/DX2                !
 ! A14   A(3,5,9)              127.4035         estimate D2E/DX2                !
 ! A15   A(4,5,9)              123.5421         estimate D2E/DX2                !
 ! A16   A(4,6,7)              117.9531         estimate D2E/DX2                !
 ! A17   A(4,6,15)             114.3357         estimate D2E/DX2                !
 ! A18   A(7,6,15)             127.7035         estimate D2E/DX2                !
 ! A19   A(6,7,8)              120.7766         estimate D2E/DX2                !
 ! A20   A(6,7,33)             118.3194         estimate D2E/DX2                !
 ! A21   A(8,7,33)             120.9023         estimate D2E/DX2                !
 ! A22   A(7,8,9)              120.1511         estimate D2E/DX2                !
 ! A23   A(7,8,34)             121.1737         estimate D2E/DX2                !
 ! A24   A(9,8,34)             118.6746         estimate D2E/DX2                !
 ! A25   A(5,9,8)              117.1332         estimate D2E/DX2                !
 ! A26   A(5,9,12)             114.2109         estimate D2E/DX2                !
 ! A27   A(8,9,12)             128.6559         estimate D2E/DX2                !
 ! A28   A(3,10,11)            115.2117         estimate D2E/DX2                !
 ! A29   A(3,10,18)            113.6029         estimate D2E/DX2                !
 ! A30   A(11,10,18)           131.162          estimate D2E/DX2                !
 ! A31   A(10,11,12)           123.1773         estimate D2E/DX2                !
 ! A32   A(10,11,36)           118.7232         estimate D2E/DX2                !
 ! A33   A(12,11,36)           118.0834         estimate D2E/DX2                !
 ! A34   A(9,12,11)            119.934          estimate D2E/DX2                !
 ! A35   A(9,12,35)            122.2643         estimate D2E/DX2                !
 ! A36   A(11,12,35)           117.7985         estimate D2E/DX2                !
 ! A37   A(1,13,14)            117.9562         estimate D2E/DX2                !
 ! A38   A(1,13,31)            123.1602         estimate D2E/DX2                !
 ! A39   A(14,13,31)           118.8796         estimate D2E/DX2                !
 ! A40   A(13,14,15)           123.842          estimate D2E/DX2                !
 ! A41   A(13,14,46)           117.9421         estimate D2E/DX2                !
 ! A42   A(15,14,46)           118.1787         estimate D2E/DX2                !
 ! A43   A(6,15,14)            119.2901         estimate D2E/DX2                !
 ! A44   A(6,15,32)            122.4721         estimate D2E/DX2                !
 ! A45   A(14,15,32)           118.2267         estimate D2E/DX2                !
 ! A46   A(2,16,17)            114.3416         estimate D2E/DX2                !
 ! A47   A(2,16,19)            126.3991         estimate D2E/DX2                !
 ! A48   A(17,16,19)           118.8623         estimate D2E/DX2                !
 ! A49   A(16,17,18)           120.5383         estimate D2E/DX2                !
 ! A50   A(16,17,22)           118.9954         estimate D2E/DX2                !
 ! A51   A(18,17,22)           120.1752         estimate D2E/DX2                !
 ! A52   A(10,18,17)           119.6464         estimate D2E/DX2                !
 ! A53   A(10,18,37)           119.2226         estimate D2E/DX2                !
 ! A54   A(17,18,37)           120.3255         estimate D2E/DX2                !
 ! A55   A(16,19,20)           114.7544         estimate D2E/DX2                !
 ! A56   A(16,19,23)           125.6946         estimate D2E/DX2                !
 ! A57   A(20,19,23)           119.1487         estimate D2E/DX2                !
 ! A58   A(19,20,21)           117.8234         estimate D2E/DX2                !
 ! A59   A(19,20,26)           121.9013         estimate D2E/DX2                !
 ! A60   A(21,20,26)           120.0762         estimate D2E/DX2                !
 ! A61   A(20,21,22)           122.0164         estimate D2E/DX2                !
 ! A62   A(20,21,39)           119.8142         estimate D2E/DX2                !
 ! A63   A(22,21,39)           117.8666         estimate D2E/DX2                !
 ! A64   A(17,22,21)           120.8538         estimate D2E/DX2                !
 ! A65   A(17,22,38)           121.9379         estimate D2E/DX2                !
 ! A66   A(21,22,38)           117.0813         estimate D2E/DX2                !
 ! A67   A(19,23,24)           118.061          estimate D2E/DX2                !
 ! A68   A(19,23,30)           122.9975         estimate D2E/DX2                !
 ! A69   A(24,23,30)           118.8857         estimate D2E/DX2                !
 ! A70   A(23,24,25)           119.2013         estimate D2E/DX2                !
 ! A71   A(23,24,27)           120.4007         estimate D2E/DX2                !
 ! A72   A(25,24,27)           120.3364         estimate D2E/DX2                !
 ! A73   A(24,25,26)           119.734          estimate D2E/DX2                !
 ! A74   A(24,25,41)           120.8223         estimate D2E/DX2                !
 ! A75   A(26,25,41)           119.0358         estimate D2E/DX2                !
 ! A76   A(20,26,25)           118.9189         estimate D2E/DX2                !
 ! A77   A(20,26,40)           122.7706         estimate D2E/DX2                !
 ! A78   A(25,26,40)           118.0912         estimate D2E/DX2                !
 ! A79   A(24,27,28)           122.7364         estimate D2E/DX2                !
 ! A80   A(24,27,42)           121.0475         estimate D2E/DX2                !
 ! A81   A(28,27,42)           116.216          estimate D2E/DX2                !
 ! A82   A(27,28,29)           121.6393         estimate D2E/DX2                !
 ! A83   A(27,28,43)           118.8809         estimate D2E/DX2                !
 ! A84   A(29,28,43)           119.4749         estimate D2E/DX2                !
 ! A85   A(28,29,30)           114.6877         estimate D2E/DX2                !
 ! A86   A(28,29,44)           108.538          estimate D2E/DX2                !
 ! A87   A(28,29,47)           108.9101         estimate D2E/DX2                !
 ! A88   A(30,29,44)           108.6219         estimate D2E/DX2                !
 ! A89   A(30,29,47)           108.6892         estimate D2E/DX2                !
 ! A90   A(44,29,47)           107.1367         estimate D2E/DX2                !
 ! A91   A(23,30,29)           121.1134         estimate D2E/DX2                !
 ! A92   A(23,30,45)           120.684          estimate D2E/DX2                !
 ! A93   A(29,30,45)           117.8859         estimate D2E/DX2                !
 ! D1    D(4,1,2,3)              2.4486         estimate D2E/DX2                !
 ! D2    D(4,1,2,16)          -174.828          estimate D2E/DX2                !
 ! D3    D(13,1,2,3)          -171.9692         estimate D2E/DX2                !
 ! D4    D(13,1,2,16)           10.7542         estimate D2E/DX2                !
 ! D5    D(2,1,4,5)             -1.5789         estimate D2E/DX2                !
 ! D6    D(2,1,4,6)           -178.1253         estimate D2E/DX2                !
 ! D7    D(13,1,4,5)           174.211          estimate D2E/DX2                !
 ! D8    D(13,1,4,6)            -2.3354         estimate D2E/DX2                !
 ! D9    D(2,1,13,14)          177.7104         estimate D2E/DX2                !
 ! D10   D(2,1,13,31)           -1.5526         estimate D2E/DX2                !
 ! D11   D(4,1,13,14)            3.6111         estimate D2E/DX2                !
 ! D12   D(4,1,13,31)         -175.6519         estimate D2E/DX2                !
 ! D13   D(1,2,3,5)             -2.5856         estimate D2E/DX2                !
 ! D14   D(1,2,3,10)           178.3374         estimate D2E/DX2                !
 ! D15   D(16,2,3,5)           175.3397         estimate D2E/DX2                !
 ! D16   D(16,2,3,10)           -3.7373         estimate D2E/DX2                !
 ! D17   D(1,2,16,17)         -167.9655         estimate D2E/DX2                !
 ! D18   D(1,2,16,19)            4.6662         estimate D2E/DX2                !
 ! D19   D(3,2,16,17)           15.0704         estimate D2E/DX2                !
 ! D20   D(3,2,16,19)         -172.2979         estimate D2E/DX2                !
 ! D21   D(2,3,5,4)              1.7586         estimate D2E/DX2                !
 ! D22   D(2,3,5,9)            179.7418         estimate D2E/DX2                !
 ! D23   D(10,3,5,4)          -179.0624         estimate D2E/DX2                !
 ! D24   D(10,3,5,9)            -1.0792         estimate D2E/DX2                !
 ! D25   D(2,3,10,11)          179.1545         estimate D2E/DX2                !
 ! D26   D(2,3,10,18)           -2.4048         estimate D2E/DX2                !
 ! D27   D(5,3,10,11)            0.1547         estimate D2E/DX2                !
 ! D28   D(5,3,10,18)          178.5954         estimate D2E/DX2                !
 ! D29   D(1,4,5,3)             -0.0873         estimate D2E/DX2                !
 ! D30   D(1,4,5,9)           -178.1652         estimate D2E/DX2                !
 ! D31   D(6,4,5,3)            176.8042         estimate D2E/DX2                !
 ! D32   D(6,4,5,9)             -1.2736         estimate D2E/DX2                !
 ! D33   D(1,4,6,7)            179.0754         estimate D2E/DX2                !
 ! D34   D(1,4,6,15)             0.0059         estimate D2E/DX2                !
 ! D35   D(5,4,6,7)              2.8259         estimate D2E/DX2                !
 ! D36   D(5,4,6,15)          -176.2436         estimate D2E/DX2                !
 ! D37   D(3,5,9,8)           -178.6423         estimate D2E/DX2                !
 ! D38   D(3,5,9,12)             1.2668         estimate D2E/DX2                !
 ! D39   D(4,5,9,8)             -0.9301         estimate D2E/DX2                !
 ! D40   D(4,5,9,12)           178.979          estimate D2E/DX2                !
 ! D41   D(4,6,7,8)             -2.2177         estimate D2E/DX2                !
 ! D42   D(4,6,7,33)           178.2402         estimate D2E/DX2                !
 ! D43   D(15,6,7,8)           176.7107         estimate D2E/DX2                !
 ! D44   D(15,6,7,33)           -2.8313         estimate D2E/DX2                !
 ! D45   D(4,6,15,14)            0.6855         estimate D2E/DX2                !
 ! D46   D(4,6,15,32)          179.4493         estimate D2E/DX2                !
 ! D47   D(7,6,15,14)         -178.2757         estimate D2E/DX2                !
 ! D48   D(7,6,15,32)            0.4882         estimate D2E/DX2                !
 ! D49   D(6,7,8,9)              0.0622         estimate D2E/DX2                !
 ! D50   D(6,7,8,34)          -179.6495         estimate D2E/DX2                !
 ! D51   D(33,7,8,9)           179.5924         estimate D2E/DX2                !
 ! D52   D(33,7,8,34)           -0.1193         estimate D2E/DX2                !
 ! D53   D(7,8,9,5)              1.5179         estimate D2E/DX2                !
 ! D54   D(7,8,9,12)          -178.3759         estimate D2E/DX2                !
 ! D55   D(34,8,9,5)          -178.7631         estimate D2E/DX2                !
 ! D56   D(34,8,9,12)            1.343          estimate D2E/DX2                !
 ! D57   D(5,9,12,11)           -0.5725         estimate D2E/DX2                !
 ! D58   D(5,9,12,35)         -179.9118         estimate D2E/DX2                !
 ! D59   D(8,9,12,11)          179.3239         estimate D2E/DX2                !
 ! D60   D(8,9,12,35)           -0.0154         estimate D2E/DX2                !
 ! D61   D(3,10,11,12)           0.4416         estimate D2E/DX2                !
 ! D62   D(3,10,11,36)         178.9524         estimate D2E/DX2                !
 ! D63   D(18,10,11,12)       -177.6603         estimate D2E/DX2                !
 ! D64   D(18,10,11,36)          0.8505         estimate D2E/DX2                !
 ! D65   D(3,10,18,17)          -4.4373         estimate D2E/DX2                !
 ! D66   D(3,10,18,37)        -174.1958         estimate D2E/DX2                !
 ! D67   D(11,10,18,17)        173.6887         estimate D2E/DX2                !
 ! D68   D(11,10,18,37)          3.9302         estimate D2E/DX2                !
 ! D69   D(10,11,12,9)          -0.2118         estimate D2E/DX2                !
 ! D70   D(10,11,12,35)        179.1567         estimate D2E/DX2                !
 ! D71   D(36,11,12,9)        -178.7315         estimate D2E/DX2                !
 ! D72   D(36,11,12,35)          0.6369         estimate D2E/DX2                !
 ! D73   D(1,13,14,15)          -3.241          estimate D2E/DX2                !
 ! D74   D(1,13,14,46)         179.0243         estimate D2E/DX2                !
 ! D75   D(31,13,14,15)        176.0543         estimate D2E/DX2                !
 ! D76   D(31,13,14,46)         -1.6804         estimate D2E/DX2                !
 ! D77   D(13,14,15,6)           0.8448         estimate D2E/DX2                !
 ! D78   D(13,14,15,32)       -177.9716         estimate D2E/DX2                !
 ! D79   D(46,14,15,6)         178.5745         estimate D2E/DX2                !
 ! D80   D(46,14,15,32)         -0.2419         estimate D2E/DX2                !
 ! D81   D(2,16,17,18)         -21.8705         estimate D2E/DX2                !
 ! D82   D(2,16,17,22)         151.9441         estimate D2E/DX2                !
 ! D83   D(19,16,17,18)        164.8986         estimate D2E/DX2                !
 ! D84   D(19,16,17,22)        -21.2868         estimate D2E/DX2                !
 ! D85   D(2,16,19,20)        -143.189          estimate D2E/DX2                !
 ! D86   D(2,16,19,23)          44.198          estimate D2E/DX2                !
 ! D87   D(17,16,19,20)         29.1438         estimate D2E/DX2                !
 ! D88   D(17,16,19,23)       -143.4693         estimate D2E/DX2                !
 ! D89   D(16,17,18,10)         16.7624         estimate D2E/DX2                !
 ! D90   D(16,17,18,37)       -173.5938         estimate D2E/DX2                !
 ! D91   D(22,17,18,10)       -156.9792         estimate D2E/DX2                !
 ! D92   D(22,17,18,37)         12.6647         estimate D2E/DX2                !
 ! D93   D(16,17,22,21)         -1.4449         estimate D2E/DX2                !
 ! D94   D(16,17,22,38)       -177.2295         estimate D2E/DX2                !
 ! D95   D(18,17,22,21)        172.3927         estimate D2E/DX2                !
 ! D96   D(18,17,22,38)         -3.3919         estimate D2E/DX2                !
 ! D97   D(16,19,20,21)        -15.7658         estimate D2E/DX2                !
 ! D98   D(16,19,20,26)        169.3618         estimate D2E/DX2                !
 ! D99   D(23,19,20,21)        157.3677         estimate D2E/DX2                !
 ! D100  D(23,19,20,26)        -17.5048         estimate D2E/DX2                !
 ! D101  D(16,19,23,24)       -172.2111         estimate D2E/DX2                !
 ! D102  D(16,19,23,30)         10.5368         estimate D2E/DX2                !
 ! D103  D(20,19,23,24)         15.4715         estimate D2E/DX2                !
 ! D104  D(20,19,23,30)       -161.7806         estimate D2E/DX2                !
 ! D105  D(19,20,21,22)         -5.9082         estimate D2E/DX2                !
 ! D106  D(19,20,21,39)       -179.4522         estimate D2E/DX2                !
 ! D107  D(26,20,21,22)        169.0617         estimate D2E/DX2                !
 ! D108  D(26,20,21,39)         -4.4823         estimate D2E/DX2                !
 ! D109  D(19,20,26,25)          3.8116         estimate D2E/DX2                !
 ! D110  D(19,20,26,40)        178.3235         estimate D2E/DX2                !
 ! D111  D(21,20,26,25)       -170.9478         estimate D2E/DX2                !
 ! D112  D(21,20,26,40)          3.5641         estimate D2E/DX2                !
 ! D113  D(20,21,22,17)         15.3395         estimate D2E/DX2                !
 ! D114  D(20,21,22,38)       -168.6779         estimate D2E/DX2                !
 ! D115  D(39,21,22,17)       -170.9962         estimate D2E/DX2                !
 ! D116  D(39,21,22,38)          4.9864         estimate D2E/DX2                !
 ! D117  D(19,23,24,25)         -1.5826         estimate D2E/DX2                !
 ! D118  D(19,23,24,27)        175.5728         estimate D2E/DX2                !
 ! D119  D(30,23,24,25)        175.7855         estimate D2E/DX2                !
 ! D120  D(30,23,24,27)         -7.0592         estimate D2E/DX2                !
 ! D121  D(19,23,30,29)       -173.8518         estimate D2E/DX2                !
 ! D122  D(19,23,30,45)         12.7473         estimate D2E/DX2                !
 ! D123  D(24,23,30,29)          8.9176         estimate D2E/DX2                !
 ! D124  D(24,23,30,45)       -164.4833         estimate D2E/DX2                !
 ! D125  D(23,24,25,26)        -11.8862         estimate D2E/DX2                !
 ! D126  D(23,24,25,41)        175.5147         estimate D2E/DX2                !
 ! D127  D(27,24,25,26)        170.9566         estimate D2E/DX2                !
 ! D128  D(27,24,25,41)         -1.6425         estimate D2E/DX2                !
 ! D129  D(23,24,27,28)          1.4843         estimate D2E/DX2                !
 ! D130  D(23,24,27,42)       -178.3837         estimate D2E/DX2                !
 ! D131  D(25,24,27,28)        178.6072         estimate D2E/DX2                !
 ! D132  D(25,24,27,42)         -1.2607         estimate D2E/DX2                !
 ! D133  D(24,25,26,20)         10.4931         estimate D2E/DX2                !
 ! D134  D(24,25,26,40)       -164.2769         estimate D2E/DX2                !
 ! D135  D(41,25,26,20)       -176.7755         estimate D2E/DX2                !
 ! D136  D(41,25,26,40)          8.4546         estimate D2E/DX2                !
 ! D137  D(24,27,28,29)          2.3399         estimate D2E/DX2                !
 ! D138  D(24,27,28,43)       -178.4721         estimate D2E/DX2                !
 ! D139  D(42,27,28,29)       -177.7862         estimate D2E/DX2                !
 ! D140  D(42,27,28,43)          1.4018         estimate D2E/DX2                !
 ! D141  D(27,28,29,30)         -0.4825         estimate D2E/DX2                !
 ! D142  D(27,28,29,44)        121.174          estimate D2E/DX2                !
 ! D143  D(27,28,29,47)       -122.506          estimate D2E/DX2                !
 ! D144  D(43,28,29,30)       -179.6658         estimate D2E/DX2                !
 ! D145  D(43,28,29,44)        -58.0093         estimate D2E/DX2                !
 ! D146  D(43,28,29,47)         58.3107         estimate D2E/DX2                !
 ! D147  D(28,29,30,23)         -5.1429         estimate D2E/DX2                !
 ! D148  D(28,29,30,45)        168.4371         estimate D2E/DX2                !
 ! D149  D(44,29,30,23)       -126.7537         estimate D2E/DX2                !
 ! D150  D(44,29,30,45)         46.8263         estimate D2E/DX2                !
 ! D151  D(47,29,30,23)        117.0005         estimate D2E/DX2                !
 ! D152  D(47,29,30,45)        -69.4195         estimate D2E/DX2                !
 --------------------------------------------------------------------------------
 Trust Radius=3.00D-01 FncErr=1.00D-07 GrdErr=1.00D-06 EigMax=2.50D+02 EigMin=1.00D-04
 Number of steps in this run=    282 maximum allowed number of steps=    282.
 GradGradGradGradGradGradGradGradGradGradGradGradGradGradGradGradGradGrad

                          Input orientation:                          
 ---------------------------------------------------------------------
 Center     Atomic      Atomic             Coordinates (Angstroms)
 Number     Number       Type             X           Y           Z
 ---------------------------------------------------------------------
      1          6           0       -4.130670    0.270820   -0.278390
      2          6           0       -2.683790    0.169470    0.031770
      3          6           0       -2.511910   -1.267470    0.323170
      4          6           0       -4.713250   -1.066880   -0.094900
      5          6           0       -3.771070   -1.941910    0.252170
      6          6           0       -6.074150   -1.503790   -0.305880
      7          6           0       -6.390240   -2.925740   -0.062850
      8          6           0       -5.415140   -3.803890    0.304250
      9          6           0       -4.025920   -3.341900    0.465290
     10          6           0       -1.400520   -1.950450    0.638470
     11          6           0       -1.597870   -3.392560    0.887740
     12          6           0       -2.926760   -4.063290    0.791220
     13          6           0       -4.972370    1.207210   -0.748110
     14          6           0       -6.384090    0.829720   -0.949380
     15          6           0       -6.910500   -0.533080   -0.730550
     16          6           0       -1.614220    0.994880    0.144680
     17          6           0       -0.272020    0.277450    0.215160
     18          6           0       -0.197630   -1.135810    0.638950
     19          6           0       -1.630890    2.483280    0.049380
     20          6           0       -0.432900    3.084170   -0.633660
     21          6           0        0.746390    2.241550   -0.807050
     22          6           0        0.832040    0.909780   -0.234300
     23          6           0       -2.545340    3.311670    0.643100
     24          6           0       -2.509830    4.756440    0.294780
     25          6           0       -1.495120    5.238730   -0.626110
     26          6           0       -0.391950    4.383430   -0.986410
     27          6           0       -3.440590    5.596660    0.780660
     28          6           0       -4.487290    5.168050    1.673150
     29          6           0       -4.573990    3.757420    2.159810
     30          6           0       -3.506370    2.850340    1.638380
     31          1           0       -4.660240    2.214150   -0.994120
     32          1           0       -7.957970   -0.717420   -0.938370
     33          1           0       -7.415950   -3.254060   -0.191330
     34          1           0       -5.638960   -4.850300    0.478830
     35          1           0       -2.969410   -5.130090    0.978780
     36          1           0       -0.734810   -4.002310    1.130150
     37          1           0        0.763480   -1.612200    0.787680
     38          1           0        1.804230    0.427830   -0.247680
     39          1           0        1.631390    2.644760   -1.287310
     40          1           0        0.473930    4.837230   -1.455170
     41          1           0       -1.488970    6.271220   -0.954270
     42          1           0       -3.439960    6.649590    0.512140
     43          1           0       -5.219980    5.893420    2.007260
     44          1           0       -4.524630    3.762880    3.254600
     45          1           0       -3.401100    1.875070    2.098010
     46          1           0       -7.066840    1.590390   -1.313300
     47          1           0       -5.550820    3.345590    1.882720
 ---------------------------------------------------------------------
                    Distance matrix (angstroms):
                    1          2          3          4          5
     1  C    0.000000
     2  C    1.483217   0.000000
     3  C    2.312703   1.476229   0.000000
     4  C    1.470547   2.379772   2.249648   0.000000
     5  C    2.303688   2.385095   1.430173   1.331855   0.000000
     6  C    2.631941   3.795833   3.625066   1.444802   2.409885
     7  C    3.920473   4.829808   4.235601   2.503734   2.815530
     8  C    4.311913   4.829297   3.855195   2.853628   2.484481
     9  C    3.689956   3.784042   2.572097   2.441711   1.438868
    10  C    3.637086   2.551260   1.342037   3.506096   2.401834
    11  C    4.603834   3.820990   2.381222   4.009983   2.689077
    12  C    4.623632   4.307210   2.864922   3.599337   2.345994
    13  C    1.343846   2.631105   3.650417   2.380192   3.515770
    14  C    2.416712   3.884689   4.583816   2.668133   3.994187
    15  C    2.928849   4.351986   4.582275   2.348808   3.578626
    16  C    2.652503   1.355740   2.440478   3.729912   3.645311
    17  C    3.890092   2.421141   2.723151   4.650579   4.143704
    18  C    4.276555   2.872876   2.339432   4.575381   3.683595
    19  C    3.354298   2.542169   3.862549   4.703764   4.919736
    20  C    4.659899   3.742296   4.916765   5.986892   6.098324
    21  C    5.286679   4.094297   4.920075   6.423436   6.247458
    22  C    5.003869   3.602765   4.029044   5.888706   5.436673
    23  C    3.550941   3.204109   4.590424   4.941273   5.408821
    24  C    4.803794   4.597796   6.023977   6.238427   6.816189
    25  C    5.634462   5.248156   6.653242   7.099244   7.583727
    26  C    5.602935   4.903741   6.175913   7.012439   7.277531
    27  C    5.473789   5.530640   6.941759   6.840251   7.564295
    28  C    5.283801   5.561703   6.865893   6.484706   7.285855
    29  C    4.277585   4.579825   5.733667   5.327005   6.063508
    30  C    3.273787   3.231857   4.435661   4.450329   4.995729
    31  H    2.137579   3.023164   4.297936   3.402435   4.429074
    32  H    4.007545   5.435506   5.617260   3.370723   4.521824
    33  H    4.819276   5.844970   5.316094   3.478167   3.899177
    34  H    5.392049   5.842173   4.758082   3.937051   3.463975
    35  H    5.665583   5.391080   3.944485   4.550104   3.366766
    36  H    5.636975   4.733784   3.359859   5.093671   3.772926
    37  H    5.351166   3.953406   3.326077   5.574127   4.577950
    38  H    5.937056   4.504128   4.672149   6.688426   6.078609
    39  H    6.313069   5.146631   5.921666   7.446648   7.252180
    40  H    6.590846   5.828393   7.024606   7.975944   8.178739
    41  H    6.590917   6.295333   7.714279   8.061154   8.609238
    42  H    6.464575   6.541751   7.973508   7.844340   8.601807
    43  H    6.166395   6.564939   7.838887   7.288459   8.159171
    44  H    4.983142   5.166035   6.160255   5.880588   6.490537
    45  H    2.958575   2.773617   3.717025   3.896878   4.255977
    46  H    3.381331   4.799933   5.620746   3.752995   5.078380
    47  H    4.017640   4.661933   5.739991   4.907382   5.812388
                    6          7          8          9         10
     6  C    0.000000
     7  C    1.476793   0.000000
     8  C    2.469213   1.362619   0.000000
     9  C    2.858076   2.458074   1.472855   0.000000
    10  C    4.788958   5.132285   4.434424   2.976382   0.000000
    11  C    5.002925   4.907989   3.883452   2.465047   1.476741
    12  C    4.202467   3.744215   2.548816   1.354543   2.610907
    13  C    2.959562   4.422806   5.139517   4.802344   4.965031
    14  C    2.440374   3.858685   4.897019   4.996466   5.923393
    15  C    1.349853   2.537975   3.742340   4.200036   5.851755
    16  C    5.131991   6.182612   6.123777   4.972600   2.994072
    17  C    6.091717   6.911608   6.566350   5.220539   2.533030
    18  C    5.963355   6.484195   5.869675   4.421854   1.452785
    19  C    5.980426   7.205658   7.342616   6.312042   4.478622
    20  C    7.278772   8.481435   8.552646   7.443914   5.282235
    21  C    7.797340   8.842296   8.703263   7.454442   4.926623
    22  C    7.316140   8.179360   7.844487   6.493534   3.731885
    23  C    6.044975   7.361176   7.679959   6.818631   5.385215
    24  C    7.228807   8.614022   9.039921   8.240796   6.806693
    25  C    8.156693   9.536143   9.899551   9.012398   7.300166
    26  C    8.210352   9.500337   9.691772   8.659902   6.616304
    27  C    7.650660   9.057773   9.617492   8.963254   7.819269
    28  C    7.137796   8.493783   9.123075   8.607615   7.827628
    29  C    6.000870   7.273487   7.830967   7.319298   6.705607
    30  C    5.415911   6.676376   7.049970   6.323757   5.336854
    31  H    4.036817   5.502602   6.202616   5.779440   5.534891
    32  H    2.137101   2.846224   4.187647   4.931447   6.856161
    33  H    2.208392   1.084612   2.133343   3.454152   6.210746
    34  H    3.464721   2.135830   1.084227   2.208473   5.137995
    35  H    4.943664   4.200742   2.862760   2.139511   3.561929
    36  H    6.067399   5.879298   4.756781   3.421927   2.212476
    37  H    6.925374   7.322875   6.573626   5.102367   2.195353
    38  H    8.111930   8.856068   8.386381   6.979243   4.088019
    39  H    8.806192   9.842577   9.683581   8.421215   5.832415
    40  H    9.187315  10.455577  10.604040   9.530739   7.346393
    41  H    9.049589  10.459500  10.886070  10.043074   8.374993
    42  H    8.607306  10.036021  10.640479  10.008767   8.839455
    43  H    7.797367   9.134136   9.847647   9.438993   8.831090
    44  H    6.543382   7.695688   8.170286   7.648978   7.017574
    45  H    4.933617   6.054094   6.286853   5.502086   4.557102
    46  H    3.402099   4.734643   5.868802   6.061193   6.960901
    47  H    5.346057   6.619626   7.322912   7.004067   6.842601
                   11         12         13         14         15
    11  C    0.000000
    12  C    1.491691   0.000000
    13  C    5.934740   5.859371   0.000000
    14  C    6.641578   6.238939   1.475114   0.000000
    15  C    6.246561   5.536095   2.604854   1.477233   0.000000
    16  C    4.449948   5.265535   3.481283   4.896520   5.581332
    17  C    3.959699   5.120695   4.887293   6.246483   6.754313
    18  C    2.667487   4.005181   5.496528   6.682693   6.877604
    19  C    5.935439   6.714699   3.664674   5.130759   6.130334
    20  C    6.754246   7.702974   4.913539   6.371726   7.419783
    21  C    6.333330   7.469773   5.811846   7.270300   8.144470
    22  C    5.066909   6.317570   5.834693   7.251916   7.891453
    23  C    6.775267   7.386302   3.500670   4.840668   5.976926
    24  C    8.221282   8.843524   4.443957   5.654817   6.956739
    25  C    8.763645   9.517667   5.325346   6.591350   7.915241
    26  C    8.089048   8.996239   5.579015   6.966776   8.168784
    27  C    9.176773   9.673612   4.893951   5.863527   7.204009
    28  C    9.069160   9.403759   4.667554   5.412635   6.644743
    29  C    7.848418   8.108632   3.888223   4.638421   5.676429
    30  C    6.571121   6.989414   3.247209   4.365854   5.352332
    31  H    6.659933   6.752677   1.082531   2.211404   3.560957
    32  H    7.137361   6.284855   3.557275   2.207003   1.083681
    33  H    5.918921   4.666164   5.117032   4.279794   2.819569
    34  H    4.315394   2.841303   6.216362   5.904035   4.660236
    35  H    2.215496   1.084002   6.866977   7.134226   6.291780
    36  H    1.084173   2.218837   6.973082   7.719283   7.323722
    37  H    2.958998   4.430093   6.573256   7.750362   7.896803
    38  H    5.240119   6.605432   6.839603   8.228152   8.780833
    39  H    7.183884   8.372273   6.779892   8.225356   9.130856
    40  H    8.804035   9.789291   6.583249   7.959171   9.159427
    41  H    9.838369  10.579039   6.149860   7.319300   8.702961
    42  H   10.216611  10.728796   5.792755   6.683923   8.073393
    43  H   10.030076  10.289494   5.441869   5.978121   7.187027
    44  H    8.085065   8.358850   4.770074   5.452932   6.326853
    45  H    5.697747   6.098919   3.318934   4.390623   5.110365
    46  H    7.719067   7.316650   2.202969   1.084990   2.207525
    47  H    7.875180   7.935274   3.439264   3.878754   4.870523
                   16         17         18         19         20
    16  C    0.000000
    17  C    1.523540   0.000000
    18  C    2.605930   1.477307   0.000000
    19  C    1.491541   2.596093   3.936958   0.000000
    20  C    2.523185   2.936674   4.413969   1.504258   0.000000
    21  C    2.834159   2.437162   3.793237   2.538379   1.459725
    22  C    2.476904   1.349372   2.450964   2.936392   2.547064
    23  C    2.546158   3.815443   5.029099   1.369289   2.478765
    24  C    3.869623   5.007543   6.339032   2.449492   2.823495
    25  C    4.314924   5.178611   6.627112   2.840286   2.402186
    26  C    3.775656   4.279863   5.756871   2.493673   1.346917
    27  C    4.991641   6.217204   7.474157   3.674632   4.166426
    28  C    5.292079   6.619079   7.694765   4.243070   5.109012
    29  C    4.522457   5.865049   6.738638   3.839165   5.040374
    30  C    3.042056   4.371080   5.275985   2.485373   3.829238
    31  H    3.472999   4.946680   5.814124   3.215320   4.330966
    32  H    6.659439   7.835447   7.930061   7.159055   8.436327
    33  H    7.199060   7.979507   7.568388   8.151192   9.440964
    34  H    7.104669   7.427475   6.590231   8.368420   9.554921
    35  H    6.328311   6.091019   4.873656   7.785809   8.746880
    36  H    5.168793   4.400878   2.957476   6.635804   7.308924
    37  H    3.586610   2.229533   1.082959   4.801151   5.050487
    38  H    3.487304   2.132522   2.690451   4.014121   3.494263
    39  H    3.912376   3.388885   4.620444   3.529205   2.209442
    40  H    4.656559   4.913048   6.365025   3.497859   2.137858
    41  H    5.391024   6.226862   7.685701   3.921217   3.372738
    42  H    5.953495   7.122374   8.434527   4.565635   4.802862
    43  H    6.361321   7.696301   8.746791   5.323900   6.146745
    44  H    5.079755   6.282604   7.040008   4.503836   5.685197
    45  H    2.789834   3.986058   4.632113   2.774968   4.211194
    46  H    5.675509   7.087283   7.643919   5.674831   6.833919
    47  H    4.903411   6.329294   7.091301   4.412546   5.709082
                   21         22         23         24         25
    21  C    0.000000
    22  C    1.452236   0.000000
    23  C    3.752809   4.236225   0.000000
    24  C    4.259304   5.122969   1.486589   0.000000
    25  C    3.747025   4.930415   2.535235   1.452680   0.000000
    26  C    2.432208   3.758998   2.905350   2.503198   1.441644
    27  C    5.595390   6.422800   2.457961   1.344754   2.427338
    28  C    6.489006   7.075769   2.877207   2.445337   3.774212
    29  C    6.277465   6.562467   2.571872   2.955864   4.408522
    30  C    4.943351   5.108278   1.458419   2.536054   3.857130
    31  H    5.409935   5.695950   2.890993   3.570541   4.393347
    32  H    9.194489   8.967038   6.930453   7.820872   8.794411
    33  H    9.859241   9.239521   8.217538   9.406085  10.362082
    34  H    9.629149   8.692578   8.730133  10.105186  10.962702
    35  H    8.446149   7.238965   8.459068   9.920814  10.595359
    36  H    6.703170   5.333420   7.550466   8.975758   9.437126
    37  H    4.170713   2.722045   5.934112   7.177540   7.350872
    38  H    2.172901   1.085177   5.294222   6.135327   5.845826
    39  H    1.084644   2.181272   4.649336   4.910387   4.115936
    40  H    2.689210   4.128393   3.980711   3.460011   2.173868
    41  H    4.610504   5.886466   3.525116   2.212880   1.083403
    42  H    6.220660   7.193926   3.458208   2.120473   2.658673
    43  H    7.540164   8.154030   3.959806   3.401503   4.608453
    44  H    6.826060   7.000465   3.307735   3.715793   5.139647
    45  H    5.076943   4.928583   2.216508   3.514014   4.729461
    46  H    7.856644   8.001236   5.218646   5.777208   6.695273
    47  H    6.936038   7.152331   3.251264   3.709403   5.130975
                   26         27         28         29         30
    26  C    0.000000
    27  C    3.726750   0.000000
    28  C    4.945776   1.440773   0.000000
    29  C    5.270678   2.563095   1.494735   0.000000
    30  C    4.351954   2.877896   2.516981   1.494823   0.000000
    31  H    4.787915   4.009833   3.983688   3.512321   2.943843
    32  H    9.125001   7.951691   7.314671   6.408918   6.259816
    33  H   10.406728   9.751077   9.109625   7.922465   7.476386
    34  H   10.720999  10.680024  10.154806   8.834744   8.074178
    35  H   10.050489  10.738921  10.432535   9.108092   8.025625
    36  H    8.655519   9.979159   9.923279   8.718538   7.409363
    37  H    6.358458   8.345173   8.621278   7.694423   6.234547
    38  H    4.584288   7.435215   8.108175   7.587086   6.134187
    39  H    2.684664   6.222154   7.250487   7.185220   5.915953
    40  H    1.084167   4.571557   5.874481   6.302029   5.418540
    41  H    2.183629   2.697005   4.136453   5.053121   4.742801
    42  H    4.083075   1.086630   2.154021   3.516460   3.963222
    43  H    5.878095   2.181477   1.083802   2.236754   3.511818
    44  H    5.954015   3.264701   2.115864   1.095916   2.117014
    45  H    4.986031   3.948063   3.493427   2.218723   1.083279
    46  H    7.243072   5.795218   5.326595   4.792996   4.793416
    47  H    5.993576   3.276419   2.120466   1.095710   2.117723
                   31         32         33         34         35
    31  H    0.000000
    32  H    4.412735   0.000000
    33  H    6.175737   2.699333   0.000000
    34  H    7.282440   4.946409   2.480885   0.000000
    35  H    7.790321   6.930574   4.965920   2.730335   0.000000
    36  H    7.652836   8.200202   6.851556   5.019362   2.507636
    37  H    6.872591   8.935523   8.399836   7.181359   5.132888
    38  H    6.748147   9.853385   9.928303   9.153554   7.428480
    39  H    6.313160  10.167686  10.855948  10.590239   9.314012
    40  H    5.783841  10.110300  11.371740  11.617057  10.822577
    41  H    5.149598   9.523093  11.244649  11.956772  11.658398
    42  H    4.840561   8.762946  10.695123  11.708295  11.798306
    43  H    4.781069   7.737993   9.660873  10.859980  11.297814
    44  H    4.524221   7.031494   8.334963   9.117757   9.310370
    45  H    3.355842   6.058521   6.904207   7.270513   7.107130
    46  H    2.506527   2.502134   4.984916   6.836158   8.198013
    47  H    3.217064   5.500997   7.164899   8.315725   8.906062
                   36         37         38         39         40
    36  H    0.000000
    37  H    2.841617   0.000000
    38  H    5.288788   2.513335   0.000000
    39  H    7.458321   4.814619   2.454686   0.000000
    40  H    9.288832   6.834425   4.761359   2.484918   0.000000
    41  H   10.509947   8.381899   6.744601   4.795704   2.481976
    42  H   11.007395   9.273727   8.172463   6.707852   4.740622
    43  H   10.900071   9.675924   9.181337   8.267361   6.747190
    44  H    8.897988   7.933554   7.965111   7.731476   6.951386
    45  H    6.526059   5.587642   5.890011   6.113818   6.034512
    46  H    8.794507   8.716915   9.010160   8.761939   8.211292
    47  H    8.817707   8.102418   8.194430   7.881903   7.047277
                   41         42         43         44         45
    41  H    0.000000
    42  H    2.469794   0.000000
    43  H    4.778476   2.444514   0.000000
    44  H    5.763817   4.126826   2.564872   0.000000
    45  H    5.683202   5.031156   4.411768   2.482710   0.000000
    46  H    7.290522   6.487064   5.740477   5.661118   5.015549
    47  H    5.753820   4.153388   2.572237   1.763307   2.613441
                   46         47
    46  H    0.000000
    47  H    3.948872   0.000000
 Stoichiometry    C30H17(2)
 Framework group  C1[X(C30H17)]
 Deg. of freedom   135
 Full point group                 C1      NOp   1
 Largest Abelian subgroup         C1      NOp   1
 Largest concise Abelian subgroup C1      NOp   1
                         Standard orientation:                         
 ---------------------------------------------------------------------
 Center     Atomic      Atomic             Coordinates (Angstroms)
 Number     Number       Type             X           Y           Z
 ---------------------------------------------------------------------
      1          6           0        0.800816   -0.894262   -0.510942
      2          6           0        0.423829    0.492496   -0.143905
      3          6           0        1.725657    1.111845    0.173748
      4          6           0        2.255347   -1.015366   -0.331544
      5          6           0        2.774442    0.145760    0.063632
      6          6           0        3.112934   -2.149321   -0.588727
      7          6           0        4.560014   -1.993704   -0.338409
      8          6           0        5.071295   -0.801291    0.078092
      9          6           0        4.180778    0.353267    0.286121
     10          6           0        2.007980    2.371389    0.541042
     11          6           0        3.435325    2.645463    0.802449
     12          6           0        4.503394    1.613362    0.664097
     13          6           0        0.190965   -1.975505   -1.025644
     14          6           0        1.008987   -3.177242   -1.275904
     15          6           0        2.468876   -3.238556   -1.058685
     16          6           0       -0.705735    1.228553   -0.001305
     17          6           0       -0.466126    2.727328    0.130742
     18          6           0        0.845101    3.241465    0.576590
     19          6           0       -2.106996    0.730959   -0.117755
     20          6           0       -3.065915    1.694140   -0.762387
     21          6           0       -2.654649    3.089907   -0.878549
     22          6           0       -1.424192    3.581986   -0.284558
     23          6           0       -2.591530   -0.427262    0.428783
     24          6           0       -3.968475   -0.850986    0.062139
     25          6           0       -4.755313   -0.012446   -0.825562
     26          6           0       -4.307107    1.323223   -1.131235
     27          6           0       -4.458808   -2.024057    0.500136
     28          6           0       -3.712242   -2.909163    1.357487
     29          6           0       -2.350910   -2.550585    1.859911
     30          6           0       -1.842072   -1.224994    1.392591
     31          1           0       -0.862576   -1.999298   -1.273352
     32          1           0        2.985364   -4.159078   -1.304131
     33          1           0        5.205437   -2.849934   -0.501751
     34          1           0        6.133330   -0.678297    0.258378
     35          1           0        5.525514    1.913569    0.864613
     36          1           0        3.729588    3.649579    1.086335
     37          1           0        0.981338    4.298485    0.768808
     38          1           0       -1.286240    4.657919   -0.253811
     39          1           0       -3.324591    3.813729   -1.329892
     40          1           0       -5.018624    2.012008   -1.572524
     41          1           0       -5.733014   -0.330171   -1.167492
     42          1           0       -5.454054   -2.356105    0.217302
     43          1           0       -4.158651   -3.851491    1.653060
     44          1           0       -2.372732   -2.550559    2.955610
     45          1           0       -0.954913   -0.826104    1.869381
     46          1           0        0.513244   -4.055361   -1.676341
     47          1           0       -1.642452   -3.327319    1.551121
 ---------------------------------------------------------------------
 Rotational constants (GHZ):           0.2723463           0.1380305           0.1004673
 Standard basis: 6-311+G(d,p) (5D, 7F)
 There are   792 symmetry adapted cartesian basis functions of A   symmetry.
 There are   762 symmetry adapted basis functions of A   symmetry.
   762 basis functions,  1216 primitive gaussians,   792 cartesian basis functions
    99 alpha electrons       98 beta electrons
       nuclear repulsion energy      2591.1236734317 Hartrees.
 NAtoms=   47 NActive=   47 NUniq=   47 SFac= 1.00D+00 NAtFMM=   60 NAOKFM=F Big=F
 Integral buffers will be    131072 words long.
 Raffenetti 2 integral format.
 Two-electron integral symmetry is turned on.
 One-electron integrals computed using PRISM.
 NBasis=   762 RedAO= T EigKep=  1.04D-06  NBF=   762
 NBsUse=   743 1.00D-06 EigRej=  9.61D-07 NBFU=   743
 ExpMin= 4.38D-02 ExpMax= 4.56D+03 ExpMxC= 6.82D+02 IAcc=2 IRadAn=         4 AccDes= 0.00D+00
 Harris functional with IExCor=  402 and IRadAn=       4 diagonalized for initial guess.
 HarFok:  IExCor=  402 AccDes= 0.00D+00 IRadAn=         4 IDoV= 1 UseB2=F ITyADJ=14
 ICtDFT=  3500011 ScaDFX=  1.000000  1.000000  1.000000  1.000000
 FoFCou: FMM=F IPFlag=           0 FMFlag=      100000 FMFlg1=           0
         NFxFlg=           0 DoJE=T BraDBF=F KetDBF=T FulRan=T
         wScrn=  0.000000 ICntrl=       500 IOpCl=  0 I1Cent=   200000004 NGrid=           0
         NMat0=    1 NMatS0=      1 NMatT0=    0 NMatD0=    1 NMtDS0=    0 NMtDT0=    0
 Petite list used in FoFCou.
 Initial guess <Sx>= 0.0000 <Sy>= 0.0000 <Sz>= 0.5000 <S**2>= 0.7500 S= 0.5000
 Requested convergence on RMS density matrix=1.00D-08 within 128 cycles.
 Requested convergence on MAX density matrix=1.00D-06.
 Requested convergence on             energy=1.00D-06.
 No special actions if energy rises.
 Restarting incremental Fock formation.
 SCF Done:  E(UB3LYP) =  -1153.57981698     A.U. after   29 cycles
            NFock= 29  Conv=0.85D-08     -V/T= 2.0052
 <Sx>= 0.0000 <Sy>= 0.0000 <Sz>= 0.5000 <S**2>= 0.8365 S= 0.5423
 <L.S>=  0.00000000000    
 Annihilation of the first spin contaminant:
 S**2 before annihilation     0.8365,   after     0.7553

 **********************************************************************

            Population analysis using the SCF Density.

 **********************************************************************

 Orbital symmetries:
 Alpha Orbitals:
       Occupied  (A) (A) (A) (A) (A) (A) (A) (A) (A) (A) (A) (A)
                 (A) (A) (A) (A) (A) (A) (A) (A) (A) (A) (A) (A)
                 (A) (A) (A) (A) (A) (A) (A) (A) (A) (A) (A) (A)
                 (A) (A) (A) (A) (A) (A) (A) (A) (A) (A) (A) (A)
                 (A) (A) (A) (A) (A) (A) (A) (A) (A) (A) (A) (A)
                 (A) (A) (A) (A) (A) (A) (A) (A) (A) (A) (A) (A)
                 (A) (A) (A) (A) (A) (A) (A) (A) (A) (A) (A) (A)
                 (A) (A) (A) (A) (A) (A) (A) (A) (A) (A) (A) (A)
                 (A) (A) (A)
       Virtual   (A) (A) (A) (A) (A) (A) (A) (A) (A) (A) (A) (A)
                 (A) (A) (A) (A) (A) (A) (A) (A) (A) (A) (A) (A)
                 (A) (A) (A) (A) (A) (A) (A) (A) (A) (A) (A) (A)
                 (A) (A) (A) (A) (A) (A) (A) (A) (A) (A) (A) (A)
                 (A) (A) (A) (A) (A) (A) (A) (A) (A) (A) (A) (A)
                 (A) (A) (A) (A) (A) (A) (A) (A) (A) (A) (A) (A)
                 (A) (A) (A) (A) (A) (A) (A) (A) (A) (A) (A) (A)
                 (A) (A) (A) (A) (A) (A) (A) (A) (A) (A) (A) (A)
                 (A) (A) (A) (A) (A) (A) (A) (A) (A) (A) (A) (A)
                 (A) (A) (A) (A) (A) (A) (A) (A) (A) (A) (A) (A)
                 (A) (A) (A) (A) (A) (A) (A) (A) (A) (A) (A) (A)
                 (A) (A) (A) (A) (A) (A) (A) (A) (A) (A) (A) (A)
                 (A) (A) (A) (A) (A) (A) (A) (A) (A) (A) (A) (A)
                 (A) (A) (A) (A) (A) (A) (A) (A) (A) (A) (A) (A)
                 (A) (A) (A) (A) (A) (A) (A) (A) (A) (A) (A) (A)
                 (A) (A) (A) (A) (A) (A) (A) (A) (A) (A) (A) (A)
                 (A) (A) (A) (A) (A) (A) (A) (A) (A) (A) (A) (A)
                 (A) (A) (A) (A) (A) (A) (A) (A) (A) (A) (A) (A)
                 (A) (A) (A) (A) (A) (A) (A) (A) (A) (A) (A) (A)
                 (A) (A) (A) (A) (A) (A) (A) (A) (A) (A) (A) (A)
                 (A) (A) (A) (A) (A) (A) (A) (A) (A) (A) (A) (A)
                 (A) (A) (A) (A) (A) (A) (A) (A) (A) (A) (A) (A)
                 (A) (A) (A) (A) (A) (A) (A) (A) (A) (A) (A) (A)
                 (A) (A) (A) (A) (A) (A) (A) (A) (A) (A) (A) (A)
                 (A) (A) (A) (A) (A) (A) (A) (A) (A) (A) (A) (A)
                 (A) (A) (A) (A) (A) (A) (A) (A) (A) (A) (A) (A)
                 (A) (A) (A) (A) (A) (A) (A) (A) (A) (A) (A) (A)
                 (A) (A) (A) (A) (A) (A) (A) (A) (A) (A) (A) (A)
                 (A) (A) (A) (A) (A) (A) (A) (A) (A) (A) (A) (A)
                 (A) (A) (A) (A) (A) (A) (A) (A) (A) (A) (A) (A)
                 (A) (A) (A) (A) (A) (A) (A) (A) (A) (A) (A) (A)
                 (A) (A) (A) (A) (A) (A) (A) (A) (A) (A) (A) (A)
                 (A) (A) (A) (A) (A) (A) (A) (A) (A) (A) (A) (A)
                 (A) (A) (A) (A) (A) (A) (A) (A) (A) (A) (A) (A)
                 (A) (A) (A) (A) (A) (A) (A) (A) (A) (A) (A) (A)
                 (A) (A) (A) (A) (A) (A) (A) (A) (A) (A) (A) (A)
                 (A) (A) (A) (A) (A) (A) (A) (A) (A) (A) (A) (A)
                 (A) (A) (A) (A) (A) (A) (A) (A) (A) (A) (A) (A)
                 (A) (A) (A) (A) (A) (A) (A) (A) (A) (A) (A) (A)
                 (A) (A) (A) (A) (A) (A) (A) (A) (A) (A) (A) (A)
                 (A) (A) (A) (A) (A) (A) (A) (A) (A) (A) (A) (A)
                 (A) (A) (A) (A) (A) (A) (A) (A) (A) (A) (A) (A)
                 (A) (A) (A) (A) (A) (A) (A) (A) (A) (A) (A) (A)
                 (A) (A) (A) (A) (A) (A) (A) (A) (A) (A) (A) (A)
                 (A) (A) (A) (A) (A) (A) (A) (A) (A) (A) (A) (A)
                 (A) (A) (A) (A) (A) (A) (A) (A) (A) (A) (A) (A)
                 (A) (A) (A) (A) (A) (A) (A) (A) (A) (A) (A) (A)
                 (A) (A) (A) (A) (A) (A) (A) (A) (A) (A) (A) (A)
                 (A) (A) (A) (A) (A) (A) (A) (A) (A) (A) (A) (A)
                 (A) (A) (A) (A) (A) (A) (A) (A) (A) (A) (A) (A)
                 (A) (A) (A) (A) (A) (A) (A) (A) (A) (A) (A) (A)
                 (A) (A) (A) (A) (A) (A) (A) (A) (A) (A) (A) (A)
                 (A) (A) (A) (A) (A) (A) (A) (A) (A) (A) (A) (A)
                 (A) (A) (A) (A) (A) (A) (A) (A)
 Beta  Orbitals:
       Occupied  (A) (A) (A) (A) (A) (A) (A) (A) (A) (A) (A) (A)
                 (A) (A) (A) (A) (A) (A) (A) (A) (A) (A) (A) (A)
                 (A) (A) (A) (A) (A) (A) (A) (A) (A) (A) (A) (A)
                 (A) (A) (A) (A) (A) (A) (A) (A) (A) (A) (A) (A)
                 (A) (A) (A) (A) (A) (A) (A) (A) (A) (A) (A) (A)
                 (A) (A) (A) (A) (A) (A) (A) (A) (A) (A) (A) (A)
                 (A) (A) (A) (A) (A) (A) (A) (A) (A) (A) (A) (A)
                 (A) (A) (A) (A) (A) (A) (A) (A) (A) (A) (A) (A)
                 (A) (A)
       Virtual   (A) (A) (A) (A) (A) (A) (A) (A) (A) (A) (A) (A)
                 (A) (A) (A) (A) (A) (A) (A) (A) (A) (A) (A) (A)
                 (A) (A) (A) (A) (A) (A) (A) (A) (A) (A) (A) (A)
                 (A) (A) (A) (A) (A) (A) (A) (A) (A) (A) (A) (A)
                 (A) (A) (A) (A) (A) (A) (A) (A) (A) (A) (A) (A)
                 (A) (A) (A) (A) (A) (A) (A) (A) (A) (A) (A) (A)
                 (A) (A) (A) (A) (A) (A) (A) (A) (A) (A) (A) (A)
                 (A) (A) (A) (A) (A) (A) (A) (A) (A) (A) (A) (A)
                 (A) (A) (A) (A) (A) (A) (A) (A) (A) (A) (A) (A)
                 (A) (A) (A) (A) (A) (A) (A) (A) (A) (A) (A) (A)
                 (A) (A) (A) (A) (A) (A) (A) (A) (A) (A) (A) (A)
                 (A) (A) (A) (A) (A) (A) (A) (A) (A) (A) (A) (A)
                 (A) (A) (A) (A) (A) (A) (A) (A) (A) (A) (A) (A)
                 (A) (A) (A) (A) (A) (A) (A) (A) (A) (A) (A) (A)
                 (A) (A) (A) (A) (A) (A) (A) (A) (A) (A) (A) (A)
                 (A) (A) (A) (A) (A) (A) (A) (A) (A) (A) (A) (A)
                 (A) (A) (A) (A) (A) (A) (A) (A) (A) (A) (A) (A)
                 (A) (A) (A) (A) (A) (A) (A) (A) (A) (A) (A) (A)
                 (A) (A) (A) (A) (A) (A) (A) (A) (A) (A) (A) (A)
                 (A) (A) (A) (A) (A) (A) (A) (A) (A) (A) (A) (A)
                 (A) (A) (A) (A) (A) (A) (A) (A) (A) (A) (A) (A)
                 (A) (A) (A) (A) (A) (A) (A) (A) (A) (A) (A) (A)
                 (A) (A) (A) (A) (A) (A) (A) (A) (A) (A) (A) (A)
                 (A) (A) (A) (A) (A) (A) (A) (A) (A) (A) (A) (A)
                 (A) (A) (A) (A) (A) (A) (A) (A) (A) (A) (A) (A)
                 (A) (A) (A) (A) (A) (A) (A) (A) (A) (A) (A) (A)
                 (A) (A) (A) (A) (A) (A) (A) (A) (A) (A) (A) (A)
                 (A) (A) (A) (A) (A) (A) (A) (A) (A) (A) (A) (A)
                 (A) (A) (A) (A) (A) (A) (A) (A) (A) (A) (A) (A)
                 (A) (A) (A) (A) (A) (A) (A) (A) (A) (A) (A) (A)
                 (A) (A) (A) (A) (A) (A) (A) (A) (A) (A) (A) (A)
                 (A) (A) (A) (A) (A) (A) (A) (A) (A) (A) (A) (A)
                 (A) (A) (A) (A) (A) (A) (A) (A) (A) (A) (A) (A)
                 (A) (A) (A) (A) (A) (A) (A) (A) (A) (A) (A) (A)
                 (A) (A) (A) (A) (A) (A) (A) (A) (A) (A) (A) (A)
                 (A) (A) (A) (A) (A) (A) (A) (A) (A) (A) (A) (A)
                 (A) (A) (A) (A) (A) (A) (A) (A) (A) (A) (A) (A)
                 (A) (A) (A) (A) (A) (A) (A) (A) (A) (A) (A) (A)
                 (A) (A) (A) (A) (A) (A) (A) (A) (A) (A) (A) (A)
                 (A) (A) (A) (A) (A) (A) (A) (A) (A) (A) (A) (A)
                 (A) (A) (A) (A) (A) (A) (A) (A) (A) (A) (A) (A)
                 (A) (A) (A) (A) (A) (A) (A) (A) (A) (A) (A) (A)
                 (A) (A) (A) (A) (A) (A) (A) (A) (A) (A) (A) (A)
                 (A) (A) (A) (A) (A) (A) (A) (A) (A) (A) (A) (A)
                 (A) (A) (A) (A) (A) (A) (A) (A) (A) (A) (A) (A)
                 (A) (A) (A) (A) (A) (A) (A) (A) (A) (A) (A) (A)
                 (A) (A) (A) (A) (A) (A) (A) (A) (A) (A) (A) (A)
                 (A) (A) (A) (A) (A) (A) (A) (A) (A) (A) (A) (A)
                 (A) (A) (A) (A) (A) (A) (A) (A) (A) (A) (A) (A)
                 (A) (A) (A) (A) (A) (A) (A) (A) (A) (A) (A) (A)
                 (A) (A) (A) (A) (A) (A) (A) (A) (A) (A) (A) (A)
                 (A) (A) (A) (A) (A) (A) (A) (A) (A) (A) (A) (A)
                 (A) (A) (A) (A) (A) (A) (A) (A) (A) (A) (A) (A)
                 (A) (A) (A) (A) (A) (A) (A) (A) (A)
 The electronic state is 2-A.
 Alpha  occ. eigenvalues --  -10.21011 -10.20484 -10.20219 -10.20002 -10.19901
 Alpha  occ. eigenvalues --  -10.19889 -10.19694 -10.19630 -10.19544 -10.19502
 Alpha  occ. eigenvalues --  -10.19345 -10.19316 -10.19291 -10.19283 -10.19129
 Alpha  occ. eigenvalues --  -10.19092 -10.19042 -10.19030 -10.18923 -10.18880
 Alpha  occ. eigenvalues --  -10.18862 -10.18807 -10.18543 -10.18530 -10.18495
 Alpha  occ. eigenvalues --  -10.18428 -10.18311 -10.17166 -10.17033 -10.16844
 Alpha  occ. eigenvalues --   -0.91195  -0.88678  -0.86220  -0.84612  -0.83760
 Alpha  occ. eigenvalues --   -0.81765  -0.80085  -0.78765  -0.78454  -0.77282
 Alpha  occ. eigenvalues --   -0.75435  -0.74056  -0.72481  -0.70153  -0.69895
 Alpha  occ. eigenvalues --   -0.66692  -0.64928  -0.63636  -0.62963  -0.61847
 Alpha  occ. eigenvalues --   -0.60526  -0.59646  -0.58742  -0.56200  -0.54344
 Alpha  occ. eigenvalues --   -0.53311  -0.52499  -0.51100  -0.51009  -0.49534
 Alpha  occ. eigenvalues --   -0.49421  -0.47294  -0.46841  -0.46707  -0.45558
 Alpha  occ. eigenvalues --   -0.45228  -0.44260  -0.43917  -0.43264  -0.42892
 Alpha  occ. eigenvalues --   -0.42533  -0.42022  -0.41680  -0.40971  -0.40414
 Alpha  occ. eigenvalues --   -0.39975  -0.39778  -0.39484  -0.38667  -0.37437
 Alpha  occ. eigenvalues --   -0.37056  -0.36397  -0.35793  -0.35760  -0.34655
 Alpha  occ. eigenvalues --   -0.34323  -0.33610  -0.33226  -0.31975  -0.31403
 Alpha  occ. eigenvalues --   -0.30679  -0.29366  -0.28283  -0.26825  -0.24012
 Alpha  occ. eigenvalues --   -0.22895  -0.20516  -0.20010  -0.17486
 Alpha virt. eigenvalues --   -0.09894  -0.07037  -0.04823  -0.03766  -0.01790
 Alpha virt. eigenvalues --   -0.00145   0.00190   0.00647   0.00723   0.01367
 Alpha virt. eigenvalues --    0.01610   0.01644   0.02112   0.02304   0.02625
 Alpha virt. eigenvalues --    0.02945   0.03227   0.03966   0.04035   0.04334
 Alpha virt. eigenvalues --    0.04451   0.04803   0.05184   0.05652   0.06094
 Alpha virt. eigenvalues --    0.06386   0.06748   0.06851   0.07035   0.07656
 Alpha virt. eigenvalues --    0.07859   0.08277   0.08860   0.08957   0.09304
 Alpha virt. eigenvalues --    0.09675   0.09852   0.10189   0.10742   0.11049
 Alpha virt. eigenvalues --    0.11089   0.11232   0.11509   0.11972   0.12364
 Alpha virt. eigenvalues --    0.12591   0.13104   0.13512   0.13847   0.14042
 Alpha virt. eigenvalues --    0.14158   0.14460   0.14785   0.14963   0.15467
 Alpha virt. eigenvalues --    0.15589   0.15817   0.16129   0.16307   0.16517
 Alpha virt. eigenvalues --    0.16612   0.16840   0.17229   0.17319   0.17421
 Alpha virt. eigenvalues --    0.17534   0.17769   0.17961   0.18221   0.18424
 Alpha virt. eigenvalues --    0.18670   0.18757   0.19035   0.19155   0.19326
 Alpha virt. eigenvalues --    0.19612   0.19711   0.19838   0.19989   0.20250
 Alpha virt. eigenvalues --    0.20663   0.20744   0.21110   0.21200   0.21469
 Alpha virt. eigenvalues --    0.21587   0.21798   0.22072   0.22279   0.22421
 Alpha virt. eigenvalues --    0.22847   0.23077   0.23204   0.23272   0.23669
 Alpha virt. eigenvalues --    0.23753   0.23926   0.24163   0.24349   0.24686
 Alpha virt. eigenvalues --    0.24749   0.25116   0.25361   0.25741   0.26107
 Alpha virt. eigenvalues --    0.26162   0.26341   0.26647   0.27062   0.27150
 Alpha virt. eigenvalues --    0.27445   0.27820   0.27969   0.28363   0.28542
 Alpha virt. eigenvalues --    0.28871   0.28907   0.29296   0.29549   0.29627
 Alpha virt. eigenvalues --    0.29894   0.30015   0.30080   0.30349   0.30582
 Alpha virt. eigenvalues --    0.31081   0.31314   0.32075   0.32391   0.32726
 Alpha virt. eigenvalues --    0.33008   0.33164   0.33507   0.33895   0.34092
 Alpha virt. eigenvalues --    0.34730   0.34912   0.35195   0.35418   0.35998
 Alpha virt. eigenvalues --    0.36290   0.36811   0.36982   0.37658   0.38209
 Alpha virt. eigenvalues --    0.38804   0.39529   0.39582   0.39936   0.40116
 Alpha virt. eigenvalues --    0.41516   0.42060   0.42702   0.42882   0.43753
 Alpha virt. eigenvalues --    0.44374   0.44905   0.45655   0.45813   0.46307
 Alpha virt. eigenvalues --    0.47561   0.48294   0.49013   0.49128   0.49441
 Alpha virt. eigenvalues --    0.51222   0.51470   0.51643   0.52120   0.52688
 Alpha virt. eigenvalues --    0.53336   0.53924   0.54242   0.54803   0.55101
 Alpha virt. eigenvalues --    0.55318   0.55833   0.56181   0.56437   0.56687
 Alpha virt. eigenvalues --    0.56918   0.57553   0.57688   0.58221   0.58557
 Alpha virt. eigenvalues --    0.58850   0.59399   0.59723   0.60298   0.60682
 Alpha virt. eigenvalues --    0.60912   0.61008   0.61633   0.61803   0.62451
 Alpha virt. eigenvalues --    0.62993   0.63316   0.63561   0.64094   0.64395
 Alpha virt. eigenvalues --    0.64941   0.65698   0.66110   0.66477   0.66760
 Alpha virt. eigenvalues --    0.66890   0.67456   0.67695   0.68257   0.68942
 Alpha virt. eigenvalues --    0.69023   0.69296   0.69689   0.69909   0.70233
 Alpha virt. eigenvalues --    0.70271   0.70921   0.71189   0.71794   0.72033
 Alpha virt. eigenvalues --    0.72539   0.72976   0.73257   0.73397   0.73497
 Alpha virt. eigenvalues --    0.74137   0.74354   0.74625   0.74955   0.75347
 Alpha virt. eigenvalues --    0.76290   0.76418   0.76775   0.77144   0.77518
 Alpha virt. eigenvalues --    0.77713   0.78265   0.79085   0.79496   0.80233
 Alpha virt. eigenvalues --    0.80617   0.81122   0.81462   0.82094   0.82972
 Alpha virt. eigenvalues --    0.83314   0.83989   0.84276   0.84446   0.85219
 Alpha virt. eigenvalues --    0.85689   0.86149   0.86774   0.87003   0.88205
 Alpha virt. eigenvalues --    0.88437   0.88957   0.89215   0.89973   0.91535
 Alpha virt. eigenvalues --    0.91692   0.91907   0.92831   0.93596   0.93920
 Alpha virt. eigenvalues --    0.94083   0.94358   0.95006   0.95397   0.95729
 Alpha virt. eigenvalues --    0.95975   0.96329   0.97108   0.97325   0.97841
 Alpha virt. eigenvalues --    0.98234   0.98472   0.99103   0.99440   0.99911
 Alpha virt. eigenvalues --    1.00987   1.01655   1.01805   1.01856   1.02054
 Alpha virt. eigenvalues --    1.02568   1.03868   1.04107   1.04309   1.05653
 Alpha virt. eigenvalues --    1.06470   1.07091   1.07575   1.07756   1.07937
 Alpha virt. eigenvalues --    1.08711   1.08958   1.09579   1.10669   1.11226
 Alpha virt. eigenvalues --    1.11926   1.12106   1.13138   1.14361   1.14533
 Alpha virt. eigenvalues --    1.14865   1.15847   1.16270   1.17166   1.18609
 Alpha virt. eigenvalues --    1.19315   1.19458   1.20760   1.21115   1.22383
 Alpha virt. eigenvalues --    1.23594   1.24189   1.26507   1.28400   1.29718
 Alpha virt. eigenvalues --    1.30732   1.32086   1.33359   1.34084   1.36892
 Alpha virt. eigenvalues --    1.37375   1.38526   1.39052   1.40564   1.41527
 Alpha virt. eigenvalues --    1.42867   1.44186   1.44396   1.45432   1.45569
 Alpha virt. eigenvalues --    1.46319   1.46923   1.47298   1.48195   1.48346
 Alpha virt. eigenvalues --    1.48879   1.49066   1.49622   1.50533   1.50962
 Alpha virt. eigenvalues --    1.51733   1.51813   1.52634   1.53450   1.53889
 Alpha virt. eigenvalues --    1.54551   1.55337   1.55818   1.56391   1.57189
 Alpha virt. eigenvalues --    1.58166   1.59064   1.59538   1.59962   1.60167
 Alpha virt. eigenvalues --    1.60931   1.61749   1.62172   1.63239   1.63440
 Alpha virt. eigenvalues --    1.64748   1.64881   1.65670   1.67630   1.67880
 Alpha virt. eigenvalues --    1.68946   1.69484   1.70047   1.71414   1.71855
 Alpha virt. eigenvalues --    1.72195   1.72676   1.72701   1.73804   1.74024
 Alpha virt. eigenvalues --    1.74726   1.76194   1.76734   1.77325   1.77835
 Alpha virt. eigenvalues --    1.78674   1.79228   1.79984   1.81018   1.81732
 Alpha virt. eigenvalues --    1.82386   1.82731   1.82981   1.83696   1.84048
 Alpha virt. eigenvalues --    1.85459   1.85679   1.86663   1.86920   1.87296
 Alpha virt. eigenvalues --    1.87914   1.89007   1.89464   1.90019   1.90109
 Alpha virt. eigenvalues --    1.90650   1.91468   1.91934   1.92066   1.92350
 Alpha virt. eigenvalues --    1.92884   1.93385   1.93501   1.94636   1.95144
 Alpha virt. eigenvalues --    1.95513   1.96836   1.97087   1.98578   1.99043
 Alpha virt. eigenvalues --    1.99307   2.00882   2.01316   2.01663   2.02633
 Alpha virt. eigenvalues --    2.03349   2.03544   2.04235   2.04827   2.05832
 Alpha virt. eigenvalues --    2.06094   2.07421   2.07795   2.10110   2.10237
 Alpha virt. eigenvalues --    2.10809   2.12117   2.12890   2.13300   2.14155
 Alpha virt. eigenvalues --    2.15024   2.15224   2.15978   2.17707   2.18362
 Alpha virt. eigenvalues --    2.19018   2.19886   2.20562   2.23112   2.23959
 Alpha virt. eigenvalues --    2.24169   2.25536   2.26065   2.26787   2.26939
 Alpha virt. eigenvalues --    2.27734   2.30267   2.32074   2.32656   2.34283
 Alpha virt. eigenvalues --    2.35277   2.37059   2.37469   2.38442   2.40308
 Alpha virt. eigenvalues --    2.41387   2.41788   2.42655   2.43529   2.44340
 Alpha virt. eigenvalues --    2.44586   2.46162   2.47709   2.48695   2.51889
 Alpha virt. eigenvalues --    2.52929   2.53471   2.55144   2.56183   2.56589
 Alpha virt. eigenvalues --    2.57900   2.58816   2.59674   2.60607   2.61914
 Alpha virt. eigenvalues --    2.62638   2.63915   2.64564   2.65118   2.67724
 Alpha virt. eigenvalues --    2.69038   2.69930   2.70777   2.71035   2.71359
 Alpha virt. eigenvalues --    2.72095   2.72275   2.72593   2.73156   2.73435
 Alpha virt. eigenvalues --    2.73636   2.74451   2.74586   2.75106   2.75862
 Alpha virt. eigenvalues --    2.76007   2.76313   2.76783   2.77096   2.77622
 Alpha virt. eigenvalues --    2.77961   2.78205   2.78515   2.78752   2.79278
 Alpha virt. eigenvalues --    2.79767   2.81592   2.82682   2.84046   2.84315
 Alpha virt. eigenvalues --    2.85346   2.85932   2.86563   2.86791   2.87459
 Alpha virt. eigenvalues --    2.87789   2.88929   2.89310   2.90823   2.92806
 Alpha virt. eigenvalues --    2.94012   2.95614   2.95793   2.97585   2.99193
 Alpha virt. eigenvalues --    3.00326   3.01122   3.01363   3.03265   3.05003
 Alpha virt. eigenvalues --    3.05498   3.06923   3.09007   3.09145   3.10331
 Alpha virt. eigenvalues --    3.11612   3.12879   3.14402   3.14601   3.15484
 Alpha virt. eigenvalues --    3.16890   3.18212   3.18668   3.20364   3.20733
 Alpha virt. eigenvalues --    3.23966   3.27159   3.27503   3.30755   3.31253
 Alpha virt. eigenvalues --    3.33255   3.33559   3.34562   3.36202   3.37339
 Alpha virt. eigenvalues --    3.38902   3.39764   3.40092   3.40762   3.42187
 Alpha virt. eigenvalues --    3.43850   3.46215   3.47164   3.49173   3.49617
 Alpha virt. eigenvalues --    3.51494   3.53838   3.55843   3.60840   3.64022
 Alpha virt. eigenvalues --    3.64424   3.65120   3.67645   3.71044   3.75338
 Alpha virt. eigenvalues --    3.77943   3.82011   3.83838   3.84418   3.93678
 Alpha virt. eigenvalues --    3.99358   4.01388   4.05408   4.06061   4.07417
 Alpha virt. eigenvalues --    4.07812   4.07933   4.10027   4.13978   4.18358
 Alpha virt. eigenvalues --    4.19819   4.26024   4.28684   4.34552   4.39642
 Alpha virt. eigenvalues --    4.60218   4.63532   4.65715   4.69547   4.72422
 Alpha virt. eigenvalues --    4.74073   4.75774   4.77340   4.81836  23.44636
 Alpha virt. eigenvalues --   23.59453  23.71361  23.75373  23.77215  23.77903
 Alpha virt. eigenvalues --   23.79472  23.80716  23.83113  23.83232  23.88242
 Alpha virt. eigenvalues --   23.89499  23.90489  23.90619  23.91517  23.92111
 Alpha virt. eigenvalues --   23.93673  23.94923  23.95290  24.10043  24.14606
 Alpha virt. eigenvalues --   24.16386  24.17768  24.19124  24.20121  24.21040
 Alpha virt. eigenvalues --   24.21768  24.23383  24.25563  24.29310
  Beta  occ. eigenvalues --  -10.21107 -10.20397 -10.20264 -10.20029 -10.19952
  Beta  occ. eigenvalues --  -10.19846 -10.19783 -10.19424 -10.19376 -10.19309
  Beta  occ. eigenvalues --  -10.19306 -10.19244 -10.19243 -10.19184 -10.19057
  Beta  occ. eigenvalues --  -10.19049 -10.19024 -10.18934 -10.18914 -10.18873
  Beta  occ. eigenvalues --  -10.18796 -10.18658 -10.18534 -10.18490 -10.18464
  Beta  occ. eigenvalues --  -10.18357 -10.18159 -10.17224 -10.17039 -10.16806
  Beta  occ. eigenvalues --   -0.91150  -0.88423  -0.86131  -0.84546  -0.83580
  Beta  occ. eigenvalues --   -0.81581  -0.79928  -0.78613  -0.78289  -0.77005
  Beta  occ. eigenvalues --   -0.75307  -0.73924  -0.72342  -0.69967  -0.69757
  Beta  occ. eigenvalues --   -0.66610  -0.64652  -0.63210  -0.62909  -0.61679
  Beta  occ. eigenvalues --   -0.60295  -0.59567  -0.58637  -0.56126  -0.54072
  Beta  occ. eigenvalues --   -0.53191  -0.52414  -0.51034  -0.50923  -0.49479
  Beta  occ. eigenvalues --   -0.49319  -0.47164  -0.46785  -0.46651  -0.45196
  Beta  occ. eigenvalues --   -0.44503  -0.43927  -0.43796  -0.43113  -0.42801
  Beta  occ. eigenvalues --   -0.42447  -0.41976  -0.41613  -0.40869  -0.40154
  Beta  occ. eigenvalues --   -0.39806  -0.39713  -0.39370  -0.38561  -0.37362
  Beta  occ. eigenvalues --   -0.36906  -0.36358  -0.35662  -0.35633  -0.34581
  Beta  occ. eigenvalues --   -0.34220  -0.33553  -0.33013  -0.31930  -0.31218
  Beta  occ. eigenvalues --   -0.30025  -0.28773  -0.28116  -0.26379  -0.23510
  Beta  occ. eigenvalues --   -0.22757  -0.20564  -0.19051
  Beta virt. eigenvalues --   -0.10195  -0.09094  -0.06261  -0.04642  -0.03518
  Beta virt. eigenvalues --   -0.01488  -0.00102   0.00589   0.00715   0.00992
  Beta virt. eigenvalues --    0.01440   0.01641   0.01769   0.02306   0.02404
[...]
 1,0.00000743,0.00000584,-0.00002936,0.00001730,0.00001083,-0.00000727,
 -0.00000696,-0.00002463,-0.00001702,-0.00002903,-0.00001482,-0.0000655
 6,-0.00011216,0.00011751,0.00023328,0.00030569,0.00005854,0.04905937,-
 0.00003729,0.00009497,-0.00002250,-0.00005728,-0.00008731,0.00005568,-
 0.00001522,0.00003763,0.00001971,-0.00000428,-0.00004836,0.00003242,-0
 .00001925,0.00001284,-0.00001271,-0.00002951,-0.00000545,0.00000606,0.
 00000208,0.00000822,0.00000225,0.00000652,-0.00000232,0.00000666,0.000
 01652,-0.00004053,0.00000322,-0.00002091,-0.00009419,0.00003114,0.0000
 2221,0.00006275,-0.00000786,-0.00004321,-0.00003401,0.00000519,-0.0000
 0445,-0.00005514,-0.00008967,0.00005625,0.00000932,0.00000615,-0.00000
 031,-0.00001602,-0.00000400,0.00002603,0.00035874,-0.00010351,0.000038
 79,-0.00010863,-0.00002303,0.00002242,0.00008267,-0.00002198,0.0009511
 6,0.00022817,0.00016729,0.00000338,-0.00012775,0.00012290,0.00005039,-
 0.00001498,-0.00005361,-0.00000637,0.00001352,-0.00000542,-0.00055748,
 -0.00233661,0.00006482,0.00001354,0.00075339,0.00010117,-0.00016299,0.
 00007254,0.00007468,0.00019721,0.00017146,-0.00006500,0.00239379,-0.00
 403066,0.00024495,0.00072252,0.00138107,0.03240996,0.00124295,-0.04544
 839,-0.01982349,0.00019907,0.00013902,-0.01833339,0.00002284,0.0000204
 0,0.00009220,-0.00000302,-0.00000368,-0.00000330,-0.00000233,-0.000001
 56,-0.00000401,0.00000053,-0.00000285,-0.00000261,-0.00000136,-0.00000
 152,-0.00000259,0.00000318,-0.00000316,-0.00000415,0.00000551,-0.00000
 311,0.00000266,0.00000611,-0.00000438,0.00000585,0.00002224,-0.0000099
 3,0.00000163,-0.00002172,0.00000943,0.00000341,0.00002199,0.00003547,-
 0.00009551,-0.00161316,-0.00075467,-0.00108163,0.00002268,0.00026414,-
 0.00119534,0.00032621,0.05084160,0.00002232,0.00004710,0.00005353,0.00
 001839,-0.00002733,0.00003860,0.00000476,-0.00004323,0.00000909,-0.000
 01950,-0.00002786,-0.00000620,0.00003032,0.00000709,-0.00000290,-0.000
 02422,0.00000540,0.00000366,-0.00000289,-0.00000693,0.00000276,-0.0000
 0427,0.00001090,0.00000401,0.00004659,-0.00007048,0.00001790,-0.000093
 43,-0.00011705,0.00001547,0.00002444,0.00010802,-0.00000523,-0.0000904
 6,-0.00003705,0.00000189,0.00002302,0.00002587,-0.00001165,0.00002645,
 0.00000668,0.00001945,-0.00000796,-0.00001229,0.00000384,-0.00005314,0
 .00025470,-0.00007342,-0.00003398,-0.00018728,0.00003532,0.00005131,0.
 00014674,-0.00002038,0.00014486,0.00005693,-0.00030608,0.00032259,0.00
 043537,-0.00010559,0.00006453,-0.00004515,0.00006685,0.00008677,0.0000
 9649,-0.00004700,-0.00131182,-0.00275395,0.00022417,0.00177274,-0.0001
 9031,-0.00158275,-0.00165673,0.00002438,0.00083237,0.00085411,-0.00095
 325,-0.00018420,-0.00410155,0.00174477,0.00150843,0.00139277,0.0056609
 7,-0.01410628,-0.02840720,-0.02012866,-0.26708466,0.00683857,-0.004176
 52,-0.01113608,0.00001817,0.00002923,0.00006144,-0.00000764,-0.0000065
 8,-0.00000647,-0.00000716,-0.00000360,-0.00000583,-0.00000154,-0.00000
 866,-0.00000259,-0.00000365,-0.00000755,-0.00000294,0.00000825,-0.0000
 0648,-0.00000432,0.00000899,-0.00000476,0.00000083,0.00000519,-0.00001
 572,-0.00001056,0.00002477,-0.00000605,-0.00000151,0.00003346,-0.00001
 043,0.00002135,-0.00000035,0.00003013,0.00006370,0.00053496,0.00021987
 ,0.00021849,0.00009968,0.00065419,0.00040849,0.02652655,0.02140290,0.2
 9902549,0.00042416,-0.00033483,-0.00012760,0.00065594,0.00065453,0.000
 32850,-0.00006511,0.00037323,0.00001214,-0.00013085,-0.00026127,0.0000
 5114,-0.00001231,-0.00000382,-0.00002011,-0.00004320,0.00003669,-0.000
 02311,-0.00003999,-0.00006978,0.00000218,-0.00003643,0.00004809,-0.000
 00671,0.00004187,0.00000047,0.00000087,0.00015372,0.00005359,-0.000078
 40,-0.00003966,0.00002369,-0.00000510,0.00000055,-0.00003754,0.0000015
 8,-0.00042571,-0.00018052,-0.00052274,0.00004863,0.00014109,-0.0000147
 7,-0.00002648,-0.00011620,0.00001747,-0.00025524,-0.00019667,0.0002263
 5,-0.00039301,0.00032420,-0.00007564,0.00001805,-0.00016839,0.00008227
 ,0.00019158,-0.00156005,-0.00236353,-0.00059554,-0.00082202,0.00024161
 ,0.00008654,0.00000310,0.00007159,0.00000771,-0.00004162,-0.00001462,0
 .00298604,-0.02027628,0.01011568,-0.00074386,0.00113011,0.00573833,0.0
 0045908,-0.00083894,-0.00004810,-0.00014001,0.00052417,0.00005119,0.00
 001901,0.00002420,-0.00049294,-0.00299514,0.00148987,0.00366803,0.0014
 7527,0.02090082,-0.00909719,-0.04472854,0.01461410,0.00793224,-0.00000
 900,0.00013203,-0.00001277,0.00000502,0.00000583,-0.00000651,0.0000009
 0,0.00000286,-0.00000065,-0.00000540,-0.00000017,-0.00000287,-0.000005
 84,0.00000134,-0.00000011,-0.00000280,-0.00000376,0.00000146,0.0000012
 3,-0.00001624,0.00000693,0.00001573,0.00001485,0.00000171,0.00000092,0
 .00000174,-0.00000456,-0.00000987,0.00003674,0.00001428,-0.00034080,-0
 .00023495,-0.00011653,-0.00004296,-0.00014417,-0.00029425,0.00014229,0
 .00126536,-0.00045534,0.00046690,0.00015414,0.00071485,0.04286580,-0.0
 0057818,-0.00148511,-0.00209740,0.00031511,-0.00154657,-0.00144856,0.0
 0002320,-0.00018909,-0.00008571,0.00013539,0.00029688,-0.00019306,-0.0
 0001422,-0.00018851,0.00011128,-0.00017166,0.00010389,-0.00003099,0.00
 004672,-0.00007583,0.00001601,-0.00007597,-0.00000361,-0.00002753,0.00
 004364,0.00008082,0.00001852,0.00004354,-0.00004562,0.00007193,-0.0000
 0135,-0.00005598,-0.00000421,0.00004257,0.00000197,-0.00000726,-0.0000
 9723,-0.00042684,-0.00038628,0.00032319,0.00009720,0.00001679,-0.00000
 924,-0.00018477,0.00006179,0.00087563,0.00052085,-0.00112395,-0.000200
 91,0.00029101,0.00007302,-0.00005176,-0.00004803,-0.00003497,0.0005057
 3,-0.00153018,-0.00175128,-0.00034004,-0.00019956,0.00024383,-0.000015
 39,-0.00004780,-0.00000185,-0.00000339,-0.00001926,0.00001788,-0.00028
 255,-0.00523069,0.00407253,0.00050288,0.00248663,0.00171694,-0.0000779
 9,-0.00027452,0.00026576,0.00024482,0.00015830,-0.00004191,0.00001476,
 0.00021041,-0.00035353,0.00292580,0.00030251,-0.00193605,-0.00077437,-
 0.01243072,0.00687608,0.01258508,-0.29773510,0.10757827,0.00003217,0.0
 0001518,0.00011914,0.00000197,-0.00000613,0.00000355,0.00000020,0.0000
 0003,0.00000850,0.00000247,0.00000197,0.00000063,0.00000190,0.00000264
 ,-0.00000003,-0.00000255,0.00000469,0.00000792,-0.00000524,-0.00000495
 ,-0.00001824,0.00000338,0.00001091,0.00001359,-0.00001857,0.00000780,0
 .00000637,-0.00002983,0.00000200,0.00000183,-0.00016914,-0.00006760,-0
 .00016128,-0.00007096,-0.00008863,-0.00005010,-0.00009707,-0.00067705,
 0.00053564,-0.00024228,0.00014654,-0.00018198,-0.01596828,0.31763852,-
 0.00024614,-0.00086783,-0.00076836,0.00033896,-0.00087506,-0.00043965,
 -0.00017354,-0.00040409,0.00025264,0.00007337,-0.00030938,0.00010502,0
 .00006288,0.00020500,-0.00009402,0.00003935,0.00008781,-0.00001092,0.0
 0002224,-0.00003969,0.00000836,-0.00001396,0.00000890,-0.00000099,0.00
 008331,-0.00010412,0.00000865,-0.00019682,-0.00004999,0.00001653,0.000
 00515,0.00005684,-0.00002351,-0.00008595,-0.00002480,-0.00000609,-0.00
 041909,-0.00004568,-0.00050931,0.00003559,0.00006385,0.00003467,0.0000
 4521,-0.00005553,0.00000416,0.00114399,0.00023195,-0.00110211,0.000057
 06,-0.00002841,0.00015312,-0.00004326,0.00016080,-0.00006657,-0.001208
 46,-0.00153538,-0.00195148,-0.00050048,-0.00068631,0.00040565,-0.00008
 623,-0.00002530,0.00007835,0.00007183,-0.00005506,-0.00001253,-0.00358
 959,0.02114851,-0.00104652,0.00613413,0.00128105,0.00129386,-0.0005920
 9,0.00160473,0.00003407,-0.00005192,0.00034995,0.00002322,0.00044995,-
 0.00041618,-0.00078191,0.00271201,-0.00093264,0.00005241,0.00048787,-0
 .01183986,0.00611703,0.01041727,0.10470269,-0.08436031,0.00005213,0.00
 010832,-0.00006068,0.00001357,0.00000779,-0.00000292,0.00001134,0.0000
 0822,-0.00000200,0.00000316,0.00001282,0.00000009,-0.00000371,0.000015
 23,0.00000150,-0.00000793,0.00001061,-0.00000104,-0.00000809,-0.000000
 20,-0.00000853,-0.00001525,-0.00000546,0.00001625,-0.00000527,-0.00000
 786,-0.00000077,0.00002568,-0.00002097,-0.00000935,0.00024785,0.000088
 18,-0.00045449,-0.00024643,-0.00003655,-0.00020368,0.00019187,-0.00061
 934,0.00057967,-0.00097106,0.00072095,0.00076222,-0.01496178,-0.111945
 60,0.08162868,-0.00466993,-0.00249433,-0.00180527,0.00030776,0.0007714
 0,-0.00045300,-0.00051602,0.00009716,-0.00004651,-0.00038192,-0.001028
 54,0.00042450,-0.00011640,0.00017906,-0.00000603,0.00032148,-0.0032615
 8,-0.00125290,0.00056347,-0.00009601,-0.00000499,0.00010420,-0.0001636
 1,0.00017341,-0.00016714,-0.00010924,-0.00005695,0.00008065,0.00010129
 ,0.00007109,-0.00007275,-0.00003442,0.00000155,0.00005225,0.00002077,0
 .00001475,-0.01445484,0.02207778,-0.01048909,-0.15944957,0.11844241,-0
 .06412314,0.00983003,-0.00985025,0.00439259,-0.00001009,0.00028605,-0.
 00006344,-0.00003267,-0.00004909,-0.00000899,-0.00006176,0.00002877,-0
 .00000767,-0.00001586,-0.00005337,0.00002613,0.00003982,0.00000970,-0.
 00002246,-0.00002012,-0.00000388,0.00000840,0.00001204,0.00002983,0.00
 000173,-0.00003936,-0.00002691,0.00003854,-0.00002884,0.00002265,0.000
 01815,-0.00001599,-0.00001326,0.00001490,0.00000581,-0.00004083,0.0000
 0845,-0.00001445,0.00001872,0.00003497,0.00007380,-0.00003249,0.000021
 55,-0.00004911,-0.00000747,-0.00002338,-0.00000307,0.00008543,-0.00003
 159,0.00070744,-0.00001631,0.00097053,0.00049394,0.00067413,0.00129801
 ,-0.00000414,0.00001074,-0.00002733,0.00004545,-0.00003572,0.00002928,
 -0.00000273,0.00001005,-0.00000014,-0.00000183,0.00001994,-0.00002267,
 -0.00001060,0.00000145,0.00000219,-0.00001316,-0.00000217,0.00000329,-
 0.00000424,-0.00000596,-0.00000036,-0.00000164,-0.00000548,0.00000226,
 -0.00000493,-0.00001215,-0.00000058,-0.00000439,-0.00001988,-0.0000076
 6,0.00000088,-0.00002334,-0.00001789,0.00002257,0.00000977,0.00000314,
 0.00000416,-0.00000609,0.00003149,0.16746696,-0.00231860,0.00080903,0.
 00054566,-0.00020934,0.00044723,-0.00002721,-0.00012242,-0.00001449,-0
 .00003733,-0.00069469,-0.00019652,-0.00037841,-0.00000833,0.00016085,-
 0.00008751,-0.00366152,-0.00394065,0.00204635,0.00116583,0.00004398,0.
 00047403,-0.00001356,-0.00052766,-0.00008209,-0.00024946,-0.00008227,0
 .00001469,0.00008874,0.00006915,-0.00007228,-0.00002613,-0.00004581,0.
 00000580,0.00005475,0.00004652,-0.00000006,-0.00697698,0.00793428,-0.0
 0333280,0.11834281,-0.19518736,0.07397068,0.01938226,-0.01706123,0.010
 53964,0.00004676,-0.00000531,0.00000441,-0.00001091,0.00003498,0.00002
 948,-0.00003165,-0.00004284,0.00000191,-0.00000239,0.00000666,-0.00001
 725,0.00000613,-0.00001265,0.00000275,0.00000057,0.00001832,-0.0000054
 7,-0.00002694,-0.00000745,0.00000317,0.00001314,0.00002043,-0.00001325
 ,-0.00001465,-0.00000980,0.00000545,0.00001369,-0.00000195,-0.00000470
 ,-0.00001031,0.00001856,-0.00000122,-0.00000062,-0.00001043,0.00002288
 ,0.00001696,0.00000664,0.00000010,0.00000325,0.00000953,-0.00000013,-0
 .00001021,-0.00001021,0.00000728,0.00063320,0.00056037,-0.00085858,0.0
 0007687,0.00058450,-0.00140975,-0.00005469,-0.00002855,0.00001542,0.00
 011693,-0.00009389,0.00000457,-0.00000015,-0.00000769,-0.00000026,0.00
 000753,0.00000641,0.00002160,0.00000515,-0.00000184,-0.00000292,0.0000
 0223,-0.00000359,0.00000015,0.00000319,0.00000382,-0.00000039,0.000004
 37,0.00000114,-0.00000096,-0.00000086,0.00000473,0.00000012,-0.0000019
 0,0.00000120,-0.00000278,-0.00000392,-0.00000235,-0.00000626,0.0000047
 2,0.00000229,0.00000665,0.00000377,0.00000333,-0.00000006,-0.12553900,
 0.20649850,-0.00172334,-0.00002788,0.00458352,-0.00007945,0.00030571,0
 .00048415,-0.00008555,-0.00003934,-0.00007455,0.00065464,-0.00026097,-
 0.00059971,0.00004720,-0.00003111,-0.00028198,-0.00104402,0.00218436,0
 .00699482,-0.00044253,0.00007784,0.00045407,0.00013467,0.00006811,-0.0
 0049624,0.00001644,0.00004500,0.00016317,-0.00007104,-0.00002063,-0.00
 023873,-0.00000392,-0.00000471,0.00000415,0.00001014,-0.00001480,-0.00
 001802,-0.00333080,0.00433758,0.00054552,-0.06373217,0.07473289,-0.071
 98180,-0.00357371,0.00216988,0.00177970,0.00002680,0.00014766,-0.00001
 870,0.00001139,-0.00004468,0.00002355,0.00000762,0.00003933,-0.0000181
 9,0.00001586,-0.00005896,-0.00001770,0.00002077,0.00002815,-0.00002418
 ,-0.00000950,-0.00001223,0.00000448,0.00001887,0.00001071,-0.00001472,
 -0.00006511,-0.00005090,0.00000673,-0.00000989,0.00005408,-0.00000697,
 -0.00003424,-0.00001307,0.00001329,0.00003399,-0.00004600,-0.00000537,
 -0.00002064,0.00002833,0.00000753,0.00005468,-0.00005627,0.00005327,-0
 .00012380,-0.00003891,-0.00002928,-0.00006848,0.00006291,-0.00001584,0
 .00090260,-0.00106696,-0.00262679,0.00146679,-0.00120335,-0.00415238,-
 0.00000471,0.00002278,0.00008388,-0.00000943,0.00000974,-0.00007465,-0
 .00000084,0.00000065,-0.00000152,-0.00000645,0.00001071,0.00007243,-0.
 00000199,0.00000160,0.00000232,-0.00000303,-0.00000108,0.00000397,0.00
 000145,-0.00000121,0.00000257,0.00000466,-0.00000164,0.00000400,-0.000
 00147,-0.00000011,0.00000545,0.00000397,-0.00000118,-0.00000607,-0.000
 00441,-0.00003263,-0.00001706,0.00003092,0.00001627,0.00000328,0.00000
 357,-0.00000773,0.00000868,0.07093834,-0.08135345,0.06550018,-0.000759
 66,0.00028941,-0.00011378,0.00031805,0.00011651,0.00001351,0.00003147,
 0.00004770,0.00000173,0.00004344,0.00015292,0.00002952,-0.00004457,-0.
 00002572,-0.00003955,0.00000011,-0.00006102,0.00001854,0.00004073,0.00
 010451,-0.00002375,0.00005186,-0.00005612,0.00001382,-0.00017484,0.000
 12854,-0.00002842,0.00024146,0.00022027,-0.00004202,-0.00004959,-0.000
 22105,0.00002332,0.00022414,0.00008397,0.00000636,0.00029596,-0.000355
 09,-0.00020893,0.00018537,-0.00006498,-0.00007480,0.00006623,0.0000730
 9,-0.00000205,-0.00018294,-0.00078701,0.00017402,-0.00003873,0.0002898
 5,-0.00000436,-0.00013751,-0.00029643,0.00004746,-0.00030754,0.0008192
 5,0.00084743,-0.00007356,-0.00022399,0.00011789,-0.00000165,0.00006437
 ,-0.00001961,-0.00006284,-0.00005992,0.00003452,-0.00016783,0.00310922
 ,-0.00302168,-0.00159373,-0.00038961,0.00067333,0.00143516,-0.00015672
 ,-0.00079830,-0.00083979,0.00060895,0.00019582,0.00205746,-0.00046861,
 -0.00222498,0.00232668,-0.00316728,0.00389158,-0.22803170,-0.09062080,
 -0.02777759,-0.02409596,-0.00522159,0.00403374,-0.00015294,0.00000309,
 0.00027191,-0.00000493,-0.00000159,0.00002476,0.00000033,-0.00000144,0
 .00000674,0.00000595,0.00000215,0.00000479,0.00000896,0.00000004,0.000
 00267,-0.00000444,0.00000504,0.00000541,-0.00000511,0.00000321,-0.0000
 0307,-0.00000430,0.00001139,0.00000170,-0.00001499,-0.00000059,-0.0000
 0795,0.00000332,0.00002240,0.00002598,0.00001379,-0.00002780,0.0000268
 2,-0.00010145,-0.00005847,-0.00006394,0.00040920,-0.00043944,0.0004481
 6,-0.00678109,-0.00395991,-0.00387505,0.00101663,0.00063410,0.00066981
 ,0.00003485,-0.00000361,0.00004512,0.25482055,0.00000691,0.00005975,0.
 00010377,0.00003569,-0.00012972,0.00010833,-0.00001074,0.00011836,-0.0
 0003343,-0.00000808,-0.00013462,0.00002429,-0.00004605,-0.00001837,-0.
 00001729,-0.00001336,0.00005936,-0.00001810,0.00000164,-0.00007170,0.0
 0000739,-0.00005422,0.00003170,-0.00001136,0.00004969,0.00003396,0.000
 00083,-0.00000283,-0.00007550,0.00002539,0.00001188,0.00004023,-0.0000
 0903,-0.00001445,-0.00003510,0.00000615,-0.00005470,-0.00006078,-0.000
 17335,-0.00004057,0.00010716,-0.00004170,-0.00000010,-0.00009410,0.000
 03499,0.00018257,0.00027675,-0.00010224,0.00002606,-0.00003731,0.00000
 956,0.00001002,0.00004628,-0.00002143,0.00009211,-0.00035099,-0.000783
 58,-0.00021516,-0.00025328,0.00014899,0.00003536,-0.00002706,0.0000174
 8,-0.00002016,-0.00002288,-0.00000542,0.00048485,-0.00156685,-0.000288
 24,-0.00034466,-0.00002615,-0.00065653,-0.00005758,0.00010475,0.000136
 49,0.00013918,0.00034014,-0.00013993,0.00223408,-0.00442374,0.00000250
 ,-0.02765110,-0.01360575,-0.00110005,-0.08785397,-0.09086436,-0.011757
 30,0.01718553,0.01084136,0.00145149,0.00000620,0.00007438,0.00003511,0
 .00000854,0.00000987,0.00000307,0.00000546,0.00000495,0.00000157,-0.00
 000099,0.00000430,-0.00000221,-0.00000162,0.00000577,-0.00000155,-0.00
 000254,0.00000035,-0.00000138,0.00000054,-0.00000264,0.00000324,0.0000
 0129,-0.00000069,0.00000262,0.00000504,-0.00000407,0.00001167,-0.00003
 775,0.00000095,-0.00001885,0.00005141,0.00004534,-0.00002120,0.0003419
 6,0.00026294,0.00188577,0.00090608,0.00066524,0.00018142,-0.00461941,-
 0.00151095,-0.00194524,-0.00068512,0.00017808,0.00005715,0.00003427,0.
 00000207,0.00003551,0.09987880,0.10000260,0.00016602,0.00003705,0.0000
 4693,0.00015971,-0.00007353,0.00007023,-0.00001082,0.00009143,-0.00002
 749,-0.00004162,-0.00000053,-0.00002978,-0.00000447,-0.00002757,-0.000
 00839,-0.00001777,0.00016558,-0.00007469,-0.00001519,-0.00014079,0.000
 01780,-0.00011429,0.00007392,-0.00004247,0.00009882,0.00008123,0.00001
 519,-0.00003701,-0.00004904,0.00001791,-0.00000024,0.00004534,-0.00001
 106,-0.00002462,-0.00002923,-0.00000273,-0.00024228,-0.00025218,0.0001
 6879,0.00003183,0.00012612,0.00001751,-0.00002013,-0.00016477,0.000041
 74,-0.00000873,0.00008053,-0.00004517,-0.00001269,-0.00004892,-0.00000
 090,0.00000493,0.00004858,-0.00001722,0.00006370,0.00004197,-0.0005300
 1,0.00007721,-0.00005201,0.00001614,0.00001411,0.00000485,-0.00000751,
 0.00002359,0.00000947,-0.00000973,0.00051124,-0.00188118,-0.00027202,0
 .00105494,0.00011306,-0.00018608,-0.00060659,0.00001974,0.00038590,0.0
 0038405,-0.00019796,-0.00007954,-0.00168637,0.00215906,0.00027700,0.01
 533527,0.00934091,-0.00068043,-0.02595358,-0.01185768,-0.03827481,0.01
 473438,0.00451368,-0.00074246,0.00022286,0.00009838,-0.00023171,0.0000
 1522,0.00001701,0.00001439,0.00000978,0.00000786,0.00000934,-0.0000047
 7,0.00000929,0.00000114,-0.00000314,0.00000847,0.00000076,-0.00000518,
 0.00000158,0.00000068,-0.00000225,-0.00000059,0.00000577,-0.00000134,-
 0.00000101,0.00000245,0.00000831,-0.00000624,0.00000645,-0.00000197,-0
 .00001445,-0.00001862,-0.00002528,-0.00000728,-0.00003698,-0.00011482,
 0.00003891,-0.00101774,-0.00042953,-0.00056296,0.00035457,-0.02960946,
 -0.01464480,-0.00869599,-0.00053802,0.00005169,0.00033291,-0.00005718,
 -0.00002765,-0.00008425,0.02667335,0.01285467,0.04932417\\0.00002009,-
 0.00000433,-0.00001563,-0.00002945,-0.00003225,0.00001116,-0.00000889,
 0.00000550,-0.00000074,0.00000892,-0.00001466,-0.00001585,-0.00001450,
 0.00002281,0.00001277,0.00000383,-0.00000162,0.00000133,-0.00000514,-0
 .00000347,-0.00000032,-0.00000661,-0.00000196,0.00001409,0.00001773,-0
 .00001583,0.00000090,0.00001033,-0.00000071,-0.00000171,0.00006137,0.0
 0000630,-0.00001215,-0.00005313,-0.00002209,0.00000654,-0.00001686,0.0
 0000751,0.00000875,-0.00000419,0.00002821,-0.00000762,-0.00003516,-0.0
 0001008,-0.00000235,0.00000399,0.00004837,0.00001258,0.00009308,0.0000
 2127,-0.00002313,-0.00001800,-0.00001804,0.00001713,0.00000049,-0.0000
 1806,0.00000660,0.00003779,0.00001710,-0.00000760,0.00000247,0.0000820
 1,-0.00002467,-0.00008604,-0.00008864,0.00004826,0.00000095,-0.0000435
 4,0.00000841,-0.00003331,0.00009234,-0.00000009,0.00000773,-0.00002047
 ,0.00000547,-0.00000760,-0.00003769,-0.00001609,0.00007935,-0.00003569
 ,-0.00004751,-0.00003748,0.00000463,0.00002517,-0.00004721,-0.00001646
 ,0.00002574,-0.00000530,0.00001971,-0.00000786,0.00000101,0.00000357,-
 0.00001330,0.00000126,-0.00000193,-0.00000446,-0.00000234,0.00000277,-
 0.00000174,-0.00000022,-0.00000073,-0.00000077,-0.00000312,-0.00000379
 ,-0.00000119,-0.00000053,0.00000377,0.00002229,0.00000537,-0.00001021,
 0.00000896,0.00001412,0.00000176,-0.00000332,0.00000680,-0.00001408,0.
 00000087,0.00000954,0.00001063,0.00001928,0.00000732,0.00000470,-0.000
 01214,-0.00000563,0.00000951,-0.00000361,-0.00000493,0.00000086,-0.000
 00635,0.00000720,-0.00000378,-0.00001283,0.00001029,0.00000756,-0.0000
 0359,0.00000671,0.00000533,-0.00000589,0.00000791,0.00001388,-0.000003
 78\\\@


 Just remember, when you're over the hill, you begin to pick up speed.
 -- Charles Schulz
 Job cpu time:       2 days  6 hours 58 minutes 17.4 seconds.
 Elapsed time:       0 days  2 hours 45 minutes 21.6 seconds.
 File lengths (MBytes):  RWF=   4615 Int=      0 D2E=      0 Chk=     65 Scr=      1
 Normal termination of Gaussian 16 at Tue Jun 25 22:16:16 2019.
