 Entering Gaussian System, Link 0=/share/apps/gaussian16/g16/g16
 Initial command:
 /share/apps/gaussian16/g16/l1.exe "/home/amen01//scratch/605/Gau-12139.inp" -scrdir="/home/amen01//scratch/605/"
 Entering Link 1 = /share/apps/gaussian16/g16/l1.exe PID=     12140.
  
 Copyright (c) 1988-2017, Gaussian, Inc.  All Rights Reserved.
  
 This is part of the Gaussian(R) 16 program.  It is based on
 the Gaussian(R) 09 system (copyright 2009, Gaussian, Inc.),
 the Gaussian(R) 03 system (copyright 2003, Gaussian, Inc.),
 the Gaussian(R) 98 system (copyright 1998, Gaussian, Inc.),
 the Gaussian(R) 94 system (copyright 1995, Gaussian, Inc.),
 the Gaussian 92(TM) system (copyright 1992, Gaussian, Inc.),
 the Gaussian 90(TM) system (copyright 1990, Gaussian, Inc.),
 the Gaussian 88(TM) system (copyright 1988, Gaussian, Inc.),
 the Gaussian 86(TM) system (copyright 1986, Carnegie Mellon
 University), and the Gaussian 82(TM) system (copyright 1983,
 Carnegie Mellon University). Gaussian is a federally registered
 trademark of Gaussian, Inc.
  
 This software contains proprietary and confidential information,
 including trade secrets, belonging to Gaussian, Inc.
  
 This software is provided under written license and may be
 used, copied, transmitted, or stored only in accord with that
 written license.
  
 The following legend is applicable only to US Government
 contracts under FAR:
  
                    RESTRICTED RIGHTS LEGEND
  
 Use, reproduction and disclosure by the US Government is
 subject to restrictions as set forth in subparagraphs (a)
 and (c) of the Commercial Computer Software - Restricted
 Rights clause in FAR 52.227-19.
  
 Gaussian, Inc.
 340 Quinnipiac St., Bldg. 40, Wallingford CT 06492
  
  
 ---------------------------------------------------------------
 Warning -- This program may not be used in any manner that
 competes with the business of Gaussian, Inc. or will provide
 assistance to any competitor of Gaussian, Inc.  The licensee
 of this program is prohibited from giving any competitor of
 Gaussian, Inc. access to this program.  By using this program,
 the user acknowledges that Gaussian, Inc. is engaged in the
 business of creating and licensing software in the field of
 computational chemistry and represents and warrants to the
 licensee that it is not a competitor of Gaussian, Inc. and that
 it will not use this program in any manner prohibited above.
 ---------------------------------------------------------------
  

 Cite this work as:
 Gaussian 16, Revision B.01,
 M. J. Frisch, G. W. Trucks, H. B. Schlegel, G. E. Scuseria, 
 M. A. Robb, J. R. Cheeseman, G. Scalmani, V. Barone, 
 G. A. Petersson, H. Nakatsuji, X. Li, M. Caricato, A. V. Marenich, 
 J. Bloino, B. G. Janesko, R. Gomperts, B. Mennucci, H. P. Hratchian, 
 J. V. Ortiz, A. F. Izmaylov, J. L. Sonnenberg, D. Williams-Young, 
 F. Ding, F. Lipparini, F. Egidi, J. Goings, B. Peng, A. Petrone, 
 T. Henderson, D. Ranasinghe, V. G. Zakrzewski, J. Gao, N. Rega, 
 G. Zheng, W. Liang, M. Hada, M. Ehara, K. Toyota, R. Fukuda, 
 J. Hasegawa, M. Ishida, T. Nakajima, Y. Honda, O. Kitao, H. Nakai, 
 T. Vreven, K. Throssell, J. A. Montgomery, Jr., J. E. Peralta, 
 F. Ogliaro, M. J. Bearpark, J. J. Heyd, E. N. Brothers, K. N. Kudin, 
 V. N. Staroverov, T. A. Keith, R. Kobayashi, J. Normand, 
 K. Raghavachari, A. P. Rendell, J. C. Burant, S. S. Iyengar, 
 J. Tomasi, M. Cossi, J. M. Millam, M. Klene, C. Adamo, R. Cammi, 
 J. W. Ochterski, R. L. Martin, K. Morokuma, O. Farkas, 
 J. B. Foresman, and D. J. Fox, Gaussian, Inc., Wallingford CT, 2016.
 
 ******************************************
 Gaussian 16:  ES64L-G16RevB.01 20-Dec-2017
                24-Jun-2019 
 ******************************************
 %nprocshared=20
 Will use up to   20 processors via shared memory.
 %mem=100GB
 %chk=7-memb2-carb-1a.chk
 -------------------------------------------
 # opt freq b3lyp/6-311+g(d,p) int=grid=fine
 -------------------------------------------
 1/18=20,19=15,26=3,38=1/1,3;
 2/9=110,12=2,17=6,18=5,40=1/2;
 3/5=4,6=6,7=111,11=2,25=1,30=1,71=1,74=-5,75=-4/1,2,3;
 4//1;
 5/5=2,38=5/2;
 6/7=2,8=2,9=2,10=2,28=1/1;
 7//1,2,3,16;
 1/18=20,19=15,26=3/3(2);
 2/9=110/2;
 99//99;
 2/9=110/2;
 3/5=4,6=6,7=111,11=2,25=1,30=1,71=1,74=-5,75=-4/1,2,3;
 4/5=5,16=3,69=1/1;
 5/5=2,38=5/2;
 7//1,2,3,16;
 1/18=20,19=15,26=3/3(-5);
 2/9=110/2;
 6/7=2,8=2,9=2,10=2,19=2,28=1/1;
 99/9=1/99;
 ---------------
 7-memb2-carb-1a
 ---------------
 Symbolic Z-matrix:
 Charge =  0 Multiplicity = 1
 C                    -4.15386  -0.17546  -0.41292 
 C                    -2.72967  -0.25016  -0.04987 
 C                    -2.52614  -1.6081    0.21013 
 C                    -4.67776  -1.44765  -0.25258 
 C                    -3.69321  -2.28959   0.12514 
 C                    -5.97204  -1.88214  -0.50463 
 C                    -6.21592  -3.26643  -0.2809 
 C                    -5.16784  -4.14098   0.12548 
 C                    -3.84631  -3.65607   0.31506 
 C                    -1.33264  -2.25318   0.45675 
 C                    -1.40662  -3.65648   0.69464 
 C                    -2.64968  -4.34645   0.63694 
 C                    -4.99078   0.77736  -0.95446 
 C                    -6.36014   0.46188  -1.20311 
 C                    -6.83744  -0.87555  -0.97691 
 C                    -1.62941   0.63645  -0.00138 
 C                    -0.35321  -0.02391   0.07253 
 C                    -0.21455  -1.41458   0.35388 
 C                    -1.65878   2.09837  -0.07121 
 C                    -0.46815   2.73732  -0.49974 
 C                     0.7379    2.03712  -0.55568 
 C                     0.80563   0.69962  -0.1888 
 C                    -2.74543   2.98481   0.30833 
 C                    -2.719     4.35471  -0.06404 
 C                    -1.5915    4.87803  -0.68844 
 C                    -0.45826   4.09234  -0.84507 
 C                    -3.79117   5.2116    0.24082 
 C                    -4.87186   4.76591   0.99437 
 C                    -4.87185   3.4673    1.47465 
 C                    -3.81916   2.60496   1.14871 
 H                    -7.01145   1.17119  -0.62028 
 H                    -7.87258  -1.11741  -1.21084 
 H                    -7.21048  -3.672    -0.45078 
 H                    -5.37936  -5.19893   0.25999 
 H                    -2.67233  -5.42057   0.80287 
 H                    -0.49678  -4.21718   0.89598 
 H                     0.77617  -1.85538   0.44804 
 H                     1.7795    0.21406  -0.18169 
 H                     1.66      2.54342  -0.83553 
 H                     0.44489   4.55943  -1.2332 
 H                    -1.54698   5.92635  -0.97408 
 H                    -3.77365   6.25168  -0.07831 
 H                    -5.68589   5.44216   1.23851 
 H                    -5.68113   3.11581   2.10889 
 H                    -3.83567   1.61458   1.59821 
 H                    -6.72783   0.87806  -2.17202 
 

 GradGradGradGradGradGradGradGradGradGradGradGradGradGradGradGradGradGrad
 Berny optimization.
 Initialization pass.
                           ----------------------------
                           !    Initial Parameters    !
                           ! (Angstroms and Degrees)  !
 --------------------------                            --------------------------
 ! Name  Definition              Value          Derivative Info.                !
 --------------------------------------------------------------------------------
 ! R1    R(1,2)                  1.4716         estimate D2E/DX2                !
 ! R2    R(1,4)                  1.3852         estimate D2E/DX2                !
 ! R3    R(1,13)                 1.379          estimate D2E/DX2                !
 ! R4    R(2,3)                  1.3975         estimate D2E/DX2                !
 ! R5    R(2,16)                 1.4139         estimate D2E/DX2                !
 ! R6    R(3,5)                  1.3541         estimate D2E/DX2                !
 ! R7    R(3,10)                 1.3789         estimate D2E/DX2                !
 ! R8    R(4,5)                  1.3494         estimate D2E/DX2                !
 ! R9    R(4,6)                  1.3883         estimate D2E/DX2                !
 ! R10   R(5,9)                  1.3881         estimate D2E/DX2                !
 ! R11   R(6,7)                  1.4233         estimate D2E/DX2                !
 ! R12   R(6,15)                 1.409          estimate D2E/DX2                !
 ! R13   R(7,8)                  1.4242         estimate D2E/DX2                !
 ! R14   R(7,33)                 1.0874         estimate D2E/DX2                !
 ! R15   R(8,9)                  1.4204         estimate D2E/DX2                !
 ! R16   R(8,34)                 1.0872         estimate D2E/DX2                !
 ! R17   R(9,12)                 1.4185         estimate D2E/DX2                !
 ! R18   R(10,11)                1.4252         estimate D2E/DX2                !
 ! R19   R(10,18)                1.4014         estimate D2E/DX2                !
 ! R20   R(11,12)                1.4229         estimate D2E/DX2                !
 ! R21   R(11,36)                1.0875         estimate D2E/DX2                !
 ! R22   R(12,35)                1.0871         estimate D2E/DX2                !
 ! R23   R(13,14)                1.4271         estimate D2E/DX2                !
 ! R24   R(14,15)                1.438          estimate D2E/DX2                !
 ! R25   R(14,31)                1.1256         estimate D2E/DX2                !
 ! R26   R(14,46)                1.1168         estimate D2E/DX2                !
 ! R27   R(15,32)                1.0885         estimate D2E/DX2                !
 ! R28   R(16,17)                1.4388         estimate D2E/DX2                !
 ! R29   R(16,19)                1.4639         estimate D2E/DX2                !
 ! R30   R(17,18)                1.4256         estimate D2E/DX2                !
 ! R31   R(17,22)                1.3909         estimate D2E/DX2                !
 ! R32   R(18,37)                1.0884         estimate D2E/DX2                !
 ! R33   R(19,20)                1.4176         estimate D2E/DX2                !
 ! R34   R(19,23)                1.4528         estimate D2E/DX2                !
 ! R35   R(20,21)                1.3957         estimate D2E/DX2                !
 ! R36   R(20,26)                1.3984         estimate D2E/DX2                !
 ! R37   R(21,22)                1.3886         estimate D2E/DX2                !
 ! R38   R(21,39)                1.0885         estimate D2E/DX2                !
 ! R39   R(22,38)                1.0882         estimate D2E/DX2                !
 ! R40   R(23,24)                1.4199         estimate D2E/DX2                !
 ! R41   R(23,30)                1.4154         estimate D2E/DX2                !
 ! R42   R(24,25)                1.391          estimate D2E/DX2                !
 ! R43   R(24,27)                1.406          estimate D2E/DX2                !
 ! R44   R(25,26)                1.3878         estimate D2E/DX2                !
 ! R45   R(25,41)                1.0874         estimate D2E/DX2                !
 ! R46   R(26,40)                1.0883         estimate D2E/DX2                !
 ! R47   R(27,28)                1.3908         estimate D2E/DX2                !
 ! R48   R(27,42)                1.0881         estimate D2E/DX2                !
 ! R49   R(28,29)                1.3846         estimate D2E/DX2                !
 ! R50   R(28,43)                1.0861         estimate D2E/DX2                !
 ! R51   R(29,30)                1.3993         estimate D2E/DX2                !
 ! R52   R(29,44)                1.0866         estimate D2E/DX2                !
 ! R53   R(30,45)                1.0877         estimate D2E/DX2                !
 ! A1    A(2,1,4)              106.9091         estimate D2E/DX2                !
 ! A2    A(2,1,13)             135.9971         estimate D2E/DX2                !
 ! A3    A(4,1,13)             116.7772         estimate D2E/DX2                !
 ! A4    A(1,2,3)              103.6602         estimate D2E/DX2                !
 ! A5    A(1,2,16)             136.8645         estimate D2E/DX2                !
 ! A6    A(3,2,16)             119.3153         estimate D2E/DX2                !
 ! A7    A(2,3,5)              110.5986         estimate D2E/DX2                !
 ! A8    A(2,3,10)             127.8723         estimate D2E/DX2                !
 ! A9    A(5,3,10)             121.4501         estimate D2E/DX2                !
 ! A10   A(1,4,5)              109.2381         estimate D2E/DX2                !
 ! A11   A(1,4,6)              128.2448         estimate D2E/DX2                !
 ! A12   A(5,4,6)              122.3945         estimate D2E/DX2                !
 ! A13   A(3,5,4)              109.4139         estimate D2E/DX2                !
 ! A14   A(3,5,9)              125.5844         estimate D2E/DX2                !
 ! A15   A(4,5,9)              124.8934         estimate D2E/DX2                !
 ! A16   A(4,6,7)              115.8223         estimate D2E/DX2                !
 ! A17   A(4,6,15)             114.1967         estimate D2E/DX2                !
 ! A18   A(7,6,15)             129.9621         estimate D2E/DX2                !
 ! A19   A(6,7,8)              121.0626         estimate D2E/DX2                !
 ! A20   A(6,7,33)             119.663          estimate D2E/DX2                !
 ! A21   A(8,7,33)             119.2487         estimate D2E/DX2                !
 ! A22   A(7,8,9)              120.8719         estimate D2E/DX2                !
 ! A23   A(7,8,34)             119.3169         estimate D2E/DX2                !
 ! A24   A(9,8,34)             119.7811         estimate D2E/DX2                !
 ! A25   A(5,9,8)              114.8621         estimate D2E/DX2                !
 ! A26   A(5,9,12)             114.6531         estimate D2E/DX2                !
 ! A27   A(8,9,12)             130.4664         estimate D2E/DX2                !
 ! A28   A(3,10,11)            116.458          estimate D2E/DX2                !
 ! A29   A(3,10,18)            113.421          estimate D2E/DX2                !
 ! A30   A(11,10,18)           130.0046         estimate D2E/DX2                !
 ! A31   A(10,11,12)           121.0659         estimate D2E/DX2                !
 ! A32   A(10,11,36)           119.6769         estimate D2E/DX2                !
 ! A33   A(12,11,36)           119.2343         estimate D2E/DX2                !
 ! A34   A(9,12,11)            120.6754         estimate D2E/DX2                !
 ! A35   A(9,12,35)            119.8641         estimate D2E/DX2                !
 ! A36   A(11,12,35)           119.4152         estimate D2E/DX2                !
 ! A37   A(1,13,14)            119.8711         estimate D2E/DX2                !
 ! A38   A(13,14,15)           119.783          estimate D2E/DX2                !
 ! A39   A(13,14,31)           109.0081         estimate D2E/DX2                !
 ! A40   A(13,14,46)           112.6261         estimate D2E/DX2                !
 ! A41   A(15,14,31)           108.2151         estimate D2E/DX2                !
 ! A42   A(15,14,46)           111.9504         estimate D2E/DX2                !
 ! A43   A(31,14,46)            91.3688         estimate D2E/DX2                !
 ! A44   A(6,15,14)            120.8859         estimate D2E/DX2                !
 ! A45   A(6,15,32)            119.8292         estimate D2E/DX2                !
 ! A46   A(14,15,32)           119.2444         estimate D2E/DX2                !
 ! A47   A(2,16,17)            113.8407         estimate D2E/DX2                !
 ! A48   A(2,16,19)            127.5169         estimate D2E/DX2                !
 ! A49   A(17,16,19)           118.5932         estimate D2E/DX2                !
 ! A50   A(16,17,18)           122.9645         estimate D2E/DX2                !
 ! A51   A(16,17,22)           119.3788         estimate D2E/DX2                !
 ! A52   A(18,17,22)           117.6115         estimate D2E/DX2                !
 ! A53   A(10,18,17)           121.3738         estimate D2E/DX2                !
 ! A54   A(10,18,37)           118.523          estimate D2E/DX2                !
 ! A55   A(17,18,37)           120.044          estimate D2E/DX2                !
 ! A56   A(16,19,20)           116.5964         estimate D2E/DX2                !
 ! A57   A(16,19,23)           127.726          estimate D2E/DX2                !
 ! A58   A(20,19,23)           115.606          estimate D2E/DX2                !
 ! A59   A(19,20,21)           120.782          estimate D2E/DX2                !
 ! A60   A(19,20,26)           121.1553         estimate D2E/DX2                !
 ! A61   A(21,20,26)           118.0424         estimate D2E/DX2                !
 ! A62   A(20,21,22)           120.9839         estimate D2E/DX2                !
 ! A63   A(20,21,39)           120.5943         estimate D2E/DX2                !
 ! A64   A(22,21,39)           118.3348         estimate D2E/DX2                !
 ! A65   A(17,22,21)           120.6672         estimate D2E/DX2                !
 ! A66   A(17,22,38)           120.8145         estimate D2E/DX2                !
 ! A67   A(21,22,38)           118.37           estimate D2E/DX2                !
 ! A68   A(19,23,24)           120.4147         estimate D2E/DX2                !
 ! A69   A(19,23,30)           123.9707         estimate D2E/DX2                !
 ! A70   A(24,23,30)           115.3886         estimate D2E/DX2                !
 ! A71   A(23,24,25)           119.7212         estimate D2E/DX2                !
 ! A72   A(23,24,27)           121.1287         estimate D2E/DX2                !
 ! A73   A(25,24,27)           119.088          estimate D2E/DX2                !
 ! A74   A(24,25,26)           119.969          estimate D2E/DX2                !
 ! A75   A(24,25,41)           120.9145         estimate D2E/DX2                !
 ! A76   A(26,25,41)           118.8608         estimate D2E/DX2                !
 ! A77   A(20,26,25)           120.993          estimate D2E/DX2                !
 ! A78   A(20,26,40)           120.6511         estimate D2E/DX2                !
 ! A79   A(25,26,40)           118.3521         estimate D2E/DX2                !
 ! A80   A(24,27,28)           120.9787         estimate D2E/DX2                !
 ! A81   A(24,27,42)           120.4446         estimate D2E/DX2                !
 ! A82   A(28,27,42)           118.5377         estimate D2E/DX2                !
 ! A83   A(27,28,29)           119.2414         estimate D2E/DX2                !
 ! A84   A(27,28,43)           120.308          estimate D2E/DX2                !
 ! A85   A(29,28,43)           120.3993         estimate D2E/DX2                !
 ! A86   A(28,29,30)           119.8156         estimate D2E/DX2                !
 ! A87   A(28,29,44)           120.3877         estimate D2E/DX2                !
 ! A88   A(30,29,44)           119.7954         estimate D2E/DX2                !
 ! A89   A(23,30,29)           122.9293         estimate D2E/DX2                !
 ! A90   A(23,30,45)           120.0804         estimate D2E/DX2                !
 ! A91   A(29,30,45)           116.9641         estimate D2E/DX2                !
 ! D1    D(4,1,2,3)              3.8686         estimate D2E/DX2                !
 ! D2    D(4,1,2,16)           178.9622         estimate D2E/DX2                !
 ! D3    D(13,1,2,3)          -169.1514         estimate D2E/DX2                !
 ! D4    D(13,1,2,16)            5.9422         estimate D2E/DX2                !
 ! D5    D(2,1,4,5)             -2.2186         estimate D2E/DX2                !
 ! D6    D(2,1,4,6)           -178.2184         estimate D2E/DX2                !
 ! D7    D(13,1,4,5)           172.3553         estimate D2E/DX2                !
 ! D8    D(13,1,4,6)            -3.6446         estimate D2E/DX2                !
 ! D9    D(2,1,13,14)          178.3236         estimate D2E/DX2                !
 ! D10   D(4,1,13,14)            5.8068         estimate D2E/DX2                !
 ! D11   D(1,2,3,5)             -4.2478         estimate D2E/DX2                !
 ! D12   D(1,2,3,10)           172.5191         estimate D2E/DX2                !
 ! D13   D(16,2,3,5)           179.5977         estimate D2E/DX2                !
 ! D14   D(16,2,3,10)           -3.6354         estimate D2E/DX2                !
 ! D15   D(1,2,16,17)         -163.4221         estimate D2E/DX2                !
 ! D16   D(1,2,16,19)           13.9657         estimate D2E/DX2                !
 ! D17   D(3,2,16,17)           11.1085         estimate D2E/DX2                !
 ! D18   D(3,2,16,19)         -171.5037         estimate D2E/DX2                !
 ! D19   D(2,3,5,4)              3.1025         estimate D2E/DX2                !
 ! D20   D(2,3,5,9)            179.4591         estimate D2E/DX2                !
 ! D21   D(10,3,5,4)          -173.9061         estimate D2E/DX2                !
 ! D22   D(10,3,5,9)             2.4505         estimate D2E/DX2                !
 ! D23   D(2,3,10,11)          179.9509         estimate D2E/DX2                !
 ! D24   D(2,3,10,18)           -3.5757         estimate D2E/DX2                !
 ! D25   D(5,3,10,11)           -3.597          estimate D2E/DX2                !
 ! D26   D(5,3,10,18)          172.8764         estimate D2E/DX2                !
 ! D27   D(1,4,5,3)             -0.4292         estimate D2E/DX2                !
 ! D28   D(1,4,5,9)           -176.8168         estimate D2E/DX2                !
 ! D29   D(6,4,5,3)            175.8507         estimate D2E/DX2                !
 ! D30   D(6,4,5,9)             -0.5369         estimate D2E/DX2                !
 ! D31   D(1,4,6,7)            178.2996         estimate D2E/DX2                !
 ! D32   D(1,4,6,15)            -0.2792         estimate D2E/DX2                !
 ! D33   D(5,4,6,7)              2.7733         estimate D2E/DX2                !
 ! D34   D(5,4,6,15)          -175.8055         estimate D2E/DX2                !
 ! D35   D(3,5,9,8)           -177.9106         estimate D2E/DX2                !
 ! D36   D(3,5,9,12)             0.6945         estimate D2E/DX2                !
 ! D37   D(4,5,9,8)             -2.1009         estimate D2E/DX2                !
 ! D38   D(4,5,9,12)           176.5042         estimate D2E/DX2                !
 ! D39   D(4,6,7,8)             -2.3647         estimate D2E/DX2                !
 ! D40   D(4,6,7,33)           179.4902         estimate D2E/DX2                !
 ! D41   D(15,6,7,8)           175.9439         estimate D2E/DX2                !
 ! D42   D(15,6,7,33)           -2.2012         estimate D2E/DX2                !
 ! D43   D(4,6,15,14)            1.8997         estimate D2E/DX2                !
 ! D44   D(4,6,15,32)          179.5656         estimate D2E/DX2                !
 ! D45   D(7,6,15,14)         -176.4311         estimate D2E/DX2                !
 ! D46   D(7,6,15,32)            1.2348         estimate D2E/DX2                !
 ! D47   D(6,7,8,9)             -0.2057         estimate D2E/DX2                !
 ! D48   D(6,7,8,34)          -178.2078         estimate D2E/DX2                !
 ! D49   D(33,7,8,9)           177.947          estimate D2E/DX2                !
 ! D50   D(33,7,8,34)           -0.0552         estimate D2E/DX2                !
 ! D51   D(7,8,9,5)              2.3789         estimate D2E/DX2                !
 ! D52   D(7,8,9,12)          -175.9546         estimate D2E/DX2                !
 ! D53   D(34,8,9,5)          -179.6281         estimate D2E/DX2                !
 ! D54   D(34,8,9,12)            2.0384         estimate D2E/DX2                !
 ! D55   D(5,9,12,11)           -2.421          estimate D2E/DX2                !
 ! D56   D(5,9,12,35)         -179.9597         estimate D2E/DX2                !
 ! D57   D(8,9,12,11)          175.9153         estimate D2E/DX2                !
 ! D58   D(8,9,12,35)           -1.6234         estimate D2E/DX2                !
 ! D59   D(3,10,11,12)           1.8288         estimate D2E/DX2                !
 ! D60   D(3,10,11,36)        -179.9263         estimate D2E/DX2                !
 ! D61   D(18,10,11,12)       -173.9454         estimate D2E/DX2                !
 ! D62   D(18,10,11,36)          4.2995         estimate D2E/DX2                !
 ! D63   D(3,10,18,17)           2.3677         estimate D2E/DX2                !
 ! D64   D(3,10,18,37)        -174.8349         estimate D2E/DX2                !
 ! D65   D(11,10,18,17)        178.245          estimate D2E/DX2                !
 ! D66   D(11,10,18,37)          1.0424         estimate D2E/DX2                !
 ! D67   D(10,11,12,9)           1.2072         estimate D2E/DX2                !
 ! D68   D(10,11,12,35)        178.7569         estimate D2E/DX2                !
 ! D69   D(36,11,12,9)        -177.0453         estimate D2E/DX2                !
 ! D70   D(36,11,12,35)          0.5043         estimate D2E/DX2                !
 ! D71   D(1,13,14,15)          -4.4162         estimate D2E/DX2                !
 ! D72   D(1,13,14,31)         120.8997         estimate D2E/DX2                !
 ! D73   D(1,13,14,46)        -139.2571         estimate D2E/DX2                !
 ! D74   D(13,14,15,6)           0.3467         estimate D2E/DX2                !
 ! D75   D(13,14,15,32)       -177.3327         estimate D2E/DX2                !
 ! D76   D(31,14,15,6)        -125.3435         estimate D2E/DX2                !
 ! D77   D(31,14,15,32)         56.9771         estimate D2E/DX2                !
 ! D78   D(46,14,15,6)         135.4648         estimate D2E/DX2                !
 ! D79   D(46,14,15,32)        -42.2146         estimate D2E/DX2                !
 ! D80   D(2,16,17,18)         -12.5132         estimate D2E/DX2                !
 ! D81   D(2,16,17,22)         164.978          estimate D2E/DX2                !
 ! D82   D(19,16,17,18)        169.8464         estimate D2E/DX2                !
 ! D83   D(19,16,17,22)        -12.6624         estimate D2E/DX2                !
 ! D84   D(2,16,19,20)        -157.0804         estimate D2E/DX2                !
 ! D85   D(2,16,19,23)          26.1548         estimate D2E/DX2                !
 ! D86   D(17,16,19,20)         20.1983         estimate D2E/DX2                !
 ! D87   D(17,16,19,23)       -156.5665         estimate D2E/DX2                !
 ! D88   D(16,17,18,10)          5.9141         estimate D2E/DX2                !
 ! D89   D(16,17,18,37)       -176.9253         estimate D2E/DX2                !
 ! D90   D(22,17,18,10)       -171.6188         estimate D2E/DX2                !
 ! D91   D(22,17,18,37)          5.5417         estimate D2E/DX2                !
 ! D92   D(16,17,22,21)         -1.8423         estimate D2E/DX2                !
 ! D93   D(16,17,22,38)       -177.3437         estimate D2E/DX2                !
 ! D94   D(18,17,22,21)        175.7824         estimate D2E/DX2                !
 ! D95   D(18,17,22,38)          0.281          estimate D2E/DX2                !
 ! D96   D(16,19,20,21)        -13.948          estimate D2E/DX2                !
 ! D97   D(16,19,20,26)        167.7248         estimate D2E/DX2                !
 ! D98   D(23,19,20,21)        163.2148         estimate D2E/DX2                !
 ! D99   D(23,19,20,26)        -15.1124         estimate D2E/DX2                !
 ! D100  D(16,19,23,24)       -167.4849         estimate D2E/DX2                !
 ! D101  D(16,19,23,30)         18.2346         estimate D2E/DX2                !
 ! D102  D(20,19,23,24)         15.723          estimate D2E/DX2                !
 ! D103  D(20,19,23,30)       -158.5574         estimate D2E/DX2                !
 ! D104  D(19,20,21,22)         -0.259          estimate D2E/DX2                !
 ! D105  D(19,20,21,39)       -176.8099         estimate D2E/DX2                !
 ! D106  D(26,20,21,22)        178.1191         estimate D2E/DX2                !
 ! D107  D(26,20,21,39)          1.5681         estimate D2E/DX2                !
 ! D108  D(19,20,26,25)          4.645          estimate D2E/DX2                !
 ! D109  D(19,20,26,40)       -176.0826         estimate D2E/DX2                !
 ! D110  D(21,20,26,25)       -173.7268         estimate D2E/DX2                !
 ! D111  D(21,20,26,40)          5.5456         estimate D2E/DX2                !
 ! D112  D(20,21,22,17)          8.6257         estimate D2E/DX2                !
 ! D113  D(20,21,22,38)       -175.765          estimate D2E/DX2                !
 ! D114  D(39,21,22,17)       -174.7473         estimate D2E/DX2                !
 ! D115  D(39,21,22,38)          0.862          estimate D2E/DX2                !
 ! D116  D(19,23,24,25)         -5.8969         estimate D2E/DX2                !
 ! D117  D(19,23,24,27)        176.994          estimate D2E/DX2                !
 ! D118  D(30,23,24,25)        168.854          estimate D2E/DX2                !
 ! D119  D(30,23,24,27)         -8.255          estimate D2E/DX2                !
 ! D120  D(19,23,30,29)       -178.4227         estimate D2E/DX2                !
 ! D121  D(19,23,30,45)          3.496          estimate D2E/DX2                !
 ! D122  D(24,23,30,29)          7.0363         estimate D2E/DX2                !
 ! D123  D(24,23,30,45)       -171.0451         estimate D2E/DX2                !
 ! D124  D(23,24,25,26)         -5.3378         estimate D2E/DX2                !
 ! D125  D(23,24,25,41)       -179.4629         estimate D2E/DX2                !
 ! D126  D(27,24,25,26)        171.8304         estimate D2E/DX2                !
 ! D127  D(27,24,25,41)         -2.2947         estimate D2E/DX2                !
 ! D128  D(23,24,27,28)          4.3162         estimate D2E/DX2                !
 ! D129  D(23,24,27,42)       -177.9914         estimate D2E/DX2                !
 ! D130  D(25,24,27,28)       -172.8108         estimate D2E/DX2                !
 ! D131  D(25,24,27,42)          4.8816         estimate D2E/DX2                !
 ! D132  D(24,25,26,20)          6.141          estimate D2E/DX2                !
 ! D133  D(24,25,26,40)       -173.1478         estimate D2E/DX2                !
 ! D134  D(41,25,26,20)       -179.6137         estimate D2E/DX2                !
 ! D135  D(41,25,26,40)          1.0976         estimate D2E/DX2                !
 ! D136  D(24,27,28,29)          1.497          estimate D2E/DX2                !
 ! D137  D(24,27,28,43)        178.9035         estimate D2E/DX2                !
 ! D138  D(42,27,28,29)       -176.2384         estimate D2E/DX2                !
 ! D139  D(42,27,28,43)          1.168          estimate D2E/DX2                !
 ! D140  D(27,28,29,30)         -2.8159         estimate D2E/DX2                !
 ! D141  D(27,28,29,44)        176.7625         estimate D2E/DX2                !
 ! D142  D(43,28,29,30)        179.78           estimate D2E/DX2                !
 ! D143  D(43,28,29,44)         -0.6416         estimate D2E/DX2                !
 ! D144  D(28,29,30,23)         -1.6527         estimate D2E/DX2                !
 ! D145  D(28,29,30,45)        176.4846         estimate D2E/DX2                !
 ! D146  D(44,29,30,23)        178.7664         estimate D2E/DX2                !
 ! D147  D(44,29,30,45)         -3.0963         estimate D2E/DX2                !
 --------------------------------------------------------------------------------
 Trust Radius=3.00D-01 FncErr=1.00D-07 GrdErr=1.00D-06 EigMax=2.50D+02 EigMin=1.00D-04
 Number of steps in this run=    276 maximum allowed number of steps=    276.
 GradGradGradGradGradGradGradGradGradGradGradGradGradGradGradGradGradGrad

                          Input orientation:                          
 ---------------------------------------------------------------------
 Center     Atomic      Atomic             Coordinates (Angstroms)
 Number     Number       Type             X           Y           Z
 ---------------------------------------------------------------------
      1          6           0       -4.153860   -0.175460   -0.412920
      2          6           0       -2.729670   -0.250160   -0.049870
      3          6           0       -2.526140   -1.608100    0.210130
      4          6           0       -4.677760   -1.447650   -0.252580
      5          6           0       -3.693210   -2.289590    0.125140
      6          6           0       -5.972040   -1.882140   -0.504630
      7          6           0       -6.215920   -3.266430   -0.280900
      8          6           0       -5.167840   -4.140980    0.125480
      9          6           0       -3.846310   -3.656070    0.315060
     10          6           0       -1.332640   -2.253180    0.456750
     11          6           0       -1.406620   -3.656480    0.694640
     12          6           0       -2.649680   -4.346450    0.636940
     13          6           0       -4.990780    0.777360   -0.954460
     14          6           0       -6.360140    0.461880   -1.203110
     15          6           0       -6.837440   -0.875550   -0.976910
     16          6           0       -1.629410    0.636450   -0.001380
     17          6           0       -0.353210   -0.023910    0.072530
     18          6           0       -0.214550   -1.414580    0.353880
     19          6           0       -1.658780    2.098370   -0.071210
     20          6           0       -0.468150    2.737320   -0.499740
     21          6           0        0.737900    2.037120   -0.555680
     22          6           0        0.805630    0.699620   -0.188800
     23          6           0       -2.745430    2.984810    0.308330
     24          6           0       -2.719000    4.354710   -0.064040
     25          6           0       -1.591500    4.878030   -0.688440
     26          6           0       -0.458260    4.092340   -0.845070
     27          6           0       -3.791170    5.211600    0.240820
     28          6           0       -4.871860    4.765910    0.994370
     29          6           0       -4.871850    3.467300    1.474650
     30          6           0       -3.819160    2.604960    1.148710
     31          1           0       -7.011450    1.171190   -0.620280
     32          1           0       -7.872580   -1.117410   -1.210840
     33          1           0       -7.210480   -3.672000   -0.450780
     34          1           0       -5.379360   -5.198930    0.259990
     35          1           0       -2.672330   -5.420570    0.802870
     36          1           0       -0.496780   -4.217180    0.895980
     37          1           0        0.776170   -1.855380    0.448040
     38          1           0        1.779500    0.214060   -0.181690
     39          1           0        1.660000    2.543420   -0.835530
     40          1           0        0.444890    4.559430   -1.233200
     41          1           0       -1.546980    5.926350   -0.974080
     42          1           0       -3.773650    6.251680   -0.078310
     43          1           0       -5.685890    5.442160    1.238510
     44          1           0       -5.681130    3.115810    2.108890
     45          1           0       -3.835670    1.614580    1.598210
     46          1           0       -6.727830    0.878060   -2.172020
 ---------------------------------------------------------------------
                    Distance matrix (angstroms):
                    1          2          3          4          5
     1  C    0.000000
     2  C    1.471633   0.000000
     3  C    2.256130   1.397507   0.000000
     4  C    1.385153   2.295676   2.206652   0.000000
     5  C    2.229631   2.262369   1.354143   1.349398   0.000000
     6  C    2.495385   3.658296   3.529902   1.388334   2.399102
     7  C    3.718012   4.615755   4.075002   2.382163   2.735535
     8  C    4.128363   4.594986   3.660768   2.763537   2.366892
     9  C    3.569200   3.602816   2.438860   2.427065   1.388084
    10  C    3.610059   2.494082   1.378910   3.513098   2.384026
    11  C    4.570724   3.729313   2.384101   4.059127   2.724190
    12  C    4.556525   4.154239   2.774165   3.647930   2.362534
    13  C    1.378973   2.643236   3.622311   2.353994   3.500772
    14  C    2.428636   3.875213   4.580570   2.716655   4.055533
    15  C    2.830161   4.257263   4.531335   2.348653   3.619421
    16  C    2.683544   1.413860   2.426286   3.701218   3.582874
    17  C    3.834523   2.390342   2.692623   4.564479   4.036295
    18  C    4.200186   2.800842   2.324126   4.504346   3.594307
    19  C    3.393006   2.581250   3.816986   4.660622   4.840625
    20  C    4.698541   3.773843   4.860238   5.941033   6.005107
    21  C    5.370773   4.184679   4.952580   6.447082   6.230463
    22  C    5.041085   3.663295   4.072519   5.889177   5.410499
    23  C    3.534287   3.254779   4.599191   4.867774   5.362009
    24  C    4.764764   4.604904   5.972225   6.126963   6.718005
    25  C    5.672686   5.291648   6.614443   7.051894   7.513579
    26  C    5.662008   4.964771   6.155046   6.989042   7.220474
    27  C    5.438689   5.571544   6.936105   6.736104   7.502721
    28  C    5.187786   5.553411   6.837064   6.340417   7.205890
    29  C    4.165109   4.553307   5.732456   5.213226   6.029275
    30  C    3.206470   3.282574   4.505853   4.373152   5.002017
    31  H    3.165799   4.547444   5.341539   3.526987   4.852151
    32  H    3.918268   5.343173   5.553769   3.351745   4.541584
    33  H    4.644368   5.652201   5.161349   3.376638   3.822817
    34  H    5.214394   5.622028   4.586656   3.850594   3.365345
    35  H    5.584286   5.240572   3.861041   4.573819   3.362224
    36  H    5.605618   4.649481   3.375795   5.144908   3.811425
    37  H    5.279070   3.887873   3.320090   5.513843   4.502017
    38  H    5.950626   4.534919   4.691730   6.668022   6.026024
    39  H    6.432097   5.262181   5.987678   7.512368   7.275832
    40  H    6.651357   5.883048   6.996331   7.955386   8.116528
    41  H    6.659040   6.356272   7.689541   8.043520   8.562491
    42  H    6.447065   6.585182   7.963393   7.754190   8.544071
    43  H    6.052437   6.542298   7.794084   7.121036   8.061658
    44  H    4.418658   4.970022   5.989539   5.235309   6.091423
    45  H    2.711113   2.723354   3.745304   3.675839   4.175257
    46  H    3.290845   4.664942   5.432295   3.646363   4.951754
                    6          7          8          9         10
     6  C    0.000000
     7  C    1.423303   0.000000
     8  C    2.479140   1.424238   0.000000
     9  C    2.887464   2.474275   1.420394   0.000000
    10  C    4.752468   5.041550   4.287457   2.882137   0.000000
    11  C    5.042776   4.922721   3.834770   2.469042   1.425242
    12  C    4.291163   3.837570   2.577778   1.418504   2.479686
    13  C    2.870219   4.278655   5.038620   4.751504   4.955570
    14  C    2.476474   3.843380   4.936907   5.057835   5.949995
    15  C    1.408967   2.566520   3.829603   4.283379   5.852868
    16  C    5.045294   6.028821   5.946463   4.841540   2.940734
    17  C    5.946207   6.708965   6.335119   5.045112   2.465067
    18  C    5.839892   6.312586   5.658666   4.267958   1.401413
    19  C    5.885280   7.042200   7.161123   6.168312   4.395577
    20  C    7.185558   8.314431   8.353981   7.276764   5.154348
    21  C    7.770875   8.749786   8.573836   7.361086   4.870198
    22  C    7.259617   8.064750   7.694967   6.392688   3.702426
    23  C    5.895686   7.174224   7.528505   6.731513   5.427204
    24  C    7.048027   8.387923   8.843613   8.098589   6.771811
    25  C    8.057470   9.374624   9.736283   8.883808   7.227214
    26  C    8.137081   9.360579   9.534656   8.535962   6.536429
    27  C    7.458756   8.833380   9.454061   8.868152   7.862184
    28  C    6.903185   8.243258   8.954064   8.511343   7.879260
    29  C    5.809000   7.087425   7.732645   7.289635   6.803383
    30  C    5.244282   6.500882   6.955116   6.316344   5.501192
    31  H    3.227471   4.521119   5.672231   5.847684   6.718273
    32  H    2.166933   2.868379   4.271223   4.998401   6.844096
    33  H    2.177207   1.087426   2.173568   3.450276   6.114382
    34  H    3.454998   2.174155   1.087240   2.175705   5.009202
    35  H    5.011799   4.286246   2.885096   2.174775   3.456433
    36  H    6.114948   5.915871   4.734794   3.445528   2.179193
    37  H    6.815177   7.170198   6.376462   4.962609   2.146020
    38  H    8.036462   8.720688   8.205258   6.846489   4.022474
    39  H    8.828540   9.802657   9.603340   8.371200   5.799418
    40  H    9.121493  10.320724  10.442504   9.397124   7.240663
    41  H    8.987439  10.333765  10.755036   9.938389   8.306499
    42  H    8.436450   9.828537  10.487739   9.915822   8.864393
    43  H    7.534307   8.856019   9.661459   9.328162   8.875821
    44  H    5.647532   6.835941   7.540450   7.241737   7.103871
    45  H    4.605764   5.746382   6.088520   5.424605   4.746331
    46  H    3.312116   4.584232   5.736100   5.920056   6.769281
                   11         12         13         14         15
    11  C    0.000000
    12  C    1.422879   0.000000
    13  C    5.935038   5.853779   0.000000
    14  C    6.715631   6.346128   1.427060   0.000000
    15  C    6.326251   5.673534   2.478461   1.437950   0.000000
    16  C    4.354690   5.126177   3.496716   4.884100   5.510116
    17  C    3.833048   4.927138   4.817032   6.160070   6.623583
    18  C    2.561887   3.821759   5.415600   6.611626   6.776742
    19  C    5.811059   6.558892   3.691534   5.105104   6.040117
    20  C    6.571754   7.498727   4.949989   6.355148   7.338145
    21  C    6.211228   7.324480   5.879098   7.299501   8.126922
    22  C    4.964889   6.171210   5.847277   7.241105   7.843392
    23  C    6.785896   7.339246   3.392502   4.660017   5.770508
    24  C    8.153349   8.729626   4.330273   5.450643   6.719412
    25  C    8.647829   9.379094   5.333045   6.519754   7.791456
    26  C    7.957029   8.843746   5.616475   6.938344   8.086486
    27  C    9.194285   9.634118   4.746603   5.589667   6.914913
    28  C    9.112320   9.386210   4.440790   5.056537   6.290908
    29  C    7.960181   8.166669   3.626361   4.291615   5.360414
    30  C    6.725486   7.067651   3.022605   4.071907   5.073680
    31  H    7.513290   7.144928   2.085638   1.125618   2.084852
    32  H    7.203219   6.412462   3.458418   2.186708   1.088455
    33  H    5.915828   4.736973   4.997756   4.286962   2.869861
    34  H    4.283776   2.884435   6.110804   5.928521   4.727318
    35  H    2.173879   1.087097   6.846733   7.226833   6.416616
    36  H    1.087534   2.172278   6.968902   7.789658   7.407981
    37  H    2.840659   4.239995   6.492768   7.682637   7.807535
    38  H    5.089243   6.409839   6.837483   8.207220   8.721885
    39  H    7.084091   8.259045   6.882295   8.294008   9.160558
    40  H    8.639782   9.611893   6.627840   7.943504   9.090491
    41  H    9.728050  10.456661   6.194533   7.285561   8.617124
    42  H   10.216258  10.681538   5.676022   6.440255   7.809718
    43  H   10.069419  10.266321   5.201217   5.587424   6.793203
    44  H    8.132371   8.187897   3.915232   4.298109   5.175922
    45  H    5.873738   6.153413   2.924268   3.943230   4.673608
    46  H    7.556128   7.198407   2.123661   1.116776   2.124959
                   16         17         18         19         20
    16  C    0.000000
    17  C    1.438827   0.000000
    18  C    2.516895   1.425604   0.000000
    19  C    1.463881   2.495846   3.821952   0.000000
    20  C    2.451641   2.822250   4.246322   1.417567   0.000000
    21  C    2.805937   2.415163   3.694414   2.445923   1.395695
    22  C    2.443059   1.390935   2.409380   2.836132   2.423101
    23  C    2.618438   3.851067   5.075634   1.452802   2.429039
    24  C    3.875125   4.978748   6.303303   2.493028   2.805728
    25  C    4.297033   5.112871   6.525286   2.848159   2.424905
    26  C    3.745208   4.218594   5.641192   2.452758   1.398367
    27  C    5.065952   6.265657   7.530688   3.786377   4.208676
    28  C    5.343916   6.649087   7.765257   4.309886   5.073480
    29  C    4.550362   5.879847   6.839541   3.819355   4.880949
    30  C    3.161130   4.481287   5.457258   2.532209   3.736867
    31  H    5.443835   6.800030   7.337101   5.460056   6.729195
    32  H    6.596665   7.706082   7.821898   7.088816   8.377959
    33  H    7.064916   7.784893   7.395029   8.016397   9.302730
    34  H    6.941333   7.216520   6.403545   8.197743   9.363826
    35  H    6.198548   5.919092   4.721253   7.637130   8.550226
    36  H    5.064171   4.275768   2.868465   6.493987   7.093231
    37  H    3.492565   2.184214   1.088438   4.672338   4.851754
    38  H    3.439708   2.160951   2.629741   3.922321   3.394102
    39  H    3.892629   3.386557   4.538105   3.434611   2.163186
    40  H    4.605418   4.832070   6.216308   3.439835   2.166031
    41  H    5.379218   6.158415   7.578133   3.934603   3.399821
    42  H    6.011197   7.148790   8.463186   4.660763   4.843001
    43  H    6.409930   7.724954   8.816633   5.395731   6.128824
    44  H    5.197778   6.510863   7.313548   4.686931   5.841521
    45  H    2.895343   4.140033   4.882282   2.785654   4.123364
    46  H    5.546525   6.818162   7.352495   5.621194   6.740694
                   21         22         23         24         25
    21  C    0.000000
    22  C    1.388558   0.000000
    23  C    3.711902   4.251971   0.000000
    24  C    4.190834   5.079199   1.419854   0.000000
    25  C    3.676207   4.843034   2.430923   1.391041   0.000000
    26  C    2.395511   3.679491   2.790717   2.406199   1.387831
    27  C    5.587863   6.455471   2.461041   1.405969   2.411087
    28  C    6.427936   7.082972   2.857389   2.433952   3.688520
    29  C    6.134896   6.531531   2.472804   2.791026   4.174903
    30  C    4.898386   5.177638   1.415422   2.396401   3.674838
    31  H    7.797848   7.843169   4.727627   5.373019   6.566671
    32  H    9.193512   8.925105   6.739715   7.603857   8.698860
    33  H    9.786818   9.134425   8.051462   9.206032  10.233886
    34  H    9.510342   8.558528   8.597298   9.922427  10.807059
    35  H    8.312188   7.108892   8.420233   9.813756  10.461996
    36  H    6.538197   5.200764   7.567722   8.907143   9.296862
    37  H    4.020009   2.633336   5.987372   7.144484   7.227466
    38  H    2.132685   1.088229   5.328430   6.115172   5.776941
    39  H    1.088542   2.132559   4.572861   4.801209   4.005533
    40  H    2.628105   4.014852   3.877355   3.379208   2.131937
    41  H    4.530104   5.785339   3.425422   2.161448   1.087450
    42  H    6.192292   7.197735   3.446617   2.170480   2.649708
    43  H    7.488557   8.165092   3.943363   3.417839   4.560198
    44  H    7.033310   7.293518   3.446377   3.876946   5.258854
    45  H    5.073000   5.056898   2.174843   3.393868   4.573311
    46  H    7.726131   7.792177   5.142960   5.709763   6.677024
                   26         27         28         29         30
    26  C    0.000000
    27  C    3.679700   0.000000
    28  C    4.828778   1.390816   0.000000
    29  C    5.025092   2.394324   1.384578   0.000000
    30  C    4.181281   2.760366   2.408672   1.399294   0.000000
    31  H    7.178297   5.237997   4.484078   3.773426   3.921191
    32  H    9.069037   7.669524   6.962810   6.102115   5.987798
    33  H   10.297229   9.544021   8.874454   7.755390   7.311610
    34  H   10.571948  10.530995  10.004744   8.765644   8.007793
    35  H    9.905214  10.705641  10.423002   9.180600   8.114429
    36  H    8.490045  10.009202   9.992343   8.861565   7.592343
    37  H    6.210582   8.416991   8.720103   7.828472   6.442253
    38  H    4.526444   7.495751   8.145124   7.587324   6.231481
    39  H    2.624170   6.163844   7.138150   6.989675   5.827709
    40  H    1.088346   4.532358   5.768235   6.065717   5.260758
    41  H    2.136714   2.650139   4.034383   4.806034   4.549799
    42  H    4.030196   1.088080   2.136404   3.372017   3.847885
    43  H    5.787179   2.153719   1.086077   2.149068   3.397418
    44  H    6.079298   3.384371   2.149396   1.086618   2.156350
    45  H    4.849310   3.844872   3.371823   2.126384   1.087739
    46  H    7.169372   5.764142   5.346590   4.842213   4.740231
                   31         32         33         34         35
    31  H    0.000000
    32  H    2.515551   0.000000
    33  H    4.850240   2.746270   0.000000
    34  H    6.634533   5.003828   2.487913   0.000000
    35  H    8.019016   7.043778   5.022344   2.769811   0.000000
    36  H    8.589208   8.273433   6.869116   5.020747   2.487938
    37  H    8.423091   8.837271   8.239816   7.007513   4.972790
    38  H    8.853771   9.797684   9.797633   8.985812   7.248255
    39  H    8.781993  10.218249  10.838122  10.521252   9.212957
    40  H    8.212968  10.070120  11.268243  11.461985  10.651903
    41  H    7.252389   9.470154  11.156944  11.831396  11.540215
    42  H    6.048839   8.508075  10.508566  11.567594  11.757160
    43  H    4.842870   7.335454   9.393934  10.690382  11.281411
    44  H    3.605505   5.808891   7.413851   8.523168   9.144854
    45  H    3.899214   5.625938   6.598154   7.113208   7.174905
    46  H    1.604451   2.493235   4.888626   6.683027   8.060384
                   36         37         38         39         40
    36  H    0.000000
    37  H    2.720138   0.000000
    38  H    5.096932   2.384494   0.000000
    39  H    7.304488   4.666706   2.422335   0.000000
    40  H    9.080145   6.639737   4.665737   2.387243   0.000000
    41  H   10.367798   8.244681   6.657598   4.663489   2.429642
    42  H   11.012908   9.311408   8.203720   6.621867   4.689729
    43  H   10.970280   9.779425   9.223993   8.164952   6.668960
    44  H    9.062085   8.316723   8.326338   7.930286   7.126130
    45  H    6.756533   5.884945   6.054720   6.081794   5.917112
    46  H    8.613947   8.405143   8.762247   8.655364   8.116759
                   41         42         43         44         45
    41  H    0.000000
    42  H    2.422045   0.000000
    43  H    4.718111   2.458861   0.000000
    44  H    5.873247   4.272705   2.483845   0.000000
    45  H    5.517802   4.931254   4.266505   2.433148   0.000000
    46  H    7.332223   6.479706   5.792095   4.942600   4.808501
                   46
    46  H    0.000000
 Stoichiometry    C30H16
 Framework group  C1[X(C30H16)]
 Deg. of freedom   132
 Full point group                 C1      NOp   1
 Largest Abelian subgroup         C1      NOp   1
 Largest concise Abelian subgroup C1      NOp   1
                         Standard orientation:                         
 ---------------------------------------------------------------------
 Center     Atomic      Atomic             Coordinates (Angstroms)
 Number     Number       Type             X           Y           Z
 ---------------------------------------------------------------------
      1          6           0        0.834452   -0.936105   -0.380551
      2          6           0        0.516089    0.462778   -0.052722
      3          6           0        1.767186    1.039891    0.181204
      4          6           0        2.203134   -1.084292   -0.227590
      5          6           0        2.743664    0.104154    0.113437
      6          6           0        2.975942   -2.214914   -0.455477
      7          6           0        4.375585   -2.061409   -0.247563
      8          6           0        4.930156   -0.802150    0.120092
      9          6           0        4.100843    0.339053    0.285671
     10          6           0        2.059728    2.371251    0.389271
     11          6           0        3.430852    2.693629    0.606998
     12          6           0        4.436688    1.687958    0.568188
     13          6           0        0.145225   -2.017733   -0.887122
     14          6           0        0.824410   -3.253222   -1.107972
     15          6           0        2.243480   -3.336852   -0.891302
     16          6           0       -0.639390    1.276763   -0.016659
     17          6           0       -0.356442    2.687104    0.016561
     18          6           0        0.944201    3.211493    0.272863
     19          6           0       -2.036912    0.843484   -0.063022
     20          6           0       -2.983312    1.799632   -0.509790
     21          6           0       -2.643795    3.150028   -0.605317
     22          6           0       -1.373954    3.593926   -0.261003
     23          6           0       -2.585677   -0.434753    0.356028
     24          6           0       -3.912699   -0.797264    0.004488
     25          6           0       -4.732180    0.124791   -0.638366
     26          6           0       -4.291241    1.426068   -0.834139
     27          6           0       -4.437687   -2.055468    0.348084
     28          6           0       -3.704658   -2.950444    1.120129
     29          6           0       -2.452547   -2.579256    1.580015
     30          6           0       -1.917120   -1.338839    1.215727
     31          1           0        0.327396   -4.058794   -0.498836
     32          1           0        2.759759   -4.271113   -1.104251
     33          1           0        5.038538   -2.909791   -0.400001
     34          1           0        6.006473   -0.709974    0.243128
     35          1           0        5.476665    1.966921    0.717882
     36          1           0        3.720232    3.727937    0.777870
     37          1           0        1.095117    4.287535    0.336538
     38          1           0       -1.176097    4.663756   -0.284638
     39          1           0       -3.387322    3.888785   -0.899135
     40          1           0       -4.992759    2.154487   -1.236352
     41          1           0       -5.754401   -0.129296   -0.908644
     42          1           0       -5.444815   -2.334136    0.044844
     43          1           0       -4.127811   -3.912452    1.394073
     44          1           0       -1.885986   -3.242673    2.227801
     45          1           0       -0.956945   -1.069363    1.650033
     46          1           0        0.517816   -3.747620   -2.061261
 ---------------------------------------------------------------------
 Rotational constants (GHZ):           0.2763860           0.1454984           0.1014246
 Standard basis: 6-311+G(d,p) (5D, 7F)
 There are   786 symmetry adapted cartesian basis functions of A   symmetry.
 There are   756 symmetry adapted basis functions of A   symmetry.
   756 basis functions,  1208 primitive gaussians,   786 cartesian basis functions
    98 alpha electrons       98 beta electrons
       nuclear repulsion energy      2600.6770512458 Hartrees.
 NAtoms=   46 NActive=   46 NUniq=   46 SFac= 1.00D+00 NAtFMM=   60 NAOKFM=F Big=F
 Integral buffers will be    131072 words long.
 Raffenetti 2 integral format.
 Two-electron integral symmetry is turned on.
 One-electron integrals computed using PRISM.
 NBasis=   756 RedAO= T EigKep=  1.23D-06  NBF=   756
 NBsUse=   735 1.00D-06 EigRej=  9.43D-07 NBFU=   735
 ExpMin= 4.38D-02 ExpMax= 4.56D+03 ExpMxC= 6.82D+02 IAcc=2 IRadAn=         4 AccDes= 0.00D+00
 Harris functional with IExCor=  402 and IRadAn=       4 diagonalized for initial guess.
 HarFok:  IExCor=  402 AccDes= 0.00D+00 IRadAn=         4 IDoV= 1 UseB2=F ITyADJ=14
 ICtDFT=  3500011 ScaDFX=  1.000000  1.000000  1.000000  1.000000
 FoFCou: FMM=F IPFlag=           0 FMFlag=      100000 FMFlg1=           0
         NFxFlg=           0 DoJE=T BraDBF=F KetDBF=T FulRan=T
         wScrn=  0.000000 ICntrl=       500 IOpCl=  0 I1Cent=   200000004 NGrid=           0
         NMat0=    1 NMatS0=      1 NMatT0=    0 NMatD0=    1 NMtDS0=    0 NMtDT0=    0
 Petite list used in FoFCou.
 Requested convergence on RMS density matrix=1.00D-08 within 128 cycles.
 Requested convergence on MAX density matrix=1.00D-06.
 Requested convergence on             energy=1.00D-06.
 No special actions if energy rises.
 EnCoef did     5 forward-backward iterations
 Restarting incremental Fock formation.
 SCF Done:  E(RB3LYP) =  -1152.95415817     A.U. after   23 cycles
            NFock= 23  Conv=0.49D-08     -V/T= 2.0037

 **********************************************************************

            Population analysis using the SCF Density.

 **********************************************************************

 Orbital symmetries:
       Occupied  (A) (A) (A) (A) (A) (A) (A) (A) (A) (A) (A) (A)
                 (A) (A) (A) (A) (A) (A) (A) (A) (A) (A) (A) (A)
                 (A) (A) (A) (A) (A) (A) (A) (A) (A) (A) (A) (A)
                 (A) (A) (A) (A) (A) (A) (A) (A) (A) (A) (A) (A)
                 (A) (A) (A) (A) (A) (A) (A) (A) (A) (A) (A) (A)
                 (A) (A) (A) (A) (A) (A) (A) (A) (A) (A) (A) (A)
                 (A) (A) (A) (A) (A) (A) (A) (A) (A) (A) (A) (A)
                 (A) (A) (A) (A) (A) (A) (A) (A) (A) (A) (A) (A)
                 (A) (A)
       Virtual   (A) (A) (A) (A) (A) (A) (A) (A) (A) (A) (A) (A)
                 (A) (A) (A) (A) (A) (A) (A) (A) (A) (A) (A) (A)
                 (A) (A) (A) (A) (A) (A) (A) (A) (A) (A) (A) (A)
                 (A) (A) (A) (A) (A) (A) (A) (A) (A) (A) (A) (A)
                 (A) (A) (A) (A) (A) (A) (A) (A) (A) (A) (A) (A)
                 (A) (A) (A) (A) (A) (A) (A) (A) (A) (A) (A) (A)
                 (A) (A) (A) (A) (A) (A) (A) (A) (A) (A) (A) (A)
                 (A) (A) (A) (A) (A) (A) (A) (A) (A) (A) (A) (A)
                 (A) (A) (A) (A) (A) (A) (A) (A) (A) (A) (A) (A)
                 (A) (A) (A) (A) (A) (A) (A) (A) (A) (A) (A) (A)
                 (A) (A) (A) (A) (A) (A) (A) (A) (A) (A) (A) (A)
                 (A) (A) (A) (A) (A) (A) (A) (A) (A) (A) (A) (A)
                 (A) (A) (A) (A) (A) (A) (A) (A) (A) (A) (A) (A)
                 (A) (A) (A) (A) (A) (A) (A) (A) (A) (A) (A) (A)
                 (A) (A) (A) (A) (A) (A) (A) (A) (A) (A) (A) (A)
                 (A) (A) (A) (A) (A) (A) (A) (A) (A) (A) (A) (A)
                 (A) (A) (A) (A) (A) (A) (A) (A) (A) (A) (A) (A)
                 (A) (A) (A) (A) (A) (A) (A) (A) (A) (A) (A) (A)
                 (A) (A) (A) (A) (A) (A) (A) (A) (A) (A) (A) (A)
                 (A) (A) (A) (A) (A) (A) (A) (A) (A) (A) (A) (A)
                 (A) (A) (A) (A) (A) (A) (A) (A) (A) (A) (A) (A)
                 (A) (A) (A) (A) (A) (A) (A) (A) (A) (A) (A) (A)
                 (A) (A) (A) (A) (A) (A) (A) (A) (A) (A) (A) (A)
                 (A) (A) (A) (A) (A) (A) (A) (A) (A) (A) (A) (A)
                 (A) (A) (A) (A) (A) (A) (A) (A) (A) (A) (A) (A)
                 (A) (A) (A) (A) (A) (A) (A) (A) (A) (A) (A) (A)
                 (A) (A) (A) (A) (A) (A) (A) (A) (A) (A) (A) (A)
                 (A) (A) (A) (A) (A) (A) (A) (A) (A) (A) (A) (A)
                 (A) (A) (A) (A) (A) (A) (A) (A) (A) (A) (A) (A)
                 (A) (A) (A) (A) (A) (A) (A) (A) (A) (A) (A) (A)
                 (A) (A) (A) (A) (A) (A) (A) (A) (A) (A) (A) (A)
                 (A) (A) (A) (A) (A) (A) (A) (A) (A) (A) (A) (A)
                 (A) (A) (A) (A) (A) (A) (A) (A) (A) (A) (A) (A)
                 (A) (A) (A) (A) (A) (A) (A) (A) (A) (A) (A) (A)
                 (A) (A) (A) (A) (A) (A) (A) (A) (A) (A) (A) (A)
                 (A) (A) (A) (A) (A) (A) (A) (A) (A) (A) (A) (A)
                 (A) (A) (A) (A) (A) (A) (A) (A) (A) (A) (A) (A)
                 (A) (A) (A) (A) (A) (A) (A) (A) (A) (A) (A) (A)
                 (A) (A) (A) (A) (A) (A) (A) (A) (A) (A) (A) (A)
                 (A) (A) (A) (A) (A) (A) (A) (A) (A) (A) (A) (A)
                 (A) (A) (A) (A) (A) (A) (A) (A) (A) (A) (A) (A)
                 (A) (A) (A) (A) (A) (A) (A) (A) (A) (A) (A) (A)
                 (A) (A) (A) (A) (A) (A) (A) (A) (A) (A) (A) (A)
                 (A) (A) (A) (A) (A) (A) (A) (A) (A) (A) (A) (A)
                 (A) (A) (A) (A) (A) (A) (A) (A) (A) (A) (A) (A)
                 (A) (A) (A) (A) (A) (A) (A) (A) (A) (A) (A) (A)
                 (A) (A) (A) (A) (A) (A) (A) (A) (A) (A) (A) (A)
                 (A) (A) (A) (A) (A) (A) (A) (A) (A) (A) (A) (A)
                 (A) (A) (A) (A) (A) (A) (A) (A) (A) (A) (A) (A)
                 (A) (A) (A) (A) (A) (A) (A) (A) (A) (A) (A) (A)
                 (A) (A) (A) (A) (A) (A) (A) (A) (A) (A) (A) (A)
                 (A) (A) (A) (A) (A) (A) (A) (A) (A) (A) (A) (A)
                 (A) (A) (A) (A) (A) (A) (A) (A) (A) (A) (A) (A)
                 (A)
 The electronic state is 1-A.
 Alpha  occ. eigenvalues --  -10.21439 -10.20418 -10.20388 -10.20222 -10.20199
 Alpha  occ. eigenvalues --  -10.20136 -10.20017 -10.19885 -10.19326 -10.19204
 Alpha  occ. eigenvalues --  -10.18885 -10.18881 -10.18791 -10.18631 -10.18184
 Alpha  occ. eigenvalues --  -10.18051 -10.17719 -10.17641 -10.17569 -10.17398
 Alpha  occ. eigenvalues --  -10.17277 -10.17256 -10.17003 -10.16954 -10.16836
 Alpha  occ. eigenvalues --  -10.16702 -10.16415 -10.16270 -10.16164 -10.14164
 Alpha  occ. eigenvalues --   -0.93401  -0.89193  -0.87507  -0.85864  -0.84584
 Alpha  occ. eigenvalues --   -0.82799  -0.81506  -0.79083  -0.78152  -0.76617
 Alpha  occ. eigenvalues --   -0.74590  -0.73748  -0.73127  -0.71765  -0.70812
 Alpha  occ. eigenvalues --   -0.66997  -0.65122  -0.63824  -0.63410  -0.61496
 Alpha  occ. eigenvalues --   -0.60959  -0.60100  -0.58878  -0.56450  -0.53930
 Alpha  occ. eigenvalues --   -0.53176  -0.52381  -0.51498  -0.50331  -0.50162
 Alpha  occ. eigenvalues --   -0.48521  -0.47571  -0.46937  -0.45919  -0.45148
 Alpha  occ. eigenvalues --   -0.44705  -0.44148  -0.43753  -0.43674  -0.42862
 Alpha  occ. eigenvalues --   -0.42650  -0.42283  -0.41769  -0.41330  -0.40425
 Alpha  occ. eigenvalues --   -0.40356  -0.40136  -0.39264  -0.38131  -0.37327
 Alpha  occ. eigenvalues --   -0.36569  -0.35785  -0.35592  -0.35198  -0.34929
 Alpha  occ. eigenvalues --   -0.34410  -0.33195  -0.32960  -0.32276  -0.30083
 Alpha  occ. eigenvalues --   -0.28555  -0.27761  -0.25347  -0.24737  -0.22652
 Alpha  occ. eigenvalues --   -0.21385  -0.19898  -0.15885
 Alpha virt. eigenvalues --   -0.12139  -0.07177  -0.05807  -0.03947  -0.02745
 Alpha virt. eigenvalues --   -0.00598  -0.00396   0.00395   0.00632   0.01121
 Alpha virt. eigenvalues --    0.01270   0.01497   0.01679   0.02324   0.02744
 Alpha virt. eigenvalues --    0.02908   0.03216   0.03472   0.03910   0.04426
 Alpha virt. eigenvalues --    0.04728   0.05061   0.05265   0.05766   0.05998
 Alpha virt. eigenvalues --    0.06414   0.06719   0.06992   0.07282   0.07651
 Alpha virt. eigenvalues --    0.07960   0.08431   0.08572   0.09028   0.09302
 Alpha virt. eigenvalues --    0.09693   0.09873   0.10180   0.10700   0.10980
 Alpha virt. eigenvalues --    0.11279   0.11508   0.12010   0.12406   0.12639
 Alpha virt. eigenvalues --    0.13031   0.13351   0.13593   0.13945   0.14417
 Alpha virt. eigenvalues --    0.14624   0.14970   0.15146   0.15403   0.15944
 Alpha virt. eigenvalues --    0.16298   0.16446   0.16498   0.16577   0.16698
 Alpha virt. eigenvalues --    0.17246   0.17349   0.17479   0.17690   0.17838
 Alpha virt. eigenvalues --    0.18041   0.18257   0.18607   0.18804   0.18999
 Alpha virt. eigenvalues --    0.19176   0.19378   0.19730   0.20005   0.20311
 Alpha virt. eigenvalues --    0.20410   0.20567   0.20630   0.20909   0.21085
 Alpha virt. eigenvalues --    0.21262   0.21357   0.21809   0.21993   0.22300
 Alpha virt. eigenvalues --    0.22636   0.22716   0.23114   0.23269   0.23327
 Alpha virt. eigenvalues --    0.23538   0.23798   0.23897   0.24164   0.24384
 Alpha virt. eigenvalues --    0.24708   0.24879   0.24956   0.25125   0.25514
 Alpha virt. eigenvalues --    0.25563   0.25810   0.26525   0.26582   0.26827
 Alpha virt. eigenvalues --    0.27078   0.27437   0.27730   0.27838   0.28458
 Alpha virt. eigenvalues --    0.28770   0.29039   0.29297   0.29580   0.29727
 Alpha virt. eigenvalues --    0.29773   0.30004   0.30333   0.30465   0.30753
 Alpha virt. eigenvalues --    0.31096   0.31380   0.31787   0.31980   0.32523
 Alpha virt. eigenvalues --    0.32882   0.33117   0.33286   0.33454   0.33871
 Alpha virt. eigenvalues --    0.34170   0.34496   0.34739   0.35099   0.35750
 Alpha virt. eigenvalues --    0.36005   0.36517   0.36792   0.36966   0.38502
 Alpha virt. eigenvalues --    0.38669   0.38939   0.39610   0.39961   0.40383
 Alpha virt. eigenvalues --    0.40947   0.41519   0.42232   0.42823   0.43194
 Alpha virt. eigenvalues --    0.43942   0.44138   0.44934   0.45520   0.46432
 Alpha virt. eigenvalues --    0.46960   0.47754   0.48577   0.49071   0.49867
 Alpha virt. eigenvalues --    0.50015   0.50266   0.51388   0.51910   0.52856
 Alpha virt. eigenvalues --    0.52967   0.53629   0.53815   0.54005   0.54356
 Alpha virt. eigenvalues --    0.54805   0.55350   0.55728   0.55976   0.56566
 Alpha virt. eigenvalues --    0.56954   0.57308   0.57776   0.58016   0.58582
 Alpha virt. eigenvalues --    0.58936   0.59246   0.59681   0.59743   0.59975
 Alpha virt. eigenvalues --    0.60421   0.61072   0.61371   0.61704   0.61957
 Alpha virt. eigenvalues --    0.62263   0.63325   0.63492   0.63562   0.64039
 Alpha virt. eigenvalues --    0.64323   0.64844   0.65060   0.65449   0.65657
 Alpha virt. eigenvalues --    0.66396   0.66926   0.67170   0.67619   0.67994
 Alpha virt. eigenvalues --    0.68256   0.68729   0.69133   0.69874   0.69951
 Alpha virt. eigenvalues --    0.70085   0.70297   0.70964   0.71535   0.71846
 Alpha virt. eigenvalues --    0.72543   0.72690   0.73029   0.73393   0.73739
 Alpha virt. eigenvalues --    0.73864   0.74485   0.74784   0.74927   0.75420
 Alpha virt. eigenvalues --    0.75674   0.76274   0.76731   0.76919   0.77176
 Alpha virt. eigenvalues --    0.77846   0.77991   0.78204   0.78823   0.79473
 Alpha virt. eigenvalues --    0.80015   0.81205   0.81688   0.81985   0.82299
 Alpha virt. eigenvalues --    0.83359   0.83786   0.84318   0.84935   0.85469
 Alpha virt. eigenvalues --    0.85737   0.86838   0.87591   0.87910   0.88215
 Alpha virt. eigenvalues --    0.88469   0.89529   0.89838   0.90164   0.90613
 Alpha virt. eigenvalues --    0.91666   0.92042   0.92223   0.92736   0.93603
 Alpha virt. eigenvalues --    0.93734   0.94519   0.94712   0.95042   0.95265
 Alpha virt. eigenvalues --    0.95752   0.95930   0.96341   0.96826   0.97226
 Alpha virt. eigenvalues --    0.97497   0.98261   0.98470   0.98766   0.99999
 Alpha virt. eigenvalues --    1.00184   1.00516   1.01455   1.02002   1.02451
 Alpha virt. eigenvalues --    1.03346   1.03550   1.03701   1.04047   1.04870
 Alpha virt. eigenvalues --    1.05247   1.05743   1.05979   1.06906   1.07168
 Alpha virt. eigenvalues --    1.08314   1.08818   1.09184   1.09661   1.10918
 Alpha virt. eigenvalues --    1.11466   1.13171   1.13245   1.14097   1.14455
 Alpha virt. eigenvalues --    1.15588   1.15932   1.16221   1.17674   1.17948
 Alpha virt. eigenvalues --    1.19903   1.20191   1.21309   1.22059   1.23110
 Alpha virt. eigenvalues --    1.23510   1.23936   1.25096   1.26645   1.27562
 Alpha virt. eigenvalues --    1.29062   1.30557   1.32816   1.33972   1.34700
 Alpha virt. eigenvalues --    1.35529   1.37656   1.38465   1.39080   1.39383
 Alpha virt. eigenvalues --    1.39853   1.41798   1.43334   1.45554   1.45978
 Alpha virt. eigenvalues --    1.47154   1.47615   1.48011   1.48486   1.49064
 Alpha virt. eigenvalues --    1.49538   1.49780   1.50670   1.51502   1.51895
 Alpha virt. eigenvalues --    1.52845   1.53079   1.53925   1.54186   1.54645
 Alpha virt. eigenvalues --    1.55797   1.56384   1.57010   1.57481   1.57848
 Alpha virt. eigenvalues --    1.58222   1.59544   1.59698   1.60305   1.60849
 Alpha virt. eigenvalues --    1.61756   1.62650   1.63068   1.63664   1.64350
 Alpha virt. eigenvalues --    1.66185   1.66465   1.67641   1.68055   1.68518
 Alpha virt. eigenvalues --    1.69097   1.70266   1.71690   1.72153   1.72162
 Alpha virt. eigenvalues --    1.72847   1.73288   1.74331   1.74479   1.76159
 Alpha virt. eigenvalues --    1.76740   1.76772   1.77988   1.78175   1.79266
 Alpha virt. eigenvalues --    1.79569   1.81104   1.81765   1.81983   1.82777
 Alpha virt. eigenvalues --    1.83650   1.84245   1.84362   1.84877   1.85221
 Alpha virt. eigenvalues --    1.85735   1.86888   1.87241   1.87728   1.88689
 Alpha virt. eigenvalues --    1.88955   1.89342   1.90108   1.91026   1.91290
 Alpha virt. eigenvalues --    1.91554   1.92268   1.92934   1.94172   1.94433
 Alpha virt. eigenvalues --    1.94656   1.95263   1.96178   1.96442   1.97314
 Alpha virt. eigenvalues --    1.97870   1.98302   1.99067   1.99741   2.00254
 Alpha virt. eigenvalues --    2.00360   2.01975   2.03172   2.03595   2.04820
 Alpha virt. eigenvalues --    2.05172   2.05572   2.05987   2.06881   2.07531
 Alpha virt. eigenvalues --    2.09762   2.09791   2.10325   2.11349   2.11779
 Alpha virt. eigenvalues --    2.12269   2.13117   2.14298   2.15225   2.15502
 Alpha virt. eigenvalues --    2.16763   2.18011   2.18355   2.19479   2.19753
 Alpha virt. eigenvalues --    2.21616   2.22308   2.23986   2.24858   2.25733
 Alpha virt. eigenvalues --    2.25876   2.26966   2.28427   2.28766   2.30436
 Alpha virt. eigenvalues --    2.31809   2.33004   2.34101   2.35945   2.36191
 Alpha virt. eigenvalues --    2.38312   2.38940   2.40646   2.42146   2.43413
 Alpha virt. eigenvalues --    2.43943   2.45020   2.45286   2.47097   2.47868
 Alpha virt. eigenvalues --    2.49344   2.50078   2.50732   2.53016   2.54340
 Alpha virt. eigenvalues --    2.55900   2.56590   2.57590   2.58722   2.59261
 Alpha virt. eigenvalues --    2.60608   2.62482   2.63696   2.64512   2.66654
 Alpha virt. eigenvalues --    2.67477   2.68353   2.69282   2.69772   2.70149
 Alpha virt. eigenvalues --    2.70333   2.71171   2.72325   2.72406   2.72488
 Alpha virt. eigenvalues --    2.73172   2.73462   2.74315   2.74627   2.75486
 Alpha virt. eigenvalues --    2.75881   2.76116   2.76307   2.76625   2.77553
 Alpha virt. eigenvalues --    2.77735   2.78203   2.78709   2.78937   2.79772
 Alpha virt. eigenvalues --    2.80206   2.80680   2.80968   2.81785   2.83671
 Alpha virt. eigenvalues --    2.84258   2.85906   2.86468   2.87251   2.87549
 Alpha virt. eigenvalues --    2.87771   2.88888   2.89721   2.90688   2.91235
 Alpha virt. eigenvalues --    2.92337   2.93599   2.94564   2.95500   2.96154
 Alpha virt. eigenvalues --    2.97549   2.98029   2.99590   3.01343   3.02831
 Alpha virt. eigenvalues --    3.04520   3.05200   3.07158   3.08117   3.11524
 Alpha virt. eigenvalues --    3.12744   3.13151   3.15465   3.16556   3.17211
 Alpha virt. eigenvalues --    3.18464   3.20731   3.22133   3.22562   3.23060
 Alpha virt. eigenvalues --    3.24024   3.25182   3.26906   3.28327   3.33224
 Alpha virt. eigenvalues --    3.34597   3.36171   3.37825   3.39103   3.39960
 Alpha virt. eigenvalues --    3.40636   3.41492   3.42859   3.44317   3.44955
 Alpha virt. eigenvalues --    3.46165   3.47104   3.47818   3.48206   3.50046
 Alpha virt. eigenvalues --    3.51468   3.51934   3.55140   3.56184   3.56926
 Alpha virt. eigenvalues --    3.59152   3.60961   3.63154   3.64251   3.65493
 Alpha virt. eigenvalues --    3.66975   3.69954   3.73358   3.76500   3.82516
 Alpha virt. eigenvalues --    3.86177   3.86360   3.94073   4.00258   4.05056
 Alpha virt. eigenvalues --    4.06469   4.06864   4.07800   4.10207   4.10939
 Alpha virt. eigenvalues --    4.11496   4.13900   4.19916   4.21807   4.26201
 Alpha virt. eigenvalues --    4.30516   4.36719   4.44222   4.68422   4.75940
 Alpha virt. eigenvalues --    4.77502   4.78273   4.80868   4.82567   4.83876
 Alpha virt. eigenvalues --    4.85638   4.89102  23.42187  23.60117  23.73406
 Alpha virt. eigenvalues --   23.80841  23.84385  23.87659  23.91649  23.92719
 Alpha virt. eigenvalues --   23.94885  23.95935  23.97851  23.98249  24.00248
 Alpha virt. eigenvalues --   24.00777  24.02624  24.02995  24.03948  24.05575
 Alpha virt. eigenvalues --   24.06423  24.07701  24.07998  24.08812  24.09029
 Alpha virt. eigenvalues --   24.11092  24.15632  24.16942  24.17944  24.19912
 Alpha virt. eigenvalues --   24.23341  24.34131
          Condensed to atoms (all electrons):
               1          2          3          4          5          6
     1  C    9.839106   0.044498  -0.587329  -0.714416  -0.582288  -1.071391
     2  C    0.044498   8.368972   0.246289  -0.077267  -0.230930   0.047001
     3  C   -0.587329   0.246289   8.261761   0.259115   0.388280   0.429017
     4  C   -0.714416  -0.077267   0.259115   7.313551   0.146700   1.429436
     5  C   -0.582288  -0.230930   0.388280   0.146700   7.554567   0.319238
     6  C   -1.071391   0.047001   0.429017   1.429436   0.319238  11.843870
     7  C   -0.583113  -0.048378  -0.842011  -0.780059   0.740278  -2.698505
     8  C   -0.245367   0.043780  -0.967908   0.314599  -1.371770  -1.230665
     9  C   -0.014734  -0.017208   0.292257   0.503101   0.914672   0.573093
    10  C   -0.596619  -0.160237   1.241064   0.577842  -0.051037  -0.280736
    11  C   -0.360277  -1.233345   0.004616  -0.633425   0.635623  -0.067751
    12  C   -0.218290  -0.310246   0.560704  -0.428714  -0.402749   0.120355
    13  C   -0.857661  -0.082768  -0.597102  -0.002286   0.143463   0.926356
    14  C   -2.693694  -0.907101   0.211517   1.074139  -0.128718  -0.601831
    15  C    2.212209   0.509376  -0.153876  -2.400762  -0.903943  -3.803794
    16  C    0.639667   0.217605  -0.363083  -0.027465  -0.235221  -0.006314
    17  C   -0.495048   0.180602   0.386654  -0.201745  -0.038963   0.061107
    18  C    0.041454   0.209317   0.389011  -0.024270  -0.664863  -0.039764
    19  C    0.366885   0.259173  -0.098897  -0.024932  -0.283213   0.019274
    20  C   -0.126137   0.004035  -0.218358   0.081163   0.125202   0.001009
    21  C    0.062424  -0.344198  -0.093160  -0.003123   0.011130   0.028242
    22  C    0.573879  -0.621654  -1.578671  -0.135887   0.132977   0.035960
    23  C    0.738686  -0.373395  -0.540176   0.022075  -0.048789  -0.015205
    24  C    0.252452  -0.122515   0.017005  -0.030717  -0.012845  -0.050364
    25  C    0.008144   0.030439  -0.071046  -0.014902  -0.000401  -0.014183
    26  C    0.125263  -0.009489  -0.307895  -0.028077   0.029552  -0.012556
    27  C   -0.182479   0.100798  -0.044047  -0.016369   0.010560  -0.000610
    28  C    0.016066  -0.132363  -0.004837   0.005812   0.000085   0.022609
    29  C    0.086204   0.159206  -0.063861  -0.085130   0.031348  -0.024522
    30  C   -0.236730   0.215173  -0.332638  -0.155685  -0.005579   0.010470
    31  H    0.010882  -0.005694  -0.003181  -0.014771  -0.007490  -0.046403
    32  H    0.007464  -0.002283   0.004759   0.030739  -0.016716  -0.136676
    33  H   -0.007297   0.003391  -0.000926   0.007913  -0.009625  -0.120333
    34  H   -0.001422   0.002797  -0.017466  -0.001449   0.023776  -0.011160
    35  H    0.003791  -0.001207   0.005030  -0.012266   0.020399   0.007707
    36  H    0.002193  -0.008193   0.019096  -0.001437  -0.004487   0.001221
    37  H    0.000955  -0.009954   0.019418   0.003063  -0.005353  -0.000419
    38  H   -0.001209  -0.014629   0.007812   0.000055   0.001498   0.000069
    39  H    0.000442  -0.003820   0.000508   0.000145   0.000014   0.000007
    40  H   -0.000567   0.002555  -0.000199   0.000030   0.000020  -0.000001
    41  H    0.000665  -0.000484   0.000005  -0.000001  -0.000006  -0.000008
    42  H   -0.000677   0.000195   0.000063   0.000020   0.000002  -0.000017
    43  H    0.000243   0.000752   0.000008  -0.000053   0.000007  -0.000022
    44  H   -0.004127  -0.002258   0.000417  -0.000606   0.000063   0.002632
    45  H   -0.005789  -0.009639   0.007684  -0.002049  -0.008781   0.002063
    46  H    0.033088  -0.016022   0.001902  -0.016057  -0.010581  -0.119430
               7          8          9         10         11         12
     1  C   -0.583113  -0.245367  -0.014734  -0.596619  -0.360277  -0.218290
     2  C   -0.048378   0.043780  -0.017208  -0.160237  -1.233345  -0.310246
     3  C   -0.842011  -0.967908   0.292257   1.241064   0.004616   0.560704
     4  C   -0.780059   0.314599   0.503101   0.577842  -0.633425  -0.428714
     5  C    0.740278  -1.371770   0.914672  -0.051037   0.635623  -0.402749
     6  C   -2.698505  -1.230665   0.573093  -0.280736  -0.067751   0.120355
     7  C   10.878152   0.773532  -0.818340  -0.021268   0.102305  -0.493542
     8  C    0.773532   9.799699  -1.501558   0.581823  -0.406891  -0.538495
     9  C   -0.818340  -1.501558   9.653021   0.651719  -0.962092  -1.274230
    10  C   -0.021268   0.581823   0.651719  10.868746  -1.028550  -1.141906
    11  C    0.102305  -0.406891  -0.962092  -1.028550  10.101526   1.911346
    12  C   -0.493542  -0.538495  -1.274230  -1.141906   1.911346   8.597245
    13  C    0.300888   0.461271  -0.010413   0.053985  -0.169511  -0.212526
    14  C   -0.283893  -0.453608   0.236756  -0.012225   0.098289  -0.078224
    15  C    0.229526   0.344752  -0.488541  -0.359288  -0.214024  -0.022425
    16  C   -0.186404  -0.034480  -0.566977  -1.833289  -1.031792   0.030117
    17  C   -0.113223   0.013280  -0.329140  -0.238972   0.470142   0.044655
    18  C   -0.139298   0.180192  -0.666236   0.784978  -1.004460  -0.051010
    19  C    0.031110   0.000258   0.010621  -0.880646  -0.201317  -0.026363
    20  C    0.003961  -0.014603  -0.093042  -0.020338   0.082406   0.006375
    21  C    0.003086   0.004743  -0.000257   0.000209  -0.045799  -0.025641
    22  C   -0.049024   0.033437  -0.156206  -1.506668   0.062902  -0.118731
    23  C   -0.023567  -0.009150  -0.084796  -0.508580  -0.068405   0.008057
    24  C   -0.008894  -0.003117  -0.007437   0.022000   0.002677   0.007504
    25  C   -0.001983  -0.000057  -0.004646  -0.022832  -0.000601   0.000134
    26  C   -0.007147   0.001198  -0.010321  -0.100321  -0.000985   0.000190
    27  C   -0.008017   0.000898   0.003219  -0.004576  -0.001546   0.001065
    28  C    0.004682   0.000699   0.000269  -0.001382   0.000552  -0.000749
    29  C   -0.022269   0.001024  -0.001817   0.037037  -0.001895   0.013541
    30  C   -0.055768   0.039354   0.043574  -0.091143  -0.054133   0.020377
    31  H    0.003861   0.002372  -0.000890  -0.000449  -0.000151   0.000111
    32  H    0.011604  -0.002176   0.010904  -0.000958   0.000275  -0.000202
    33  H    0.368158   0.036434  -0.006156   0.001262  -0.000536   0.006266
    34  H    0.021677   0.407441  -0.108017   0.003109   0.003464   0.014164
    35  H    0.000305  -0.002705  -0.091086   0.014709  -0.003408   0.383689
    36  H   -0.001703   0.001375  -0.028871  -0.088275   0.369943  -0.031721
    37  H    0.000253   0.000405   0.008651  -0.034092   0.041809   0.009465
    38  H    0.000020  -0.000015   0.000191   0.048776   0.006949   0.000481
    39  H   -0.000000  -0.000000  -0.000002   0.001844   0.000258  -0.000004
    40  H    0.000000  -0.000000  -0.000006   0.000316   0.000016   0.000002
    41  H   -0.000000   0.000000   0.000000   0.000020   0.000000   0.000000
    42  H    0.000000  -0.000000   0.000000   0.000014   0.000000   0.000000
    43  H   -0.000001  -0.000001  -0.000000   0.000009   0.000000   0.000000
    44  H    0.000552   0.000058  -0.000002  -0.000073  -0.000003  -0.000034
    45  H    0.002255   0.000194  -0.000103  -0.010825  -0.002249  -0.001151
    46  H    0.021998  -0.000797  -0.001211  -0.001922  -0.000048  -0.000253
              13         14         15         16         17         18
     1  C   -0.857661  -2.693694   2.212209   0.639667  -0.495048   0.041454
     2  C   -0.082768  -0.907101   0.509376   0.217605   0.180602   0.209317
     3  C   -0.597102   0.211517  -0.153876  -0.363083   0.386654   0.389011
     4  C   -0.002286   1.074139  -2.400762  -0.027465  -0.201745  -0.024270
     5  C    0.143463  -0.128718  -0.903943  -0.235221  -0.038963  -0.664863
[...]
 0.00013195,0.00102406,0.00003666,-0.00054660,-0.00017766,-0.00012354,-
 0.01361861,0.01583156,0.00550226,-0.21027001,0.12721101,0.06542465,0.0
 0275969,-0.00164210,0.00065355,0.00279682,0.00047649,0.00163323,0.0000
 0017,-0.00000292,-0.00000764,0.00000342,-0.00000203,-0.00000803,0.0000
 0407,0.00000045,-0.00000012,0.00000135,0.00000540,-0.00000041,0.000001
 04,0.00000517,-0.00000106,-0.00000420,0.00000212,-0.00000110,-0.000004
 06,0.00000241,0.00000144,-0.00000347,0.00001063,0.00000498,-0.00000249
 ,-0.00000857,-0.00000111,-0.00012359,0.00005920,-0.00002746,0.00001790
 ,-0.00002164,0.00008777,-0.00046294,-0.00094212,-0.00230860,0.21974953
 ,0.00007658,-0.00000370,0.00000463,0.00001221,-0.00001662,-0.00000996,
 -0.00000142,0.00005989,-0.00001909,0.00000592,0.00006227,-0.00004078,0
 .00000374,-0.00004371,0.00001233,-0.00004186,0.00004026,-0.00002376,-0
 .00000051,-0.00002076,0.00001553,-0.00001732,0.00001645,-0.00000826,0.
 00002360,0.00002837,-0.00000106,0.00001973,-0.00000988,0.00000044,-0.0
 0000049,0.00000145,-0.00000037,0.00000361,-0.00000486,0.00000231,0.000
 02967,0.00000713,-0.00002577,-0.00003857,-0.00001994,-0.00002906,-0.00
 003018,-0.00005518,0.00003170,-0.00000864,0.00005155,-0.00003482,-0.00
 000444,0.00001272,-0.00001792,0.00000080,-0.00001304,0.00000426,0.0001
 1663,-0.00007898,-0.00036315,-0.00001588,-0.00025295,0.00012809,-0.000
 02444,0.00005899,0.00001313,-0.00000893,-0.00004976,0.00000841,-0.0008
 4136,-0.00013935,0.00040233,-0.00133509,0.00036202,0.00338522,0.000008
 06,0.00038374,0.00003321,-0.00027913,0.00012123,-0.00012666,-0.0098815
 7,0.01015151,0.00400018,0.12790714,-0.15484113,-0.03907020,0.02346668,
 -0.01219193,-0.00993930,-0.00018222,-0.00426870,0.00401773,-0.00001075
 ,-0.00001528,-0.00000294,-0.00000789,-0.00000583,0.00001004,-0.0000031
 9,-0.00000253,-0.00000148,-0.00000188,-0.00000428,-0.00000071,-0.00000
 021,-0.00000327,0.00000121,0.00000208,-0.00000188,0.00000100,0.0000032
 3,-0.00000335,0.00000211,0.00000434,-0.00000144,0.00000368,0.00000981,
 -0.00000097,-0.00000031,-0.00005865,0.00002044,-0.00002057,0.00001633,
 0.00000325,0.00003686,-0.00036152,0.00045539,-0.00146870,-0.13862046,0
 .16025606,0.00003682,0.00000854,-0.00004529,0.00001102,0.00007093,0.00
 003843,-0.00001831,-0.00003448,0.00003220,0.00001865,-0.00001179,0.000
 01007,0.00000439,0.00004601,-0.00000121,-0.00002548,0.00003211,-0.0000
 1226,0.00000168,-0.00001648,0.00000568,-0.00001985,0.00000249,-0.00000
 314,0.00005096,-0.00003663,0.00000931,-0.00006382,-0.00006708,0.000003
 86,0.00002803,0.00006795,-0.00001286,-0.00006910,-0.00001902,-0.000009
 58,-0.00002868,0.00007062,-0.00003130,0.00000725,-0.00004118,0.0000102
 1,-0.00002210,-0.00004593,0.00001050,0.00009048,0.00003684,-0.00006936
 ,-0.00003242,-0.00007467,0.00000878,0.00003426,0.00008533,-0.00002010,
 -0.00038571,-0.00029441,-0.00051977,-0.00001780,0.00012317,0.00007094,
 0.00003168,-0.00005978,0.00006262,0.00005267,0.00003578,-0.00002125,0.
 00002956,0.00060888,-0.00092599,0.00530427,0.00338232,0.00418942,0.000
 55034,-0.00083571,0.00016150,0.00012955,-0.00000373,-0.00054172,0.0132
 2657,-0.01238347,-0.00059888,0.06595045,-0.03870786,-0.06465150,-0.008
 20025,0.00618838,0.00593644,0.00194666,0.00346128,0.00317526,-0.000009
 40,-0.00002323,0.00001503,-0.00000208,-0.00000908,-0.00000271,0.000000
 16,-0.00000087,-0.00000056,-0.00000059,0.00000081,0.00000026,-0.000002
 00,0.00000152,0.00000228,0.00000084,-0.00000045,-0.00000047,0.00000190
 ,-0.00000158,0.00000642,0.00000241,-0.00000025,0.00000907,-0.00000304,
 -0.00000202,-0.00000049,0.00007279,-0.00005086,-0.00001214,0.00002414,
 0.00006354,0.00007943,-0.00246728,-0.00097403,-0.00295466,-0.07442491,
 0.04031142,0.05798235,-0.00006266,-0.00008522,-0.00003792,-0.00002474,
 -0.00010792,-0.00006174,0.00003361,0.00008003,-0.00003529,0.00003404,0
 .00005781,0.00001209,-0.00002497,-0.00004626,0.00001490,0.00000322,-0.
 00001389,-0.00001008,0.00000496,0.00000187,-0.00000710,-0.00001195,-0.
 00000940,-0.00000203,-0.00002477,0.00008120,-0.00001716,0.00004188,0.0
 0005331,0.00000229,-0.00002857,-0.00005597,0.00000772,0.00006797,-0.00
 000496,0.00000792,-0.00002088,0.00006450,0.00007890,0.00006037,-0.0000
 2053,0.00004324,0.00003793,-0.00000064,-0.00001469,0.00002336,-0.00008
 003,0.00007449,0.00001423,0.00011419,-0.00000525,-0.00003479,-0.000086
 15,-0.00000513,0.00010485,-0.00101265,0.00047149,-0.00047098,-0.000092
 55,-0.00008091,-0.00008921,-0.00005545,-0.00002701,-0.00008075,-0.0000
 5683,0.00001830,-0.00005896,0.00481049,0.00417873,-0.00058031,0.000422
 68,-0.00038386,0.00028564,-0.00016005,-0.00059836,-0.00015905,0.000499
 22,0.00005031,0.00289827,0.00131828,0.00153707,0.00404428,0.00159846,-
 0.00152118,-0.18973174,-0.06194028,0.12969228,-0.01195575,-0.00995960,
 0.01461754,0.00001031,-0.00001040,0.00000405,0.00000397,-0.00000805,-0
 .00001753,0.00000374,0.00000104,0.00000417,0.00000110,0.00000610,0.000
 00268,0.00000210,0.00000598,0.00000004,-0.00000492,0.00000202,0.000003
 01,-0.00000516,0.00000616,-0.00000255,-0.00000298,0.00001264,0.0000082
 5,-0.00004922,0.00001873,-0.00000763,-0.00001275,0.00000126,0.00003213
 ,-0.00001133,-0.00002159,0.00003113,0.00019718,0.00023310,0.00002078,-
 0.00040796,-0.00104188,-0.00147740,0.19682735,0.00001829,0.00004432,0.
 00000901,0.00006517,-0.00003927,-0.00002426,-0.00001733,0.00004548,-0.
 00001324,0.00001779,-0.00010308,-0.00000313,-0.00003592,0.00002439,-0.
 00001875,-0.00000422,-0.00000195,0.00001252,-0.00000890,-0.00002087,0.
 00000842,-0.00000685,0.00000348,-0.00000110,0.00002050,-0.00003265,0.0
 0001563,0.00000971,-0.00002909,0.00000751,0.00001271,0.00003139,-0.000
 00409,-0.00003738,-0.00001197,-0.00000508,-0.00000613,0.00001500,0.000
 04420,-0.00000874,-0.00001005,0.00001050,-0.00000881,-0.00001045,-0.00
 002230,-0.00000661,0.00000820,0.00008505,-0.00003302,-0.00002359,-0.00
 000961,0.00000631,0.00001351,-0.00000399,0.00048804,0.00066076,-0.0003
 9920,0.00012968,-0.00014500,-0.00018591,0.00008067,0.00003765,0.000000
 72,0.00000911,0.00003542,-0.00000553,0.00391261,-0.00147946,0.00063893
 ,0.00058616,-0.00069344,-0.00028428,-0.00028978,0.00006463,-0.00018717
 ,0.00003745,-0.00006945,0.00003931,0.00200719,-0.00478838,0.00253542,-
 0.02249440,-0.00549147,0.01853260,-0.06331680,-0.08838843,0.06421660,0
 .01520449,0.00955588,-0.01287589,-0.00001368,0.00000955,-0.00001568,0.
 00000070,0.00000277,-0.00001251,0.00000237,0.00000046,-0.00000277,-0.0
 0000025,0.00000252,-0.00000231,-0.00000096,0.00000334,-0.00000102,-0.0
 0000195,0.00000105,-0.00000080,-0.00000225,-0.00000164,0.00000198,-0.0
 0000109,0.00000036,-0.00000089,0.00002331,-0.00001203,-0.00000116,-0.0
 0000765,0.00001365,0.00001924,0.00006349,0.00004635,-0.00003013,-0.001
 15170,-0.00047611,0.00075056,-0.00020221,0.00065032,-0.00125025,0.0662
 0584,0.09000957,0.00004736,0.00005690,-0.00015025,0.00009298,-0.000226
 36,-0.00005724,-0.00007102,0.00025412,-0.00007695,0.00007975,-0.000163
 50,-0.00002469,-0.00010341,-0.00000530,0.00000365,-0.00006993,0.000041
 72,-0.00002056,-0.00002848,-0.00008133,0.00003025,-0.00004364,0.000045
 33,-0.00001077,0.00006669,-0.00002227,0.00001204,0.00011441,-0.0000588
 1,0.00002253,0.00000630,0.00007778,-0.00001216,-0.00007183,-0.00004016
 ,-0.00000970,0.00010597,0.00010307,0.00024004,-0.00000300,-0.00016584,
 0.00008326,-0.00003591,-0.00013275,-0.00002273,0.00003436,0.00015172,0
 .00011985,0.00007264,0.00002127,-0.00007633,-0.00004348,-0.00004840,0.
 00000953,0.00073730,0.00021860,-0.00011131,-0.00013052,-0.00056099,-0.
 00032062,-0.00009937,0.00004809,-0.00001191,0.00001895,-0.00008533,0.0
 0002814,0.00282126,0.00012880,0.00595629,-0.00105480,-0.00028155,-0.00
 000563,0.00013293,-0.00015212,-0.00075468,-0.00014689,0.00041174,0.000
 07352,0.00120340,0.00320356,0.00342974,0.00756113,0.00067073,-0.002666
 45,0.12957100,0.06500707,-0.14994065,0.00689193,0.00375864,-0.00245652
 ,-0.00009149,0.00000967,-0.00010605,-0.00000917,-0.00001878,-0.0000274
 3,0.00000192,0.,-0.00000409,-0.00000407,0.00000225,-0.00000320,-0.0000
 0349,0.00000314,0.00000091,-0.00000195,0.00000087,0.00000211,-0.000003
 85,-0.00000089,0.00000397,-0.00000251,-0.00000525,0.00000537,0.0000095
 2,0.00000037,-0.00000311,0.00002098,0.00001519,0.00003666,-0.00000184,
 0.00001526,0.00003079,0.00059517,0.00016200,-0.00012079,-0.00163292,-0
 .00075998,-0.00160148,-0.14402154,-0.07038842,0.15110523,0.00046443,-0
 .00014539,-0.00000200,0.00029001,0.00079396,0.00049948,-0.00007440,0.0
 0038852,-0.00002499,-0.00007780,-0.00055922,-0.00001367,-0.00008870,0.
 00027383,-0.00005699,0.00002149,0.00000433,0.00004777,-0.00003853,-0.0
 0005020,0.00001463,-0.00004363,-0.00000137,0.00000517,0.00014491,-0.00
 019156,0.00004986,-0.00001096,-0.00018223,-0.00001776,0.00011222,0.000
 31493,-0.00005522,-0.00029122,-0.00008507,-0.00004155,-0.00038355,0.00
 003132,-0.00064891,0.00001215,-0.00013965,0.00009340,-0.00007687,-0.00
 004372,-0.00007712,-0.00050062,0.00006020,0.00043884,-0.00038437,-0.00
 000763,-0.00011412,0.00015555,0.00010351,0.00005189,0.00047573,-0.0008
 5882,-0.00167859,-0.00041480,-0.00023526,-0.00004645,0.00022737,-0.000
 17045,0.00012802,0.00012373,0.00014511,-0.00008901,0.00329509,-0.02191
 938,0.00839609,-0.00221790,-0.00011926,0.00470070,0.00039800,-0.001059
 16,0.00009577,-0.00000771,0.00005289,-0.00008014,-0.00064637,-0.000205
 42,-0.00007502,-0.00097025,0.00334686,0.00496259,0.00333986,0.02397238
 ,-0.00809914,-0.05095812,0.00997486,0.00707058,-0.00003030,0.00001668,
 -0.00003685,-0.00001482,-0.00002530,-0.00003450,-0.00000196,-0.0000046
 4,-0.00001158,-0.00000491,-0.00000028,-0.00000357,-0.00001114,0.000002
 00,0.00000662,0.00000382,-0.00000669,-0.00000107,0.00000590,-0.0000101
 9,0.00002126,0.00001691,0.00001339,0.00000185,0.00001217,-0.00000138,0
 .00000914,-0.00001620,0.00003806,0.00001526,-0.00024436,-0.00015082,0.
 00022022,-0.00017707,-0.00015614,-0.00052841,-0.00001685,0.00108882,-0
 .00034708,-0.00083204,-0.00124082,-0.00250802,0.04943820,-0.00042716,-
 0.00255068,-0.00259285,0.00095734,-0.00143721,-0.00152863,0.00004080,-
 0.00013380,-0.00009031,0.00021753,0.00081181,-0.00051259,0.00012003,-0
 .00057594,0.00026786,-0.00023798,0.00003894,0.00002323,0.00003059,-0.0
 0008052,0.00001776,-0.00010303,0.00003373,-0.00003768,0.00000185,0.000
 33050,-0.00003097,0.00010401,0.00006603,0.00002191,-0.00011712,-0.0002
 2113,0.00002946,0.00025584,0.00000652,0.00002854,-0.00044084,-0.000189
 55,-0.00032924,0.00023110,-0.00004495,0.00009220,0.00006387,-0.0000397
 1,0.00000565,0.00062215,0.00029896,-0.00083211,-0.00027796,0.00027703,
 0.00002594,-0.00011319,-0.00008468,-0.00003921,0.00058911,-0.00096213,
 -0.00132730,-0.00028222,-0.00021851,0.00017489,0.00003565,-0.00006070,
 0.00002091,0.00001693,0.00003022,-0.00000064,0.00023123,-0.00600962,0.
 00303459,-0.00065974,0.00183824,0.00205367,0.00045078,-0.00035074,-0.0
 0000412,-0.00010035,0.00018305,-0.00000837,0.00009751,0.00048018,-0.00
 055401,0.00398441,0.00037440,-0.00014575,-0.00115398,-0.01376137,0.007
 50013,0.01000385,-0.30449115,0.10191331,0.00002505,0.00001728,0.000002
 10,0.00001497,0.00000154,-0.00003358,0.00000219,0.00000600,0.00001130,
 -0.00000081,0.00000114,-0.00000312,0.00000622,0.00000133,-0.00000564,-
 0.00000807,0.00000940,0.00001474,-0.00000551,-0.00000544,-0.00001249,-
 0.00000002,0.00001221,0.00000909,-0.00001377,0.00000245,0.00000169,-0.
 00002497,0.00000903,-0.00000059,-0.00012224,-0.00005498,-0.00001568,-0
 .00012316,-0.00013681,-0.00017953,-0.00011069,-0.00068540,0.00036099,-
 0.00071653,0.00053499,-0.00125777,-0.01306796,0.32673155,-0.00062728,-
 0.00091621,-0.00129724,0.00078548,-0.00095755,-0.00035564,-0.00027786,
 -0.00029220,0.00027446,0.00011604,-0.00069434,0.00040272,-0.00004759,0
 .00050238,-0.00024561,0.00006088,-0.00003129,0.00005146,0.00000443,0.0
 0001619,-0.00000269,0.00002791,-0.00003776,0.00000211,0.00012839,-0.00
 037640,0.00007628,-0.00028204,-0.00024567,0.00000606,0.00010526,0.0003
 5465,-0.00008667,-0.00038494,-0.00008500,-0.00004522,-0.00055667,-0.00
 004253,-0.00055620,0.00022556,-0.00013487,0.00003089,0.00009279,0.0000
 2839,-0.00007889,0.00088047,0.00046847,-0.00067954,0.00005668,-0.00032
 384,0.00010607,0.00006156,0.00041534,-0.00009819,-0.00096264,-0.001155
 17,-0.00155364,-0.00040680,-0.00015457,0.00016277,0.00002402,-0.000192
 61,0.00016080,0.00019861,0.00009787,-0.00006508,-0.00341480,0.01794485
 ,-0.00149490,0.00495739,0.00126952,0.00177637,-0.00046424,0.00112436,0
 .00006208,0.00004741,0.00002775,-0.00017957,0.00056974,-0.00058326,-0.
 00102053,0.00441411,0.00009938,0.00482075,0.00140877,-0.00945557,0.007
 02050,0.00806773,0.10096589,-0.08108279,0.00002524,0.00000202,0.000000
 56,0.00001007,-0.00002263,-0.00005091,0.00001334,0.00000972,-0.0000071
 0,0.00000493,0.00001997,0.00000153,-0.00001218,0.00002263,0.00000738,-
 0.00000540,0.00001119,-0.00000337,-0.00000815,0.00000502,0.00001222,-0
 .00001719,-0.00000973,0.00001294,0.00000071,-0.00001204,0.00000215,0.0
 0002888,-0.00002366,0.00000616,0.00033254,0.00017108,-0.00008568,-0.00
 042621,-0.00012378,-0.00062550,0.00010911,-0.00047241,0.00021604,-0.00
 256893,-0.00117978,-0.00261514,-0.01222881,-0.10603742,0.07706003,-0.0
 0506540,0.00489152,0.00117568,-0.00032857,0.00073444,0.00070556,-0.000
 17445,0.00049449,-0.00017840,-0.00001879,-0.00129854,0.00055866,-0.000
 77421,0.00053052,-0.00034625,-0.00089581,-0.00066942,0.00082010,0.0000
 1610,0.00006566,-0.00063644,0.00007332,-0.00027000,0.00005211,-0.00027
 559,-0.00061556,0.00006343,0.00048486,-0.00000445,-0.00035117,-0.00005
 669,0.00029499,-0.00004182,-0.00034130,-0.00009179,-0.00007393,-0.0124
 7941,-0.00603910,-0.02656568,-0.01660896,-0.00506940,-0.01196876,-0.00
 024678,-0.00138050,0.00895648,0.00023673,-0.00005290,0.00008290,-0.000
 09686,0.00010829,0.00001510,-0.00004171,-0.00016192,0.00003602,-0.0001
 1972,0.00000617,-0.00001654,0.00001075,0.00003290,-0.00002940,-0.00006
 042,0.00001263,0.00001867,0.00002815,-0.00004342,0.00000381,0.00002124
 ,0.00002593,0.00014661,0.00003700,-0.00006831,0.00001502,-0.00003267,-
 0.00000868,0.00002738,0.00002113,-0.00002120,-0.00000070,-0.00004453,0
 .00004607,-0.00003907,0.00003348,-0.00003522,-0.00001657,0.00016272,-0
 .00000452,0.00011361,0.00008837,0.00021491,0.00003132,-0.00039799,0.00
 341410,0.02141372,-0.00041580,-0.00086794,-0.00144227,-0.00003136,-0.0
 0004931,0.00004145,0.00000703,0.00003716,0.00006827,-0.00001149,0.0000
 0374,-0.00001488,-0.00000801,0.00001571,0.00009026,-0.00000890,-0.0000
 1032,-0.00000571,0.00000860,-0.00000466,-0.00000857,0.00000747,0.00000
 192,-0.00000273,0.00000730,0.00000138,-0.00000345,0.00000082,0.0000067
 0,-0.00000460,0.00000277,0.00000901,-0.00000538,-0.00000894,0.00001951
 ,0.00000976,-0.00001395,-0.00000415,-0.00000284,-0.00000213,0.00000429
 ,-0.00006633,0.03731259,-0.00135708,0.00162655,-0.00131551,0.00013281,
 0.00020237,0.00026965,-0.00003837,0.00030998,-0.00008226,-0.00178808,-
 0.00043037,0.00172864,-0.00024891,0.00016423,-0.00013909,-0.00073107,-
 0.00386528,-0.00030658,0.00087459,-0.00037342,-0.00218537,0.00016745,-
 0.00047532,0.00032618,-0.00067875,-0.00027584,-0.00019426,0.00025799,0
 .00014278,-0.00005531,-0.00029531,-0.00002828,-0.00004197,0.00024093,-
 0.00010067,0.00002357,0.00270325,-0.00014118,-0.00789396,-0.00545743,-
 0.02975928,0.00549999,0.00033587,-0.00574565,0.02864287,0.00013677,0.0
 0004933,0.00000218,-0.00008896,0.00010920,-0.00001343,-0.00010344,-0.0
 0010733,-0.00000890,-0.00008692,0.00001086,0.00005353,0.00001771,0.000
 01651,-0.00002484,-0.00004476,0.00000238,0.00000883,0.00003421,-0.0000
 2074,-0.00000208,0.00004148,0.00005564,0.00006536,0.00002655,-0.000102
 60,0.00004110,-0.00001889,-0.00001850,0.00001508,0.00001854,-0.0000007
 4,-0.00000387,-0.00005095,0.00000738,0.00004814,0.00003578,0.00005867,
 -0.00004027,-0.00001698,-0.00000199,-0.00000899,0.00004067,0.00001084,
 -0.00014246,0.00081487,-0.00305874,-0.02226356,-0.00062833,-0.00058822
 ,-0.00124337,-0.00006650,-0.00003150,0.00005551,0.00004717,0.00003062,
 0.00030724,-0.00001329,0.00001136,-0.00001501,-0.00000196,0.00000069,0
 .00002448,-0.00000641,-0.00000484,0.00000560,0.00000229,-0.00000038,0.
 00000057,0.00000088,-0.00000230,0.,0.00000023,-0.00000124,0.00000081,-
 0.00000324,-0.00000719,-0.00000651,-0.00001166,-0.00001372,-0.00000755
 ,-0.00000029,-0.00000831,-0.00001409,-0.00000809,0.00001335,0.00004791
 ,0.00001634,-0.00000148,0.00000361,0.00579929,0.04234236,-0.00103457,-
 0.00425724,-0.00048361,-0.00035381,0.00035486,0.00010847,0.00002199,-0
 .00015374,-0.00002480,0.00088307,0.00047197,0.00008290,-0.00000266,-0.
 00045161,0.00076914,0.00184739,-0.00013404,0.00030709,-0.00031186,0.00
 036185,0.00010457,-0.00014426,0.00007943,0.00003749,0.00039309,0.00030
 493,0.00004132,-0.00019532,-0.00012950,-0.00008398,0.00010452,0.000168
 51,-0.00000333,-0.00013230,-0.00012066,-0.00009275,-0.00688734,0.00207
 120,-0.00809120,-0.00320796,-0.00189477,-0.27725753,0.00080359,0.00514
 045,-0.01289385,-0.00000731,-0.00000627,-0.00002069,0.00007301,-0.0000
 9108,0.00003911,0.00012853,0.00011966,0.00000208,-0.00007148,0.0000628
 4,0.00005080,-0.00001071,0.00002653,-0.00003507,0.00000426,-0.00003642
 ,0.00001071,0.00004944,0.00001029,-0.00002136,-0.00001703,0.00003656,0
 .00011963,0.00002647,-0.00008099,0.00003704,-0.00003908,-0.00002198,0.
 00002339,0.00004094,-0.00003192,-0.00001741,-0.00007257,0.00002926,-0.
 00001068,0.00004141,-0.00000472,-0.00002428,0.00013806,-0.00002059,0.0
 0005226,0.00000660,0.00014866,0.00000196,0.00046667,-0.00164219,-0.010
 68128,0.00009675,0.00089471,-0.00015445,-0.00000266,-0.00002645,0.0000
 0181,-0.00002605,0.00000368,-0.00004818,0.00001601,-0.00001395,-0.0000
 1005,-0.00000096,-0.00000143,0.00002343,0.00000587,0.00000245,-0.00000
 025,0.00000319,-0.00000194,-0.00000199,0.00000497,0.00000120,0.0000035
 0,0.00000670,0.00000045,0.00000144,0.00000229,0.00000630,-0.00000075,-
 0.00000018,0.00000516,-0.00000032,-0.00000350,0.00001146,0.00000062,-0
 .00001021,0.00000105,0.00001656,-0.00000859,-0.00003034,-0.00004224,0.
 00737554,-0.00116164,0.30816473\\-0.00001473,-0.00007814,0.00000573,0.
 00001640,0.00003788,-0.00000680,-0.00002408,-0.00003769,-0.00001406,0.
 00000892,0.00008212,-0.00000675,0.00002735,-0.00000457,0.00001941,-0.0
 0000568,-0.00002170,0.00000011,0.00000526,0.00000640,0.00000356,-0.000
 00493,-0.00000324,0.00000070,0.00001944,-0.00000541,0.00000142,-0.0000
 0588,-0.00001178,-0.00000028,0.00001456,0.00001627,-0.00000260,-0.0000
 1791,0.00000200,-0.00000677,0.00001021,0.00003712,-0.00000976,-0.00002
 661,-0.00002538,0.00000486,-0.00000009,0.00000708,0.00000319,-0.000002
 78,-0.00002571,0.00000534,-0.00000094,0.00000068,-0.00000148,0.0000050
 8,0.00001528,-0.00000118,-0.00000693,0.00001858,-0.00000207,-0.0000021
 2,0.00000884,-0.00000546,-0.00000397,0.00000273,-0.00000307,-0.0000040
 5,-0.00000886,-0.00000040,0.00000369,-0.00000314,0.00000114,0.00001187
 ,0.00000131,-0.00000308,-0.00001969,-0.00000121,0.00000639,0.00000928,
 -0.00001537,-0.00000185,-0.00000254,0.00000177,-0.00000041,0.00000278,
 0.00000071,0.00000104,0.00000115,-0.00000221,0.00000270,-0.00000094,-0
 .00000116,0.00000174,-0.00000365,0.00000154,0.00000382,0.00000051,0.00
 000126,0.00000083,-0.00000086,0.00000035,0.00000222,0.00000073,-0.0000
 0021,-0.00000051,0.00000188,-0.00000056,-0.00000168,-0.00000080,-0.000
 00247,-0.00000314,-0.00000063,-0.00000342,-0.00000382,0.00000211,0.000
 00491,-0.00000420,0.00000120,-0.00000125,-0.00000238,-0.00000366,0.000
 00432,-0.00000189,0.00000174,0.00000099,0.00000092,-0.00000176,-0.0000
 0003,0.00000361,-0.00000034,-0.00000138,0.00000363,0.00000083,-0.00000
 034,0.00000234,0.00000186,-0.00000109,0.00000169,0.00000871,0.00000418
 ,0.00000725\\\@


 In the beginning there was nothing, which exploded.
 Job cpu time:       0 days 22 hours 50 minutes  4.9 seconds.
 Elapsed time:       0 days  1 hours  8 minutes 42.0 seconds.
 File lengths (MBytes):  RWF=   2289 Int=      0 D2E=      0 Chk=     53 Scr=      1
 Normal termination of Gaussian 16 at Mon Jun 24 21:33:16 2019.
