 Entering Gaussian System, Link 0=/share/apps/gaussian16/g16/g16
 Initial command:
 /share/apps/gaussian16/g16/l1.exe "/home/amen01//scratch/606/Gau-36021.inp" -scrdir="/home/amen01//scratch/606/"
 Entering Link 1 = /share/apps/gaussian16/g16/l1.exe PID=     36022.
  
 Copyright (c) 1988-2017, Gaussian, Inc.  All Rights Reserved.
  
 This is part of the Gaussian(R) 16 program.  It is based on
 the Gaussian(R) 09 system (copyright 2009, Gaussian, Inc.),
 the Gaussian(R) 03 system (copyright 2003, Gaussian, Inc.),
 the Gaussian(R) 98 system (copyright 1998, Gaussian, Inc.),
 the Gaussian(R) 94 system (copyright 1995, Gaussian, Inc.),
 the Gaussian 92(TM) system (copyright 1992, Gaussian, Inc.),
 the Gaussian 90(TM) system (copyright 1990, Gaussian, Inc.),
 the Gaussian 88(TM) system (copyright 1988, Gaussian, Inc.),
 the Gaussian 86(TM) system (copyright 1986, Carnegie Mellon
 University), and the Gaussian 82(TM) system (copyright 1983,
 Carnegie Mellon University). Gaussian is a federally registered
 trademark of Gaussian, Inc.
  
 This software contains proprietary and confidential information,
 including trade secrets, belonging to Gaussian, Inc.
  
 This software is provided under written license and may be
 used, copied, transmitted, or stored only in accord with that
 written license.
  
 The following legend is applicable only to US Government
 contracts under FAR:
  
                    RESTRICTED RIGHTS LEGEND
  
 Use, reproduction and disclosure by the US Government is
 subject to restrictions as set forth in subparagraphs (a)
 and (c) of the Commercial Computer Software - Restricted
 Rights clause in FAR 52.227-19.
  
 Gaussian, Inc.
 340 Quinnipiac St., Bldg. 40, Wallingford CT 06492
  
  
 ---------------------------------------------------------------
 Warning -- This program may not be used in any manner that
 competes with the business of Gaussian, Inc. or will provide
 assistance to any competitor of Gaussian, Inc.  The licensee
 of this program is prohibited from giving any competitor of
 Gaussian, Inc. access to this program.  By using this program,
 the user acknowledges that Gaussian, Inc. is engaged in the
 business of creating and licensing software in the field of
 computational chemistry and represents and warrants to the
 licensee that it is not a competitor of Gaussian, Inc. and that
 it will not use this program in any manner prohibited above.
 ---------------------------------------------------------------
  

 Cite this work as:
 Gaussian 16, Revision B.01,
 M. J. Frisch, G. W. Trucks, H. B. Schlegel, G. E. Scuseria, 
 M. A. Robb, J. R. Cheeseman, G. Scalmani, V. Barone, 
 G. A. Petersson, H. Nakatsuji, X. Li, M. Caricato, A. V. Marenich, 
 J. Bloino, B. G. Janesko, R. Gomperts, B. Mennucci, H. P. Hratchian, 
 J. V. Ortiz, A. F. Izmaylov, J. L. Sonnenberg, D. Williams-Young, 
 F. Ding, F. Lipparini, F. Egidi, J. Goings, B. Peng, A. Petrone, 
 T. Henderson, D. Ranasinghe, V. G. Zakrzewski, J. Gao, N. Rega, 
 G. Zheng, W. Liang, M. Hada, M. Ehara, K. Toyota, R. Fukuda, 
 J. Hasegawa, M. Ishida, T. Nakajima, Y. Honda, O. Kitao, H. Nakai, 
 T. Vreven, K. Throssell, J. A. Montgomery, Jr., J. E. Peralta, 
 F. Ogliaro, M. J. Bearpark, J. J. Heyd, E. N. Brothers, K. N. Kudin, 
 V. N. Staroverov, T. A. Keith, R. Kobayashi, J. Normand, 
 K. Raghavachari, A. P. Rendell, J. C. Burant, S. S. Iyengar, 
 J. Tomasi, M. Cossi, J. M. Millam, M. Klene, C. Adamo, R. Cammi, 
 J. W. Ochterski, R. L. Martin, K. Morokuma, O. Farkas, 
 J. B. Foresman, and D. J. Fox, Gaussian, Inc., Wallingford CT, 2016.
 
 ******************************************
 Gaussian 16:  ES64L-G16RevB.01 20-Dec-2017
                24-Jun-2019 
 ******************************************
 %nprocshared=20
 Will use up to   20 processors via shared memory.
 %mem=100GB
 %chk=7-memb2-carb-1b.chk
 -------------------------------------------
 # opt freq b3lyp/6-311+g(d,p) int=grid=fine
 -------------------------------------------
 1/18=20,19=15,26=3,38=1/1,3;
 2/9=110,12=2,17=6,18=5,40=1/2;
 3/5=4,6=6,7=111,11=2,25=1,30=1,71=1,74=-5,75=-4/1,2,3;
 4//1;
 5/5=2,38=5/2;
 6/7=2,8=2,9=2,10=2,28=1/1;
 7//1,2,3,16;
 1/18=20,19=15,26=3/3(2);
 2/9=110/2;
 99//99;
 2/9=110/2;
 3/5=4,6=6,7=111,11=2,25=1,30=1,71=1,74=-5,75=-4/1,2,3;
 4/5=5,16=3,69=1/1;
 5/5=2,38=5/2;
 7//1,2,3,16;
 1/18=20,19=15,26=3/3(-5);
 2/9=110/2;
 6/7=2,8=2,9=2,10=2,19=2,28=1/1;
 99/9=1/99;
 ---------------
 7-memb2-carb-1b
 ---------------
 Symbolic Z-matrix:
 Charge =  0 Multiplicity = 1
 C                    -4.15629  -0.16831  -0.48474 
 C                    -2.72889  -0.23283  -0.11915 
 C                    -2.52828  -1.57951   0.19495 
 C                    -4.68586  -1.42597  -0.23486 
 C                    -3.70121  -2.25462   0.17013 
 C                    -5.98519  -1.86872  -0.44906 
 C                    -6.2367   -3.23449  -0.13769 
 C                    -5.18785  -4.09278   0.29852 
 C                    -3.85953  -3.60883   0.43275 
 C                    -1.33404  -2.22256   0.44582 
 C                    -1.41201  -3.61235   0.75151 
 C                    -2.66106  -4.29308   0.75965 
 C                    -4.99353   0.73785  -1.10525 
 C                    -6.34433   0.38373  -1.3262 
 C                    -6.84639  -0.89546  -0.98763 
 C                    -1.62211   0.64795  -0.09219 
 C                    -0.34766  -0.01445  -0.02715 
 C                    -0.21241  -1.39857   0.28338 
 C                    -1.63655   2.10929  -0.13623 
 C                    -0.44168   2.76176  -0.53377 
 C                     0.75455   2.05149  -0.63554 
 C                     0.81248   0.70386  -0.30396 
 C                    -2.71048   2.97896   0.27673 
 C                    -2.66363   4.37568   0.04241 
 C                    -1.52958   4.93224  -0.5408 
 C                    -0.41515   4.13926  -0.78269 
 C                    -3.72616   5.20794   0.43687 
 C                    -4.82293   4.69435   1.12822 
 C                    -4.87474   3.33139   1.45821 
 C                    -3.80038   2.52274   1.03668 
 H                    -4.63438   1.70622  -1.43737 
 H                    -7.00989   1.10787  -1.7925 
 H                    -7.88539  -1.13702  -1.19401 
 H                    -7.2359   -3.64212  -0.27131 
 H                    -5.40356  -5.14016   0.49444 
 H                    -2.68786  -5.35733   0.97944 
 H                    -0.50172  -4.16984   0.95937 
 H                     0.77706  -1.84234   0.37562 
 H                     1.78277   0.21093  -0.31208 
 H                     1.67987   2.55824  -0.90341 
 H                     0.49312   4.62012  -1.14137 
 H                    -1.46725   6.00075  -0.73279 
 H                    -3.69185   6.277     0.23599 
 H                    -5.62419   5.36088   1.44135 
 H                    -5.84697   2.89714   1.1007 
 H                    -5.16463   3.15558   2.52106 
 

 GradGradGradGradGradGradGradGradGradGradGradGradGradGradGradGradGradGrad
 Berny optimization.
 Initialization pass.
                           ----------------------------
                           !    Initial Parameters    !
                           ! (Angstroms and Degrees)  !
 --------------------------                            --------------------------
 ! Name  Definition              Value          Derivative Info.                !
 --------------------------------------------------------------------------------
 ! R1    R(1,2)                  1.4749         estimate D2E/DX2                !
 ! R2    R(1,4)                  1.3873         estimate D2E/DX2                !
 ! R3    R(1,13)                 1.381          estimate D2E/DX2                !
 ! R4    R(2,3)                  1.3973         estimate D2E/DX2                !
 ! R5    R(2,16)                 1.4147         estimate D2E/DX2                !
 ! R6    R(3,5)                  1.3536         estimate D2E/DX2                !
 ! R7    R(3,10)                 1.3794         estimate D2E/DX2                !
 ! R8    R(4,5)                  1.3492         estimate D2E/DX2                !
 ! R9    R(4,6)                  1.3893         estimate D2E/DX2                !
 ! R10   R(5,9)                  1.3885         estimate D2E/DX2                !
 ! R11   R(6,7)                  1.4232         estimate D2E/DX2                !
 ! R12   R(6,15)                 1.4068         estimate D2E/DX2                !
 ! R13   R(7,8)                  1.4237         estimate D2E/DX2                !
 ! R14   R(7,34)                 1.0874         estimate D2E/DX2                !
 ! R15   R(8,9)                  1.4201         estimate D2E/DX2                !
 ! R16   R(8,35)                 1.0872         estimate D2E/DX2                !
 ! R17   R(9,12)                 1.4182         estimate D2E/DX2                !
 ! R18   R(10,11)                1.4251         estimate D2E/DX2                !
 ! R19   R(10,18)                1.4012         estimate D2E/DX2                !
 ! R20   R(11,12)                1.4225         estimate D2E/DX2                !
 ! R21   R(11,37)                1.0875         estimate D2E/DX2                !
 ! R22   R(12,36)                1.087          estimate D2E/DX2                !
 ! R23   R(13,14)                1.4138         estimate D2E/DX2                !
 ! R24   R(13,31)                1.0849         estimate D2E/DX2                !
 ! R25   R(14,15)                1.4153         estimate D2E/DX2                !
 ! R26   R(14,32)                1.0885         estimate D2E/DX2                !
 ! R27   R(15,33)                1.0865         estimate D2E/DX2                !
 ! R28   R(16,17)                1.4378         estimate D2E/DX2                !
 ! R29   R(16,19)                1.4621         estimate D2E/DX2                !
 ! R30   R(17,18)                1.425          estimate D2E/DX2                !
 ! R31   R(17,22)                1.3923         estimate D2E/DX2                !
 ! R32   R(18,38)                1.0883         estimate D2E/DX2                !
 ! R33   R(19,20)                1.4183         estimate D2E/DX2                !
 ! R34   R(19,23)                1.4423         estimate D2E/DX2                !
 ! R35   R(20,21)                1.3949         estimate D2E/DX2                !
 ! R36   R(20,26)                1.4001         estimate D2E/DX2                !
 ! R37   R(21,22)                1.389          estimate D2E/DX2                !
 ! R38   R(21,40)                1.0885         estimate D2E/DX2                !
 ! R39   R(22,39)                1.0884         estimate D2E/DX2                !
 ! R40   R(23,24)                1.417          estimate D2E/DX2                !
 ! R41   R(23,30)                1.4048         estimate D2E/DX2                !
 ! R42   R(24,25)                1.3914         estimate D2E/DX2                !
 ! R43   R(24,27)                1.4061         estimate D2E/DX2                !
 ! R44   R(25,26)                1.389          estimate D2E/DX2                !
 ! R45   R(25,42)                1.0874         estimate D2E/DX2                !
 ! R46   R(26,41)                1.0885         estimate D2E/DX2                !
 ! R47   R(27,28)                1.3945         estimate D2E/DX2                !
 ! R48   R(27,43)                1.0883         estimate D2E/DX2                !
 ! R49   R(28,29)                1.4033         estimate D2E/DX2                !
 ! R50   R(28,44)                1.0883         estimate D2E/DX2                !
 ! R51   R(29,30)                1.4092         estimate D2E/DX2                !
 ! R52   R(29,45)                1.1232         estimate D2E/DX2                !
 ! R53   R(29,46)                1.1156         estimate D2E/DX2                !
 ! A1    A(2,1,4)              106.5667         estimate D2E/DX2                !
 ! A2    A(2,1,13)             136.6207         estimate D2E/DX2                !
 ! A3    A(4,1,13)             116.3822         estimate D2E/DX2                !
 ! A4    A(1,2,3)              103.6994         estimate D2E/DX2                !
 ! A5    A(1,2,16)             137.2756         estimate D2E/DX2                !
 ! A6    A(3,2,16)             118.9091         estimate D2E/DX2                !
 ! A7    A(2,3,5)              110.6196         estimate D2E/DX2                !
 ! A8    A(2,3,10)             127.9146         estimate D2E/DX2                !
 ! A9    A(5,3,10)             121.4034         estimate D2E/DX2                !
 ! A10   A(1,4,5)              109.4071         estimate D2E/DX2                !
 ! A11   A(1,4,6)              128.1805         estimate D2E/DX2                !
 ! A12   A(5,4,6)              122.2157         estimate D2E/DX2                !
 ! A13   A(3,5,4)              109.3655         estimate D2E/DX2                !
 ! A14   A(3,5,9)              125.5761         estimate D2E/DX2                !
 ! A15   A(4,5,9)              124.9313         estimate D2E/DX2                !
 ! A16   A(4,6,7)              115.9359         estimate D2E/DX2                !
 ! A17   A(4,6,15)             114.2732         estimate D2E/DX2                !
 ! A18   A(7,6,15)             129.7543         estimate D2E/DX2                !
 ! A19   A(6,7,8)              121.0211         estimate D2E/DX2                !
 ! A20   A(6,7,34)             119.6858         estimate D2E/DX2                !
 ! A21   A(8,7,34)             119.2487         estimate D2E/DX2                !
 ! A22   A(7,8,9)              120.8371         estimate D2E/DX2                !
 ! A23   A(7,8,35)             119.3292         estimate D2E/DX2                !
 ! A24   A(9,8,35)             119.7936         estimate D2E/DX2                !
 ! A25   A(5,9,8)              114.9072         estimate D2E/DX2                !
 ! A26   A(5,9,12)             114.6954         estimate D2E/DX2                !
 ! A27   A(8,9,12)             130.3761         estimate D2E/DX2                !
 ! A28   A(3,10,11)            116.5046         estimate D2E/DX2                !
 ! A29   A(3,10,18)            113.4411         estimate D2E/DX2                !
 ! A30   A(11,10,18)           129.9505         estimate D2E/DX2                !
 ! A31   A(10,11,12)           121.0596         estimate D2E/DX2                !
 ! A32   A(10,11,37)           119.678          estimate D2E/DX2                !
 ! A33   A(12,11,37)           119.2465         estimate D2E/DX2                !
 ! A34   A(9,12,11)            120.6501         estimate D2E/DX2                !
 ! A35   A(9,12,36)            119.8758         estimate D2E/DX2                !
 ! A36   A(11,12,36)           119.4266         estimate D2E/DX2                !
 ! A37   A(1,13,14)            119.0195         estimate D2E/DX2                !
 ! A38   A(1,13,31)            121.5024         estimate D2E/DX2                !
 ! A39   A(14,13,31)           119.4727         estimate D2E/DX2                !
 ! A40   A(13,14,15)           121.8657         estimate D2E/DX2                !
 ! A41   A(13,14,32)           118.9811         estimate D2E/DX2                !
 ! A42   A(15,14,32)           119.1356         estimate D2E/DX2                !
 ! A43   A(6,15,14)            119.9826         estimate D2E/DX2                !
 ! A44   A(6,15,33)            120.2871         estimate D2E/DX2                !
 ! A45   A(14,15,33)           119.653          estimate D2E/DX2                !
 ! A46   A(2,16,17)            114.0471         estimate D2E/DX2                !
 ! A47   A(2,16,19)            127.8767         estimate D2E/DX2                !
 ! A48   A(17,16,19)           118.0729         estimate D2E/DX2                !
 ! A49   A(16,17,18)           122.7855         estimate D2E/DX2                !
 ! A50   A(16,17,22)           119.4663         estimate D2E/DX2                !
 ! A51   A(18,17,22)           117.7339         estimate D2E/DX2                !
 ! A52   A(10,18,17)           121.3649         estimate D2E/DX2                !
 ! A53   A(10,18,38)           118.5644         estimate D2E/DX2                !
 ! A54   A(17,18,38)           120.0545         estimate D2E/DX2                !
 ! A55   A(16,19,20)           117.3832         estimate D2E/DX2                !
 ! A56   A(16,19,23)           126.9707         estimate D2E/DX2                !
 ! A57   A(20,19,23)           115.4787         estimate D2E/DX2                !
 ! A58   A(19,20,21)           120.5763         estimate D2E/DX2                !
 ! A59   A(19,20,26)           121.2273         estimate D2E/DX2                !
 ! A60   A(21,20,26)           118.1484         estimate D2E/DX2                !
 ! A61   A(20,21,22)           120.8208         estimate D2E/DX2                !
 ! A62   A(20,21,40)           120.6585         estimate D2E/DX2                !
 ! A63   A(22,21,40)           118.3579         estimate D2E/DX2                !
 ! A64   A(17,22,21)           120.8802         estimate D2E/DX2                !
 ! A65   A(17,22,39)           120.7092         estimate D2E/DX2                !
 ! A66   A(21,22,39)           118.3473         estimate D2E/DX2                !
 ! A67   A(19,23,24)           121.492          estimate D2E/DX2                !
 ! A68   A(19,23,30)           122.4627         estimate D2E/DX2                !
 ! A69   A(24,23,30)           115.7983         estimate D2E/DX2                !
 ! A70   A(23,24,25)           119.3757         estimate D2E/DX2                !
 ! A71   A(23,24,27)           120.799          estimate D2E/DX2                !
 ! A72   A(25,24,27)           119.7828         estimate D2E/DX2                !
 ! A73   A(24,25,26)           119.9056         estimate D2E/DX2                !
 ! A74   A(24,25,42)           120.9156         estimate D2E/DX2                !
 ! A75   A(26,25,42)           118.9631         estimate D2E/DX2                !
 ! A76   A(20,26,25)           121.0336         estimate D2E/DX2                !
 ! A77   A(20,26,41)           120.6001         estimate D2E/DX2                !
 ! A78   A(25,26,41)           118.3376         estimate D2E/DX2                !
 ! A79   A(24,27,28)           121.0238         estimate D2E/DX2                !
 ! A80   A(24,27,43)           120.3848         estimate D2E/DX2                !
 ! A81   A(28,27,43)           118.5604         estimate D2E/DX2                !
 ! A82   A(27,28,29)           120.2205         estimate D2E/DX2                !
 ! A83   A(27,28,44)           119.7457         estimate D2E/DX2                !
 ! A84   A(29,28,44)           120.0013         estimate D2E/DX2                !
 ! A85   A(28,29,30)           117.3131         estimate D2E/DX2                !
 ! A86   A(28,29,45)           109.4273         estimate D2E/DX2                !
 ! A87   A(28,29,46)           112.7485         estimate D2E/DX2                !
 ! A88   A(30,29,45)           110.0502         estimate D2E/DX2                !
 ! A89   A(30,29,46)           113.1197         estimate D2E/DX2                !
 ! A90   A(45,29,46)            90.9966         estimate D2E/DX2                !
 ! A91   A(23,30,29)           124.5371         estimate D2E/DX2                !
 ! D1    D(4,1,2,3)              5.5061         estimate D2E/DX2                !
 ! D2    D(4,1,2,16)          -178.6924         estimate D2E/DX2                !
 ! D3    D(13,1,2,3)          -166.3027         estimate D2E/DX2                !
 ! D4    D(13,1,2,16)            9.4989         estimate D2E/DX2                !
 ! D5    D(2,1,4,5)             -3.4914         estimate D2E/DX2                !
 ! D6    D(2,1,4,6)           -178.421          estimate D2E/DX2                !
 ! D7    D(13,1,4,5)           170.2374         estimate D2E/DX2                !
 ! D8    D(13,1,4,6)            -4.6921         estimate D2E/DX2                !
 ! D9    D(2,1,13,14)          177.16           estimate D2E/DX2                !
 ! D10   D(2,1,13,31)           -1.9952         estimate D2E/DX2                !
 ! D11   D(4,1,13,14)            5.9283         estimate D2E/DX2                !
 ! D12   D(4,1,13,31)         -173.2269         estimate D2E/DX2                !
 ! D13   D(1,2,3,5)             -5.7275         estimate D2E/DX2                !
 ! D14   D(1,2,3,10)           171.3973         estimate D2E/DX2                !
 ! D15   D(16,2,3,5)           177.5253         estimate D2E/DX2                !
 ! D16   D(16,2,3,10)           -5.3498         estimate D2E/DX2                !
 ! D17   D(1,2,16,17)         -162.184          estimate D2E/DX2                !
 ! D18   D(1,2,16,19)           17.1303         estimate D2E/DX2                !
 ! D19   D(3,2,16,17)           13.1553         estimate D2E/DX2                !
 ! D20   D(3,2,16,19)         -167.5304         estimate D2E/DX2                !
 ! D21   D(2,3,5,4)              3.8602         estimate D2E/DX2                !
 ! D22   D(2,3,5,9)            179.9164         estimate D2E/DX2                !
 ! D23   D(10,3,5,4)          -173.4824         estimate D2E/DX2                !
 ! D24   D(10,3,5,9)             2.5739         estimate D2E/DX2                !
 ! D25   D(2,3,10,11)          179.663          estimate D2E/DX2                !
 ! D26   D(2,3,10,18)           -3.6679         estimate D2E/DX2                !
 ! D27   D(5,3,10,11)           -3.4901         estimate D2E/DX2                !
 ! D28   D(5,3,10,18)          173.179          estimate D2E/DX2                !
 ! D29   D(1,4,5,3)             -0.0514         estimate D2E/DX2                !
 ! D30   D(1,4,5,9)           -176.139          estimate D2E/DX2                !
 ! D31   D(6,4,5,3)            175.2384         estimate D2E/DX2                !
 ! D32   D(6,4,5,9)             -0.8491         estimate D2E/DX2                !
 ! D33   D(1,4,6,7)            178.0208         estimate D2E/DX2                !
 ! D34   D(1,4,6,15)             0.004          estimate D2E/DX2                !
 ! D35   D(5,4,6,7)              3.6752         estimate D2E/DX2                !
 ! D36   D(5,4,6,15)          -174.3416         estimate D2E/DX2                !
 ! D37   D(3,5,9,8)           -177.9717         estimate D2E/DX2                !
 ! D38   D(3,5,9,12)             0.5258         estimate D2E/DX2                !
 ! D39   D(4,5,9,8)             -2.5111         estimate D2E/DX2                !
 ! D40   D(4,5,9,12)           175.9864         estimate D2E/DX2                !
 ! D41   D(4,6,7,8)             -3.1547         estimate D2E/DX2                !
 ! D42   D(4,6,7,34)           179.2855         estimate D2E/DX2                !
 ! D43   D(15,6,7,8)           174.4935         estimate D2E/DX2                !
 ! D44   D(15,6,7,34)           -3.0662         estimate D2E/DX2                !
 ! D45   D(4,6,15,14)            3.2139         estimate D2E/DX2                !
 ! D46   D(4,6,15,33)         -179.9932         estimate D2E/DX2                !
 ! D47   D(7,6,15,14)         -174.4661         estimate D2E/DX2                !
 ! D48   D(7,6,15,33)            2.3268         estimate D2E/DX2                !
 ! D49   D(6,7,8,9)             -0.1075         estimate D2E/DX2                !
 ! D50   D(6,7,8,35)          -177.801          estimate D2E/DX2                !
 ! D51   D(34,7,8,9)           177.4627         estimate D2E/DX2                !
 ! D52   D(34,7,8,35)           -0.2307         estimate D2E/DX2                !
 ! D53   D(7,8,9,5)              2.8745         estimate D2E/DX2                !
 ! D54   D(7,8,9,12)          -175.3336         estimate D2E/DX2                !
 ! D55   D(35,8,9,5)          -179.4427         estimate D2E/DX2                !
 ! D56   D(35,8,9,12)            2.3492         estimate D2E/DX2                !
 ! D57   D(5,9,12,11)           -2.437          estimate D2E/DX2                !
 ! D58   D(5,9,12,36)         -179.916          estimate D2E/DX2                !
 ! D59   D(8,9,12,11)          175.7741         estimate D2E/DX2                !
 ! D60   D(8,9,12,36)           -1.7049         estimate D2E/DX2                !
 ! D61   D(3,10,11,12)           1.549          estimate D2E/DX2                !
 ! D62   D(3,10,11,37)        -179.9121         estimate D2E/DX2                !
 ! D63   D(18,10,11,12)       -174.4635         estimate D2E/DX2                !
 ! D64   D(18,10,11,37)          4.0754         estimate D2E/DX2                !
 ! D65   D(3,10,18,17)           3.7805         estimate D2E/DX2                !
 ! D66   D(3,10,18,38)        -174.7587         estimate D2E/DX2                !
 ! D67   D(11,10,18,17)        179.8913         estimate D2E/DX2                !
 ! D68   D(11,10,18,38)          1.3521         estimate D2E/DX2                !
 ! D69   D(10,11,12,9)           1.4457         estimate D2E/DX2                !
 ! D70   D(10,11,12,36)        178.936          estimate D2E/DX2                !
 ! D71   D(37,11,12,9)        -177.0994         estimate D2E/DX2                !
 ! D72   D(37,11,12,36)          0.3909         estimate D2E/DX2                !
 ! D73   D(1,13,14,15)          -3.0703         estimate D2E/DX2                !
 ! D74   D(1,13,14,32)         178.4671         estimate D2E/DX2                !
 ! D75   D(31,13,14,15)        176.1023         estimate D2E/DX2                !
 ! D76   D(31,13,14,32)         -2.3602         estimate D2E/DX2                !
 ! D77   D(13,14,15,6)          -1.7954         estimate D2E/DX2                !
 ! D78   D(13,14,15,33)       -178.6087         estimate D2E/DX2                !
 ! D79   D(32,14,15,6)         176.6649         estimate D2E/DX2                !
 ! D80   D(32,14,15,33)         -0.1484         estimate D2E/DX2                !
 ! D81   D(2,16,17,18)         -13.3547         estimate D2E/DX2                !
 ! D82   D(2,16,17,22)         165.2364         estimate D2E/DX2                !
 ! D83   D(19,16,17,18)        167.2587         estimate D2E/DX2                !
 ! D84   D(19,16,17,22)        -14.1503         estimate D2E/DX2                !
 ! D85   D(2,16,19,20)        -159.8021         estimate D2E/DX2                !
 ! D86   D(2,16,19,23)          25.1375         estimate D2E/DX2                !
 ! D87   D(17,16,19,20)         19.4883         estimate D2E/DX2                !
 ! D88   D(17,16,19,23)       -155.5721         estimate D2E/DX2                !
 ! D89   D(16,17,18,10)          4.916          estimate D2E/DX2                !
 ! D90   D(16,17,18,38)       -176.5663         estimate D2E/DX2                !
 ! D91   D(22,17,18,10)       -173.6981         estimate D2E/DX2                !
 ! D92   D(22,17,18,38)          4.8196         estimate D2E/DX2                !
 ! D93   D(16,17,22,21)          0.2987         estimate D2E/DX2                !
 ! D94   D(16,17,22,39)       -176.7597         estimate D2E/DX2                !
 ! D95   D(18,17,22,21)        178.9604         estimate D2E/DX2                !
 ! D96   D(18,17,22,39)          1.902          estimate D2E/DX2                !
 ! D97   D(16,19,20,21)        -11.4893         estimate D2E/DX2                !
 ! D98   D(16,19,20,26)        171.0763         estimate D2E/DX2                !
 ! D99   D(23,19,20,21)        164.1403         estimate D2E/DX2                !
 ! D100  D(23,19,20,26)        -13.2942         estimate D2E/DX2                !
 ! D101  D(16,19,23,24)       -172.6525         estimate D2E/DX2                !
 ! D102  D(16,19,23,30)         13.2981         estimate D2E/DX2                !
 ! D103  D(20,19,23,24)         12.206          estimate D2E/DX2                !
 ! D104  D(20,19,23,30)       -161.8434         estimate D2E/DX2                !
 ! D105  D(19,20,21,22)         -2.3531         estimate D2E/DX2                !
 ! D106  D(19,20,21,40)       -177.6401         estimate D2E/DX2                !
 ! D107  D(26,20,21,22)        175.1589         estimate D2E/DX2                !
 ! D108  D(26,20,21,40)         -0.1281         estimate D2E/DX2                !
 ! D109  D(19,20,26,25)          5.4564         estimate D2E/DX2                !
 ! D110  D(19,20,26,41)       -176.5281         estimate D2E/DX2                !
 ! D111  D(21,20,26,25)       -172.0386         estimate D2E/DX2                !
 ! D112  D(21,20,26,41)          5.977          estimate D2E/DX2                !
 ! D113  D(20,21,22,17)          8.2887         estimate D2E/DX2                !
 ! D114  D(20,21,22,39)       -174.5849         estimate D2E/DX2                !
 ! D115  D(40,21,22,17)       -176.3181         estimate D2E/DX2                !
 ! D116  D(40,21,22,39)          0.8082         estimate D2E/DX2                !
 ! D117  D(19,23,24,25)         -3.145          estimate D2E/DX2                !
 ! D118  D(19,23,24,27)        179.2298         estimate D2E/DX2                !
 ! D119  D(30,23,24,25)        171.2796         estimate D2E/DX2                !
 ! D120  D(30,23,24,27)         -6.3456         estimate D2E/DX2                !
 ! D121  D(19,23,30,29)       -179.7003         estimate D2E/DX2                !
 ! D122  D(24,23,30,29)          5.9345         estimate D2E/DX2                !
 ! D123  D(23,24,25,26)         -5.4526         estimate D2E/DX2                !
 ! D124  D(23,24,25,42)        179.9388         estimate D2E/DX2                !
 ! D125  D(27,24,25,26)        172.1971         estimate D2E/DX2                !
 ! D126  D(27,24,25,42)         -2.4115         estimate D2E/DX2                !
 ! D127  D(23,24,27,28)          3.2633         estimate D2E/DX2                !
 ! D128  D(23,24,27,43)       -178.7894         estimate D2E/DX2                !
 ! D129  D(25,24,27,28)       -174.3523         estimate D2E/DX2                !
 ! D130  D(25,24,27,43)          3.5949         estimate D2E/DX2                !
 ! D131  D(24,25,26,20)          4.4241         estimate D2E/DX2                !
 ! D132  D(24,25,26,41)       -173.6352         estimate D2E/DX2                !
 ! D133  D(42,25,26,20)        179.1378         estimate D2E/DX2                !
 ! D134  D(42,25,26,41)          1.0785         estimate D2E/DX2                !
 ! D135  D(24,27,28,29)          0.8279         estimate D2E/DX2                !
 ! D136  D(24,27,28,44)        178.7513         estimate D2E/DX2                !
 ! D137  D(43,27,28,29)       -177.156          estimate D2E/DX2                !
 ! D138  D(43,27,28,44)          0.7675         estimate D2E/DX2                !
 ! D139  D(27,28,29,30)         -1.4167         estimate D2E/DX2                !
 ! D140  D(27,28,29,45)       -127.6659         estimate D2E/DX2                !
 ! D141  D(27,28,29,46)        132.6694         estimate D2E/DX2                !
 ! D142  D(44,28,29,30)       -179.3348         estimate D2E/DX2                !
 ! D143  D(44,28,29,45)         54.416          estimate D2E/DX2                !
 ! D144  D(44,28,29,46)        -45.2487         estimate D2E/DX2                !
 ! D145  D(28,29,30,23)         -2.1377         estimate D2E/DX2                !
 ! D146  D(45,29,30,23)        123.8049         estimate D2E/DX2                !
 ! D147  D(46,29,30,23)       -136.0612         estimate D2E/DX2                !
 --------------------------------------------------------------------------------
 Trust Radius=3.00D-01 FncErr=1.00D-07 GrdErr=1.00D-06 EigMax=2.50D+02 EigMin=1.00D-04
 Number of steps in this run=    276 maximum allowed number of steps=    276.
 GradGradGradGradGradGradGradGradGradGradGradGradGradGradGradGradGradGrad

                          Input orientation:                          
 ---------------------------------------------------------------------
 Center     Atomic      Atomic             Coordinates (Angstroms)
 Number     Number       Type             X           Y           Z
 ---------------------------------------------------------------------
      1          6           0       -4.156290   -0.168310   -0.484740
      2          6           0       -2.728890   -0.232830   -0.119150
      3          6           0       -2.528280   -1.579510    0.194950
      4          6           0       -4.685860   -1.425970   -0.234860
      5          6           0       -3.701210   -2.254620    0.170130
      6          6           0       -5.985190   -1.868720   -0.449060
      7          6           0       -6.236700   -3.234490   -0.137690
      8          6           0       -5.187850   -4.092780    0.298520
      9          6           0       -3.859530   -3.608830    0.432750
     10          6           0       -1.334040   -2.222560    0.445820
     11          6           0       -1.412010   -3.612350    0.751510
     12          6           0       -2.661060   -4.293080    0.759650
     13          6           0       -4.993530    0.737850   -1.105250
     14          6           0       -6.344330    0.383730   -1.326200
     15          6           0       -6.846390   -0.895460   -0.987630
     16          6           0       -1.622110    0.647950   -0.092190
     17          6           0       -0.347660   -0.014450   -0.027150
     18          6           0       -0.212410   -1.398570    0.283380
     19          6           0       -1.636550    2.109290   -0.136230
     20          6           0       -0.441680    2.761760   -0.533770
     21          6           0        0.754550    2.051490   -0.635540
     22          6           0        0.812480    0.703860   -0.303960
     23          6           0       -2.710480    2.978960    0.276730
     24          6           0       -2.663630    4.375680    0.042410
     25          6           0       -1.529580    4.932240   -0.540800
     26          6           0       -0.415150    4.139260   -0.782690
     27          6           0       -3.726160    5.207940    0.436870
     28          6           0       -4.822930    4.694350    1.128220
     29          6           0       -4.874740    3.331390    1.458210
     30          6           0       -3.800380    2.522740    1.036680
     31          1           0       -4.634380    1.706220   -1.437370
     32          1           0       -7.009890    1.107870   -1.792500
     33          1           0       -7.885390   -1.137020   -1.194010
     34          1           0       -7.235900   -3.642120   -0.271310
     35          1           0       -5.403560   -5.140160    0.494440
     36          1           0       -2.687860   -5.357330    0.979440
     37          1           0       -0.501720   -4.169840    0.959370
     38          1           0        0.777060   -1.842340    0.375620
     39          1           0        1.782770    0.210930   -0.312080
     40          1           0        1.679870    2.558240   -0.903410
     41          1           0        0.493120    4.620120   -1.141370
     42          1           0       -1.467250    6.000750   -0.732790
     43          1           0       -3.691850    6.277000    0.235990
     44          1           0       -5.624190    5.360880    1.441350
     45          1           0       -5.846970    2.897140    1.100700
     46          1           0       -5.164630    3.155580    2.521060
 ---------------------------------------------------------------------
                    Distance matrix (angstroms):
                    1          2          3          4          5
     1  C    0.000000
     2  C    1.474886   0.000000
     3  C    2.259177   1.397301   0.000000
     4  C    1.387297   2.294930   2.205326   0.000000
     5  C    2.233527   2.262018   1.353571   1.349153   0.000000
     6  C    2.497507   3.659025   3.528260   1.389305   2.397682
     7  C    3.721560   4.616821   4.074554   2.384385   2.735618
     8  C    4.132684   4.595666   3.660678   2.765568   2.367576
     9  C    3.573098   3.602821   2.438630   2.427633   1.388495
    10  C    3.612614   2.494759   1.379369   3.511777   2.383386
    11  C    4.573926   3.730064   2.385007   4.058482   2.724311
    12  C    4.560477   4.154819   2.774884   3.648176   2.363211
    13  C    1.380989   2.653904   3.624657   2.352521   3.500223
    14  C    2.408386   3.861156   4.553070   2.686366   4.023180
    15  C    2.831657   4.259946   4.529072   2.348615   3.616612
    16  C    2.691179   1.414730   2.421812   3.702440   3.579997
    17  C    3.839105   2.392992   2.693296   4.566783   4.037769
    18  C    4.202111   2.802437   2.324610   4.503452   3.594075
    19  C    3.414383   2.584381   3.809476   4.669698   4.837395
    20  C    4.731389   3.790885   4.871505   5.969882   6.023627
    21  C    5.391345   4.197515   4.964962   6.469261   6.248639
    22  C    5.047974   3.667812   4.077176   5.896838   5.417634
    23  C    3.546197   3.236148   4.562843   4.854612   5.327595
    24  C    4.811836   4.611803   5.958681   6.150239   6.712210
    25  C    5.737452   5.319218   6.628847   7.105106   7.541376
    26  C    5.713148   4.990877   6.174579   7.036396   7.251742
    27  C    5.471603   5.559288   6.896588   6.736543   7.467367
    28  C    5.166383   5.497094   6.745201   6.271769   7.103828
    29  C    4.066832   4.449315   5.587364   5.053181   5.851481
    30  C    3.111775   3.174461   4.376666   4.241839   4.856327
    31  H    2.156371   3.021343   4.230384   3.355487   4.375285
    32  H    3.388496   4.787958   5.590778   3.774613   5.109366
    33  H    3.917608   5.344378   5.551904   3.352678   4.540624
    34  H    4.647247   5.653278   5.160760   3.378661   3.822834
    35  H    5.218598   5.622476   4.586410   3.852555   3.365934
    36  H    5.588026   5.241096   3.861711   4.574070   3.362837
    37  H    5.608349   4.650112   3.376550   5.144126   3.811522
    38  H    5.280202   3.889345   3.320692   5.512671   4.501900
    39  H    5.953660   4.537535   4.695520   6.672974   6.032039
    40  H    6.455240   5.276580   6.002991   7.539457   7.298776
    41  H    6.706507   5.914170   7.024957   8.012415   8.159319
    42  H    6.734224   6.389508   7.710177   8.109473   8.599824
    43  H    6.502090   6.590243   7.942313   7.781099   8.531879
    44  H    6.036265   6.489030   7.701116   7.053473   7.956739
    45  H    3.843046   4.583358   5.645749   4.671314   5.657816
    46  H    4.593455   4.938103   5.897644   5.367953   6.077724
                    6          7          8          9         10
     6  C    0.000000
     7  C    1.423213   0.000000
     8  C    2.478118   1.423737   0.000000
     9  C    2.885135   2.473150   1.420091   0.000000
    10  C    4.749654   5.039897   4.286172   2.880975   0.000000
    11  C    5.039404   4.920476   3.833142   2.468193   1.425146
    12  C    4.288163   3.835496   2.576321   1.418236   2.479219
    13  C    2.864993   4.273304   5.034215   4.748160   4.955977
    14  C    2.443744   3.809942   4.900643   5.020824   5.919105
    15  C    1.406754   2.562261   3.824630   4.277989   5.848246
    16  C    5.049500   6.030742   5.944887   4.837539   2.934666
    17  C    5.949628   6.712799   6.337687   5.046217   2.464223
    18  C    5.838022   6.311891   5.658092   4.267206   1.401214
    19  C    5.901957   7.051054   7.160057   6.161353   4.381235
    20  C    7.223505   8.348302   8.378756   7.293852   5.157456
    21  C    7.799161   8.778782   8.598642   7.380393   4.878427
    22  C    7.269631   8.076459   7.705498   6.400759   3.705894
    23  C    5.894955   7.156321   7.493153   6.689068   5.383214
    24  C    7.089911   8.409159   8.840367   8.083003   6.742946
    25  C    8.131048   9.434774   9.774374   8.906534   7.225152
    26  C    8.199541   9.416935   9.576751   8.565859   6.544184
    27  C    7.481123   8.826526   9.415895   8.817780   7.806065
    28  C    6.849274   8.152777   8.833755   8.387766   7.776996
    29  C    5.649064   6.892939   7.520719   7.088644   6.663922
    30  C    5.125011   6.360857   6.799637   6.161524   5.380504
    31  H    3.947359   5.354177   6.078490   5.687486   5.465708
    32  H    3.422708   4.710871   5.893976   6.092927   6.951051
    33  H    2.168201   2.869385   4.270935   4.996373   6.840148
    34  H    2.177342   1.087390   2.173088   3.449157   6.112395
    35  H    3.454100   2.173773   1.087162   2.175501   5.007569
    36  H    5.008333   4.283538   2.883173   2.174611   3.456062
    37  H    6.111241   5.913410   4.733125   3.444844   2.179080
    38  H    6.812402   7.168989   6.375780   4.962028   2.146215
    39  H    8.042693   8.730019   8.214883   6.854261   4.026263
    40  H    8.863270   9.839417   9.635677   8.396608   5.810346
    41  H    9.195262  10.391956  10.500539   9.441347   7.258096
    42  H    9.078593  10.411122  10.806748   9.971234   8.308411
    43  H    8.490080   9.853139  10.477321   9.889210   8.823028
    44  H    7.481383   8.760646   9.532478   9.197119   8.769551
    45  H    5.013410   6.267566   7.066606   6.835475   6.856146
    46  H    5.893939   7.003662   7.581487   7.198720   6.921303
                   11         12         13         14         15
    11  C    0.000000
    12  C    1.422528   0.000000
    13  C    5.932882   5.850515   0.000000
    14  C    6.679320   6.307916   1.413818   0.000000
    15  C    6.319698   5.666904   2.472777   1.415281   0.000000
    16  C    4.348118   5.120432   3.521483   4.887940   5.520600
    17  C    3.831976   4.927225   4.828288   6.148669   6.628136
    18  C    2.561056   3.821113   5.417720   6.585422   6.773350
    19  C    5.794451   6.545423   3.753553   5.153327   6.074194
    20  C    6.574402   7.507952   5.014194   6.412819   7.389287
    21  C    6.220689   7.339381   5.914956   7.324789   8.159827
    22  C    4.969109   6.177876   5.861141   7.236531   7.853886
    23  C    6.734746   7.288225   3.484933   4.744415   5.806504
    24  C    8.116526   8.698381   4.469828   5.599671   6.807450
    25  C    8.642564   9.384985   5.469046   6.669904   7.901279
    26  C    7.964607   8.861562   5.712723   7.039502   8.170144
    27  C    9.124243   9.565982   4.895515   5.765087   7.001180
    28  C    8.987633   9.251131   4.546579   5.188476   6.310086
    29  C    7.791370   7.970001   3.648546   4.312926   5.266479
    30  C    6.589762   6.915938   3.032706   4.078020   5.006006
    31  H    6.592575   6.686740   1.084911   2.164548   3.444415
    32  H    7.751692   7.388914   2.162160   1.088478   2.165151
    33  H    7.198399   6.408676   3.447589   2.169106   1.086492
    34  H    5.913099   4.734531   4.990773   4.256191   2.865131
    35  H    4.281677   2.882566   6.105582   5.891786   4.721839
    36  H    2.173638   1.087039   6.842022   7.186482   6.408668
    37  H    1.087487   2.172056   6.965948   7.752091   7.400487
    38  H    2.840116   4.239608   6.492308   7.652828   7.802052
    39  H    5.094636   6.417347   6.842880   8.191951   8.725988
    40  H    7.097511   8.279494   6.920175   8.324364   9.199579
    41  H    8.659450   9.644058   6.721358   8.045613   9.182247
    42  H    9.727173  10.469742   6.345982   7.462503   8.749732
    43  H   10.161824  10.633125   5.845980   6.648813   7.930482
    44  H    9.936659  10.121452   5.315572   5.740205   6.821694
    45  H    7.884432   7.871823   3.202672   3.529085   4.443397
    46  H    7.938409   8.053134   4.361745   4.886333   5.616952
                   16         17         18         19         20
    16  C    0.000000
    17  C    1.437785   0.000000
    18  C    2.513275   1.424960   0.000000
    19  C    1.462075   2.486646   3.809111   0.000000
    20  C    2.461016   2.823623   4.246015   1.418263   0.000000
    21  C    2.813124   2.419321   3.698965   2.443360   1.394922
    22  C    2.444422   1.392307   2.411551   2.828624   2.420885
    23  C    2.598896   3.825672   5.040155   1.442286   2.418996
    24  C    3.872835   4.964050   6.277620   2.494660   2.806026
    25  C    4.308707   5.111801   6.518693   2.853799   2.427871
    26  C    3.758030   4.222405   5.643152   2.455709   1.400061
    27  C    5.049796   6.237222   7.484382   3.781077   4.208770
    28  C    5.301698   6.598160   7.687283   4.293528   5.068774
    29  C    4.492682   5.821975   6.744633   3.810727   4.893310
    30  C    3.087725   4.414787   5.368208   2.495760   3.715415
    31  H    3.464566   4.829637   5.670496   3.292782   4.416944
    32  H    5.668400   6.982934   7.536395   5.711292   6.889204
    33  H    6.605210   7.709676   7.818293   7.120774   8.428833
    34  H    7.067632   7.788932   7.393958   8.028056   9.340235
    35  H    6.938711   7.218524   6.402506   8.194061   9.387109
    36  H    6.192544   5.919132   4.720607   7.622361   8.558899
    37  H    5.056892   4.273666   2.867159   6.474230   7.090850
    38  H    3.489471   2.183667   1.088343   4.658635   4.848717
    39  H    3.439847   2.161183   2.631693   3.914900   3.391763
    40  H    3.900046   3.390788   4.543736   3.433477   2.163106
    41  H    4.620943   4.840210   6.225136   3.442393   2.167148
    42  H    5.393220   6.159062   7.573451   3.940559   3.403301
    43  H    6.006474   7.129880   8.427522   4.661825   4.849025
    44  H    6.370251   7.674141   8.736042   5.381716   6.124944
    45  H    4.932675   6.323908   7.132279   4.458513   5.648626
    46  H    5.066234   6.304416   7.090273   4.539082   5.638558
                   21         22         23         24         25
    21  C    0.000000
    22  C    1.389031   0.000000
    23  C    3.701198   4.233737   0.000000
    24  C    4.188727   5.068094   1.417014   0.000000
    25  C    3.677628   4.839477   2.424496   1.391389   0.000000
    26  C    2.397631   3.679434   2.781583   2.406729   1.388986
    27  C    5.584801   6.436988   2.454710   1.406138   2.420085
    28  C    6.419022   7.052162   2.851323   2.437850   3.699780
    29  C    6.140915   6.507967   2.490808   2.825604   4.212939
    30  C    4.875016   5.136547   1.404828   2.390431   3.667515
    31  H    5.459186   5.653108   2.873917   3.633128   4.566270
    32  H    7.906675   7.972982   5.125194   5.738942   6.798997
    33  H    9.226432   8.934986   6.773777   7.693203   8.812430
    34  H    9.818205   9.146859   8.038562   9.235215  10.303124
    35  H    9.535146   8.569082   8.556880   9.912757  10.841249
    36  H    8.327602   7.116004   8.365886   9.778042  10.465562
    37  H    6.544226   5.203468   7.513319   8.862312   9.281965
    38  H    4.023042   2.635568   5.951273   7.114292   7.214939
    39  H    2.132961   1.088351   5.310177   6.102563   5.771893
    40  H    1.088470   2.133174   4.565623   4.802464   4.008482
    41  H    2.630983   4.017504   3.868781   3.380260   2.132937
    42  H    4.532384   5.782569   3.419937   2.161738   1.087409
    43  H    6.195561   7.186127   3.441194   2.170191   2.662178
    44  H    7.480231   8.134166   3.939491   3.419440   4.569298
    45  H    6.878206   7.150652   3.243947   3.666021   5.047377
    46  H    6.798517   7.051065   3.330325   3.726574   5.073963
                   26         27         28         29         30
    26  C    0.000000
    27  C    3.686759   0.000000
    28  C    4.836138   1.394505   0.000000
    29  C    5.055910   2.425657   1.403295   0.000000
    30  C    4.169296   2.752377   2.402057   1.409203   0.000000
    31  H    4.914284   4.074271   3.942933   3.329164   2.735541
    32  H    7.328004   5.706448   5.116272   4.479958   4.506337
    33  H    9.154933   7.759992   6.984002   6.005412   5.920906
    34  H   10.360213   9.546903   8.790782   7.562814   7.177683
    35  H   10.612395  10.483328   9.872001   8.542579   7.847563
    36  H    9.922476  10.630023  10.277010   8.972487   7.958422
    37  H    8.490195   9.930397   9.862821   8.697160   7.461753
    38  H    6.208267   8.365954   8.640290   7.738367   6.359550
    39  H    4.525937   7.475249   8.112385   7.562647   6.191541
    40  H    2.627414   6.167854   7.139811   7.009845   5.813635
    41  H    1.088500   4.542983   5.780738   6.101849   5.251385
    42  H    2.138820   2.664456   4.053471   4.851490   4.546545
    43  H    4.042821   1.088310   2.140140   3.401422   3.840228
    44  H    5.794205   2.152879   1.088269   2.163513   3.397805
    45  H    5.881725   3.205979   2.068666   1.123218   2.081539
    46  H    5.868556   3.259636   2.103467   1.115614   2.113066
                   31         32         33         34         35
    31  H    0.000000
    32  H    2.475316   0.000000
    33  H    4.325772   2.482785   0.000000
    34  H    6.060721   4.992745   2.747497   0.000000
    35  H    7.155169   6.844580   5.003546   2.487562   0.000000
    36  H    7.715157   8.256053   7.039121   5.019063   2.767203
    37  H    7.573066   8.819483   8.267625   6.866021   5.018537
    38  H    6.720334   8.604712   8.831719   8.238037   7.006411
    39  H    6.684458   8.961418   9.801433   9.807348   8.995998
    40  H    6.393810   8.854715  10.258343  10.878188  10.554351
    41  H    5.905056   8.309936  10.165966  11.347218  11.519973
    42  H    5.382391   7.468877   9.610047  11.246121  11.879415
    43  H    4.957875   6.468699   8.637035  10.545453  11.547653
    44  H    4.756395   5.519605   7.367554   9.305097  10.545955
    45  H    3.054581   3.595063   5.069053   6.824475   8.072320
    46  H    4.248644   5.119072   6.295291   7.635196   8.543043
                   36         37         38         39         40
    36  H    0.000000
    37  H    2.487919   0.000000
    38  H    4.972467   2.719062   0.000000
    39  H    7.256726   5.101630   2.387530   0.000000
    40  H    9.234633   7.314120   4.670770   2.422834   0.000000
    41  H   10.684848   9.092096   6.644191   4.668177   2.390889
    42  H   11.551087  10.355508   8.232834   6.652942   4.667371
    43  H   11.701211  10.946994   9.268999   8.189570   6.631952
    44  H   11.122743  10.830818   9.695265   9.190188   8.167128
    45  H    8.839172   8.861934   8.177175   8.211249   7.796450
    46  H    8.998923   8.822890   8.055172   8.060026   7.676652
                   41         42         43         44         45
    41  H    0.000000
    42  H    2.432309   0.000000
    43  H    4.707053   2.442068   0.000000
    44  H    6.681366   4.734603   2.454813   0.000000
    45  H    6.942066   5.672392   4.100697   2.497136   0.000000
    46  H    6.896985   5.687983   4.139310   2.498063   1.596810
                   46
    46  H    0.000000
 Stoichiometry    C30H16
 Framework group  C1[X(C30H16)]
 Deg. of freedom   132
 Full point group                 C1      NOp   1
 Largest Abelian subgroup         C1      NOp   1
 Largest concise Abelian subgroup C1      NOp   1
                         Standard orientation:                         
 ---------------------------------------------------------------------
 Center     Atomic      Atomic             Coordinates (Angstroms)
 Number     Number       Type             X           Y           Z
 ---------------------------------------------------------------------
      1          6           0        0.863618   -0.927110   -0.480927
      2          6           0        0.509187    0.460071   -0.126814
      3          6           0        1.740732    1.051990    0.165380
      4          6           0        2.224460   -1.059888   -0.246251
      5          6           0        2.731116    0.129713    0.138926
      6          6           0        3.027729   -2.173554   -0.457615
      7          6           0        4.410699   -2.008080   -0.165130
      8          6           0        4.927145   -0.748043    0.250344
      9          6           0        4.074982    0.380275    0.382161
     10          6           0        2.006390    2.385443    0.397735
     11          6           0        3.361108    2.723757    0.682907
     12          6           0        4.379696    1.730775    0.689880
     13          6           0        0.236810   -2.001147   -1.081499
     14          6           0        0.970474   -3.190177   -1.297892
     15          6           0        2.344875   -3.289310   -0.975066
     16          6           0       -0.658202    1.258588   -0.094622
     17          6           0       -0.399978    2.672257   -0.048951
     18          6           0        0.886557    3.212706    0.239585
     19          6           0       -2.050838    0.813893   -0.116421
     20          6           0       -3.031254    1.758965   -0.512770
     21          6           0       -2.706296    3.110077   -0.634038
     22          6           0       -1.431586    3.566134   -0.323336
     23          6           0       -2.560311   -0.463733    0.317511
     24          6           0       -3.911603   -0.833008    0.104032
     25          6           0       -4.784740    0.080066   -0.478968
     26          6           0       -4.358373    1.375765   -0.740990
     27          6           0       -4.388916   -2.088934    0.518817
     28          6           0       -3.566490   -2.977801    1.210320
     29          6           0       -2.244818   -2.622112    1.520003
     30          6           0       -1.793883   -1.362145    1.078423
     31          1           0       -0.798406   -1.946959   -1.401537
     32          1           0        0.468905   -4.044785   -1.748289
     33          1           0        2.879292   -4.213375   -1.177470
     34          1           0        5.092969   -2.844368   -0.297589
     35          1           0        5.993916   -0.643453    0.431955
     36          1           0        5.407218    2.021124    0.893719
     37          1           0        3.628147    3.760182    0.875632
     38          1           0        1.020179    4.289976    0.317850
     39          1           0       -1.246575    4.638405   -0.346022
     40          1           0       -3.466453    3.841975   -0.900970
     41          1           0       -5.089887    2.097956   -1.098986
     42          1           0       -5.826459   -0.177269   -0.655207
     43          1           0       -5.423014   -2.373308    0.333903
     44          1           0       -3.963430   -3.936184    1.539364
     45          1           0       -1.547815   -3.427354    1.163084
     46          1           0       -1.978322   -2.835168    2.582162
 ---------------------------------------------------------------------
 Rotational constants (GHZ):           0.2768563           0.1454101           0.1020121
 Standard basis: 6-311+G(d,p) (5D, 7F)
 There are   786 symmetry adapted cartesian basis functions of A   symmetry.
 There are   756 symmetry adapted basis functions of A   symmetry.
   756 basis functions,  1208 primitive gaussians,   786 cartesian basis functions
    98 alpha electrons       98 beta electrons
       nuclear repulsion energy      2602.3062411994 Hartrees.
 NAtoms=   46 NActive=   46 NUniq=   46 SFac= 1.00D+00 NAtFMM=   60 NAOKFM=F Big=F
 Integral buffers will be    131072 words long.
 Raffenetti 2 integral format.
 Two-electron integral symmetry is turned on.
 One-electron integrals computed using PRISM.
 NBasis=   756 RedAO= T EigKep=  1.23D-06  NBF=   756
 NBsUse=   735 1.00D-06 EigRej=  8.60D-07 NBFU=   735
 ExpMin= 4.38D-02 ExpMax= 4.56D+03 ExpMxC= 6.82D+02 IAcc=2 IRadAn=         4 AccDes= 0.00D+00
 Harris functional with IExCor=  402 and IRadAn=       4 diagonalized for initial guess.
 HarFok:  IExCor=  402 AccDes= 0.00D+00 IRadAn=         4 IDoV= 1 UseB2=F ITyADJ=14
 ICtDFT=  3500011 ScaDFX=  1.000000  1.000000  1.000000  1.000000
 FoFCou: FMM=F IPFlag=           0 FMFlag=      100000 FMFlg1=           0
         NFxFlg=           0 DoJE=T BraDBF=F KetDBF=T FulRan=T
         wScrn=  0.000000 ICntrl=       500 IOpCl=  0 I1Cent=   200000004 NGrid=           0
         NMat0=    1 NMatS0=      1 NMatT0=    0 NMatD0=    1 NMtDS0=    0 NMtDT0=    0
 Petite list used in FoFCou.
 Requested convergence on RMS density matrix=1.00D-08 within 128 cycles.
 Requested convergence on MAX density matrix=1.00D-06.
 Requested convergence on             energy=1.00D-06.
 No special actions if energy rises.
 Restarting incremental Fock formation.
 SCF Done:  E(RB3LYP) =  -1152.96083229     A.U. after   22 cycles
            NFock= 22  Conv=0.35D-08     -V/T= 2.0037

 **********************************************************************

            Population analysis using the SCF Density.

 **********************************************************************

 Orbital symmetries:
       Occupied  (A) (A) (A) (A) (A) (A) (A) (A) (A) (A) (A) (A)
                 (A) (A) (A) (A) (A) (A) (A) (A) (A) (A) (A) (A)
                 (A) (A) (A) (A) (A) (A) (A) (A) (A) (A) (A) (A)
                 (A) (A) (A) (A) (A) (A) (A) (A) (A) (A) (A) (A)
                 (A) (A) (A) (A) (A) (A) (A) (A) (A) (A) (A) (A)
                 (A) (A) (A) (A) (A) (A) (A) (A) (A) (A) (A) (A)
                 (A) (A) (A) (A) (A) (A) (A) (A) (A) (A) (A) (A)
                 (A) (A) (A) (A) (A) (A) (A) (A) (A) (A) (A) (A)
                 (A) (A)
       Virtual   (A) (A) (A) (A) (A) (A) (A) (A) (A) (A) (A) (A)
                 (A) (A) (A) (A) (A) (A) (A) (A) (A) (A) (A) (A)
                 (A) (A) (A) (A) (A) (A) (A) (A) (A) (A) (A) (A)
                 (A) (A) (A) (A) (A) (A) (A) (A) (A) (A) (A) (A)
                 (A) (A) (A) (A) (A) (A) (A) (A) (A) (A) (A) (A)
                 (A) (A) (A) (A) (A) (A) (A) (A) (A) (A) (A) (A)
                 (A) (A) (A) (A) (A) (A) (A) (A) (A) (A) (A) (A)
                 (A) (A) (A) (A) (A) (A) (A) (A) (A) (A) (A) (A)
                 (A) (A) (A) (A) (A) (A) (A) (A) (A) (A) (A) (A)
                 (A) (A) (A) (A) (A) (A) (A) (A) (A) (A) (A) (A)
                 (A) (A) (A) (A) (A) (A) (A) (A) (A) (A) (A) (A)
                 (A) (A) (A) (A) (A) (A) (A) (A) (A) (A) (A) (A)
                 (A) (A) (A) (A) (A) (A) (A) (A) (A) (A) (A) (A)
                 (A) (A) (A) (A) (A) (A) (A) (A) (A) (A) (A) (A)
                 (A) (A) (A) (A) (A) (A) (A) (A) (A) (A) (A) (A)
                 (A) (A) (A) (A) (A) (A) (A) (A) (A) (A) (A) (A)
                 (A) (A) (A) (A) (A) (A) (A) (A) (A) (A) (A) (A)
                 (A) (A) (A) (A) (A) (A) (A) (A) (A) (A) (A) (A)
                 (A) (A) (A) (A) (A) (A) (A) (A) (A) (A) (A) (A)
                 (A) (A) (A) (A) (A) (A) (A) (A) (A) (A) (A) (A)
                 (A) (A) (A) (A) (A) (A) (A) (A) (A) (A) (A) (A)
                 (A) (A) (A) (A) (A) (A) (A) (A) (A) (A) (A) (A)
                 (A) (A) (A) (A) (A) (A) (A) (A) (A) (A) (A) (A)
                 (A) (A) (A) (A) (A) (A) (A) (A) (A) (A) (A) (A)
                 (A) (A) (A) (A) (A) (A) (A) (A) (A) (A) (A) (A)
                 (A) (A) (A) (A) (A) (A) (A) (A) (A) (A) (A) (A)
                 (A) (A) (A) (A) (A) (A) (A) (A) (A) (A) (A) (A)
                 (A) (A) (A) (A) (A) (A) (A) (A) (A) (A) (A) (A)
                 (A) (A) (A) (A) (A) (A) (A) (A) (A) (A) (A) (A)
                 (A) (A) (A) (A) (A) (A) (A) (A) (A) (A) (A) (A)
                 (A) (A) (A) (A) (A) (A) (A) (A) (A) (A) (A) (A)
                 (A) (A) (A) (A) (A) (A) (A) (A) (A) (A) (A) (A)
                 (A) (A) (A) (A) (A) (A) (A) (A) (A) (A) (A) (A)
                 (A) (A) (A) (A) (A) (A) (A) (A) (A) (A) (A) (A)
                 (A) (A) (A) (A) (A) (A) (A) (A) (A) (A) (A) (A)
                 (A) (A) (A) (A) (A) (A) (A) (A) (A) (A) (A) (A)
                 (A) (A) (A) (A) (A) (A) (A) (A) (A) (A) (A) (A)
                 (A) (A) (A) (A) (A) (A) (A) (A) (A) (A) (A) (A)
                 (A) (A) (A) (A) (A) (A) (A) (A) (A) (A) (A) (A)
                 (A) (A) (A) (A) (A) (A) (A) (A) (A) (A) (A) (A)
                 (A) (A) (A) (A) (A) (A) (A) (A) (A) (A) (A) (A)
                 (A) (A) (A) (A) (A) (A) (A) (A) (A) (A) (A) (A)
                 (A) (A) (A) (A) (A) (A) (A) (A) (A) (A) (A) (A)
                 (A) (A) (A) (A) (A) (A) (A) (A) (A) (A) (A) (A)
                 (A) (A) (A) (A) (A) (A) (A) (A) (A) (A) (A) (A)
                 (A) (A) (A) (A) (A) (A) (A) (A) (A) (A) (A) (A)
                 (A) (A) (A) (A) (A) (A) (A) (A) (A) (A) (A) (A)
                 (A) (A) (A) (A) (A) (A) (A) (A) (A) (A) (A) (A)
                 (A) (A) (A) (A) (A) (A) (A) (A) (A) (A) (A) (A)
                 (A) (A) (A) (A) (A) (A) (A) (A) (A) (A) (A) (A)
                 (A) (A) (A) (A) (A) (A) (A) (A) (A) (A) (A) (A)
                 (A) (A) (A) (A) (A) (A) (A) (A) (A) (A) (A) (A)
                 (A) (A) (A) (A) (A) (A) (A) (A) (A) (A) (A) (A)
                 (A)
 The electronic state is 1-A.
 Alpha  occ. eigenvalues --  -10.20450 -10.20109 -10.19989 -10.19815 -10.19267
 Alpha  occ. eigenvalues --  -10.19261 -10.18992 -10.18950 -10.18891 -10.18777
 Alpha  occ. eigenvalues --  -10.18685 -10.18652 -10.18638 -10.18624 -10.18594
 Alpha  occ. eigenvalues --  -10.18593 -10.18426 -10.18364 -10.18228 -10.18083
 Alpha  occ. eigenvalues --  -10.18045 -10.18028 -10.17995 -10.17994 -10.17937
 Alpha  occ. eigenvalues --  -10.17769 -10.15778 -10.15461 -10.15180 -10.14944
 Alpha  occ. eigenvalues --   -0.92656  -0.90058  -0.87455  -0.85759  -0.84484
 Alpha  occ. eigenvalues --   -0.82830  -0.80969  -0.79396  -0.78601  -0.76955
 Alpha  occ. eigenvalues --   -0.75081  -0.73810  -0.72419  -0.71867  -0.70741
 Alpha  occ. eigenvalues --   -0.67045  -0.64960  -0.64180  -0.62896  -0.62577
 Alpha  occ. eigenvalues --   -0.60373  -0.59547  -0.58388  -0.56686  -0.54169
 Alpha  occ. eigenvalues --   -0.53540  -0.52455  -0.51371  -0.50944  -0.49900
 Alpha  occ. eigenvalues --   -0.49309  -0.47665  -0.47364  -0.46626  -0.44321
 Alpha  occ. eigenvalues --   -0.44204  -0.44114  -0.43825  -0.43586  -0.43038
 Alpha  occ. eigenvalues --   -0.42753  -0.42286  -0.41435  -0.41137  -0.40745
 Alpha  occ. eigenvalues --   -0.40194  -0.39743  -0.39620  -0.38803  -0.37894
 Alpha  occ. eigenvalues --   -0.37026  -0.36030  -0.35916  -0.34941  -0.34553
 Alpha  occ. eigenvalues --   -0.33817  -0.33388  -0.32903  -0.31651  -0.30601
 Alpha  occ. eigenvalues --   -0.29045  -0.28074  -0.25738  -0.24307  -0.22231
 Alpha  occ. eigenvalues --   -0.22011  -0.20128  -0.16133
 Alpha virt. eigenvalues --   -0.10343  -0.08930  -0.04935  -0.04558  -0.02534
 Alpha virt. eigenvalues --   -0.00483  -0.00362   0.00374   0.00776   0.01053
 Alpha virt. eigenvalues --    0.01448   0.01562   0.02134   0.02530   0.02732
 Alpha virt. eigenvalues --    0.02815   0.03110   0.03289   0.04169   0.04297
 Alpha virt. eigenvalues --    0.04431   0.04828   0.05056   0.05299   0.05909
 Alpha virt. eigenvalues --    0.06415   0.06467   0.06976   0.07198   0.07483
 Alpha virt. eigenvalues --    0.08169   0.08228   0.08811   0.09132   0.09384
 Alpha virt. eigenvalues --    0.09566   0.09729   0.10180   0.11094   0.11186
 Alpha virt. eigenvalues --    0.11406   0.11546   0.11663   0.12258   0.12437
 Alpha virt. eigenvalues --    0.12818   0.12844   0.13203   0.13982   0.14399
 Alpha virt. eigenvalues --    0.14557   0.14674   0.14826   0.15386   0.15477
 Alpha virt. eigenvalues --    0.16040   0.16216   0.16466   0.16875   0.17014
 Alpha virt. eigenvalues --    0.17093   0.17211   0.17652   0.17724   0.17891
 Alpha virt. eigenvalues --    0.18174   0.18276   0.18404   0.18803   0.18906
 Alpha virt. eigenvalues --    0.19199   0.19324   0.19674   0.19756   0.20130
 Alpha virt. eigenvalues --    0.20273   0.20480   0.20823   0.21025   0.21283
 Alpha virt. eigenvalues --    0.21305   0.21494   0.21794   0.22017   0.22524
 Alpha virt. eigenvalues --    0.22652   0.22782   0.22965   0.23070   0.23344
 Alpha virt. eigenvalues --    0.23777   0.24046   0.24121   0.24257   0.24451
 Alpha virt. eigenvalues --    0.24762   0.24801   0.24977   0.25430   0.25615
 Alpha virt. eigenvalues --    0.25649   0.25765   0.26180   0.26514   0.26996
 Alpha virt. eigenvalues --    0.27206   0.27527   0.27738   0.27883   0.28128
 Alpha virt. eigenvalues --    0.28700   0.28999   0.29008   0.29179   0.29491
 Alpha virt. eigenvalues --    0.29764   0.29987   0.30234   0.30584   0.30723
 Alpha virt. eigenvalues --    0.30767   0.31210   0.31742   0.31885   0.32350
 Alpha virt. eigenvalues --    0.32548   0.32611   0.33068   0.33311   0.33883
 Alpha virt. eigenvalues --    0.34111   0.34261   0.34879   0.34921   0.35828
 Alpha virt. eigenvalues --    0.35896   0.36307   0.36694   0.36993   0.37969
 Alpha virt. eigenvalues --    0.38417   0.39209   0.39569   0.40154   0.40747
 Alpha virt. eigenvalues --    0.41126   0.41712   0.42450   0.42923   0.43627
 Alpha virt. eigenvalues --    0.44645   0.44852   0.45213   0.45915   0.46321
 Alpha virt. eigenvalues --    0.47071   0.47498   0.48053   0.49169   0.49521
 Alpha virt. eigenvalues --    0.49754   0.50674   0.51419   0.52438   0.52919
 Alpha virt. eigenvalues --    0.53408   0.53834   0.53968   0.54711   0.54866
 Alpha virt. eigenvalues --    0.55069   0.55271   0.55640   0.56204   0.56720
 Alpha virt. eigenvalues --    0.56850   0.57174   0.57709   0.57833   0.58155
 Alpha virt. eigenvalues --    0.58539   0.58732   0.59012   0.59090   0.59573
 Alpha virt. eigenvalues --    0.60533   0.60691   0.60870   0.61308   0.61704
 Alpha virt. eigenvalues --    0.61984   0.62395   0.63116   0.63583   0.64095
 Alpha virt. eigenvalues --    0.64596   0.64810   0.65370   0.66356   0.66532
 Alpha virt. eigenvalues --    0.66863   0.67004   0.67558   0.67884   0.68136
 Alpha virt. eigenvalues --    0.68730   0.69057   0.69429   0.69700   0.70053
 Alpha virt. eigenvalues --    0.70445   0.70821   0.71042   0.71310   0.72107
 Alpha virt. eigenvalues --    0.72196   0.72387   0.72703   0.73093   0.73504
 Alpha virt. eigenvalues --    0.73887   0.74376   0.74617   0.74934   0.75390
 Alpha virt. eigenvalues --    0.75659   0.76180   0.76270   0.76629   0.77131
 Alpha virt. eigenvalues --    0.77326   0.77972   0.78289   0.79471   0.79623
 Alpha virt. eigenvalues --    0.80253   0.80856   0.81321   0.81852   0.82261
 Alpha virt. eigenvalues --    0.83180   0.83948   0.84116   0.84469   0.85596
 Alpha virt. eigenvalues --    0.85649   0.86144   0.87479   0.88082   0.88911
 Alpha virt. eigenvalues --    0.88990   0.89623   0.90191   0.90499   0.90599
 Alpha virt. eigenvalues --    0.91475   0.92018   0.92725   0.92803   0.93624
 Alpha virt. eigenvalues --    0.94216   0.94477   0.94555   0.94663   0.95098
 Alpha virt. eigenvalues --    0.95781   0.96457   0.96784   0.96965   0.97302
 Alpha virt. eigenvalues --    0.97559   0.97927   0.98356   0.98673   0.99140
 Alpha virt. eigenvalues --    0.99483   1.00901   1.01696   1.02021   1.02620
 Alpha virt. eigenvalues --    1.02814   1.03222   1.03977   1.04376   1.04568
 Alpha virt. eigenvalues --    1.05125   1.06267   1.06334   1.06986   1.07654
 Alpha virt. eigenvalues --    1.08322   1.08657   1.09269   1.09993   1.10500
 Alpha virt. eigenvalues --    1.10876   1.11623   1.12524   1.13241   1.14141
 Alpha virt. eigenvalues --    1.15085   1.16053   1.16434   1.17594   1.17744
 Alpha virt. eigenvalues --    1.19072   1.19591   1.20552   1.21346   1.22953
 Alpha virt. eigenvalues --    1.23222   1.25916   1.27260   1.27674   1.29175
 Alpha virt. eigenvalues --    1.30272   1.30598   1.32229   1.33835   1.34947
 Alpha virt. eigenvalues --    1.35089   1.36897   1.37624   1.39265   1.39895
 Alpha virt. eigenvalues --    1.40833   1.42602   1.43518   1.45517   1.45948
 Alpha virt. eigenvalues --    1.46784   1.47420   1.47848   1.48908   1.49496
 Alpha virt. eigenvalues --    1.50111   1.50252   1.50979   1.51030   1.51461
 Alpha virt. eigenvalues --    1.51643   1.52562   1.53476   1.54197   1.55005
 Alpha virt. eigenvalues --    1.55893   1.56263   1.57011   1.57136   1.57877
 Alpha virt. eigenvalues --    1.58318   1.58605   1.59527   1.60298   1.61141
 Alpha virt. eigenvalues --    1.61240   1.62516   1.63110   1.63378   1.64796
 Alpha virt. eigenvalues --    1.66063   1.67599   1.67657   1.68325   1.69204
 Alpha virt. eigenvalues --    1.70063   1.70618   1.71613   1.71754   1.72487
 Alpha virt. eigenvalues --    1.72553   1.73482   1.74575   1.74971   1.75321
 Alpha virt. eigenvalues --    1.76623   1.77085   1.77366   1.77730   1.79665
 Alpha virt. eigenvalues --    1.79974   1.80145   1.81323   1.82285   1.82810
 Alpha virt. eigenvalues --    1.83654   1.84415   1.84632   1.84927   1.85679
 Alpha virt. eigenvalues --    1.86271   1.86959   1.87700   1.88379   1.88708
 Alpha virt. eigenvalues --    1.88941   1.89733   1.90056   1.90478   1.90965
 Alpha virt. eigenvalues --    1.91387   1.91998   1.92337   1.92954   1.93708
 Alpha virt. eigenvalues --    1.94285   1.94903   1.95310   1.96711   1.97391
 Alpha virt. eigenvalues --    1.97754   1.97903   1.99041   1.99897   2.00355
 Alpha virt. eigenvalues --    2.01387   2.02068   2.02718   2.03169   2.03801
 Alpha virt. eigenvalues --    2.04729   2.05006   2.06055   2.06676   2.07791
 Alpha virt. eigenvalues --    2.09292   2.09552   2.10334   2.10963   2.11582
 Alpha virt. eigenvalues --    2.12275   2.14042   2.14638   2.15125   2.16639
 Alpha virt. eigenvalues --    2.17357   2.17652   2.18372   2.19365   2.20491
 Alpha virt. eigenvalues --    2.21782   2.22000   2.23342   2.24797   2.25491
 Alpha virt. eigenvalues --    2.26436   2.26956   2.27990   2.28482   2.30295
 Alpha virt. eigenvalues --    2.30873   2.33070   2.34492   2.36021   2.37516
 Alpha virt. eigenvalues --    2.38174   2.40660   2.41259   2.42728   2.43218
 Alpha virt. eigenvalues --    2.43981   2.45182   2.46884   2.47104   2.47354
 Alpha virt. eigenvalues --    2.47712   2.49292   2.50724   2.51904   2.56511
 Alpha virt. eigenvalues --    2.57037   2.57686   2.58000   2.59849   2.59986
 Alpha virt. eigenvalues --    2.60175   2.61737   2.63631   2.65439   2.65840
 Alpha virt. eigenvalues --    2.66878   2.68081   2.68214   2.68829   2.70272
 Alpha virt. eigenvalues --    2.70844   2.71699   2.72453   2.72910   2.73077
 Alpha virt. eigenvalues --    2.73549   2.74210   2.74471   2.75009   2.75217
 Alpha virt. eigenvalues --    2.75673   2.75974   2.76440   2.76721   2.77012
 Alpha virt. eigenvalues --    2.77861   2.78167   2.78372   2.78600   2.79505
 Alpha virt. eigenvalues --    2.80450   2.80604   2.81087   2.81657   2.83776
 Alpha virt. eigenvalues --    2.84848   2.85297   2.85853   2.86723   2.86897
 Alpha virt. eigenvalues --    2.87894   2.88133   2.89330   2.89924   2.90811
 Alpha virt. eigenvalues --    2.92478   2.93004   2.93140   2.94702   2.96515
 Alpha virt. eigenvalues --    2.96650   2.98254   2.99638   3.01507   3.03166
 Alpha virt. eigenvalues --    3.03331   3.05752   3.07861   3.08771   3.10049
 Alpha virt. eigenvalues --    3.12039   3.14153   3.14803   3.15952   3.18188
 Alpha virt. eigenvalues --    3.20024   3.21342   3.22217   3.23651   3.23794
 Alpha virt. eigenvalues --    3.24316   3.25348   3.27027   3.29096   3.32849
 Alpha virt. eigenvalues --    3.35306   3.37084   3.37759   3.39073   3.40440
 Alpha virt. eigenvalues --    3.41325   3.41826   3.42359   3.43375   3.45036
 Alpha virt. eigenvalues --    3.46214   3.47017   3.47475   3.48945   3.49278
 Alpha virt. eigenvalues --    3.50215   3.52640   3.53137   3.56540   3.56791
 Alpha virt. eigenvalues --    3.58498   3.61241   3.61808   3.63877   3.65297
 Alpha virt. eigenvalues --    3.67488   3.71268   3.73484   3.76961   3.81296
 Alpha virt. eigenvalues --    3.85853   3.87642   3.95111   4.00953   4.03382
 Alpha virt. eigenvalues --    4.05842   4.07860   4.08303   4.08762   4.10152
 Alpha virt. eigenvalues --    4.10999   4.14871   4.19902   4.22608   4.28197
 Alpha virt. eigenvalues --    4.30709   4.36693   4.44338   4.67420   4.77577
 Alpha virt. eigenvalues --    4.78090   4.78672   4.79875   4.82282   4.83550
 Alpha virt. eigenvalues --    4.86481   4.90408  23.43339  23.58732  23.73223
 Alpha virt. eigenvalues --   23.80909  23.85615  23.88389  23.91508  23.93015
 Alpha virt. eigenvalues --   23.95376  23.96111  23.97335  23.99529  24.00567
 Alpha virt. eigenvalues --   24.01376  24.03212  24.04562  24.04725  24.06041
 Alpha virt. eigenvalues --   24.06290  24.06979  24.07060  24.09635  24.10202
 Alpha virt. eigenvalues --   24.12020  24.13716  24.15727  24.16376  24.16884
 Alpha virt. eigenvalues --   24.23823  24.35168
          Condensed to atoms (all electrons):
               1          2          3          4          5          6
     1  C    9.500999  -0.059790  -0.875713  -0.424914  -0.564847  -0.759252
     2  C   -0.059790   8.583163   0.224914   0.269373  -0.435968  -0.116538
     3  C   -0.875713   0.224914   8.512869   0.257345   0.538452   0.174390
     4  C   -0.424914   0.269373   0.257345   7.287588  -0.109721   1.294602
     5  C   -0.564847  -0.435968   0.538452  -0.109721   7.665383  -0.226288
     6  C   -0.759252  -0.116538   0.174390   1.294602  -0.226288  10.567775
     7  C   -0.627210  -0.031970  -0.585857  -0.805420   1.090250  -2.378036
     8  C   -0.121530   0.029811  -0.847841   0.421431  -1.673288  -0.547454
     9  C   -0.301695   0.163814   0.189848   0.445840   1.330014   0.375992
    10  C   -0.890966   0.113048   1.425697   0.506714   0.039861  -0.237103
    11  C   -0.616647  -1.615530   0.287966  -0.767421   1.079015  -0.105511
    12  C   -0.050625  -0.595263   0.623032  -0.575603  -0.531217   0.069060
    13  C   -0.469592  -0.332352  -1.013124  -0.480375  -0.410935   0.466835
    14  C   -1.822569  -0.588871   0.132980   0.940616  -0.144849  -0.020012
    15  C    1.407195   0.236539  -0.296372  -1.977182  -0.511107  -2.878028
    16  C    0.992642   0.083114  -0.595654   0.043120  -0.335674  -0.038930
    17  C   -0.968537   0.469111   0.977051  -0.071762   0.152973   0.120742
    18  C    0.058055   0.459660   0.507775  -0.045489  -0.666612  -0.020996
    19  C    0.495073   0.166099   0.000201   0.077782  -0.258696   0.061745
    20  C   -0.178160   0.334753  -0.194449   0.102947   0.151145  -0.021329
    21  C    0.038347  -0.310095  -0.222357  -0.008435   0.007325   0.015580
    22  C    0.703217  -0.763252  -1.667095  -0.072730   0.136719   0.067570
    23  C    1.245632  -0.615991  -0.636135   0.058711  -0.100451   0.074219
    24  C    0.027393  -0.020664  -0.028920  -0.047566   0.006550  -0.054417
    25  C   -0.061233   0.131573  -0.082305  -0.005561   0.010686  -0.015088
    26  C    0.114367   0.022897  -0.350755  -0.039390   0.029620  -0.003697
    27  C   -0.181936  -0.039180  -0.092666  -0.040230  -0.006979  -0.017918
    28  C    0.206209  -0.219130   0.028174  -0.003124  -0.009397   0.038020
    29  C   -0.558078   0.479044  -0.148247  -0.135281   0.048110  -0.066089
    30  C    0.151838  -0.347901  -0.366682  -0.311619  -0.130543   0.004158
    31  H   -0.068511   0.040964   0.005126   0.043859   0.007879  -0.014476
    32  H    0.027693  -0.004148   0.001081   0.002703   0.000186   0.000465
    33  H    0.001726  -0.000026   0.005470   0.046916  -0.010588  -0.060118
    34  H   -0.008038   0.003378  -0.001038   0.013218  -0.010680  -0.110494
    35  H   -0.001597   0.002761  -0.018993  -0.003805   0.025908  -0.013613
    36  H    0.004374  -0.000653   0.006516  -0.012569   0.022221   0.008871
    37  H    0.003886  -0.006221   0.021426  -0.002574  -0.007931   0.000956
    38  H   -0.000080  -0.015128   0.017184   0.003255  -0.004577  -0.000411
    39  H   -0.001795  -0.015287   0.008425  -0.000110   0.001315   0.000040
    40  H    0.000783  -0.003487   0.001350   0.000160  -0.000061   0.000011
    41  H   -0.000732   0.002634  -0.000303   0.000024   0.000023  -0.000006
    42  H    0.000631  -0.000975   0.000015  -0.000024  -0.000014  -0.000000
    43  H   -0.000334   0.000221   0.000063   0.000004   0.000008  -0.000013
    44  H   -0.002538   0.002201   0.000012   0.000389   0.000066  -0.000040
    45  H    0.010078   0.007487   0.000265   0.002825   0.000225   0.003602
    46  H   -0.019492   0.009603   0.001147   0.004733   0.001524   0.000238
               7          8          9         10         11         12
     1  C   -0.627210  -0.121530  -0.301695  -0.890966  -0.616647  -0.050625
     2  C   -0.031970   0.029811   0.163814   0.113048  -1.615530  -0.595263
     3  C   -0.585857  -0.847841   0.189848   1.425697   0.287966   0.623032
     4  C   -0.805420   0.421431   0.445840   0.506714  -0.767421  -0.575603
     5  C    1.090250  -1.673288   1.330014   0.039861   1.079015  -0.531217
     6  C   -2.378036  -0.547454   0.375992  -0.237103  -0.105511   0.069060
     7  C   10.799929  -0.308443  -0.223118  -0.049549   0.176120  -0.554706
     8  C   -0.308443  10.174379  -1.975580   0.394471  -0.435803  -0.246442
     9  C   -0.223118  -1.975580  10.057353   0.751861  -0.946090  -1.604498
    10  C   -0.049549   0.394471   0.751861  10.814441  -1.029191  -1.413042
    11  C    0.176120  -0.435803  -0.946090  -1.029191  10.931940   2.121368
    12  C   -0.554706  -0.246442  -1.604498  -1.413042   2.121368   9.065615
    13  C    0.161609   0.582168  -0.116633  -0.184664  -0.324563  -0.126646
    14  C   -0.305714  -0.485354   0.304226  -0.017998   0.092125   0.010314
    15  C    0.246057   0.423318  -0.582474  -0.165684  -0.244918  -0.176521
    16  C   -0.197769   0.037410  -0.599281  -2.096712  -1.168267   0.079164
    17  C   -0.110472   0.031469  -0.325925   0.521146   0.456959  -0.008606
    18  C   -0.165921   0.218781  -0.760865   1.043816  -1.185575   0.019913
    19  C    0.028304  -0.000124   0.012254  -0.862942  -0.282981  -0.056679
    20  C   -0.001886  -0.004052  -0.059573  -0.116341   0.051195  -0.002180
    21  C   -0.001878   0.005888  -0.004213  -0.084483  -0.104367  -0.029499
    22  C   -0.056542   0.063182  -0.159000  -1.618902  -0.128924  -0.153476
    23  C   -0.021129   0.015772  -0.064140  -0.722971  -0.133303  -0.004111
    24  C   -0.013509  -0.002955  -0.002719  -0.000031   0.000067   0.010972
    25  C   -0.001842  -0.000203  -0.003626  -0.006519   0.003158   0.000402
    26  C   -0.005760   0.004209  -0.003334  -0.140713  -0.015492  -0.001038
    27  C   -0.010762   0.001322   0.003832  -0.022269  -0.004016   0.002584
    28  C    0.012317   0.000416  -0.000229  -0.016998  -0.002192  -0.003365
    29  C   -0.038680  -0.007504  -0.000745   0.128654   0.013949   0.027294
    30  C   -0.029135   0.046525   0.002315  -0.131123  -0.071174   0.029972
    31  H   -0.006992  -0.002440   0.003312   0.007826   0.001559   0.000595
    32  H    0.002496  -0.000308   0.000978  -0.000023  -0.000022   0.000121
    33  H    0.000183  -0.004545   0.013386  -0.000458   0.000410   0.000154
    34  H    0.363897   0.039219  -0.014681   0.001628  -0.000791   0.007415
    35  H    0.031912   0.397932  -0.102573   0.003199   0.003532   0.009215
    36  H   -0.001774   0.000461  -0.099471   0.013110  -0.004093   0.387527
    37  H   -0.002134   0.002291  -0.041899  -0.095449   0.366021  -0.023014
    38  H    0.000211   0.000525   0.008580  -0.038627   0.046116   0.009859
    39  H    0.000022  -0.000021   0.000180   0.050253   0.008577   0.000689
    40  H    0.000000   0.000001   0.000021   0.000150  -0.000022  -0.000029
    41  H    0.000000  -0.000000  -0.000006   0.000333   0.000026   0.000002
    42  H   -0.000000   0.000000   0.000000  -0.000044  -0.000003   0.000000
    43  H    0.000000  -0.000000  -0.000000   0.000014   0.000000   0.000000
    44  H   -0.000016  -0.000003   0.000006   0.000061   0.000003   0.000001
    45  H    0.000510  -0.000033   0.000137   0.000397   0.000096  -0.000004
    46  H    0.000146  -0.000134   0.000212   0.001428   0.000256   0.000012
              13         14         15         16         17         18
     1  C   -0.469592  -1.822569   1.407195   0.992642  -0.968537   0.058055
     2  C   -0.332352  -0.588871   0.236539   0.083114   0.469111   0.459660
     3  C   -1.013124   0.132980  -0.296372  -0.595654   0.977051   0.507775
     4  C   -0.480375   0.940616  -1.977182   0.043120  -0.071762  -0.045489
     5  C   -0.410935  -0.144849  -0.511107  -0.335674   0.152973  -0.666612
     6  C    0.466835  -0.020012  -2.878028  -0.038930   0.120742  -0.020996
[...]
 .00079851,0.00016326,-0.00050854,0.00001640,-0.05740359,0.01854084,-0.
 00304851,0.00639499,-0.02411663,0.01108749,-0.00208514,0.00145838,0.00
 523394,-0.00104198,0.00019563,0.00017235,-0.00001467,0.00000099,0.0000
 1352,0.00000164,-0.00000104,0.00000820,0.00000179,-0.00000018,0.000001
 26,0.00000178,0.00000070,0.00000057,0.00000145,0.00000245,0.00000075,0
 .00000078,0.00000233,0.00000082,-0.00000150,0.00000228,-0.00000092,-0.
 00000375,0.00001070,-0.00001064,-0.00000278,-0.00000157,0.00000341,-0.
 00002269,0.00000693,0.00000043,-0.00002401,-0.00001930,-0.00006623,-0.
 00030428,-0.00078275,0.00034786,0.05481204,0.00003978,0.00005240,0.000
 01618,0.00004764,0.00008069,0.00003807,-0.00001055,-0.00003648,0.00002
 659,-0.00002144,-0.00001218,0.00001189,0.00001579,0.00002037,-0.000005
 59,-0.00001009,0.00001539,-0.00000314,-0.00000135,-0.00001057,-0.00000
 056,-0.00000502,0.00001023,-0.00000467,0.00001921,-0.00003064,0.000005
 39,-0.00002404,-0.00001068,-0.00000295,0.00000049,0.00002584,-0.000007
 10,-0.00003132,-0.00000054,-0.00000287,-0.00005227,-0.00001685,-0.0000
 6652,0.00004249,-0.00000505,0.00000423,-0.00001216,-0.00001526,-0.0000
 0133,0.00017948,-0.00010517,-0.00019059,-0.00008737,-0.00009241,0.0000
 1784,0.00003296,0.00003314,0.00000528,-0.00050466,-0.00053744,0.000257
 36,-0.00008481,0.00042399,0.00008169,0.00009601,-0.00006853,0.00005926
 ,0.00005829,0.00009456,-0.00004073,0.00293482,0.00109583,-0.00037710,0
 .00078616,-0.01301507,0.00662046,-0.00205440,0.00057271,-0.00046584,0.
 00041712,-0.00024546,-0.00038975,0.01662857,-0.27929844,0.10962115,0.0
 0379719,-0.00755093,0.00423128,-0.00072072,0.00297505,0.00403271,-0.00
 035690,0.00084065,-0.00056258,0.00001936,-0.00002116,0.00004716,-0.000
 01681,-0.00000037,0.00000307,-0.00000300,-0.00000234,0.00000135,-0.000
 00304,-0.00000041,0.00000105,-0.00000146,-0.00000294,0.00000096,-0.000
 00178,-0.00000303,0.00000123,0.00000277,-0.00000121,0.00000106,0.00000
 382,-0.00000694,0.00000469,0.00000142,-0.00000417,-0.00001365,0.000018
 40,-0.00000303,0.00000002,0.00005280,-0.00002399,0.00000555,0.00073788
 ,0.00055330,-0.00001218,-0.02064097,0.29565029,-0.00003145,0.00001747,
 0.00001863,0.00007699,-0.00003155,-0.00002688,-0.00000599,0.00003696,-
 0.00000305,-0.00000146,-0.00000088,0.00002887,-0.00001492,0.00001521,-
 0.00000663,-0.00000015,0.00000470,-0.00000467,0.00000012,-0.00000155,0
 .00000102,-0.00000304,-0.00000109,-0.00000186,-0.00000518,0.00000960,-
 0.00001173,0.00001936,0.00000442,0.00000332,0.00000770,-0.00000956,-0.
 00000029,0.00000881,0.00000780,0.00000066,-0.00001542,-0.00000164,-0.0
 0003407,-0.00000836,0.00001778,-0.00000852,0.00000381,-0.00000854,0.00
 000258,-0.00006259,-0.00013063,-0.00001584,-0.00002019,0.00001768,0.00
 000005,-0.00001492,-0.00001105,-0.00000324,0.00011309,-0.00002533,0.00
 014218,0.00003294,0.00014149,-0.00002349,0.00008500,-0.00007863,0.0000
 0978,0.00001120,0.00006911,-0.00002105,0.00173174,0.00079682,0.0015958
 9,0.00443601,-0.00487980,0.00278476,-0.00076009,-0.00091272,-0.0008120
 1,0.00000906,-0.00048283,-0.00001493,-0.00652152,0.10943413,-0.0854019
 1,0.00009040,0.01698315,-0.00438376,0.00502027,0.00341388,0.00790574,-
 0.00078448,-0.00048439,-0.00041716,-0.00000903,0.00000028,0.00000250,0
 .00000007,-0.00000281,0.00000687,0.00000551,0.00000419,0.00000138,0.00
 000507,0.00000250,0.00000130,0.00000096,0.00000582,-0.00000002,0.00000
 067,0.00000575,0.00000103,-0.00000460,0.00000379,-0.00000049,-0.000005
 33,0.00000496,0.00000299,-0.00000486,0.00000664,0.00000023,-0.00000831
 ,-0.00000411,0.00000112,0.00001198,0.00001326,0.00006824,-0.00022450,0
 .00001927,0.00025862,-0.00175610,-0.12106325,0.08312360,-0.00002526,-0
 .00004961,-0.00002039,-0.00004350,-0.00014550,-0.00003549,-0.00001813,
 0.00009994,-0.00000715,0.00001939,-0.00003308,0.00001928,-0.00006092,-
 0.00002266,-0.00000489,0.00003401,-0.00002725,0.00002089,0.00000288,0.
 00002874,-0.00000551,0.00001258,-0.00002417,0.00001135,-0.00003646,0.0
 0005819,-0.00002650,0.00005755,0.00002082,0.00000639,-0.00000511,-0.00
 004727,0.00000629,0.00005960,-0.00000541,0.00000801,0.00005416,0.00004
 204,0.00005570,-0.00009082,-0.00001602,-0.00001935,0.00002988,0.000042
 62,-0.00001885,0.00003616,0.00012814,-0.00000181,0.00010312,0.00009712
 ,-0.00005485,-0.00005857,-0.00005077,-0.00000373,0.00045346,-0.0001616
 1,-0.00043090,-0.00017877,-0.00062659,0.00022537,-0.00004113,0.0000630
 7,0.00003950,-0.00000921,-0.00010584,0.00001951,-0.00058136,-0.0010918
 0,0.00076212,-0.00116922,-0.00162062,0.00412962,0.00040363,0.00111986,
 0.00000410,-0.00072084,0.00024998,-0.00011618,-0.01532672,0.01427541,-
 0.00015731,-0.26723797,0.11379067,0.01996160,0.00042327,-0.00161210,0.
 00144364,0.00200132,0.00173075,-0.00115857,-0.00002738,-0.00000840,-0.
 00001678,0.00002139,-0.00000254,0.00001738,0.00000631,0.00000530,-0.00
 000012,0.00000666,0.00000181,-0.00000127,0.00000233,0.00000724,-0.0000
 0017,0.00000241,0.00000728,-0.00000047,-0.00000571,0.00000308,-0.00000
 225,-0.00000387,0.00000581,0.00000489,-0.00000638,0.00000818,0.0000071
 9,-0.00000585,-0.00000974,-0.00000416,-0.00013121,0.00006494,-0.000040
 89,0.00005445,-0.00007749,0.00015253,0.00018906,-0.00109792,-0.0015344
 0,0.28138938,0.00022953,0.00010856,0.00007988,-0.00013501,0.00019986,0
 .00031690,-0.00004443,-0.00003990,0.00009412,-0.00001475,-0.00012333,0
 .00003002,0.00000315,0.00008967,-0.00003843,-0.00001073,0.00002683,0.0
 0000156,-0.00000973,-0.00000856,-0.00000150,-0.00000255,0.00001310,0.0
 0000446,0.00007725,-0.00009554,0.00001035,-0.00008945,-0.00009749,0.00
 001830,0.00001491,0.00010388,-0.00002666,-0.00010211,-0.00004750,0.000
 00299,-0.00009932,0.00013090,-0.00008583,0.00006565,0.00003285,0.00010
 607,-0.00006749,-0.00004801,0.00002317,0.00021044,0.00062673,-0.000371
 64,0.00006994,-0.00001281,-0.00006333,0.00004323,0.00011295,-0.0000238
 2,0.00070079,-0.00058453,-0.00140279,-0.00049514,-0.00073742,0.0003392
 4,-0.00010044,0.00005297,0.00009266,0.00002197,-0.00014982,0.00000557,
 -0.00192451,-0.00258101,0.00136022,-0.00148482,0.00239956,0.00577498,0
 .00059739,0.00011876,-0.00025427,-0.00041624,0.00083496,-0.00042474,-0
 .01081246,0.00952823,0.00282015,0.11850047,-0.11499930,-0.00057726,0.0
 1943908,-0.00786478,-0.00291875,0.00266464,-0.00005876,0.00213722,0.00
 008602,-0.00002623,-0.00001724,-0.00002782,-0.00001406,-0.00007149,-0.
 00000262,-0.00001562,-0.00001607,-0.00000214,-0.00000356,-0.00000611,-
 0.00000172,-0.00000165,-0.00000095,-0.00000455,-0.00000023,-0.00000095
 ,0.00000293,-0.00000369,-0.00000347,0.00000698,-0.00000121,0.00001106,
 0.00000761,-0.00000546,0.00001506,0.00000357,0.00000028,-0.00000052,-0
 .00006255,0.00004648,0.00006571,0.00006523,0.00000489,0.00013792,-0.00
 075059,-0.00040595,-0.00305910,-0.12616406,0.11261913,0.00007158,-0.00
 005718,-0.00003285,0.00004612,-0.00040626,-0.00011973,-0.00004556,0.00
 031727,-0.00006050,-0.00000604,-0.00006806,-0.00000464,-0.00013222,-0.
 00010822,-0.00000022,0.00005307,-0.00001528,0.00002415,-0.00001103,0.0
 0000738,-0.00001363,-0.00002299,-0.00001325,0.00000659,-0.00002183,0.0
 0016538,-0.00003892,0.00015824,0.00004460,0.00001708,-0.00005567,-0.00
 007033,0.00000475,0.00012412,-0.00005372,0.00001833,0.00002322,0.00000
 670,0.00010878,-0.00005150,-0.00004957,0.00001877,0.00000656,0.0000352
 8,-0.00002371,0.00006654,0.00019901,0.00003054,0.00020341,0.00018398,-
 0.00014398,-0.00016983,-0.00014724,-0.00000355,0.00090173,-0.00034410,
 -0.00099831,-0.00064256,-0.00156547,0.00057512,-0.00020016,0.00009766,
 0.00010922,0.00004801,-0.00027560,0.00003739,-0.00181650,-0.00147169,0
 .00151113,0.00174149,0.00650879,0.00657473,0.00297338,-0.00084845,-0.0
 0091889,-0.00108415,0.00175850,-0.00067535,0.01894932,-0.00797454,0.00
 275700,0.01445410,0.00127006,-0.04072248,-0.01536581,0.00473578,0.0055
 4533,0.00374161,0.00523781,-0.00266252,0.00006381,-0.00001365,0.000016
 07,-0.00002057,-0.00002265,-0.00001812,0.00000067,0.00000207,0.0000044
 2,0.00000543,-0.00000039,-0.00000190,-0.00000069,0.00000714,-0.0000000
 4,0.00000071,0.00000763,-0.00000006,-0.00000497,-0.00000160,-0.0000020
 8,0.00000233,0.00000321,0.00001769,-0.00000436,-0.00000262,0.00002086,
 0.00000118,-0.00000851,-0.00000662,0.00006119,-0.00001247,0.00000208,0
 .00013413,-0.00003588,0.00032901,-0.00220294,-0.00237661,-0.00418162,-
 0.02292350,-0.00406813,0.03253504,-0.00009319,0.00019054,-0.00048001,-
 0.00086834,-0.00000599,0.00019926,-0.00007068,-0.00011257,0.00014153,0
 .00010811,0.00001516,0.00002944,-0.00004603,0.00015734,-0.00002157,0.0
 0000447,-0.00007572,0.00006305,0.00003232,0.00006188,-0.00000566,0.000
 03312,-0.00009021,0.00002825,0.00001703,-0.00017050,0.00000441,-0.0001
 4547,-0.00016037,0.00002791,0.00012219,0.00016808,-0.00002884,-0.00020
 810,0.00001078,-0.00001289,0.00038458,-0.00034858,-0.00021352,0.000229
 01,0.00000677,0.00006440,-0.00005658,-0.00005324,0.00007631,-0.0000226
 3,0.00137677,-0.00011034,0.00051333,-0.00019494,-0.00018817,0.00008061
 ,0.00021845,-0.00001635,0.00191403,-0.00135882,0.00002513,-0.00063119,
 -0.00052199,0.00019864,-0.00020465,0.00008710,-0.00001855,-0.00009751,
 -0.00020335,0.00004362,-0.00407063,0.00008438,0.00508177,-0.00184314,0
 .00255766,-0.00123537,0.00036799,-0.00030917,0.00024207,0.00012814,0.0
 0069095,-0.00004994,0.00258769,-0.00031428,-0.00206541,0.00335834,0.00
 078272,0.00244476,-0.19680624,-0.11757030,-0.03412796,-0.01759010,-0.0
 1122644,-0.00620537,-0.00010378,-0.00015335,0.00016447,-0.00001219,0.0
 0000773,-0.00007753,-0.00001986,-0.00002918,-0.00001707,-0.00000757,-0
 .00001434,-0.00000878,0.00000284,-0.00000410,0.00000229,0.00000138,-0.
 00000668,-0.00000046,0.00000677,-0.00000113,-0.00000794,0.00000562,0.0
 0001690,0.00001485,0.00000005,-0.00000297,0.00001687,-0.00002415,0.000
 01535,-0.00002070,-0.00002614,-0.00000743,-0.00003142,-0.00004654,-0.0
 0004670,0.00003728,-0.00013176,-0.00014744,-0.00015768,0.00036295,-0.0
 0052485,0.00044039,0.21330747,0.00046853,-0.00040815,-0.00058820,-0.00
 035920,0.00039439,-0.00033106,0.00001079,-0.00044084,0.00010605,0.0000
 0306,-0.00000163,-0.00002389,0.00016870,0.00003251,0.00006806,0.000009
 47,0.00000106,-0.00001789,-0.00000237,-0.00010070,0.00004650,-0.000057
 67,-0.00000809,-0.00002186,0.00008869,-0.00003326,0.00003549,-0.000341
 55,-0.00006486,-0.00000701,0.00003601,0.00005139,-0.00000032,-0.000101
 35,-0.00001543,-0.00002082,0.00025241,-0.00053498,-0.00051485,-0.00005
 992,0.00001372,-0.00015892,-0.00004063,-0.00013917,0.00006044,0.000029
 15,-0.00042586,0.00003210,-0.00025322,-0.00021740,0.00011876,0.0001302
 1,0.00027663,-0.00008809,-0.00191511,0.00068037,0.00018763,0.00055325,
 0.00112165,-0.00015438,0.00022514,-0.00020530,0.00007855,0.00014590,0.
 00026367,-0.00007936,0.00292677,0.00020844,-0.00564311,0.00174432,-0.0
 0215810,-0.00013851,-0.00097910,0.00001779,0.00022673,0.00047387,-0.00
 097014,-0.00013003,0.00093385,-0.00331252,0.00166815,-0.02217318,-0.01
 610224,-0.00324097,-0.10589441,-0.12202681,-0.02130418,0.00244900,0.00
 798541,0.00695419,-0.00008035,-0.00005724,0.00007775,0.00003112,0.0000
 1333,0.00006090,0.00000358,0.00001060,0.00000078,0.00000251,-0.0000003
 6,0.00000017,-0.00000201,0.00000271,-0.00000488,-0.00000072,0.00000183
 ,-0.00000211,-0.00000023,-0.00000189,-0.00000165,0.00000566,-0.0000016
 6,0.00001320,0.00000127,-0.00000030,-0.00001713,0.00000802,-0.00000956
 ,0.00001768,-0.00000710,-0.00001424,-0.00001629,0.00005190,0.00008750,
 0.00004248,-0.00020590,0.00022835,0.00157125,0.00083953,0.00120493,0.0
 0052790,0.12789990,0.13903169,0.00052347,-0.00014841,-0.00001004,-0.00
 044069,0.00012459,0.00007443,-0.00005817,-0.00014080,0.00006369,-0.000
 01450,-0.00011362,-0.00002810,0.00001143,0.00009078,-0.00001970,0.0000
 4248,0.00020087,-0.00008057,0.00000009,-0.00019060,0.00004429,-0.00013
 235,0.00004499,-0.00006410,0.00014114,-0.00000250,0.00003484,-0.000238
 17,-0.00011262,0.00002746,0.00007822,0.00011590,-0.00003014,-0.0001696
 9,0.00000028,-0.00002567,-0.00011113,-0.00031962,-0.00025223,-0.000088
 16,0.00010614,-0.00005818,-0.00004732,-0.00023886,0.00008766,0.0000001
 2,0.00046802,-0.00025525,0.00010120,-0.00017314,-0.00001995,0.00012509
 ,0.00023817,-0.00004097,0.00017434,-0.00026744,-0.00022856,0.00032451,
 0.00005949,0.00021153,0.00008169,0.00001609,-0.00002456,0.00002040,0.0
 0003453,-0.00002351,-0.00047820,-0.00291762,-0.00165155,0.00055871,0.0
 0109235,0.00038454,-0.00055275,0.00006534,0.00034279,0.00019850,-0.000
 46165,-0.00001730,-0.00145518,0.00170166,-0.00108757,0.01434130,0.0119
 1716,-0.00092924,-0.03154718,-0.02141916,-0.02813383,0.00791137,0.0047
 7244,-0.00278849,0.00018852,-0.00000564,-0.00028757,-0.00004109,-0.000
 02289,-0.00009946,0.00002197,0.00002419,0.00001481,0.00001285,0.000010
 18,0.00001626,-0.00000550,0.00001352,0.00000113,-0.00000198,0.00001002
 ,0.00000197,-0.00000604,0.00000569,-0.00000124,-0.00000428,0.00000835,
 0.00001196,-0.00000608,0.00000604,0.00000385,0.00001060,-0.00001546,0.
 00000618,0.00000512,-0.00000651,-0.00000220,-0.00002079,-0.00003937,-0
 .00003575,0.00018947,0.00007926,-0.00101213,-0.00036975,-0.00091374,0.
 00043817,0.03645231,0.02341853,0.04465433,-0.00007798,-0.00010828,-0.0
 0021955,-0.00017160,-0.00007627,-0.00000537,0.00002907,0.00009683,-0.0
 0009247,0.00000370,0.00003283,-0.00009218,-0.00004839,-0.00005807,0.00
 004899,-0.00004085,0.00001650,0.00000645,0.00001699,-0.00004940,0.0000
 2067,-0.00005618,-0.00001101,-0.00001264,0.00002247,0.00004053,-0.0000
 0211,0.00003971,0.00000684,0.00000764,0.00001882,0.00000624,0.00000127
 ,-0.00001118,0.00001496,-0.00000404,0.00004830,-0.00035835,-0.00033421
 ,0.00021364,0.00006497,-0.00002600,-0.00003114,-0.00008017,0.00007185,
 0.00013181,-0.00005053,-0.00009048,-0.00005030,0.00006649,0.00002187,0
 .00001766,-0.00003782,0.00000194,-0.00065095,-0.00078866,0.00015344,0.
 00003410,0.00008193,0.00027543,-0.00003078,-0.00004751,-0.00004610,0.0
 0002764,0.00000035,-0.00001527,-0.00526324,0.00006007,-0.00020884,-0.0
 0036434,0.00036105,-0.00016145,-0.00013195,0.00012835,0.00022009,-0.00
 008690,-0.00021256,0.00005751,0.00020933,0.00027479,-0.00071513,-0.000
 39669,-0.00237192,-0.00100187,-0.02353119,0.00667340,0.00803135,-0.009
 41104,0.00876864,0.02686844,-0.00008349,-0.00007382,0.00007260,-0.0000
 0387,0.00000631,-0.00001152,-0.00001100,-0.00001385,-0.00000895,-0.000
 00635,-0.00000836,-0.00000086,-0.00000091,-0.00000503,-0.00000080,0.00
 000122,-0.00000488,0.00000043,0.00000163,-0.00000013,0.00000303,-0.000
 00057,-0.00000053,-0.00000366,0.00000028,0.00000622,0.00000549,-0.0000
 0954,0.00000662,0.00002130,-0.00000318,-0.00000759,-0.00005073,0.00000
 590,0.00000137,0.00002942,-0.00006886,-0.00004294,0.00028384,0.0000584
 5,0.00053928,0.00051052,-0.00044157,-0.00701858,-0.02572594,0.04010330
 ,0.00000080,-0.00012089,-0.00042450,-0.00004473,0.00027161,-0.00018187
 ,0.00003655,-0.00028161,0.00005988,0.00006942,0.00012581,-0.00007982,0
 .00010081,-0.00001830,0.00004841,-0.00006266,-0.00000042,0.00001660,0.
 00001550,0.00000410,0.00000759,-0.00002097,-0.00003943,0.00001046,0.00
 004703,-0.00000581,0.00001754,-0.00018918,-0.00004286,0.00001114,0.000
 00032,0.00001588,-0.00000173,-0.00002360,-0.00003912,0.00000440,0.0001
 4034,-0.00038846,-0.00017484,0.00020424,0.00006580,0.00000311,-0.00001
 957,-0.00007558,0.00005026,-0.00014939,-0.00031679,0.00020307,-0.00012
 165,-0.00013555,0.00004779,0.00002059,0.00014497,-0.00006384,-0.000474
 65,0.00094294,0.00019777,-0.00007949,0.00050001,-0.00041024,0.00006455
 ,-0.00012136,0.00002016,0.00006556,0.00011968,-0.00002865,0.00334294,0
 .00176156,-0.00033071,0.00185006,0.00013027,0.00071794,-0.00019896,-0.
 00005018,-0.00040777,0.00031966,0.00004678,-0.00009667,0.00193867,-0.0
 0419910,0.00089752,-0.00244580,0.00104041,0.03011107,0.00608995,-0.043
 44854,-0.02750630,-0.00295440,-0.00391453,-0.01525279,0.00000819,-0.00
 000071,0.00013921,-0.00001027,0.00000056,-0.00000856,-0.00001209,-0.00
 001156,-0.00000752,-0.00000552,-0.00000980,-0.00001009,0.00000050,-0.0
 0000572,-0.00000386,0.00000031,-0.00000464,-0.00000327,0.00000496,-0.0
 0000784,-0.00000306,0.00001225,-0.00000298,0.00001212,0.00000893,-0.00
 000707,-0.00000378,0.00000260,0.00000185,-0.00000163,0.00000639,0.0000
 0945,0.00010061,0.00015344,0.00003325,-0.00004940,-0.00147940,-0.00114
 556,-0.00141845,0.00030993,-0.00032911,-0.00110466,-0.00069380,-0.0043
 7723,-0.01711491,-0.00582832,0.05388579,-0.00004783,0.00008371,-0.0001
 2133,-0.00007583,-0.00000548,0.00000718,-0.00002036,0.00000112,0.00002
 054,-0.00000080,-0.00005161,0.00002443,-0.00002345,0.00001138,-0.00000
 098,0.00001979,-0.00001167,0.00002780,0.00001097,0.00000174,-0.0000022
 7,-0.00000711,-0.00001480,0.00000580,0.00000512,0.00000053,-0.00000771
 ,-0.00002028,-0.00001146,0.00000404,0.00000405,0.00001411,-0.00000493,
 -0.00001053,-0.00000533,0.00000124,0.00011583,-0.00011812,-0.00008092,
 0.00003673,-0.00000240,0.00000893,0.00001151,0.00002089,0.00000627,-0.
 00003474,0.00024279,-0.00002087,0.00010890,-0.00003210,-0.00002729,-0.
 00001235,0.00003648,-0.00000290,0.00062969,0.00005282,-0.00022008,-0.0
 0006060,-0.00033319,0.00008325,-0.00001009,0.00003176,0.00003127,0.000
 01153,-0.00004171,-0.00000755,-0.00064259,-0.00245486,0.00019618,-0.00
 040830,-0.00042675,-0.00016613,0.00009862,-0.00009984,0.00024985,-0.00
 010355,0.00011399,0.00000688,-0.00267024,0.00150957,0.00039020,0.00093
 356,0.00305901,-0.01588545,0.00344214,-0.02926882,-0.27930144,0.006686
 69,-0.00280379,-0.00573346,-0.00003620,0.00001444,0.00008213,0.0000054
 5,0.00000315,0.00000367,-0.00000526,-0.00000441,-0.00000278,-0.0000016
 6,-0.00000308,-0.00000342,0.00000041,-0.00000122,-0.00000016,0.0000001
 5,-0.00000092,0.00000011,0.00000114,-0.00000058,-0.00000179,0.00000191
 ,0.00000196,0.00000386,-0.00000126,-0.00000314,0.00000233,0.00001210,-
 0.00000495,-0.00000423,0.00000219,0.00000125,-0.00002602,-0.00006369,-
 0.00001646,0.00002030,0.00063921,0.00041223,0.00042403,0.00005988,0.00
 089918,-0.00007250,-0.00069750,-0.00280774,-0.00921202,-0.00788336,0.0
 3201229,0.30930594\\0.00000160,-0.00000193,-0.00000363,-0.00000422,0.,
 -0.00000174,-0.00000489,-0.00000266,0.00000200,0.00000380,-0.00000640,
 0.00000011,0.00000050,0.00001132,0.00000367,0.00000231,-0.00000632,0.0
 0000063,-0.00000149,0.00000481,-0.00000449,0.00000816,-0.00000240,0.00
 000053,0.00000044,-0.00000384,-0.00000323,0.00000368,0.00000363,0.0000
 0129,0.00000412,0.00000182,-0.00000082,-0.00000305,0.00000041,0.000004
 42,0.00000618,-0.00000151,-0.00000024,-0.00000353,-0.00000230,-0.00000
 267,0.00000207,0.00000185,-0.00000172,0.00000711,-0.00000390,0.0000051
 6,-0.00000205,0.00001064,-0.00000155,-0.00000222,-0.00000345,0.0000024
 8,-0.00000201,0.00000235,0.00000242,-0.00000005,-0.00001280,0.00000351
 ,-0.00000552,0.00001080,0.00000113,-0.00000316,-0.00000739,0.00000474,
 0.00001178,0.00002739,-0.00001816,-0.00001314,-0.00003142,0.00001169,0
 .00001425,0.00000622,-0.00000720,-0.00000778,0.00001193,0.00000076,-0.
 00000510,0.00000827,-0.00000218,0.00000362,-0.00002476,0.00000749,-0.0
 0002458,0.00004161,-0.00000577,0.00000583,-0.00001829,0.00000694,0.000
 00109,-0.00000170,-0.00000250,0.00000086,-0.00000201,-0.00000272,0.000
 00130,-0.00000256,-0.00000300,0.00000173,-0.00000215,-0.00000145,0.000
 00153,-0.00000086,-0.00000031,0.00000173,0.00000026,0.00000113,0.00000
 095,0.00000049,0.00000252,0.00000063,0.00000087,0.00000402,0.00000132,
 0.00000312,0.00000354,0.00000078,0.00000066,0.00000304,-0.00000002,0.0
 0000049,0.00000090,-0.00000200,0.00000010,0.00000141,-0.00000056,-0.00
 000193,-0.00000293,-0.00000263,0.00000045,-0.00000374,-0.00000014,-0.0
 0000423,-0.00000227,0.00000080,-0.00000470,-0.00000318\\\@


 DO NOT LET SELFISH MEN OR GREEDY INTERESTS SKIN YOUR COUNTRY OF ITS
 BEAUTY, ITS RICHES, OR ITS ROMANCE. -- THEODORE ROOSEVELT
 Job cpu time:       0 days 23 hours 51 minutes 41.3 seconds.
 Elapsed time:       0 days  1 hours 11 minutes 47.0 seconds.
 File lengths (MBytes):  RWF=   2289 Int=      0 D2E=      0 Chk=     57 Scr=      1
 Normal termination of Gaussian 16 at Mon Jun 24 21:24:02 2019.
