 Entering Gaussian System, Link 0=/share/apps/gaussian16/g16/g16
 Initial command:
 /share/apps/gaussian16/g16/l1.exe "/home/amen01//scratch/978/Gau-18396.inp" -scrdir="/home/amen01//scratch/978/"
 Entering Link 1 = /share/apps/gaussian16/g16/l1.exe PID=     18397.
  
 Copyright (c) 1988-2017, Gaussian, Inc.  All Rights Reserved.
  
 This is part of the Gaussian(R) 16 program.  It is based on
 the Gaussian(R) 09 system (copyright 2009, Gaussian, Inc.),
 the Gaussian(R) 03 system (copyright 2003, Gaussian, Inc.),
 the Gaussian(R) 98 system (copyright 1998, Gaussian, Inc.),
 the Gaussian(R) 94 system (copyright 1995, Gaussian, Inc.),
 the Gaussian 92(TM) system (copyright 1992, Gaussian, Inc.),
 the Gaussian 90(TM) system (copyright 1990, Gaussian, Inc.),
 the Gaussian 88(TM) system (copyright 1988, Gaussian, Inc.),
 the Gaussian 86(TM) system (copyright 1986, Carnegie Mellon
 University), and the Gaussian 82(TM) system (copyright 1983,
 Carnegie Mellon University). Gaussian is a federally registered
 trademark of Gaussian, Inc.
  
 This software contains proprietary and confidential information,
 including trade secrets, belonging to Gaussian, Inc.
  
 This software is provided under written license and may be
 used, copied, transmitted, or stored only in accord with that
 written license.
  
 The following legend is applicable only to US Government
 contracts under FAR:
  
                    RESTRICTED RIGHTS LEGEND
  
 Use, reproduction and disclosure by the US Government is
 subject to restrictions as set forth in subparagraphs (a)
 and (c) of the Commercial Computer Software - Restricted
 Rights clause in FAR 52.227-19.
  
 Gaussian, Inc.
 340 Quinnipiac St., Bldg. 40, Wallingford CT 06492
  
  
 ---------------------------------------------------------------
 Warning -- This program may not be used in any manner that
 competes with the business of Gaussian, Inc. or will provide
 assistance to any competitor of Gaussian, Inc.  The licensee
 of this program is prohibited from giving any competitor of
 Gaussian, Inc. access to this program.  By using this program,
 the user acknowledges that Gaussian, Inc. is engaged in the
 business of creating and licensing software in the field of
 computational chemistry and represents and warrants to the
 licensee that it is not a competitor of Gaussian, Inc. and that
 it will not use this program in any manner prohibited above.
 ---------------------------------------------------------------
  

 Cite this work as:
 Gaussian 16, Revision B.01,
 M. J. Frisch, G. W. Trucks, H. B. Schlegel, G. E. Scuseria, 
 M. A. Robb, J. R. Cheeseman, G. Scalmani, V. Barone, 
 G. A. Petersson, H. Nakatsuji, X. Li, M. Caricato, A. V. Marenich, 
 J. Bloino, B. G. Janesko, R. Gomperts, B. Mennucci, H. P. Hratchian, 
 J. V. Ortiz, A. F. Izmaylov, J. L. Sonnenberg, D. Williams-Young, 
 F. Ding, F. Lipparini, F. Egidi, J. Goings, B. Peng, A. Petrone, 
 T. Henderson, D. Ranasinghe, V. G. Zakrzewski, J. Gao, N. Rega, 
 G. Zheng, W. Liang, M. Hada, M. Ehara, K. Toyota, R. Fukuda, 
 J. Hasegawa, M. Ishida, T. Nakajima, Y. Honda, O. Kitao, H. Nakai, 
 T. Vreven, K. Throssell, J. A. Montgomery, Jr., J. E. Peralta, 
 F. Ogliaro, M. J. Bearpark, J. J. Heyd, E. N. Brothers, K. N. Kudin, 
 V. N. Staroverov, T. A. Keith, R. Kobayashi, J. Normand, 
 K. Raghavachari, A. P. Rendell, J. C. Burant, S. S. Iyengar, 
 J. Tomasi, M. Cossi, J. M. Millam, M. Klene, C. Adamo, R. Cammi, 
 J. W. Ochterski, R. L. Martin, K. Morokuma, O. Farkas, 
 J. B. Foresman, and D. J. Fox, Gaussian, Inc., Wallingford CT, 2016.
 
 ******************************************
 Gaussian 16:  ES64L-G16RevB.01 20-Dec-2017
                29-Aug-2019 
 ******************************************
 %nprocshared=20
 Will use up to   20 processors via shared memory.
 %mem=180GB
 %Chk=7-memb2-dir-1cisnew.chk
 -------------------------------------------------
 # opt=tight freq b3lyp/6-311+g(d,p) int=grid=fine
 -------------------------------------------------
 1/7=10,18=20,19=15,26=3,38=1/1,3;
 2/9=110,12=2,17=6,18=5,40=1/2;
 3/5=4,6=6,7=111,11=2,25=1,30=1,71=1,74=-5,75=-4/1,2,3;
 4//1;
 5/5=2,38=5/2;
 6/7=2,8=2,9=2,10=2,28=1/1;
 7//1,2,3,16;
 1/7=10,18=20,19=15,26=3/3(2);
 2/9=110/2;
 99//99;
 2/9=110/2;
 3/5=4,6=6,7=111,11=2,25=1,30=1,71=1,74=-5,75=-4/1,2,3;
 4/5=5,16=3,69=1/1;
 5/5=2,38=5/2;
 7//1,2,3,16;
 1/7=10,18=20,19=15,26=3/3(-5);
 2/9=110/2;
 6/7=2,8=2,9=2,10=2,19=2,28=1/1;
 99/9=1/99;
 -------------------
 7-memb2-dir-1cisnew
 -------------------
 Symbolic Z-matrix:
 Charge =  0 Multiplicity = 1
 C                    -1.15577  -0.15953  -1.657 
 C                    -1.13033   1.27788  -1.48623 
 C                    -2.518     1.72004  -1.46484 
 C                    -2.55346  -0.50907  -1.75101 
 C                    -3.3482    0.67731  -1.58979 
 C                    -3.07115  -1.62504  -2.27961 
 C                    -4.54377  -1.58282  -2.44426 
 C                    -5.33581  -0.31547  -2.33697 
 C                    -4.73009   0.83506  -1.958 
 C                    -2.95864   3.07239  -1.69758 
 C                    -4.42245   3.27103  -1.84269 
 C                    -5.26658   2.20594  -1.95955 
 C                    -0.19849  -0.90692  -2.50268 
 C                    -0.7742   -2.3143   -2.81544 
 C                    -2.09218  -2.62758  -2.70051 
 C                    -0.09841   2.2581   -1.72832 
 C                    -0.54847   3.70169  -1.9005 
 C                    -1.87164   4.055    -1.87265 
 C                     1.22118   1.92932  -1.72013 
 C                     2.2115    3.06326  -1.8168 
 C                     1.75891   4.42364  -2.12174 
 C                     0.45419   4.73231  -2.15013 
 C                     1.79076   0.57081  -1.50348 
 C                     3.14237   0.50216  -0.89494 
 C                     4.0697    1.60771  -1.09739 
 C                     3.63561   2.79643  -1.55204 
 C                     3.4969   -0.59552  -0.19881 
 C                     2.56508  -1.68124   0.02462 
 C                     1.48195  -1.8093   -0.75821 
 C                     1.22922  -0.82203  -1.8951 
 H                    -0.07871  -3.05806  -3.19453 
 H                    -2.45922  -3.61124  -2.97485 
 H                    -5.03984  -2.45312  -2.85983 
 H                    -6.36719  -0.34138  -2.67019 
 H                    -6.33313   2.34687  -2.09424 
 H                    -4.79534   4.28853  -1.88001 
 H                    -2.1824    5.08459  -2.02104 
 H                     0.13567   5.74813  -2.35944 
 H                     2.50784   5.18896  -2.29652 
 H                     4.33838   3.61164  -1.69205 
 H                     5.1211    1.457    -0.87485 
 H                     4.47508  -0.68517   0.26377 
 H                     2.77142  -2.38384   0.82534 
 H                     0.7989   -2.63772  -0.60147 
 H                     1.87905  -1.17531  -2.71426 
 H                    -0.14365  -0.40431  -3.48152 
 

 GradGradGradGradGradGradGradGradGradGradGradGradGradGradGradGradGradGrad
 Berny optimization.
 Initialization pass.
                           ----------------------------
                           !    Initial Parameters    !
                           ! (Angstroms and Degrees)  !
 --------------------------                            --------------------------
 ! Name  Definition              Value          Derivative Info.                !
 --------------------------------------------------------------------------------
 ! R1    R(1,2)                  1.4477         estimate D2E/DX2                !
 ! R2    R(1,4)                  1.4438         estimate D2E/DX2                !
 ! R3    R(1,13)                 1.4799         estimate D2E/DX2                !
 ! R4    R(2,3)                  1.4566         estimate D2E/DX2                !
 ! R5    R(2,16)                 1.4437         estimate D2E/DX2                !
 ! R6    R(3,5)                  1.3387         estimate D2E/DX2                !
 ! R7    R(3,10)                 1.4412         estimate D2E/DX2                !
 ! R8    R(4,5)                  1.437          estimate D2E/DX2                !
 ! R9    R(4,6)                  1.339          estimate D2E/DX2                !
 ! R10   R(5,9)                  1.4388         estimate D2E/DX2                !
 ! R11   R(6,7)                  1.4824         estimate D2E/DX2                !
 ! R12   R(6,15)                 1.4631         estimate D2E/DX2                !
 ! R13   R(7,8)                  1.4983         estimate D2E/DX2                !
 ! R14   R(7,33)                 1.0845         estimate D2E/DX2                !
 ! R15   R(8,9)                  1.3543         estimate D2E/DX2                !
 ! R16   R(8,34)                 1.0842         estimate D2E/DX2                !
 ! R17   R(9,12)                 1.4721         estimate D2E/DX2                !
 ! R18   R(10,11)                1.4843         estimate D2E/DX2                !
 ! R19   R(10,18)                1.4757         estimate D2E/DX2                !
 ! R20   R(11,12)                1.364          estimate D2E/DX2                !
 ! R21   R(11,36)                1.0843         estimate D2E/DX2                !
 ! R22   R(12,35)                1.0842         estimate D2E/DX2                !
 ! R23   R(13,14)                1.5524         estimate D2E/DX2                !
 ! R24   R(13,30)                1.5539         estimate D2E/DX2                !
 ! R25   R(13,46)                1.1017         estimate D2E/DX2                !
 ! R26   R(14,15)                1.3596         estimate D2E/DX2                !
 ! R27   R(14,31)                1.0866         estimate D2E/DX2                !
 ! R28   R(15,32)                1.0852         estimate D2E/DX2                !
 ! R29   R(16,17)                1.5219         estimate D2E/DX2                !
 ! R30   R(16,19)                1.36           estimate D2E/DX2                !
 ! R31   R(17,18)                1.3698         estimate D2E/DX2                !
 ! R32   R(17,22)                1.4594         estimate D2E/DX2                !
 ! R33   R(18,37)                1.0857         estimate D2E/DX2                !
 ! R34   R(19,20)                1.5086         estimate D2E/DX2                !
 ! R35   R(19,23)                1.4889         estimate D2E/DX2                !
 ! R36   R(20,21)                1.4658         estimate D2E/DX2                !
 ! R37   R(20,26)                1.4729         estimate D2E/DX2                !
 ! R38   R(21,22)                1.341          estimate D2E/DX2                !
 ! R39   R(21,39)                1.085          estimate D2E/DX2                !
 ! R40   R(22,38)                1.085          estimate D2E/DX2                !
 ! R41   R(23,24)                1.4839         estimate D2E/DX2                !
 ! R42   R(23,30)                1.552          estimate D2E/DX2                !
 ! R43   R(24,25)                1.4571         estimate D2E/DX2                !
 ! R44   R(24,27)                1.3473         estimate D2E/DX2                !
 ! R45   R(25,26)                1.3447         estimate D2E/DX2                !
 ! R46   R(25,41)                1.0852         estimate D2E/DX2                !
 ! R47   R(26,40)                1.0854         estimate D2E/DX2                !
 ! R48   R(27,28)                1.4481         estimate D2E/DX2                !
 ! R49   R(27,42)                1.0858         estimate D2E/DX2                !
 ! R50   R(28,29)                1.3425         estimate D2E/DX2                !
 ! R51   R(28,43)                1.0851         estimate D2E/DX2                !
 ! R52   R(29,30)                1.5268         estimate D2E/DX2                !
 ! R53   R(29,44)                1.0851         estimate D2E/DX2                !
 ! R54   R(30,45)                1.1037         estimate D2E/DX2                !
 ! A1    A(2,1,4)              105.3706         estimate D2E/DX2                !
 ! A2    A(2,1,13)             123.88           estimate D2E/DX2                !
 ! A3    A(4,1,13)             117.8214         estimate D2E/DX2                !
 ! A4    A(1,2,3)              106.6418         estimate D2E/DX2                !
 ! A5    A(1,2,16)             131.8278         estimate D2E/DX2                !
 ! A6    A(3,2,16)             118.5102         estimate D2E/DX2                !
 ! A7    A(2,3,5)              110.6708         estimate D2E/DX2                !
 ! A8    A(2,3,10)             125.0116         estimate D2E/DX2                !
 ! A9    A(5,3,10)             121.7486         estimate D2E/DX2                !
 ! A10   A(1,4,5)              109.1597         estimate D2E/DX2                !
 ! A11   A(1,4,6)              126.997          estimate D2E/DX2                !
 ! A12   A(5,4,6)              121.2347         estimate D2E/DX2                !
 ! A13   A(3,5,4)              108.0922         estimate D2E/DX2                !
 ! A14   A(3,5,9)              122.284          estimate D2E/DX2                !
 ! A15   A(4,5,9)              126.3685         estimate D2E/DX2                !
 ! A16   A(4,6,7)              113.8408         estimate D2E/DX2                !
 ! A17   A(4,6,15)             115.2123         estimate D2E/DX2                !
 ! A18   A(7,6,15)             130.7124         estimate D2E/DX2                !
 ! A19   A(6,7,8)              122.7697         estimate D2E/DX2                !
 ! A20   A(6,7,33)             118.3003         estimate D2E/DX2                !
 ! A21   A(8,7,33)             117.6717         estimate D2E/DX2                !
 ! A22   A(7,8,9)              120.1436         estimate D2E/DX2                !
 ! A23   A(7,8,34)             117.4288         estimate D2E/DX2                !
 ! A24   A(9,8,34)             122.1248         estimate D2E/DX2                !
 ! A25   A(5,9,8)              114.0811         estimate D2E/DX2                !
 ! A26   A(5,9,12)             116.8975         estimate D2E/DX2                !
 ! A27   A(8,9,12)             128.8885         estimate D2E/DX2                !
 ! A28   A(3,10,11)            116.2868         estimate D2E/DX2                !
 ! A29   A(3,10,18)            114.755          estimate D2E/DX2                !
 ! A30   A(11,10,18)           128.7336         estimate D2E/DX2                !
 ! A31   A(10,11,12)           120.9417         estimate D2E/DX2                !
 ! A32   A(10,11,36)           117.9098         estimate D2E/DX2                !
 ! A33   A(12,11,36)           121.1278         estimate D2E/DX2                !
 ! A34   A(9,12,11)            120.1002         estimate D2E/DX2                !
 ! A35   A(9,12,35)            118.6638         estimate D2E/DX2                !
 ! A36   A(11,12,35)           121.1918         estimate D2E/DX2                !
 ! A37   A(1,13,14)            109.4561         estimate D2E/DX2                !
 ! A38   A(1,13,30)            110.0772         estimate D2E/DX2                !
 ! A39   A(1,13,46)            108.0298         estimate D2E/DX2                !
 ! A40   A(14,13,30)           117.9709         estimate D2E/DX2                !
 ! A41   A(14,13,46)           104.6582         estimate D2E/DX2                !
 ! A42   A(30,13,46)           106.0653         estimate D2E/DX2                !
 ! A43   A(13,14,15)           123.4613         estimate D2E/DX2                !
 ! A44   A(13,14,31)           116.9671         estimate D2E/DX2                !
 ! A45   A(15,14,31)           119.4901         estimate D2E/DX2                !
 ! A46   A(6,15,14)            121.0022         estimate D2E/DX2                !
 ! A47   A(6,15,32)            117.8748         estimate D2E/DX2                !
 ! A48   A(14,15,32)           121.0237         estimate D2E/DX2                !
 ! A49   A(2,16,17)            116.8479         estimate D2E/DX2                !
 ! A50   A(2,16,19)            121.8974         estimate D2E/DX2                !
 ! A51   A(17,16,19)           121.1277         estimate D2E/DX2                !
 ! A52   A(16,17,18)           121.8711         estimate D2E/DX2                !
 ! A53   A(16,17,22)           119.0808         estimate D2E/DX2                !
 ! A54   A(18,17,22)           119.011          estimate D2E/DX2                !
 ! A55   A(10,18,17)           122.8323         estimate D2E/DX2                !
 ! A56   A(10,18,37)           115.9024         estimate D2E/DX2                !
 ! A57   A(17,18,37)           121.2198         estimate D2E/DX2                !
 ! A58   A(16,19,20)           117.0559         estimate D2E/DX2                !
 ! A59   A(16,19,23)           126.3451         estimate D2E/DX2                !
 ! A60   A(20,19,23)           116.3602         estimate D2E/DX2                !
 ! A61   A(19,20,21)           120.5469         estimate D2E/DX2                !
 ! A62   A(19,20,26)           119.1449         estimate D2E/DX2                !
 ! A63   A(21,20,26)           120.2705         estimate D2E/DX2                !
 ! A64   A(20,21,22)           121.2278         estimate D2E/DX2                !
 ! A65   A(20,21,39)           118.3622         estimate D2E/DX2                !
 ! A66   A(22,21,39)           120.3854         estimate D2E/DX2                !
 ! A67   A(17,22,21)           120.15           estimate D2E/DX2                !
 ! A68   A(17,22,38)           119.5045         estimate D2E/DX2                !
 ! A69   A(21,22,38)           120.3455         estimate D2E/DX2                !
 ! A70   A(19,23,24)           116.7649         estimate D2E/DX2                !
 ! A71   A(19,23,30)           130.0692         estimate D2E/DX2                !
 ! A72   A(24,23,30)           113.0497         estimate D2E/DX2                !
 ! A73   A(23,24,25)           119.1836         estimate D2E/DX2                !
 ! A74   A(23,24,27)           119.293          estimate D2E/DX2                !
 ! A75   A(25,24,27)           121.4987         estimate D2E/DX2                !
 ! A76   A(24,25,26)           120.814          estimate D2E/DX2                !
 ! A77   A(24,25,41)           118.8638         estimate D2E/DX2                !
 ! A78   A(26,25,41)           120.3222         estimate D2E/DX2                !
 ! A79   A(20,26,25)           122.212          estimate D2E/DX2                !
 ! A80   A(20,26,40)           117.8261         estimate D2E/DX2                !
 ! A81   A(25,26,40)           119.9046         estimate D2E/DX2                !
 ! A82   A(24,27,28)           121.4157         estimate D2E/DX2                !
 ! A83   A(24,27,42)           121.6331         estimate D2E/DX2                !
 ! A84   A(28,27,42)           116.8774         estimate D2E/DX2                !
 ! A85   A(27,28,29)           120.046          estimate D2E/DX2                !
 ! A86   A(27,28,43)           118.4878         estimate D2E/DX2                !
 ! A87   A(29,28,43)           121.4631         estimate D2E/DX2                !
 ! A88   A(28,29,30)           120.4016         estimate D2E/DX2                !
 ! A89   A(28,29,44)           119.7659         estimate D2E/DX2                !
 ! A90   A(30,29,44)           119.8043         estimate D2E/DX2                !
 ! A91   A(13,30,23)           118.6929         estimate D2E/DX2                !
 ! A92   A(13,30,29)           114.0732         estimate D2E/DX2                !
 ! A93   A(13,30,45)           103.4898         estimate D2E/DX2                !
 ! A94   A(23,30,29)           109.4226         estimate D2E/DX2                !
 ! A95   A(23,30,45)           105.1602         estimate D2E/DX2                !
 ! A96   A(29,30,45)           104.3725         estimate D2E/DX2                !
 ! D1    D(4,1,2,3)              0.8758         estimate D2E/DX2                !
 ! D2    D(4,1,2,16)          -158.5276         estimate D2E/DX2                !
 ! D3    D(13,1,2,3)           141.0152         estimate D2E/DX2                !
 ! D4    D(13,1,2,16)          -18.3882         estimate D2E/DX2                !
 ! D5    D(2,1,4,5)             -2.1385         estimate D2E/DX2                !
 ! D6    D(2,1,4,6)            159.5077         estimate D2E/DX2                !
 ! D7    D(13,1,4,5)          -145.1508         estimate D2E/DX2                !
 ! D8    D(13,1,4,6)            16.4955         estimate D2E/DX2                !
 ! D9    D(2,1,13,14)         -162.0526         estimate D2E/DX2                !
 ! D10   D(2,1,13,30)           66.7446         estimate D2E/DX2                !
 ! D11   D(2,1,13,46)          -48.6482         estimate D2E/DX2                !
 ! D12   D(4,1,13,14)          -26.381          estimate D2E/DX2                !
 ! D13   D(4,1,13,30)         -157.5838         estimate D2E/DX2                !
 ! D14   D(4,1,13,46)           87.0234         estimate D2E/DX2                !
 ! D15   D(1,2,3,5)              0.7741         estimate D2E/DX2                !
 ! D16   D(1,2,3,10)          -161.2064         estimate D2E/DX2                !
 ! D17   D(16,2,3,5)           163.418          estimate D2E/DX2                !
 ! D18   D(16,2,3,10)            1.4374         estimate D2E/DX2                !
 ! D19   D(1,2,16,17)          159.3345         estimate D2E/DX2                !
 ! D20   D(1,2,16,19)          -24.7199         estimate D2E/DX2                !
 ! D21   D(3,2,16,17)            1.8893         estimate D2E/DX2                !
 ! D22   D(3,2,16,19)          177.8349         estimate D2E/DX2                !
 ! D23   D(2,3,5,4)             -2.1126         estimate D2E/DX2                !
 ! D24   D(2,3,5,9)           -162.8981         estimate D2E/DX2                !
 ! D25   D(10,3,5,4)           160.5532         estimate D2E/DX2                !
 ! D26   D(10,3,5,9)            -0.2322         estimate D2E/DX2                !
 ! D27   D(2,3,10,11)          170.6692         estimate D2E/DX2                !
 ! D28   D(2,3,10,18)           -4.3679         estimate D2E/DX2                !
 ! D29   D(5,3,10,11)           10.5677         estimate D2E/DX2                !
 ! D30   D(5,3,10,18)         -164.4694         estimate D2E/DX2                !
 ! D31   D(1,4,5,3)              2.6838         estimate D2E/DX2                !
 ! D32   D(1,4,5,9)            162.4695         estimate D2E/DX2                !
 ! D33   D(6,4,5,3)           -160.2114         estimate D2E/DX2                !
 ! D34   D(6,4,5,9)             -0.4258         estimate D2E/DX2                !
 ! D35   D(1,4,6,7)           -169.7156         estimate D2E/DX2                !
 ! D36   D(1,4,6,15)             5.3267         estimate D2E/DX2                !
 ! D37   D(5,4,6,7)            -10.0724         estimate D2E/DX2                !
 ! D38   D(5,4,6,15)           164.9699         estimate D2E/DX2                !
 ! D39   D(3,5,9,8)            165.4961         estimate D2E/DX2                !
 ! D40   D(3,5,9,12)           -10.688          estimate D2E/DX2                !
 ! D41   D(4,5,9,8)              8.3579         estimate D2E/DX2                !
 ! D42   D(4,5,9,12)          -167.8262         estimate D2E/DX2                !
 ! D43   D(4,6,7,8)             13.5689         estimate D2E/DX2                !
 ! D44   D(4,6,7,33)          -179.5547         estimate D2E/DX2                !
 ! D45   D(15,6,7,8)          -160.5105         estimate D2E/DX2                !
 ! D46   D(15,6,7,33)            6.3659         estimate D2E/DX2                !
 ! D47   D(4,6,15,14)          -13.8655         estimate D2E/DX2                !
 ! D48   D(4,6,15,32)          169.7213         estimate D2E/DX2                !
 ! D49   D(7,6,15,14)          160.1486         estimate D2E/DX2                !
 ! D50   D(7,6,15,32)          -16.2646         estimate D2E/DX2                !
 ! D51   D(6,7,8,9)             -6.1319         estimate D2E/DX2                !
 ! D52   D(6,7,8,34)           167.6829         estimate D2E/DX2                !
 ! D53   D(33,7,8,9)          -173.0859         estimate D2E/DX2                !
 ! D54   D(33,7,8,34)            0.7288         estimate D2E/DX2                !
 ! D55   D(7,8,9,5)             -4.5454         estimate D2E/DX2                !
 ! D56   D(7,8,9,12)           171.0815         estimate D2E/DX2                !
 ! D57   D(34,8,9,5)          -178.0617         estimate D2E/DX2                !
 ! D58   D(34,8,9,12)           -2.4348         estimate D2E/DX2                !
 ! D59   D(5,9,12,11)           10.9261         estimate D2E/DX2                !
 ! D60   D(5,9,12,35)         -171.4616         estimate D2E/DX2                !
 ! D61   D(8,9,12,11)         -164.5969         estimate D2E/DX2                !
 ! D62   D(8,9,12,35)           13.0154         estimate D2E/DX2                !
 ! D63   D(3,10,11,12)          -9.9889         estimate D2E/DX2                !
 ! D64   D(3,10,11,36)         171.6494         estimate D2E/DX2                !
 ! D65   D(18,10,11,12)        164.231          estimate D2E/DX2                !
 ! D66   D(18,10,11,36)        -14.1306         estimate D2E/DX2                !
 ! D67   D(3,10,18,17)           4.1006         estimate D2E/DX2                !
 ! D68   D(3,10,18,37)        -178.3288         estimate D2E/DX2                !
 ! D69   D(11,10,18,17)       -170.1928         estimate D2E/DX2                !
 ! D70   D(11,10,18,37)          7.3778         estimate D2E/DX2                !
 ! D71   D(10,11,12,9)          -0.6765         estimate D2E/DX2                !
 ! D72   D(10,11,12,35)       -178.2273         estimate D2E/DX2                !
 ! D73   D(36,11,12,9)         177.6322         estimate D2E/DX2                !
 ! D74   D(36,11,12,35)          0.0814         estimate D2E/DX2                !
 ! D75   D(1,13,14,15)          19.2474         estimate D2E/DX2                !
 ! D76   D(1,13,14,31)        -164.0595         estimate D2E/DX2                !
 ! D77   D(30,13,14,15)        146.1052         estimate D2E/DX2                !
 ! D78   D(30,13,14,31)        -37.2017         estimate D2E/DX2                !
 ! D79   D(46,13,14,15)        -96.328          estimate D2E/DX2                !
 ! D80   D(46,13,14,31)         80.3651         estimate D2E/DX2                !
 ! D81   D(1,13,30,23)         -50.1262         estimate D2E/DX2                !
 ! D82   D(1,13,30,29)          81.1521         estimate D2E/DX2                !
 ! D83   D(1,13,30,45)        -166.095          estimate D2E/DX2                !
 ! D84   D(14,13,30,23)       -176.6846         estimate D2E/DX2                !
 ! D85   D(14,13,30,29)        -45.4063         estimate D2E/DX2                !
 ! D86   D(14,13,30,45)         67.3466         estimate D2E/DX2                !
 ! D87   D(46,13,30,23)         66.5012         estimate D2E/DX2                !
 ! D88   D(46,13,30,29)       -162.2206         estimate D2E/DX2                !
 ! D89   D(46,13,30,45)        -49.4677         estimate D2E/DX2                !
 ! D90   D(13,14,15,6)           0.7537         estimate D2E/DX2                !
 ! D91   D(13,14,15,32)        177.0537         estimate D2E/DX2                !
 ! D92   D(31,14,15,6)        -175.8601         estimate D2E/DX2                !
 ! D93   D(31,14,15,32)          0.4398         estimate D2E/DX2                !
 ! D94   D(2,16,17,18)          -2.1125         estimate D2E/DX2                !
 ! D95   D(2,16,17,22)        -179.8763         estimate D2E/DX2                !
 ! D96   D(19,16,17,18)       -178.0914         estimate D2E/DX2                !
 ! D97   D(19,16,17,22)          4.1448         estimate D2E/DX2                !
 ! D98   D(2,16,19,20)        -172.6922         estimate D2E/DX2                !
 ! D99   D(2,16,19,23)           1.461          estimate D2E/DX2                !
 ! D100  D(17,16,19,20)          3.0817         estimate D2E/DX2                !
 ! D101  D(17,16,19,23)        177.2349         estimate D2E/DX2                !
 ! D102  D(16,17,18,10)         -1.0294         estimate D2E/DX2                !
 ! D103  D(16,17,18,37)       -178.4739         estimate D2E/DX2                !
 ! D104  D(22,17,18,10)        176.7359         estimate D2E/DX2                !
 ! D105  D(22,17,18,37)         -0.7086         estimate D2E/DX2                !
 ! D106  D(16,17,22,21)         -5.2241         estimate D2E/DX2                !
 ! D107  D(16,17,22,38)        174.7153         estimate D2E/DX2                !
 ! D108  D(18,17,22,21)        176.9474         estimate D2E/DX2                !
 ! D109  D(18,17,22,38)         -3.1132         estimate D2E/DX2                !
 ! D110  D(16,19,20,21)         -9.5131         estimate D2E/DX2                !
 ! D111  D(16,19,20,26)        168.2607         estimate D2E/DX2                !
 ! D112  D(23,19,20,21)        175.7411         estimate D2E/DX2                !
 ! D113  D(23,19,20,26)         -6.4851         estimate D2E/DX2                !
 ! D114  D(16,19,23,24)       -151.2639         estimate D2E/DX2                !
 ! D115  D(16,19,23,30)         32.9701         estimate D2E/DX2                !
 ! D116  D(20,19,23,24)         22.925          estimate D2E/DX2                !
 ! D117  D(20,19,23,30)       -152.8411         estimate D2E/DX2                !
 ! D118  D(19,20,21,22)          8.7835         estimate D2E/DX2                !
 ! D119  D(19,20,21,39)       -173.0171         estimate D2E/DX2                !
 ! D120  D(26,20,21,22)       -168.9652         estimate D2E/DX2                !
 ! D121  D(26,20,21,39)          9.2342         estimate D2E/DX2                !
 ! D122  D(19,20,26,25)         -6.7595         estimate D2E/DX2                !
 ! D123  D(19,20,26,40)        175.9989         estimate D2E/DX2                !
 ! D124  D(21,20,26,25)        171.0207         estimate D2E/DX2                !
 ! D125  D(21,20,26,40)         -6.2209         estimate D2E/DX2                !
 ! D126  D(20,21,22,17)         -1.1955         estimate D2E/DX2                !
 ! D127  D(20,21,22,38)        178.8656         estimate D2E/DX2                !
 ! D128  D(39,21,22,17)       -179.3587         estimate D2E/DX2                !
 ! D129  D(39,21,22,38)          0.7024         estimate D2E/DX2                !
 ! D130  D(19,23,24,25)        -27.9474         estimate D2E/DX2                !
 ! D131  D(19,23,24,27)        153.8318         estimate D2E/DX2                !
 ! D132  D(30,23,24,25)        148.5323         estimate D2E/DX2                !
 ! D133  D(30,23,24,27)        -29.6884         estimate D2E/DX2                !
 ! D134  D(19,23,30,13)         -6.0364         estimate D2E/DX2                !
 ! D135  D(19,23,30,29)       -139.3545         estimate D2E/DX2                !
 ! D136  D(19,23,30,45)        109.0391         estimate D2E/DX2                !
 ! D137  D(24,23,30,13)        178.0717         estimate D2E/DX2                !
 ! D138  D(24,23,30,29)         44.7536         estimate D2E/DX2                !
 ! D139  D(24,23,30,45)        -66.8528         estimate D2E/DX2                !
 ! D140  D(23,24,25,26)         15.2599         estimate D2E/DX2                !
 ! D141  D(23,24,25,41)       -164.7358         estimate D2E/DX2                !
 ! D142  D(27,24,25,26)       -166.56           estimate D2E/DX2                !
 ! D143  D(27,24,25,41)         13.4443         estimate D2E/DX2                !
 ! D144  D(23,24,27,28)         -3.1033         estimate D2E/DX2                !
 ! D145  D(23,24,27,42)       -179.8802         estimate D2E/DX2                !
 ! D146  D(25,24,27,28)        178.7186         estimate D2E/DX2                !
 ! D147  D(25,24,27,42)          1.9417         estimate D2E/DX2                !
 ! D148  D(24,25,26,20)          2.4632         estimate D2E/DX2                !
 ! D149  D(24,25,26,40)        179.649          estimate D2E/DX2                !
 ! D150  D(41,25,26,20)       -177.5412         estimate D2E/DX2                !
 ! D151  D(41,25,26,40)         -0.3554         estimate D2E/DX2                !
 ! D152  D(24,27,28,29)         19.3857         estimate D2E/DX2                !
 ! D153  D(24,27,28,43)       -161.248          estimate D2E/DX2                !
 ! D154  D(42,27,28,29)       -163.6908         estimate D2E/DX2                !
 ! D155  D(42,27,28,43)         15.6756         estimate D2E/DX2                !
 ! D156  D(27,28,29,30)          0.5213         estimate D2E/DX2                !
 ! D157  D(27,28,29,44)        178.5878         estimate D2E/DX2                !
 ! D158  D(43,28,29,30)       -178.8258         estimate D2E/DX2                !
 ! D159  D(43,28,29,44)         -0.7593         estimate D2E/DX2                !
 ! D160  D(28,29,30,13)       -167.236          estimate D2E/DX2                !
 ! D161  D(28,29,30,23)        -31.5838         estimate D2E/DX2                !
 ! D162  D(28,29,30,45)         80.54           estimate D2E/DX2                !
 ! D163  D(44,29,30,13)         14.6983         estimate D2E/DX2                !
 ! D164  D(44,29,30,23)        150.3505         estimate D2E/DX2                !
 ! D165  D(44,29,30,45)        -97.5257         estimate D2E/DX2                !
 --------------------------------------------------------------------------------
 Trust Radius=3.00D-01 FncErr=1.00D-07 GrdErr=1.00D-06 EigMax=2.50D+02 EigMin=1.00D-04
 Number of steps in this run=    276 maximum allowed number of steps=    276.
 GradGradGradGradGradGradGradGradGradGradGradGradGradGradGradGradGradGrad

                          Input orientation:                          
 ---------------------------------------------------------------------
 Center     Atomic      Atomic             Coordinates (Angstroms)
 Number     Number       Type             X           Y           Z
 ---------------------------------------------------------------------
      1          6           0       -1.155770   -0.159530   -1.657000
      2          6           0       -1.130330    1.277880   -1.486230
      3          6           0       -2.518000    1.720040   -1.464840
      4          6           0       -2.553460   -0.509070   -1.751010
      5          6           0       -3.348200    0.677310   -1.589790
      6          6           0       -3.071150   -1.625040   -2.279610
      7          6           0       -4.543770   -1.582820   -2.444260
      8          6           0       -5.335810   -0.315470   -2.336970
      9          6           0       -4.730090    0.835060   -1.958000
     10          6           0       -2.958640    3.072390   -1.697580
     11          6           0       -4.422450    3.271030   -1.842690
     12          6           0       -5.266580    2.205940   -1.959550
     13          6           0       -0.198490   -0.906920   -2.502680
     14          6           0       -0.774200   -2.314300   -2.815440
     15          6           0       -2.092180   -2.627580   -2.700510
     16          6           0       -0.098410    2.258100   -1.728320
     17          6           0       -0.548470    3.701690   -1.900500
     18          6           0       -1.871640    4.055000   -1.872650
     19          6           0        1.221180    1.929320   -1.720130
     20          6           0        2.211500    3.063260   -1.816800
     21          6           0        1.758910    4.423640   -2.121740
     22          6           0        0.454190    4.732310   -2.150130
     23          6           0        1.790760    0.570810   -1.503480
     24          6           0        3.142370    0.502160   -0.894940
     25          6           0        4.069700    1.607710   -1.097390
     26          6           0        3.635610    2.796430   -1.552040
     27          6           0        3.496900   -0.595520   -0.198810
     28          6           0        2.565080   -1.681240    0.024620
     29          6           0        1.481950   -1.809300   -0.758210
     30          6           0        1.229220   -0.822030   -1.895100
     31          1           0       -0.078710   -3.058060   -3.194530
     32          1           0       -2.459220   -3.611240   -2.974850
     33          1           0       -5.039840   -2.453120   -2.859830
     34          1           0       -6.367190   -0.341380   -2.670190
     35          1           0       -6.333130    2.346870   -2.094240
     36          1           0       -4.795340    4.288530   -1.880010
     37          1           0       -2.182400    5.084590   -2.021040
     38          1           0        0.135670    5.748130   -2.359440
     39          1           0        2.507840    5.188960   -2.296520
     40          1           0        4.338380    3.611640   -1.692050
     41          1           0        5.121100    1.457000   -0.874850
     42          1           0        4.475080   -0.685170    0.263770
     43          1           0        2.771420   -2.383840    0.825340
     44          1           0        0.798900   -2.637720   -0.601470
     45          1           0        1.879050   -1.175310   -2.714260
     46          1           0       -0.143650   -0.404310   -3.481520
 ---------------------------------------------------------------------
                    Distance matrix (angstroms):
                    1          2          3          4          5
     1  C    0.000000
     2  C    1.447742   0.000000
     3  C    2.329244   1.456568   0.000000
     4  C    1.443798   2.299695   2.247684   0.000000
     5  C    2.347673   2.300077   1.338705   1.437046   0.000000
     6  C    2.490792   3.580947   3.487031   1.338959   2.419385
     7  C    3.758201   4.555546   3.996485   2.365347   2.695866
     8  C    4.237855   4.576962   3.583848   2.849965   2.344031
     9  C    3.722308   3.657448   2.433051   2.566564   1.438779
    10  C    3.700986   2.570535   1.441243   3.604703   2.428947
    11  C    4.740719   3.864940   2.485009   4.217901   2.818751
    12  C    4.752446   4.265430   2.834701   3.843929   2.480648
    13  C    1.479916   2.583573   3.654881   2.503832   3.641954
    14  C    2.476007   3.846737   4.597919   2.749115   4.132484
    15  C    2.838494   4.201458   4.539824   2.366942   3.705885
    16  C    2.639703   1.443710   2.492658   3.699326   3.616521
    17  C    3.916264   2.526863   2.827682   4.666137   4.133026
    18  C    4.280332   2.900217   2.456853   4.616320   3.697165
    19  C    3.164991   2.451261   3.753723   4.493841   4.739594
    20  C    4.663734   3.803247   4.929126   5.955729   6.054301
    21  C    5.451311   4.318262   5.102248   6.562439   6.356141
    22  C    5.173514   3.858050   4.286876   6.056180   5.587054
    23  C    3.039573   3.005497   4.459556   4.483264   5.140788
    24  C    4.415040   4.382617   5.817887   5.847899   6.530007
    25  C    5.544532   5.224969   6.598896   6.983855   7.492219
    26  C    5.630812   5.002450   6.247650   7.019295   7.298335
    27  C    4.895278   5.155418   6.568384   6.246892   7.100022
    28  C    4.357542   4.969418   6.294831   5.543131   6.567797
    29  C    3.238384   4.109100   5.381001   4.354398   5.495917
    30  C    2.486720   3.185008   4.548505   3.798338   4.826387
    31  H    3.453336   4.777507   5.636684   3.834773   5.217063
    32  H    3.917909   5.280666   5.541311   3.336184   4.593510
    33  H    4.668335   5.575967   5.071581   3.345280   3.778126
    34  H    5.312111   5.607893   4.529744   3.926519   3.364416
    35  H    5.768733   5.346171   3.917177   4.749748   3.457124
    36  H    5.751647   4.759346   3.457714   5.297134   3.901199
    37  H    5.356052   3.985463   3.426687   5.612453   4.579212
    38  H    6.087831   4.727408   4.905893   6.837701   6.200236
    39  H    6.514397   5.402721   6.163130   7.640804   7.426147
    40  H    6.663980   5.949419   7.116159   8.030018   8.228260
    41  H    6.528708   6.283808   7.666363   7.970694   8.535110
    42  H    5.972615   6.191663   7.594491   7.313735   8.154492
    43  H    5.150960   5.828825   7.075643   6.205376   7.256255
    44  H    3.328108   4.453836   5.544124   4.134115   5.400429
    45  H    3.370421   4.072170   5.410929   4.584634   5.658690
    46  H    2.100756   2.790069   3.770597   2.968640   3.875266
                    6          7          8          9         10
     6  C    0.000000
     7  C    1.482397   0.000000
     8  C    2.616667   1.498337   0.000000
     9  C    2.984561   2.473319   1.354339   0.000000
    10  C    4.734688   4.974047   4.187762   2.865571   0.000000
    11  C    5.097883   4.892491   3.733835   2.458025   1.484336
    12  C    4.427049   3.887429   2.550441   1.472120   2.479103
    13  C    2.969450   4.397921   5.173909   4.885342   4.909330
    14  C    2.457269   3.857784   5.003253   5.128619   5.919275
    15  C    1.463088   2.677215   3.999894   4.415854   5.852032
    16  C    4.921370   5.918316   5.867203   4.850799   2.974043
    17  C    5.906072   6.647115   6.264719   5.070189   2.499223
    18  C    5.819561   6.265144   5.596166   4.306511   1.475717
    19  C    5.600945   6.789267   6.957995   6.055708   4.333360
    20  C    7.078188   8.222739   8.285426   7.291809   5.171522
    21  C    7.742153   8.712368   8.534667   7.416997   4.925552
    22  C    7.270535   8.058969   7.683690   6.488623   3.821982
    23  C    5.390946   6.756438   7.229675   6.542010   5.371441
    24  C    6.711939   8.113217   8.638721   7.950883   6.668781
    25  C    7.927172   9.283610   9.679814   8.875469   7.204379
    26  C    8.065940   9.320737   9.528190   8.602134   6.601626
    27  C    6.966270   8.406496   9.092135   8.533737   7.574554
    28  C    6.089312   7.526008   8.358618   7.967563   7.488288
    29  C    4.804095   6.261259   7.155827   6.857228   6.665745
    30  C    4.391566   5.848743   6.599354   6.185732   5.722210
    31  H    3.441703   4.761932   5.991186   6.190374   6.936662
    32  H    2.191531   2.956579   4.420833   5.095137   6.822884
    33  H    2.213168   1.084530   2.220479   3.423649   6.017764
    34  H    3.558682   2.217449   1.084182   2.138065   4.921180
    35  H    5.143048   4.332065   2.853352   2.207684   3.474320
    36  H    6.172748   5.903763   4.658083   3.454967   2.210372
    37  H    6.773173   7.085869   6.261346   4.955119   2.180854
    38  H    8.040753   8.697539   8.167303   6.926401   4.143959
    39  H    8.806589   9.777732   9.582444   8.453323   5.892453
    40  H    9.092259  10.317016  10.460787   9.487743   7.316920
    41  H    8.864834  10.252476  10.706372   9.930054   8.280614
    42  H    8.018586   9.459326  10.156480   9.590752   8.557239
    43  H    6.659738   8.052572   8.944581   8.624439   8.304767
    44  H    4.338083   5.749157   6.785239   6.668591   6.922855
    45  H    4.989555   6.441396   7.275705   6.949406   6.517656
    46  H    3.391906   4.671814   5.317557   4.989247   4.816021
                   11         12         13         14         15
    11  C    0.000000
    12  C    1.364049   0.000000
    13  C    5.977683   5.972472   0.000000
    14  C    6.741801   6.430132   1.552411   0.000000
    15  C    6.399970   5.829987   2.566295   1.359568   0.000000
    16  C    4.442570   5.173603   3.259908   4.748196   5.365645
    17  C    3.898273   4.949880   4.660943   6.089352   6.563742
    18  C    2.668733   3.866806   5.274184   6.531555   6.737274
    19  C    5.802221   6.498067   3.266819   4.815554   5.718814
    20  C    6.637253   7.528417   4.694764   6.231359   7.189455
    21  C    6.294092   7.368990   5.691344   7.231715   8.055158
    22  C    5.100145   6.256682   5.687811   7.183752   7.807362
    23  C    6.783084   7.258629   2.671929   4.077269   5.171054
    24  C    8.111188   8.645617   3.966318   5.192330   6.360493
    25  C    8.685546   9.395069   5.149335   6.465077   7.646989
    26  C    8.077255   8.931054   5.414687   6.867472   7.971602
    27  C    8.964857   9.367335   4.365855   5.295588   6.451789
    28  C    8.765695   8.965601   3.824152   4.429164   5.478318
    29  C    7.864337   7.944056   2.584830   3.094743   4.149279
    30  C    6.978342   7.167159   1.553936   2.662252   3.865281
    31  H    7.794417   7.493255   2.262832   1.086552   2.117411
    32  H    7.245806   6.538477   3.556289   2.132313   1.085158
    33  H    5.846506   4.750658   5.094797   4.268129   2.957113
    34  H    4.185245   2.864470   6.196834   5.932541   4.848024
    35  H    2.137299   1.084219   6.956133   7.290291   6.564935
    36  H    1.084318   2.136721   6.965016   7.787295   7.470801
    37  H    2.887669   4.219310   6.329776   7.573485   7.742570
    38  H    5.213397   6.472351   6.664973   8.126412   8.673648
    39  H    7.205091   8.333880   6.672816   8.206094   9.078639
    40  H    8.768743   9.710963   6.454277   7.906785   9.016483
    41  H    9.762518  10.470978   6.044500   7.262448   8.488123
    42  H    9.962667  10.402000   5.435501   6.300043   7.462494
    43  H    9.531406   9.665978   4.698657   5.082473   6.012124
    44  H    7.982258   7.880068   2.757726   2.735125   3.572732
    45  H    7.761345   7.941188   2.105462   2.889164   4.228468
    46  H    5.873842   5.947622   1.101704   2.118801   3.057724
                   16         17         18         19         20
    16  C    0.000000
    17  C    1.521891   0.000000
    18  C    2.528641   1.369811   0.000000
    19  C    1.359956   2.511073   3.755970   0.000000
    20  C    2.447814   2.834084   4.202226   1.508608   0.000000
    21  C    2.879927   2.427789   3.657709   2.583036   1.465763
    22  C    2.570021   1.459390   2.438284   2.937674   2.446421
    23  C    2.542924   3.928362   5.068436   1.488928   2.547057
    24  C    3.778955   4.987027   6.222450   2.531540   2.876730
    25  C    4.265468   5.133929   6.472231   2.933480   2.467607
    26  C    3.776742   4.295049   5.658321   2.570915   1.472883
    27  C    4.838264   6.142213   7.297280   3.723994   4.202001
    28  C    5.068074   6.509702   7.495903   4.229227   5.101581
    29  C    4.470167   5.983180   6.846792   3.869182   5.039315
    30  C    3.358216   4.860479   5.779382   2.756920   4.008302
    31  H    5.514682   6.898508   7.453696   5.360740   6.679353
    32  H    6.447977   7.634405   7.767325   6.768860   8.228345
    33  H    6.920523   7.679479   7.305316   7.726905   9.170621
    34  H    6.851425   7.127155   6.338312   7.977597   9.268968
    35  H    6.246080   5.944356   4.782437   7.575085   8.579096
    36  H    5.119258   4.287273   2.933021   6.464514   7.113444
    37  H    3.523882   2.143985   1.085655   4.650874   4.840852
    38  H    3.554352   2.206035   2.670758   4.021238   3.436867
    39  H    3.962995   3.421964   4.543718   3.551475   2.199216
    40  H    4.638803   4.892123   6.228445   3.542305   2.199978
    41  H    5.349155   6.183415   7.526196   4.018328   3.454434
    42  H    5.792070   7.011752   8.204533   4.621610   4.848020
    43  H    6.025339   7.448862   8.384260   5.242710   6.079911
    44  H    5.103333   6.609917   7.317116   4.720972   5.997803
    45  H    4.082981   5.508193   6.490926   3.325630   4.345277
    46  H    3.188132   4.418454   5.045776   3.226621   4.510218
                   21         22         23         24         25
    21  C    0.000000
    22  C    1.341036   0.000000
    23  C    3.902250   4.418445   0.000000
    24  C    4.335551   5.166816   1.483874   0.000000
    25  C    3.783980   4.893189   2.536462   1.457109   0.000000
    26  C    2.548406   3.771840   2.891231   2.436953   1.344692
    27  C    5.648915   6.438284   2.444055   1.347290   2.447400
    28  C    6.521222   7.093590   2.829557   2.438461   3.786817
    29  C    6.386350   6.766564   2.513109   2.849305   4.299704
    30  C    5.277214   5.613947   1.551998   2.532576   3.822081
    31  H    7.778403   7.878110   4.418514   5.323405   6.586100
    32  H    9.114807   8.875976   6.141401   7.254233   8.566743
    33  H    9.698330   9.072951   7.592163   8.918690  10.128191
    34  H    9.436086   8.517278   8.291288   9.710551  10.733188
    35  H    8.354331   7.194523   8.336724   9.727609  10.476590
    36  H    6.560098   5.275175   7.572313   8.849531   9.294527
    37  H    3.997614   2.663151   6.035568   7.114769   7.213222
    38  H    2.108479   1.084968   5.502421   6.221351   5.849140
    39  H    1.084970   2.108895   4.740298   4.932864   4.086890
    40  H    2.738182   4.068497   3.971470   3.425593   2.107497
    41  H    4.654031   5.842435   3.503095   2.197156   1.085209
    42  H    6.258448   7.165442   3.450541   2.128022   2.697107
    43  H    7.486804   8.053730   3.887808   3.380231   4.616805
    44  H    7.286676   7.538867   3.477366   3.928972   5.382169
    45  H    5.631497   6.103150   2.126668   2.778454   3.893381
    46  H    5.364498   5.339932   2.933504   4.279020   5.242577
                   26         27         28         29         30
    26  C    0.000000
    27  C    3.654558   0.000000
    28  C    4.866356   1.448101   0.000000
    29  C    5.145985   2.417894   1.342532   0.000000
    30  C    4.359089   2.840964   2.491604   1.526792   0.000000
    31  H    7.125237   5.274792   4.387275   3.151304   2.898108
    32  H    8.957096   7.230237   6.161600   4.867577   4.748699
    33  H   10.224066   9.132778   8.170108   6.882228   6.549219
    34  H   10.542871  10.172147   9.425639   8.210935   7.650963
    35  H    9.993591  10.434549   9.994668   8.951771   8.201873
    36  H    8.568246   9.769423   9.666517   8.823057   7.900214
    37  H    6.269360   8.236420   8.514678   7.908724   6.822256
    38  H    4.649087   7.497205   8.171983   7.841630   6.676711
    39  H    2.747784   6.232081   7.251939   7.238404   6.158572
    40  H    1.085383   4.542912   5.840045   6.198213   5.418998
    41  H    2.111715   2.703312   4.146183   4.891394   4.624026
    42  H    4.015397   1.085750   2.167360   3.356626   3.900648
    43  H    5.764890   2.184787   1.085069   2.121429   3.495486
    44  H    6.203265   3.407627   2.103862   1.085083   2.270547
    45  H    4.495662   3.046487   2.868461   2.094221   1.103680
    46  H    5.315114   4.905747   4.610942   3.468860   2.139156
                   31         32         33         34         35
    31  H    0.000000
    32  H    2.453792   0.000000
    33  H    5.009071   2.830913   0.000000
    34  H    6.870245   5.104609   2.501453   0.000000
    35  H    8.339165   7.161126   5.029774   2.749467   0.000000
    36  H    8.828757   8.310385   6.816867   4.952894   2.486109
    37  H    8.491486   8.752362   8.104666   6.882951   4.972829
    38  H    8.848295   9.731906   9.710654   8.914364   7.313294
    39  H    8.689649  10.127948  10.755751  10.463768   9.288764
    40  H    8.139596  10.001147  11.229249  11.453923  10.753721
    41  H    7.266685   9.357260  11.066792  11.765977  11.553275
    42  H    6.190917   8.193599  10.169377  11.237488  11.470435
    43  H    4.973647   6.580847   8.637191   9.995227  10.667539
    44  H    2.769629   4.146808   6.262999   7.804206   8.828383
    45  H    2.758302   4.982193   7.037402   8.288417   8.957124
    46  H    2.670013   3.987854   5.343856   6.276517   6.913986
                   36         37         38         39         40
    36  H    0.000000
    37  H    2.735152   0.000000
    38  H    5.164799   2.434799   0.000000
    39  H    7.370257   4.699482   2.437995   0.000000
    40  H    9.160696   6.693160   4.761593   2.490823   0.000000
    41  H   10.361645   8.234942   6.743316   4.772609   2.433709
    42  H   10.736581   9.101238   8.191402   6.703023   4.722975
    43  H   10.444869   9.403173   9.122441   8.195290   6.688677
    44  H    8.994616   8.398655   8.593766   8.188442   7.264419
    45  H    8.665853   7.494150   7.148377   6.408886   5.477966
    46  H    6.798956   6.034694   6.260160   6.302324   6.278427
                   41         42         43         44         45
    41  H    0.000000
    42  H    2.510516   0.000000
    43  H    4.812868   2.470485   0.000000
    44  H    5.960107   4.251516   2.447668   0.000000
    45  H    4.563263   3.980989   3.845210   2.787337   0.000000
    46  H    6.162532   5.953045   5.564640   3.764467   2.296616
                   46
    46  H    0.000000
 Stoichiometry    C30H16
 Framework group  C1[X(C30H16)]
 Deg. of freedom   132
 Full point group                 C1      NOp   1
 Largest Abelian subgroup         C1      NOp   1
 Largest concise Abelian subgroup C1      NOp   1
                         Standard orientation:                         
 ---------------------------------------------------------------------
 Center     Atomic      Atomic             Coordinates (Angstroms)
 Number     Number       Type             X           Y           Z
 ---------------------------------------------------------------------
      1          6           0        0.621582   -1.008988   -0.130168
      2          6           0        0.425417    0.412167   -0.324579
      3          6           0        1.745000    0.989671   -0.540866
      4          6           0        2.048081   -1.213913   -0.217697
      5          6           0        2.687749    0.039799   -0.507749
      6          6           0        2.743381   -2.254283    0.258748
      7          6           0        4.212536   -2.059778    0.223342
      8          6           0        4.848262   -0.724008   -0.014530
      9          6           0        4.082277    0.346958   -0.331600
     10          6           0        2.070207    2.386290   -0.396374
     11          6           0        3.511932    2.734811   -0.453072
     12          6           0        4.469664    1.763822   -0.429395
     13          6           0       -0.133713   -1.819432    0.851086
     14          6           0        0.620535   -3.151035    1.111704
     15          6           0        1.937220   -3.334863    0.827147
     16          6           0       -0.661477    1.292044    0.034274
     17          6           0       -0.344381    2.778306    0.115684
     18          6           0        0.919948    3.260800   -0.096575
     19          6           0       -1.929553    0.833093    0.209857
     20          6           0       -3.010452    1.865114    0.415988
     21          6           0       -2.664799    3.273331    0.630248
     22          6           0       -1.406647    3.711477    0.477074
     23          6           0       -2.379130   -0.581983    0.098738
     24          6           0       -3.784623   -0.805571   -0.321358
     25          6           0       -4.786573    0.208051   -0.018316
     26          6           0       -4.421721    1.448735    0.350172
     27          6           0       -4.112206   -1.955874   -0.941586
     28          6           0       -3.110639   -2.950031   -1.266411
     29          6           0       -1.926582   -2.943018   -0.633677
     30          6           0       -1.629984   -1.897898    0.439099
     31          1           0        0.061604   -3.947378    1.595469
     32          1           0        2.436875   -4.267219    1.069272
     33          1           0        4.846254   -2.861791    0.585810
     34          1           0        5.911608   -0.635649    0.177666
     35          1           0        5.524324    2.014949   -0.441937
     36          1           0        3.779267    3.785128   -0.486426
     37          1           0        1.139385    4.320661   -0.011787
     38          1           0       -1.170124    4.760461    0.621452
     39          1           0       -3.459322    3.965496    0.888704
     40          1           0       -5.180467    2.193954    0.566989
     41          1           0       -5.836839   -0.054234   -0.094650
     42          1           0       -5.128165   -2.158176   -1.266785
     43          1           0       -3.346726   -3.696164   -2.018026
     44          1           0       -1.188113   -3.703903   -0.864159
     45          1           0       -2.126400   -2.286622    1.344954
     46          1           0       -0.111023   -1.292278    1.818219
 ---------------------------------------------------------------------
 Rotational constants (GHZ):           0.2730808           0.1566475           0.1043778
 Standard basis: 6-311+G(d,p) (5D, 7F)
 There are   786 symmetry adapted cartesian basis functions of A   symmetry.
 There are   756 symmetry adapted basis functions of A   symmetry.
   756 basis functions,  1208 primitive gaussians,   786 cartesian basis functions
    98 alpha electrons       98 beta electrons
       nuclear repulsion energy      2618.9475430013 Hartrees.
 NAtoms=   46 NActive=   46 NUniq=   46 SFac= 1.00D+00 NAtFMM=   60 NAOKFM=F Big=F
 Integral buffers will be    131072 words long.
 Raffenetti 2 integral format.
 Two-electron integral symmetry is turned on.
 One-electron integrals computed using PRISM.
 NBasis=   756 RedAO= T EigKep=  1.13D-06  NBF=   756
 NBsUse=   738 1.00D-06 EigRej=  9.32D-07 NBFU=   738
 ExpMin= 4.38D-02 ExpMax= 4.56D+03 ExpMxC= 6.82D+02 IAcc=2 IRadAn=         4 AccDes= 0.00D+00
 Harris functional with IExCor=  402 and IRadAn=       4 diagonalized for initial guess.
 HarFok:  IExCor=  402 AccDes= 0.00D+00 IRadAn=         4 IDoV= 1 UseB2=F ITyADJ=14
 ICtDFT=  3500011 ScaDFX=  1.000000  1.000000  1.000000  1.000000
 FoFCou: FMM=F IPFlag=           0 FMFlag=      100000 FMFlg1=           0
         NFxFlg=           0 DoJE=T BraDBF=F KetDBF=T FulRan=T
         wScrn=  0.000000 ICntrl=       500 IOpCl=  0 I1Cent=   200000004 NGrid=           0
         NMat0=    1 NMatS0=      1 NMatT0=    0 NMatD0=    1 NMtDS0=    0 NMtDT0=    0
 Petite list used in FoFCou.
 Requested convergence on RMS density matrix=1.00D-08 within 128 cycles.
 Requested convergence on MAX density matrix=1.00D-06.
 Requested convergence on             energy=1.00D-06.
 No special actions if energy rises.
 EnCoef did     4 forward-backward iterations
 Restarting incremental Fock formation.
 SCF Done:  E(RB3LYP) =  -1152.94056979     A.U. after   23 cycles
            NFock= 23  Conv=0.56D-08     -V/T= 2.0052

 **********************************************************************

            Population analysis using the SCF Density.

 **********************************************************************

 Orbital symmetries:
       Occupied  (A) (A) (A) (A) (A) (A) (A) (A) (A) (A) (A) (A)
                 (A) (A) (A) (A) (A) (A) (A) (A) (A) (A) (A) (A)
                 (A) (A) (A) (A) (A) (A) (A) (A) (A) (A) (A) (A)
                 (A) (A) (A) (A) (A) (A) (A) (A) (A) (A) (A) (A)
                 (A) (A) (A) (A) (A) (A) (A) (A) (A) (A) (A) (A)
                 (A) (A) (A) (A) (A) (A) (A) (A) (A) (A) (A) (A)
                 (A) (A) (A) (A) (A) (A) (A) (A) (A) (A) (A) (A)
                 (A) (A) (A) (A) (A) (A) (A) (A) (A) (A) (A) (A)
                 (A) (A)
       Virtual   (A) (A) (A) (A) (A) (A) (A) (A) (A) (A) (A) (A)
                 (A) (A) (A) (A) (A) (A) (A) (A) (A) (A) (A) (A)
                 (A) (A) (A) (A) (A) (A) (A) (A) (A) (A) (A) (A)
                 (A) (A) (A) (A) (A) (A) (A) (A) (A) (A) (A) (A)
                 (A) (A) (A) (A) (A) (A) (A) (A) (A) (A) (A) (A)
                 (A) (A) (A) (A) (A) (A) (A) (A) (A) (A) (A) (A)
                 (A) (A) (A) (A) (A) (A) (A) (A) (A) (A) (A) (A)
                 (A) (A) (A) (A) (A) (A) (A) (A) (A) (A) (A) (A)
                 (A) (A) (A) (A) (A) (A) (A) (A) (A) (A) (A) (A)
                 (A) (A) (A) (A) (A) (A) (A) (A) (A) (A) (A) (A)
                 (A) (A) (A) (A) (A) (A) (A) (A) (A) (A) (A) (A)
                 (A) (A) (A) (A) (A) (A) (A) (A) (A) (A) (A) (A)
                 (A) (A) (A) (A) (A) (A) (A) (A) (A) (A) (A) (A)
                 (A) (A) (A) (A) (A) (A) (A) (A) (A) (A) (A) (A)
                 (A) (A) (A) (A) (A) (A) (A) (A) (A) (A) (A) (A)
                 (A) (A) (A) (A) (A) (A) (A) (A) (A) (A) (A) (A)
                 (A) (A) (A) (A) (A) (A) (A) (A) (A) (A) (A) (A)
                 (A) (A) (A) (A) (A) (A) (A) (A) (A) (A) (A) (A)
                 (A) (A) (A) (A) (A) (A) (A) (A) (A) (A) (A) (A)
                 (A) (A) (A) (A) (A) (A) (A) (A) (A) (A) (A) (A)
                 (A) (A) (A) (A) (A) (A) (A) (A) (A) (A) (A) (A)
                 (A) (A) (A) (A) (A) (A) (A) (A) (A) (A) (A) (A)
                 (A) (A) (A) (A) (A) (A) (A) (A) (A) (A) (A) (A)
                 (A) (A) (A) (A) (A) (A) (A) (A) (A) (A) (A) (A)
                 (A) (A) (A) (A) (A) (A) (A) (A) (A) (A) (A) (A)
                 (A) (A) (A) (A) (A) (A) (A) (A) (A) (A) (A) (A)
                 (A) (A) (A) (A) (A) (A) (A) (A) (A) (A) (A) (A)
                 (A) (A) (A) (A) (A) (A) (A) (A) (A) (A) (A) (A)
                 (A) (A) (A) (A) (A) (A) (A) (A) (A) (A) (A) (A)
                 (A) (A) (A) (A) (A) (A) (A) (A) (A) (A) (A) (A)
                 (A) (A) (A) (A) (A) (A) (A) (A) (A) (A) (A) (A)
                 (A) (A) (A) (A) (A) (A) (A) (A) (A) (A) (A) (A)
                 (A) (A) (A) (A) (A) (A) (A) (A) (A) (A) (A) (A)
                 (A) (A) (A) (A) (A) (A) (A) (A) (A) (A) (A) (A)
                 (A) (A) (A) (A) (A) (A) (A) (A) (A) (A) (A) (A)
                 (A) (A) (A) (A) (A) (A) (A) (A) (A) (A) (A) (A)
                 (A) (A) (A) (A) (A) (A) (A) (A) (A) (A) (A) (A)
                 (A) (A) (A) (A) (A) (A) (A) (A) (A) (A) (A) (A)
                 (A) (A) (A) (A) (A) (A) (A) (A) (A) (A) (A) (A)
                 (A) (A) (A) (A) (A) (A) (A) (A) (A) (A) (A) (A)
                 (A) (A) (A) (A) (A) (A) (A) (A) (A) (A) (A) (A)
                 (A) (A) (A) (A) (A) (A) (A) (A) (A) (A) (A) (A)
                 (A) (A) (A) (A) (A) (A) (A) (A) (A) (A) (A) (A)
                 (A) (A) (A) (A) (A) (A) (A) (A) (A) (A) (A) (A)
                 (A) (A) (A) (A) (A) (A) (A) (A) (A) (A) (A) (A)
                 (A) (A) (A) (A) (A) (A) (A) (A) (A) (A) (A) (A)
                 (A) (A) (A) (A) (A) (A) (A) (A) (A) (A) (A) (A)
                 (A) (A) (A) (A) (A) (A) (A) (A) (A) (A) (A) (A)
                 (A) (A) (A) (A) (A) (A) (A) (A) (A) (A) (A) (A)
                 (A) (A) (A) (A) (A) (A) (A) (A) (A) (A) (A) (A)
                 (A) (A) (A) (A) (A) (A) (A) (A) (A) (A) (A) (A)
                 (A) (A) (A) (A) (A) (A) (A) (A) (A) (A) (A) (A)
                 (A) (A) (A) (A) (A) (A) (A) (A) (A) (A) (A) (A)
                 (A) (A) (A) (A)
 The electronic state is 1-A.
 Alpha  occ. eigenvalues --  -10.23296 -10.20674 -10.20430 -10.20423 -10.20406
 Alpha  occ. eigenvalues --  -10.20402 -10.20071 -10.20047 -10.19995 -10.19893
 Alpha  occ. eigenvalues --  -10.19652 -10.19513 -10.19476 -10.19333 -10.19259
 Alpha  occ. eigenvalues --  -10.19022 -10.18796 -10.18584 -10.18556 -10.18411
 Alpha  occ. eigenvalues --  -10.18393 -10.18382 -10.18296 -10.18254 -10.17721
 Alpha  occ. eigenvalues --  -10.17350 -10.16890 -10.16538 -10.16087 -10.15456
 Alpha  occ. eigenvalues --   -0.90414  -0.88572  -0.86689  -0.84454  -0.83551
 Alpha  occ. eigenvalues --   -0.81798  -0.79979  -0.79752  -0.78521  -0.76072
 Alpha  occ. eigenvalues --   -0.75386  -0.73706  -0.72282  -0.70624  -0.69569
 Alpha  occ. eigenvalues --   -0.66315  -0.65260  -0.63556  -0.62343  -0.60982
 Alpha  occ. eigenvalues --   -0.59312  -0.59054  -0.57569  -0.56213  -0.55402
 Alpha  occ. eigenvalues --   -0.53247  -0.52140  -0.50881  -0.50309  -0.49779
 Alpha  occ. eigenvalues --   -0.49028  -0.47834  -0.46982  -0.46528  -0.45675
 Alpha  occ. eigenvalues --   -0.45033  -0.43837  -0.43450  -0.42681  -0.42498
 Alpha  occ. eigenvalues --   -0.42135  -0.41814  -0.40961  -0.40749  -0.40579
 Alpha  occ. eigenvalues --   -0.40028  -0.38976  -0.38535  -0.38316  -0.37792
 Alpha  occ. eigenvalues --   -0.36869  -0.35903  -0.34730  -0.34565  -0.33483
 Alpha  occ. eigenvalues --   -0.33187  -0.32929  -0.32073  -0.31729  -0.31252
 Alpha  occ. eigenvalues --   -0.29625  -0.28811  -0.27040  -0.24500  -0.23058
 Alpha  occ. eigenvalues --   -0.22267  -0.20015  -0.15849
 Alpha virt. eigenvalues --   -0.13579  -0.06578  -0.05433  -0.03549  -0.01198
 Alpha virt. eigenvalues --   -0.00732  -0.00409   0.00320   0.00646   0.01226
 Alpha virt. eigenvalues --    0.01569   0.01648   0.01850   0.02592   0.02762
 Alpha virt. eigenvalues --    0.03035   0.03191   0.03435   0.04018   0.04357
 Alpha virt. eigenvalues --    0.04612   0.04979   0.05212   0.05873   0.06108
 Alpha virt. eigenvalues --    0.06356   0.06614   0.06865   0.07177   0.07603
 Alpha virt. eigenvalues --    0.07839   0.08660   0.08712   0.08896   0.09419
 Alpha virt. eigenvalues --    0.09670   0.10095   0.10268   0.10742   0.11101
 Alpha virt. eigenvalues --    0.11295   0.11426   0.11900   0.12542   0.12568
 Alpha virt. eigenvalues --    0.12821   0.13279   0.13745   0.13888   0.14376
 Alpha virt. eigenvalues --    0.14523   0.14881   0.14901   0.15186   0.15555
 Alpha virt. eigenvalues --    0.15635   0.16126   0.16236   0.16357   0.16721
 Alpha virt. eigenvalues --    0.16842   0.17071   0.17141   0.17651   0.17831
 Alpha virt. eigenvalues --    0.18080   0.18236   0.18291   0.18589   0.18623
 Alpha virt. eigenvalues --    0.18780   0.19172   0.19354   0.19636   0.19739
 Alpha virt. eigenvalues --    0.19996   0.20080   0.20201   0.20475   0.20818
 Alpha virt. eigenvalues --    0.21096   0.21121   0.21490   0.21540   0.21727
 Alpha virt. eigenvalues --    0.21900   0.22174   0.22396   0.22492   0.22765
 Alpha virt. eigenvalues --    0.22985   0.23410   0.23500   0.23771   0.23913
 Alpha virt. eigenvalues --    0.24048   0.24313   0.24505   0.24888   0.25114
 Alpha virt. eigenvalues --    0.25259   0.25517   0.25733   0.26027   0.26229
 Alpha virt. eigenvalues --    0.26533   0.26741   0.26899   0.27100   0.27332
 Alpha virt. eigenvalues --    0.27734   0.27749   0.27961   0.28518   0.28676
 Alpha virt. eigenvalues --    0.28897   0.29074   0.29452   0.29493   0.30056
 Alpha virt. eigenvalues --    0.30197   0.30282   0.30792   0.31167   0.31241
 Alpha virt. eigenvalues --    0.31819   0.31852   0.32368   0.32500   0.32659
 Alpha virt. eigenvalues --    0.33256   0.33471   0.33867   0.34207   0.34695
 Alpha virt. eigenvalues --    0.34833   0.35601   0.35872   0.36230   0.36336
 Alpha virt. eigenvalues --    0.36693   0.37011   0.37612   0.38041   0.38204
 Alpha virt. eigenvalues --    0.39139   0.39181   0.39897   0.40213   0.40681
 Alpha virt. eigenvalues --    0.41329   0.41539   0.41732   0.42511   0.42672
 Alpha virt. eigenvalues --    0.43424   0.44508   0.44849   0.45215   0.46241
 Alpha virt. eigenvalues --    0.46410   0.47769   0.47952   0.48525   0.49823
 Alpha virt. eigenvalues --    0.50234   0.50678   0.51301   0.51906   0.52109
 Alpha virt. eigenvalues --    0.52840   0.53146   0.53641   0.53911   0.54494
 Alpha virt. eigenvalues --    0.55167   0.55518   0.56302   0.56747   0.56909
 Alpha virt. eigenvalues --    0.57211   0.57453   0.57952   0.58454   0.58520
 Alpha virt. eigenvalues --    0.59055   0.59196   0.59563   0.60110   0.60171
 Alpha virt. eigenvalues --    0.60591   0.60861   0.61429   0.62245   0.62303
 Alpha virt. eigenvalues --    0.62503   0.63470   0.63581   0.63963   0.64628
 Alpha virt. eigenvalues --    0.65458   0.65616   0.66002   0.66458   0.66838
 Alpha virt. eigenvalues --    0.67048   0.67641   0.67989   0.68879   0.69053
 Alpha virt. eigenvalues --    0.69187   0.69731   0.70101   0.70412   0.70659
 Alpha virt. eigenvalues --    0.71405   0.71625   0.71713   0.71850   0.72213
 Alpha virt. eigenvalues --    0.72381   0.72901   0.72993   0.73321   0.73560
 Alpha virt. eigenvalues --    0.74124   0.74716   0.74972   0.75105   0.75320
 Alpha virt. eigenvalues --    0.75727   0.76090   0.76370   0.76937   0.77103
 Alpha virt. eigenvalues --    0.77702   0.78282   0.78594   0.78951   0.80960
 Alpha virt. eigenvalues --    0.81294   0.81736   0.81945   0.82549   0.82864
 Alpha virt. eigenvalues --    0.83124   0.83547   0.84184   0.84806   0.86169
 Alpha virt. eigenvalues --    0.86493   0.86685   0.87511   0.88072   0.88254
 Alpha virt. eigenvalues --    0.88634   0.89174   0.89591   0.89949   0.90159
 Alpha virt. eigenvalues --    0.91042   0.91267   0.91689   0.92049   0.92100
 Alpha virt. eigenvalues --    0.93447   0.93998   0.94487   0.94779   0.95431
 Alpha virt. eigenvalues --    0.95582   0.96126   0.96395   0.96863   0.97482
 Alpha virt. eigenvalues --    0.97617   0.98241   0.98615   0.99205   0.99714
 Alpha virt. eigenvalues --    1.00186   1.00615   1.00843   1.02227   1.02476
 Alpha virt. eigenvalues --    1.02979   1.03048   1.04461   1.04911   1.05862
 Alpha virt. eigenvalues --    1.06616   1.07213   1.07875   1.08685   1.09376
 Alpha virt. eigenvalues --    1.10356   1.11106   1.11229   1.11934   1.12607
 Alpha virt. eigenvalues --    1.13333   1.14247   1.14644   1.15220   1.16393
 Alpha virt. eigenvalues --    1.16612   1.17743   1.18666   1.20496   1.21187
 Alpha virt. eigenvalues --    1.22520   1.22996   1.23090   1.25179   1.26576
 Alpha virt. eigenvalues --    1.27784   1.28237   1.29516   1.30714   1.31986
 Alpha virt. eigenvalues --    1.34100   1.34956   1.37240   1.37807   1.38852
 Alpha virt. eigenvalues --    1.39304   1.39934   1.41760   1.43028   1.43524
 Alpha virt. eigenvalues --    1.44636   1.45856   1.45862   1.46957   1.47166
 Alpha virt. eigenvalues --    1.47750   1.48152   1.48669   1.49200   1.50020
 Alpha virt. eigenvalues --    1.50654   1.50943   1.51582   1.52761   1.53142
 Alpha virt. eigenvalues --    1.53507   1.53786   1.54720   1.54886   1.55298
 Alpha virt. eigenvalues --    1.56477   1.56978   1.57175   1.58756   1.59095
 Alpha virt. eigenvalues --    1.59802   1.59964   1.60492   1.61684   1.62281
 Alpha virt. eigenvalues --    1.62885   1.63316   1.63863   1.64470   1.65605
 Alpha virt. eigenvalues --    1.65990   1.66225   1.67051   1.67956   1.68817
 Alpha virt. eigenvalues --    1.69224   1.70037   1.70368   1.70953   1.72089
 Alpha virt. eigenvalues --    1.72557   1.73180   1.74374   1.74609   1.75392
 Alpha virt. eigenvalues --    1.75596   1.76148   1.76914   1.77738   1.78300
 Alpha virt. eigenvalues --    1.78982   1.80013   1.80195   1.80965   1.82629
 Alpha virt. eigenvalues --    1.82779   1.83332   1.83688   1.84516   1.85577
 Alpha virt. eigenvalues --    1.85978   1.86670   1.87117   1.87508   1.88094
 Alpha virt. eigenvalues --    1.88802   1.90301   1.90685   1.90899   1.91609
 Alpha virt. eigenvalues --    1.91759   1.93156   1.93362   1.93923   1.94764
 Alpha virt. eigenvalues --    1.95602   1.95698   1.96422   1.97069   1.97729
 Alpha virt. eigenvalues --    1.98237   1.98994   1.99980   2.01692   2.02332
 Alpha virt. eigenvalues --    2.02913   2.03693   2.04085   2.04894   2.05205
 Alpha virt. eigenvalues --    2.05688   2.06508   2.07005   2.08081   2.09780
 Alpha virt. eigenvalues --    2.10033   2.10534   2.11458   2.12297   2.12816
 Alpha virt. eigenvalues --    2.13685   2.15246   2.15350   2.16800   2.17244
 Alpha virt. eigenvalues --    2.18153   2.19001   2.19960   2.20535   2.21754
 Alpha virt. eigenvalues --    2.21878   2.23397   2.24144   2.24846   2.25567
 Alpha virt. eigenvalues --    2.27076   2.28013   2.29339   2.29545   2.31916
 Alpha virt. eigenvalues --    2.32891   2.34154   2.35262   2.36495   2.37183
 Alpha virt. eigenvalues --    2.38493   2.39007   2.40462   2.40977   2.42801
 Alpha virt. eigenvalues --    2.43342   2.44611   2.45083   2.47175   2.47947
 Alpha virt. eigenvalues --    2.48733   2.50880   2.51692   2.52854   2.53517
 Alpha virt. eigenvalues --    2.53879   2.55407   2.56429   2.56655   2.59243
 Alpha virt. eigenvalues --    2.60142   2.61110   2.63670   2.64470   2.65256
 Alpha virt. eigenvalues --    2.66998   2.67927   2.69671   2.71116   2.71401
 Alpha virt. eigenvalues --    2.71437   2.71972   2.72169   2.72386   2.72650
 Alpha virt. eigenvalues --    2.73135   2.73604   2.73905   2.74653   2.75205
 Alpha virt. eigenvalues --    2.75536   2.75991   2.76262   2.76426   2.77249
 Alpha virt. eigenvalues --    2.77528   2.77961   2.78098   2.78222   2.78902
 Alpha virt. eigenvalues --    2.79368   2.80252   2.81301   2.81753   2.82463
 Alpha virt. eigenvalues --    2.83412   2.84279   2.84741   2.86465   2.86949
 Alpha virt. eigenvalues --    2.87948   2.88705   2.90122   2.90444   2.91611
 Alpha virt. eigenvalues --    2.92380   2.93092   2.94774   2.97158   2.99725
 Alpha virt. eigenvalues --    3.00157   3.02305   3.03254   3.04135   3.06050
 Alpha virt. eigenvalues --    3.06598   3.07040   3.07607   3.08983   3.09523
 Alpha virt. eigenvalues --    3.11442   3.13310   3.13701   3.14083   3.15477
 Alpha virt. eigenvalues --    3.15912   3.18084   3.19733   3.20669   3.21641
 Alpha virt. eigenvalues --    3.22523   3.23114   3.25267   3.26652   3.28166
 Alpha virt. eigenvalues --    3.29885   3.31083   3.32585   3.34045   3.35593
 Alpha virt. eigenvalues --    3.36433   3.37156   3.38417   3.41187   3.42290
 Alpha virt. eigenvalues --    3.42507   3.46675   3.48918   3.49180   3.50870
 Alpha virt. eigenvalues --    3.52032   3.54738   3.55832   3.56643   3.58070
 Alpha virt. eigenvalues --    3.58918   3.61261   3.63270   3.67265   3.69206
 Alpha virt. eigenvalues --    3.74803   3.78310   3.84141   3.85722   3.90944
 Alpha virt. eigenvalues --    3.94230   3.96459   4.02624   4.04303   4.04813
 Alpha virt. eigenvalues --    4.06128   4.06422   4.07384   4.09264   4.09786
 Alpha virt. eigenvalues --    4.18416   4.21838   4.25015   4.29627   4.36115
 Alpha virt. eigenvalues --    4.44906   4.55862   4.60221   4.62683   4.66289
 Alpha virt. eigenvalues --    4.67552   4.71185   4.72428   4.77222   4.83492
 Alpha virt. eigenvalues --   23.43355  23.59500  23.68892  23.73457  23.75313
 Alpha virt. eigenvalues --   23.77210  23.80185  23.80810  23.81707  23.82542
 Alpha virt. eigenvalues --   23.83858  23.85002  23.86671  23.88034  23.90726
 Alpha virt. eigenvalues --   23.91288  23.93558  23.95757  24.02613  24.11729
 Alpha virt. eigenvalues --   24.15266  24.15632  24.17606  24.17997  24.19210
 Alpha virt. eigenvalues --   24.21963  24.23477  24.23812  24.24667  24.27861
          Condensed to atoms (all electrons):
               1          2          3          4          5          6
     1  C   13.299019   1.519378   0.866971   1.786697   0.180042  -2.382204
     2  C    1.519378  11.352195   2.928172  -1.212844  -0.559381  -3.151616
     3  C    0.866971   2.928172  10.939832  -0.908080   2.032650  -2.060039
     4  C    1.786697  -1.212844  -0.908080  11.175834   3.173802   0.679469
     5  C    0.180042  -0.559381   2.032650   3.173802  12.207591  -1.400297
     6  C   -2.382204  -3.151616  -2.060039   0.679469  -1.400297  14.899289
     7  C   -0.497909   0.491785   0.451636  -0.990438   1.317012  -2.865438
     8  C   -0.912369  -1.494610  -3.171673   2.181168  -1.732895   1.650179
     9  C   -1.955085  -3.295018  -2.902548  -2.116980  -1.102344   3.361429
    10  C   -2.026306  -0.953756   0.313989  -1.854378  -1.734255   0.482858
    11  C   -0.229272  -1.262945  -0.915619   0.936502   1.419744   0.315009
    12  C    0.229351  -0.191404   1.356590  -2.091922  -2.184234  -0.079551
    13  C   -2.915738  -0.047476  -0.649038  -1.465801   0.462250   1.022828
    14  C   -1.132608  -0.786865  -0.366718   0.262638  -0.096693  -0.091754
    15  C    1.230276   0.506627   0.457282  -1.032992  -1.179382  -2.266613
    16  C    0.176594   2.014924   0.818002  -1.024792  -0.689454  -0.544349
    17  C   -1.079957   0.430491  -0.431499  -0.632889  -0.946647  -0.273437
    18  C   -0.170519   0.323748  -0.366517  -0.193392  -0.872581  -0.001738
    19  C    0.584876   0.803732  -0.177372  -0.300319  -0.576954  -0.254066
    20  C   -1.087771  -0.425360  -0.295593  -0.190125  -0.200817  -0.128504
    21  C   -0.113457  -0.261813  -0.334315  -0.099122  -0.136782  -0.010920
    22  C    0.261996  -0.259701  -0.844343   0.005270  -0.077941   0.001941
    23  C    1.199204   0.597643   0.117868   0.326293  -0.221041  -0.557055
    24  C    0.352897  -0.418602  -0.167448  -0.262069  -0.481430  -0.267508
    25  C    0.261326   0.125706   0.047747   0.022435   0.029241   0.021572
    26  C   -0.083237  -0.268244  -0.180667  -0.060362  -0.063106  -0.018413
    27  C   -0.525919  -0.128401   0.006641   0.005018   0.045861   0.012041
    28  C    0.241965  -0.263449  -0.095726   0.067382   0.018318   0.200022
    29  C   -0.606684   0.283874   0.067295  -0.187068   0.044719   0.135189
    30  C   -0.299185   0.160995  -0.212334  -0.301462  -0.401820  -0.729070
    31  H    0.057777   0.006369   0.002582  -0.006872  -0.000279  -0.041337
    32  H    0.005258   0.001967   0.001486   0.020781  -0.004163  -0.045466
    33  H   -0.000496   0.007431   0.004710   0.029804   0.015554  -0.142936
    34  H    0.002125   0.004155   0.006667  -0.015391   0.036051  -0.031610
    35  H   -0.001283  -0.001967  -0.030644  -0.001533   0.006644   0.009212
    36  H    0.000422  -0.003476   0.003823  -0.005226  -0.026937  -0.000361
    37  H   -0.005494  -0.023273  -0.014717  -0.000735  -0.002893   0.000120
    38  H    0.000296  -0.004617   0.008383   0.000100   0.001162   0.000008
    39  H   -0.001064  -0.001003  -0.000398  -0.000038   0.000115  -0.000001
    40  H   -0.000535   0.001638  -0.000133   0.000006   0.000003  -0.000005
    41  H    0.000923  -0.000845  -0.000029  -0.000010  -0.000001   0.000023
    42  H   -0.002506  -0.000092  -0.000025  -0.000259  -0.000070  -0.000067
    43  H    0.000723  -0.002114   0.000025  -0.000312   0.000047   0.000152
    44  H    0.018764   0.002124   0.000798   0.002701  -0.005148  -0.014121
    45  H    0.116997   0.022394   0.006675  -0.015814  -0.004356  -0.016264
    46  H    0.104229  -0.008181   0.032533  -0.012445   0.010087  -0.017353
               7          8          9         10         11         12
     1  C   -0.497909  -0.912369  -1.955085  -2.026306  -0.229272   0.229351
     2  C    0.491785  -1.494610  -3.295018  -0.953756  -1.262945  -0.191404
     3  C    0.451636  -3.171673  -2.902548   0.313989  -0.915619   1.356590
     4  C   -0.990438   2.181168  -2.116980  -1.854378   0.936502  -2.091922
     5  C    1.317012  -1.732895  -1.102344  -1.734255   1.419744  -2.184234
     6  C   -2.865438   1.650179   3.361429   0.482858   0.315009  -0.079551
     7  C   10.415547  -0.511377  -0.944259  -0.060466  -0.370527   0.422669
     8  C   -0.511377  13.193377  -0.964818  -0.537454   1.236652  -2.205051
     9  C   -0.944259  -0.964818  15.571766   2.576333   0.104860  -0.949108
    10  C   -0.060466  -0.537454   2.576333  13.437742  -1.714999   0.283767
    11  C   -0.370527   1.236652   0.104860  -1.714999  10.446190  -0.877194
    12  C    0.422669  -2.205051  -0.949108   0.283767  -0.877194  12.137087
    13  C    1.022883  -0.314758   0.197824  -0.026798  -0.257951   0.415382
    14  C   -0.475143   0.237962   0.228771   0.030935   0.060933  -0.024533
    15  C   -1.322170  -0.585653   0.434736   0.112337  -0.063788   0.019069
    16  C    0.126575  -0.381551  -0.476924   0.098143  -1.066131   0.272417
    17  C   -0.075770  -0.087567  -0.594669  -0.474031  -0.437985  -0.120474
    18  C   -0.088403   0.111193  -0.185688   0.896340  -1.005083  -0.210750
    19  C   -0.006211  -0.075475  -0.360495  -0.886092  -0.157235  -0.019816
    20  C   -0.007448  -0.010702  -0.026992  -0.011398   0.031469  -0.005198
    21  C    0.003655  -0.014609  -0.061995  -0.136417  -0.188260   0.016562
    22  C   -0.028803   0.024171  -0.117252  -1.303027  -0.221244  -0.180605
    23  C   -0.064399   0.003839  -0.245511  -0.368429  -0.046026  -0.081666
    24  C    0.011672   0.001474  -0.222071  -0.165245   0.029170  -0.028424
    25  C    0.001402   0.002228   0.001205   0.022115   0.004977  -0.002273
    26  C   -0.001942   0.000074  -0.011644  -0.106584  -0.010102   0.001117
[...]
 019760,-0.00290609,-0.00364151,0.00005644,0.00111227,-0.00025117,-0.00
 023454,0.00010996,-0.00060716,0.00024727,0.00991508,-0.01380101,0.0149
 9244,-0.07400579,0.03733897,-0.04736007,0.00111626,0.01903235,-0.02196
 021,-0.00374069,-0.00121564,-0.00153133,0.00001165,-0.00001445,-0.0000
 3043,-0.00003317,-0.00000305,-0.00001265,-0.00000179,0.00000104,-0.000
 00058,-0.00000050,-0.00000127,0.00000288,0.00000134,0.00000167,-0.0000
 0083,-0.00000188,-0.00000107,-0.00000094,-0.00000406,0.00000385,-0.000
 00729,0.00000232,0.00000192,0.00000105,-0.00000387,0.00001469,-0.00000
 090,0.00003514,-0.00010204,0.00009421,-0.00002209,0.00000614,-0.000056
 68,0.00046822,0.00116502,0.00043717,0.06874336,0.00010623,-0.00028171,
 -0.00022089,0.00003671,0.00029553,0.00005090,0.00000341,0.00002953,-0.
 00000181,-0.00012753,-0.00001831,0.00001556,0.00005052,-0.00004210,-0.
 00002836,0.00010068,-0.00000068,0.00001238,-0.00007327,0.00000298,-0.0
 0000428,0.00006715,-0.00004377,-0.00000243,-0.00000776,0.00005557,0.00
 001257,-0.00003817,-0.00007344,-0.00000532,0.00002511,0.00000672,0.000
 00162,-0.00000553,-0.00003072,-0.00000102,-0.00025373,0.00010149,0.000
 59403,0.00001855,-0.00000927,-0.00006692,-0.00004973,0.00002421,-0.000
 01008,-0.00005928,-0.00033700,-0.00001644,-0.00013237,0.00017980,0.000
 02454,0.00010470,-0.00004911,-0.00000490,0.00017935,0.00007132,-0.0002
 8385,0.00049075,-0.00002945,0.00023684,-0.00011696,0.00011160,-0.00001
 217,0.00015555,-0.00006546,-0.00000175,0.00033115,0.00066620,-0.000190
 15,-0.00335665,0.00255960,0.00250628,0.00002638,-0.00124781,0.00047721
 ,-0.00056257,0.00032767,-0.00052586,0.00405337,-0.01383043,0.01506017,
 0.04260359,-0.16308113,0.14031500,-0.00473524,0.00386838,-0.00152820,-
 0.00193952,0.00303485,0.00206471,-0.00002321,0.00000733,-0.00001487,0.
 00000371,0.00001069,-0.00000392,0.00000486,0.00000651,0.00000456,0.000
 00444,-0.00000187,-0.00000024,0.00000562,-0.00000144,0.00000139,0.0000
 0327,-0.00000576,0.00000169,0.00000593,-0.00000763,0.00000636,0.000002
 31,-0.00000779,0.00000624,-0.00000237,-0.00000831,-0.00000087,0.000011
 74,-0.00005356,-0.00002552,-0.00005675,0.00001870,0.00011204,0.0002687
 5,-0.00064965,-0.00212489,-0.03863796,0.17079504,0.00011885,-0.0002321
 2,0.00016042,0.00002765,-0.00004173,0.00001601,-0.00015402,-0.00002700
 ,0.00000911,-0.00001062,0.00006982,-0.00008825,0.00012484,0.00008318,-
 0.00001088,-0.00018545,0.00002242,0.00002221,0.00017760,-0.00008993,0.
 00001780,-0.00000805,0.00021554,0.00004186,-0.00020502,-0.00011036,-0.
 00002002,0.00005358,0.00002521,-0.00001103,0.00001173,-0.00002671,0.00
 000885,0.00000626,-0.00002457,0.00000653,0.00046602,0.00066359,-0.0000
 6140,-0.00007079,0.00004402,0.00003271,0.00011933,-0.00004975,-0.00002
 838,0.00002625,-0.00016136,-0.00003677,-0.00010765,0.00010703,0.000009
 94,-0.00002013,0.00002266,0.00000057,-0.00006044,0.00025416,-0.0001578
 6,0.00054804,-0.00017271,0.00022987,-0.00012768,0.00014323,-0.00001754
 ,0.00014359,-0.00013339,0.00000493,0.00033965,-0.00013902,0.00001642,0
 .00158422,0.00249811,0.00199287,-0.00090119,-0.00030972,0.00036765,-0.
 00018408,0.00059095,-0.00038700,-0.00602777,0.00144943,-0.00186631,-0.
 04328324,0.14307610,-0.18873735,-0.00519971,0.00938009,-0.00712661,-0.
 00467541,0.00242115,0.00377841,-0.00002376,-0.00004674,-0.00003594,-0.
 00002106,-0.00001203,-0.00001960,-0.00000381,-0.00000900,-0.00001009,-
 0.00000847,0.00000420,-0.00000832,-0.00000917,0.00000059,-0.00000336,-
 0.00000149,0.00000765,-0.00000119,0.00000217,0.00000043,0.00000303,-0.
 00000494,0.00000526,0.00000316,0.00001297,-0.00000561,-0.00000294,-0.0
 0002229,0.00005764,-0.00010203,-0.00000259,0.00001065,0.00008713,0.000
 55982,-0.00113927,-0.00094262,0.05558010,-0.15462002,0.19447922,0.0005
 5581,-0.00000791,-0.00037201,-0.00003756,0.00011519,-0.00000277,0.0000
 7748,0.00000142,-0.00001736,-0.00058691,-0.00011575,0.00013300,0.00010
 933,-0.00020285,0.00002722,0.00006849,0.00002805,0.00009728,-0.0000953
 3,0.00003099,0.00001803,0.00005259,-0.00003503,-0.00000515,-0.00011029
 ,0.00010493,-0.00002198,-0.00020067,-0.00014675,-0.00000946,0.00011895
 ,0.00003763,0.00001313,-0.00003052,-0.00014013,-0.00001310,-0.00072314
 ,0.00041657,-0.00047721,0.00013398,-0.00020422,-0.00041981,-0.00038465
 ,0.00002509,-0.00010634,0.00052986,-0.00032332,0.00005063,-0.00026402,
 0.00026703,-0.00000656,0.00032419,-0.00005013,-0.00000972,-0.00052100,
 0.00066279,0.00047208,0.00020719,-0.00001601,0.00010017,-0.00006037,0.
 00002208,-0.00001080,0.00007186,0.00001732,-0.00000757,-0.00051521,-0.
 00044502,-0.00161692,0.00085369,0.00036697,0.00037396,-0.00017597,-0.0
 0051709,0.00015494,-0.00009583,0.00032679,-0.00011596,-0.00340232,0.00
 118660,-0.00386924,-0.01339091,-0.01778965,0.01038845,-0.21054834,-0.1
 3122309,0.05495090,0.00669844,0.00454335,-0.00236103,-0.00014970,0.000
 18351,0.00003583,0.,0.00003407,-0.00014436,0.00000678,0.00000532,0.000
 00507,0.00000510,-0.00000111,-0.00000358,0.00000625,-0.00000485,-0.000
 00130,0.00000346,-0.00000387,-0.00000256,0.00000216,-0.00000016,0.0000
 0732,-0.00000139,-0.00000373,0.00000232,-0.00000435,0.00000053,-0.0000
 0722,-0.00000856,-0.00001556,0.00000552,0.00003564,0.00004933,-0.00001
 238,-0.00052060,-0.00119350,0.00003135,0.00048681,0.00123716,0.0011425
 9,0.22132011,-0.00115757,-0.00044946,0.00122700,-0.00015733,0.00010333
 ,-0.00008161,0.00015579,-0.00016013,-0.00005413,0.00174618,0.00032011,
 -0.00015531,-0.00022813,0.00046295,0.00001365,0.00047088,-0.00089697,-
 0.00027626,-0.00016421,0.00011278,0.00000543,-0.00008029,-0.00029284,-
 0.00005546,0.00041757,-0.00001468,0.00007831,0.00037165,0.00050232,0.0
 0004051,-0.00012329,-0.00000480,-0.00002369,0.00005799,0.00017766,0.00
 001542,0.00177995,-0.00010950,-0.00105998,0.00085182,0.00035375,0.0005
 5911,-0.00098692,0.00045397,-0.00013017,-0.00069413,0.00019301,-0.0000
 5659,0.00061036,-0.00013136,-0.00001939,-0.00077588,0.00006505,0.00001
 736,0.00023287,0.00045358,-0.00007041,-0.00139216,-0.00037396,-0.00018
 397,0.00034069,-0.00017916,-0.00011066,-0.00043605,-0.00025888,0.00003
 600,0.00074850,-0.00090857,0.00220169,-0.00024753,-0.00128380,-0.00058
 138,0.00083628,0.00143926,-0.00063355,0.00083721,-0.00129747,0.0005789
 9,-0.00100998,0.00520095,0.00330292,0.00155886,0.00647512,0.00278415,-
 0.13238250,-0.14367908,0.06234030,-0.01465003,-0.00261295,0.00239019,-
 0.00011220,0.00003270,-0.00021045,-0.00001568,-0.00001472,-0.00006158,
 -0.00002233,-0.00000883,-0.00000233,-0.00000506,-0.00000081,0.00000086
 ,-0.00000990,0.00000604,0.00000193,-0.00000600,0.00000662,0.00000479,-
 0.00000103,-0.00000149,-0.00001844,0.00000620,0.00000692,0.00001725,0.
 00000902,-0.00000531,-0.00000244,0.00002890,-0.00001476,0.00003524,-0.
 00001236,0.00000201,0.00000221,0.00014166,-0.00026344,-0.00029273,0.00
 047438,-0.00199045,-0.00311695,0.14271379,0.14002928,-0.00126732,-0.00
 145583,0.00199884,-0.00007546,0.00102309,-0.00001897,0.00046033,-0.000
 38449,-0.00016892,0.00160741,0.00044134,-0.00048897,-0.00025354,0.0004
 5579,0.00004879,-0.00001821,-0.00085127,-0.00028229,0.00001354,-0.0000
 3561,-0.00002622,-0.00012392,-0.00016039,-0.00001752,0.00034203,-0.000
 21785,0.00003312,0.00049504,0.00096152,0.00002812,-0.00014309,-0.00009
 499,-0.00001627,0.00005352,0.00029134,0.00002870,0.00355271,0.00048038
 ,0.00085335,0.00058415,-0.00022681,0.00085562,-0.00132549,0.00030814,0
 .00019638,-0.00134891,-0.00001916,-0.00017983,0.00072450,-0.00035410,0
 .00009039,-0.00117823,-0.00004604,0.00003180,0.00205661,0.00072315,-0.
 00003261,-0.00161246,-0.00019494,0.00012176,0.00058013,-0.00021281,-0.
 00008064,-0.00048992,-0.00036716,0.00002959,-0.00086460,-0.00033118,-0
 .00209056,-0.00092348,-0.00080736,-0.00045008,0.00077286,0.00161537,-0
 .00038647,0.00121018,-0.00115539,0.00055359,-0.00435037,0.00369115,0.0
 0189411,-0.01165629,-0.00810906,0.00932206,0.05888158,0.06035595,-0.06
 859532,0.01136911,0.01563461,-0.00477991,-0.00005044,-0.00027221,-0.00
 053225,-0.00003909,-0.00002970,-0.00006437,-0.00002813,-0.00000780,-0.
 00000212,0.00001126,-0.00000455,0.00000014,-0.00000253,-0.00000101,0.0
 0000469,-0.00000670,0.00000308,0.00000320,-0.00001762,-0.00000592,-0.0
 0003812,0.00000091,0.00001470,0.00001539,-0.00000119,0.00002766,-0.000
 00814,0.00003888,-0.00003818,-0.00000173,0.00005093,0.00004173,-0.0000
 2194,-0.00065082,-0.00065575,0.00019566,0.00130263,-0.00203700,-0.0018
 3960,-0.05910717,-0.06826821,0.06676437,-0.00611690,0.00054635,-0.0017
 1919,0.00015538,-0.00291838,0.00035853,-0.00121277,0.00057424,0.000051
 86,-0.00072843,0.00200340,-0.00101084,-0.00072584,0.00014595,0.0001659
 1,-0.00031161,0.00085425,0.00019377,0.00019431,-0.00028820,0.00006120,
 -0.00009656,0.00019164,-0.00001987,-0.00008020,0.00025577,0.00023608,-
 0.00035841,-0.00105686,0.00006414,0.00010062,0.00005820,-0.00000532,-0
 .00012266,-0.00022044,-0.00002203,-0.01704909,0.01086744,0.01888582,0.
 00028172,0.00047233,0.00035254,0.00099554,-0.00057284,-0.00054879,0.00
 128700,0.00072098,-0.00017873,-0.00027748,0.00003899,-0.00011001,0.000
 83847,0.00039674,-0.00003900,-0.00131393,-0.00065958,0.00028566,0.0008
 6720,0.00036757,0.00049456,-0.00030125,0.00024681,-0.00009306,0.000287
 09,0.00023311,-0.00000607,0.00613399,-0.00251515,-0.00433897,-0.001118
 06,-0.00063620,-0.00340368,0.00014889,-0.00139970,0.00036045,-0.001151
 78,0.00048219,-0.00027165,0.00277433,0.00128677,0.00004521,-0.00403722
 ,-0.00215566,-0.00350074,0.00300044,-0.00419642,0.00664171,-0.14100006
 ,0.05227450,0.08281811,0.00002534,-0.00087121,0.00003625,-0.00004272,-
 0.00004370,0.00002637,-0.00002469,-0.00000947,-0.00002093,-0.00001021,
 -0.00000924,-0.00000910,-0.00001854,0.00002244,-0.00000710,-0.00000834
 ,0.00001097,0.00000042,0.00001425,0.00001098,0.00002083,0.00000493,0.0
 0000410,0.00001440,0.00000349,0.00000488,-0.00001207,-0.00000808,0.000
 03848,0.00002254,0.00004535,0.00002694,0.00006128,0.00001204,-0.000039
 39,-0.00006112,0.00001746,0.00008170,0.00031251,-0.00005149,0.00055153
 ,0.00118003,0.15962326,0.00109605,0.00184057,-0.00003149,-0.00044417,-
 0.00087636,-0.00050600,-0.00035356,0.00019339,0.00008689,-0.00074160,-
 0.00021823,0.00039493,0.00024705,-0.00002781,-0.00011138,0.00004794,0.
 00050211,0.00011517,0.00002582,-0.00002152,-0.00018114,0.00011852,0.00
 016281,0.00005529,-0.00022607,-0.00000697,-0.00000681,-0.00010478,-0.0
 0048093,0.00005506,0.00004693,-0.00001069,0.00000533,-0.00005587,-0.00
 010392,-0.00000677,0.00006739,0.00030172,0.00099221,-0.00033299,0.0006
 5457,0.00044025,0.00045587,-0.00040825,0.00030524,0.00185946,-0.000274
 25,0.00003732,-0.00039010,0.00089657,-0.00001980,0.00054428,0.00010068
 ,-0.00002938,-0.00402345,0.00148298,-0.00252320,-0.00022729,-0.0009965
 1,0.00109141,-0.00033769,-0.00001279,0.00006286,0.00001047,-0.00018268
 ,-0.00001663,0.01350644,-0.02851806,-0.02002861,0.00147453,-0.00108876
 ,0.00055045,0.00047496,-0.00059947,0.00024271,-0.00012316,-0.00018704,
 -0.00011588,-0.00074849,0.00119679,-0.00007963,-0.00022649,0.00061901,
 0.00166880,-0.00959599,0.00620797,0.01448599,0.05293289,-0.06791607,-0
 .05209590,0.00016813,0.00002701,-0.00036061,-0.00000770,0.00002309,-0.
 00003609,0.00001521,0.00000808,0.00000137,-0.00000274,-0.00000976,0.00
 002094,0.00000656,-0.00000248,-0.00000798,0.00000105,-0.00000567,0.000
 00025,0.00001701,-0.00001284,0.00000935,0.00000157,-0.00001656,0.00000
 019,0.00001068,-0.00007872,-0.00000875,-0.00001313,0.00000598,-0.00003
 299,-0.00000682,0.00006434,0.00003414,0.00003242,-0.00004074,-0.000035
 88,-0.00002397,-0.00033841,-0.00066597,0.00017290,-0.00164038,0.000309
 72,-0.05563490,0.08990587,-0.00063349,-0.00147305,-0.00109698,-0.00007
 278,0.00117825,0.00052957,0.00063798,0.00062766,-0.00012087,-0.0025530
 6,0.00038673,0.00045042,-0.00042653,-0.00105041,-0.00023950,0.00090513
 ,0.00080049,0.00021299,-0.00066866,0.00019418,-0.00008384,0.00042529,-
 0.00051103,-0.00005071,0.00022790,0.00064394,0.00013168,-0.00054437,-0
 .00082857,0.00004883,0.00012849,0.00006965,-0.00000624,-0.00013034,-0.
 00015327,-0.00002867,-0.00889005,0.00546327,0.00946546,0.00037286,0.00
 060982,0.00015522,0.00038841,-0.00038968,-0.00001240,0.00073850,-0.001
 15556,0.00010680,-0.00100064,0.00079442,0.00006821,0.00125310,-0.00024
 537,-0.00002117,-0.00076446,0.00032732,-0.00129950,0.00091867,-0.00031
 829,0.00014357,-0.00072053,0.00032191,-0.00002803,0.00071633,0.0003872
 3,-0.00001017,0.00137012,-0.00958444,-0.00068408,-0.00011013,-0.000525
 47,0.00099455,-0.00061113,-0.00140759,0.00014492,-0.00082163,0.0009168
 6,-0.00037426,-0.00070057,-0.00183799,0.00073659,0.00367245,0.00299556
 ,-0.00000741,0.01404552,0.00074818,-0.02678928,0.08953499,-0.05403125,
 -0.13192969,0.00040305,0.00038074,-0.00009735,-0.00002853,0.00004813,-
 0.00002064,0.00002913,0.00003139,0.00001447,0.00000009,-0.00001772,0.0
 0001960,0.00001761,0.00000523,0.00000956,0.00000325,-0.00002229,-0.000
 00056,0.00001651,-0.00000792,-0.00000153,-0.00000379,-0.00002679,-0.00
 000263,-0.00001761,-0.00001156,-0.00002180,-0.00003330,0.00002116,0.00
 000775,-0.00001020,-0.00003383,-0.00002189,-0.00003043,0.00001889,0.00
 013292,0.00010282,0.00023767,0.00045479,0.00029893,0.00046254,-0.00242
 177,-0.09737258,0.05585349,0.15180044,-0.00899582,0.00221817,0.0215289
 5,-0.00024444,-0.00288351,-0.00007096,-0.00029732,0.00014599,-0.000487
 26,-0.00043825,0.00111331,0.00017591,-0.00061231,0.00011006,-0.0000544
 0,-0.00028010,0.00052426,0.00012285,0.00002269,-0.00035850,-0.00002244
 ,-0.00000713,0.00014721,0.00006832,-0.00005240,0.00047524,-0.00011011,
 -0.00043367,-0.00072420,0.00009326,0.00026161,-0.00006178,0.00005411,-
 0.00026049,-0.00028380,-0.00007942,-0.03462453,-0.01094902,0.03220243,
 -0.00410886,-0.00891243,0.00954716,0.00132508,-0.00173934,-0.00059477,
 0.00188372,0.00118493,0.00010152,-0.00026322,-0.00066478,-0.00005471,0
 .00068698,0.00016897,-0.00001414,0.00001768,0.00050387,0.00017171,-0.0
 0025489,-0.00061606,0.00012204,-0.00083902,0.00049189,-0.00007217,0.00
 089290,0.00073769,-0.00001687,0.00157099,0.00054562,-0.00023088,-0.000
 46661,0.00004534,0.00109383,-0.00029293,-0.00015136,-0.00011543,-0.000
 18202,0.00018614,-0.00011300,0.00148907,-0.00043049,-0.00020084,-0.000
 77222,0.00228796,-0.00088850,-0.00508159,-0.00236934,-0.00123360,-0.00
 332517,0.00777604,-0.03202693,0.00011637,0.00010698,0.00004365,-0.0001
 7629,0.00018303,-0.00071596,0.00005261,0.00000949,0.00002530,0.0000128
 1,-0.00001119,-0.00001766,0.00000174,-0.00001178,0.00004625,-0.0000053
 2,-0.00000646,-0.00000286,-0.00000229,-0.00000116,0.00003034,-0.000005
 78,-0.00000872,-0.00001521,-0.00001006,0.00003356,-0.00002577,0.000008
 90,0.00003649,0.00000050,-0.00002256,-0.00000288,0.00008285,-0.0000581
 7,-0.00005121,-0.00005596,-0.00058839,0.00019590,-0.00003893,0.0002109
 3,-0.00027152,0.00024661,-0.00064480,0.00028684,-0.00006229,0.05479255
 ,0.00590944,0.00429495,-0.01863210,0.00073106,-0.00037722,-0.00151928,
 -0.00030839,-0.00029209,0.00070036,-0.00076163,-0.00022164,-0.00073196
 ,0.00136093,-0.00022889,0.00023265,0.00093991,-0.00019960,0.00126137,-
 0.00028615,0.00026202,0.00002469,0.00010589,-0.00003873,-0.00004045,-0
 .00071947,0.00026096,0.00008464,-0.00018131,0.00017238,-0.00005452,0.0
 0038652,0.00025420,0.00000848,0.00003274,-0.00055581,-0.00000345,-0.00
 861461,-0.06087717,0.06756085,-0.00943689,-0.01497902,0.02669264,0.000
 26099,-0.00289291,-0.00079153,0.00056053,0.00066338,0.00046990,0.00038
 313,-0.00041807,0.00015287,-0.00020951,0.00016854,-0.00001663,-0.00048
 438,0.00103258,0.00034424,-0.00072320,-0.00030502,0.00016492,0.0001411
 5,0.00006900,-0.00000767,-0.00008853,-0.00009007,-0.00002475,-0.000581
 79,-0.00011364,-0.00163422,0.00039441,-0.00047622,0.00009132,0.0003161
 8,0.00058898,-0.00008118,0.00050502,-0.00040425,0.00010958,-0.00039527
 ,0.00069421,-0.00034498,-0.00026742,-0.00009982,0.00008321,-0.00012557
 ,0.00017035,-0.00029667,-0.00004103,0.00106373,-0.00053791,0.00036386,
 0.00002260,-0.00134742,-0.00052872,0.00046432,-0.00214416,0.00002575,-
 0.00000504,-0.00000575,-0.00002455,0.00001222,0.00000551,-0.00000560,-
 0.00000235,-0.00005028,0.00000501,0.00000914,-0.00001600,-0.00000705,0
 .00001352,0.00000838,0.00000901,0.00001462,-0.00003459,0.00000349,0.00
 000339,-0.00000351,0.00001631,-0.00002002,0.00000347,0.00000797,0.0000
 1866,0.00000745,0.00000494,0.00004241,0.00007096,-0.00001617,0.0000315
 4,-0.00001913,-0.00010966,0.00019641,-0.00003393,0.00045811,-0.0001177
 0,0.00010736,0.01099457,0.07219116,0.00972020,-0.00596272,-0.01423400,
 0.00046678,0.00451090,0.00196397,0.00182529,-0.00066432,0.00016800,-0.
 00099646,-0.00068730,-0.00177398,0.00068830,-0.00058407,-0.00040079,0.
 00241670,-0.00126195,-0.00026525,-0.00115079,0.00057619,0.00011921,0.0
 0035639,-0.00066198,-0.00006663,-0.00005737,0.00003318,0.00019822,0.00
 025268,0.00100927,-0.00007576,0.00008226,0.00008895,-0.00001928,0.0000
 8397,-0.00002253,0.00005692,0.02146324,0.06431984,-0.23292060,0.003057
 05,0.00518484,0.00197107,-0.00356954,0.00043075,0.00087459,-0.00213612
 ,-0.00169039,-0.00048153,-0.00004813,0.00062993,0.00004073,-0.00053426
 ,-0.00029434,0.00005323,0.00066732,-0.00121270,-0.00092114,0.00012814,
 0.00032087,-0.00010583,0.00046882,-0.00038075,0.00010857,-0.00051580,-
 0.00042507,0.00004032,0.00087425,-0.00000163,0.00122696,-0.00066216,0.
 00020499,0.00020596,0.00020015,0.00034339,0.00002393,0.00023384,-0.000
 25209,0.00003899,-0.00024773,-0.00042292,0.00049764,0.00108426,0.00193
 834,0.00032129,-0.00333667,-0.00070635,-0.00140661,-0.00307622,0.00538
 693,-0.01727182,0.00043973,0.00061413,-0.00012439,0.00007963,0.0001489
 1,-0.00040732,-0.00001202,0.00000729,0.00000358,-0.00000646,0.00000748
 ,-0.00001661,0.00000377,-0.00000390,-0.00002448,0.00000632,-0.00000223
 ,-0.00000097,-0.00000190,-0.00000528,-0.00002492,0.00000195,-0.0000017
 3,-0.00001393,0.00000378,-0.00002040,0.00001696,0.00000213,-0.00003067
 ,-0.00001703,-0.00003442,0.00002595,0.00005634,-0.00001122,-0.00009542
 ,-0.00006982,-0.00024665,-0.00001000,-0.00022838,0.00041282,-0.0006501
 6,-0.00052505,0.00006066,0.00008152,-0.00025739,-0.02843649,-0.0698127
 7,0.26366701\\-0.00000061,-0.00000039,0.00000099,0.00000077,0.00000029
 ,-0.00000010,-0.00000059,-0.00000006,-0.00000004,-0.00000021,0.0000001
 1,0.00000199,0.00000049,0.00000132,0.00000126,-0.00000042,-0.00000029,
 0.00000335,-0.00000078,0.00000007,0.00000386,-0.00000018,0.00000003,0.
 00000311,0.,-0.00000036,0.00000169,0.00000026,0.00000018,-0.00000105,0
 .,0.00000008,-0.00000073,0.00000020,0.00000078,0.00000073,-0.00000064,
 -0.00000019,0.00000152,-0.00000069,-0.00000112,0.00000340,-0.00000073,
 -0.00000047,0.00000397,0.00000029,-0.00000065,-0.00000170,0.00000008,0
 .00000006,-0.00000264,0.00000045,0.00000012,-0.00000272,-0.00000009,-0
 .00000007,-0.00000202,0.00000014,-0.00000028,-0.00000300,0.00000075,-0
 .00000046,-0.00000431,0.00000014,-0.00000034,-0.00000404,0.00000032,0.
 00000032,-0.00000073,-0.00000029,-0.00000076,-0.00000075,0.00000046,0.
 00000034,-0.00000269,0.00000038,-0.00000006,-0.00000356,0.00000075,0.0
 0000159,-0.00000049,0.00000005,0.00000097,0.00000113,0.00000007,0.0000
 0119,0.00000125,0.00000007,-0.00000051,0.00000127,-0.00000085,-0.00000
 099,0.00000337,-0.00000084,-0.00000077,0.00000497,-0.00000069,-0.00000
 049,0.00000524,-0.00000045,-0.00000002,0.00000356,-0.00000004,0.000000
 12,0.00000092,0.00000039,0.00000034,-0.00000143,0.00000033,0.00000001,
 -0.00000328,0.00000036,-0.00000031,-0.00000488,0.00000038,-0.00000045,
 -0.00000538,0.00000038,-0.00000029,-0.00000463,0.00000042,0.00000019,-
 0.00000285,0.00000044,0.00000089,-0.00000061,0.00000066,0.00000207,0.0
 0000169,0.00000035,0.00000113,0.00000250,-0.00000050,-0.00000113,0.000
 00079,-0.00000078,-0.00000174,0.00000106\\\@


 ON A CLEAR DISK YOU CAN SEEK FOREVER.
 Job cpu time:       1 days  0 hours 54 minutes 44.6 seconds.
 Elapsed time:       0 days  1 hours 14 minutes 56.9 seconds.
 File lengths (MBytes):  RWF=   2289 Int=      0 D2E=      0 Chk=     47 Scr=      1
 Normal termination of Gaussian 16 at Thu Aug 29 19:12:28 2019.
