 Entering Gaussian System, Link 0=/share/apps/gaussian16/g16/g16
 Initial command:
 /share/apps/gaussian16/g16/l1.exe "/home/amen01//scratch/596/Gau-13797.inp" -scrdir="/home/amen01//scratch/596/"
 Entering Link 1 = /share/apps/gaussian16/g16/l1.exe PID=     13798.
  
 Copyright (c) 1988-2017, Gaussian, Inc.  All Rights Reserved.
  
 This is part of the Gaussian(R) 16 program.  It is based on
 the Gaussian(R) 09 system (copyright 2009, Gaussian, Inc.),
 the Gaussian(R) 03 system (copyright 2003, Gaussian, Inc.),
 the Gaussian(R) 98 system (copyright 1998, Gaussian, Inc.),
 the Gaussian(R) 94 system (copyright 1995, Gaussian, Inc.),
 the Gaussian 92(TM) system (copyright 1992, Gaussian, Inc.),
 the Gaussian 90(TM) system (copyright 1990, Gaussian, Inc.),
 the Gaussian 88(TM) system (copyright 1988, Gaussian, Inc.),
 the Gaussian 86(TM) system (copyright 1986, Carnegie Mellon
 University), and the Gaussian 82(TM) system (copyright 1983,
 Carnegie Mellon University). Gaussian is a federally registered
 trademark of Gaussian, Inc.
  
 This software contains proprietary and confidential information,
 including trade secrets, belonging to Gaussian, Inc.
  
 This software is provided under written license and may be
 used, copied, transmitted, or stored only in accord with that
 written license.
  
 The following legend is applicable only to US Government
 contracts under FAR:
  
                    RESTRICTED RIGHTS LEGEND
  
 Use, reproduction and disclosure by the US Government is
 subject to restrictions as set forth in subparagraphs (a)
 and (c) of the Commercial Computer Software - Restricted
 Rights clause in FAR 52.227-19.
  
 Gaussian, Inc.
 340 Quinnipiac St., Bldg. 40, Wallingford CT 06492
  
  
 ---------------------------------------------------------------
 Warning -- This program may not be used in any manner that
 competes with the business of Gaussian, Inc. or will provide
 assistance to any competitor of Gaussian, Inc.  The licensee
 of this program is prohibited from giving any competitor of
 Gaussian, Inc. access to this program.  By using this program,
 the user acknowledges that Gaussian, Inc. is engaged in the
 business of creating and licensing software in the field of
 computational chemistry and represents and warrants to the
 licensee that it is not a competitor of Gaussian, Inc. and that
 it will not use this program in any manner prohibited above.
 ---------------------------------------------------------------
  

 Cite this work as:
 Gaussian 16, Revision B.01,
 M. J. Frisch, G. W. Trucks, H. B. Schlegel, G. E. Scuseria, 
 M. A. Robb, J. R. Cheeseman, G. Scalmani, V. Barone, 
 G. A. Petersson, H. Nakatsuji, X. Li, M. Caricato, A. V. Marenich, 
 J. Bloino, B. G. Janesko, R. Gomperts, B. Mennucci, H. P. Hratchian, 
 J. V. Ortiz, A. F. Izmaylov, J. L. Sonnenberg, D. Williams-Young, 
 F. Ding, F. Lipparini, F. Egidi, J. Goings, B. Peng, A. Petrone, 
 T. Henderson, D. Ranasinghe, V. G. Zakrzewski, J. Gao, N. Rega, 
 G. Zheng, W. Liang, M. Hada, M. Ehara, K. Toyota, R. Fukuda, 
 J. Hasegawa, M. Ishida, T. Nakajima, Y. Honda, O. Kitao, H. Nakai, 
 T. Vreven, K. Throssell, J. A. Montgomery, Jr., J. E. Peralta, 
 F. Ogliaro, M. J. Bearpark, J. J. Heyd, E. N. Brothers, K. N. Kudin, 
 V. N. Staroverov, T. A. Keith, R. Kobayashi, J. Normand, 
 K. Raghavachari, A. P. Rendell, J. C. Burant, S. S. Iyengar, 
 J. Tomasi, M. Cossi, J. M. Millam, M. Klene, C. Adamo, R. Cammi, 
 J. W. Ochterski, R. L. Martin, K. Morokuma, O. Farkas, 
 J. B. Foresman, and D. J. Fox, Gaussian, Inc., Wallingford CT, 2016.
 
 ******************************************
 Gaussian 16:  ES64L-G16RevB.01 20-Dec-2017
                21-Jun-2019 
 ******************************************
 %nprocshared=20
 Will use up to   20 processors via shared memory.
 %mem=100GB
 %chk=7-memb2-habs-2a.chk
 -------------------------------------------
 # opt freq b3lyp/6-311+g(d,p) int=grid=fine
 -------------------------------------------
 1/18=20,19=15,26=3,38=1/1,3;
 2/9=110,12=2,17=6,18=5,40=1/2;
 3/5=4,6=6,7=111,11=2,25=1,30=1,71=1,74=-5,75=-4/1,2,3;
 4//1;
 5/5=2,38=5/2;
 6/7=2,8=2,9=2,10=2,28=1/1;
 7//1,2,3,16;
 1/18=20,19=15,26=3/3(2);
 2/9=110/2;
 99//99;
 2/9=110/2;
 3/5=4,6=6,7=111,11=2,25=1,30=1,71=1,74=-5,75=-4/1,2,3;
 4/5=5,16=3,69=1/1;
 5/5=2,38=5/2;
 7//1,2,3,16;
 1/18=20,19=15,26=3/3(-5);
 2/9=110/2;
 6/7=2,8=2,9=2,10=2,19=2,28=1/1;
 99/9=1/99;
 ---------------
 7-memb2-habs-2a
 ---------------
 Symbolic Z-matrix:
 Charge =  0 Multiplicity = 2
 C                    -4.00125  -0.10399   0.04943 
 C                    -2.57793  -0.29536   0.17586 
 C                    -2.38922  -1.67427   0.17331 
 C                    -4.55697  -1.37077  -0.07408 
 C                    -3.58021  -2.29832   0.02587 
 C                    -5.88328  -1.69959  -0.26622 
 C                    -6.16377  -3.09597  -0.34926 
 C                    -5.12166  -4.06538  -0.23949 
 C                    -3.76786  -3.66829  -0.05298 
 C                    -1.19922  -2.36295   0.22526 
 C                    -1.30392  -3.78593   0.18578 
 C                    -2.57071  -4.42859   0.05148 
 C                    -4.80683   1.00843   0.0633 
 C                    -6.18834   0.73932  -0.19538 
 C                    -6.72262  -0.57519  -0.35561 
 C                    -1.50051   0.57034   0.14929 
 C                    -0.21881  -0.09576   0.17948 
 C                    -0.07758  -1.51719   0.25928 
 C                    -1.63664   2.00851   0.00954 
 C                    -0.39838   2.68678  -0.19579 
 C                     0.83876   2.03222  -0.14555 
 C                     0.93121   0.66598   0.0672 
 C                    -2.88617   2.82445   0.06464 
 C                    -2.74656   4.22875  -0.19061 
 C                    -1.51405   4.80086  -0.4828 
 C                    -0.35606   4.04902  -0.45765 
 C                    -3.81751   5.12946  -0.11192 
 C                    -5.06843   4.73107   0.31279 
 C                    -5.27211   3.40158   0.62705 
 C                    -4.25342   2.40104   0.4648 
 H                    -6.90324   1.55637  -0.2659 
 H                    -7.78788  -0.70123  -0.53038 
 H                    -7.1874   -3.4301   -0.50096 
 H                    -5.36764  -5.12194  -0.31284 
 H                    -2.61542  -5.51385   0.00365 
 H                    -0.40226  -4.39243   0.22842 
 H                     0.91328  -1.96677   0.27687 
 H                     1.91614   0.20529   0.08724 
 H                     1.76586   2.58848  -0.27894 
 H                     0.58874   4.55695  -0.64261 
 H                    -1.42349   5.86724  -0.68327 
 H                    -3.6713    6.18652  -0.33066 
 H                    -5.87026   5.45473   0.42432 
 H                    -6.24286   3.12931   1.03983 
 H                    -4.07154   2.01286   1.51822 
 

 GradGradGradGradGradGradGradGradGradGradGradGradGradGradGradGradGradGrad
 Berny optimization.
 Initialization pass.
                           ----------------------------
                           !    Initial Parameters    !
                           ! (Angstroms and Degrees)  !
 --------------------------                            --------------------------
 ! Name  Definition              Value          Derivative Info.                !
 --------------------------------------------------------------------------------
 ! R1    R(1,2)                  1.4417         estimate D2E/DX2                !
 ! R2    R(1,4)                  1.3888         estimate D2E/DX2                !
 ! R3    R(1,13)                 1.3735         estimate D2E/DX2                !
 ! R4    R(2,3)                  1.3918         estimate D2E/DX2                !
 ! R5    R(2,16)                 1.3824         estimate D2E/DX2                !
 ! R6    R(3,5)                  1.3526         estimate D2E/DX2                !
 ! R7    R(3,10)                 1.3759         estimate D2E/DX2                !
 ! R8    R(4,5)                  1.3507         estimate D2E/DX2                !
 ! R9    R(4,6)                  1.3799         estimate D2E/DX2                !
 ! R10   R(5,9)                  1.385          estimate D2E/DX2                !
 ! R11   R(6,7)                  1.4267         estimate D2E/DX2                !
 ! R12   R(6,15)                 1.406          estimate D2E/DX2                !
 ! R13   R(7,8)                  1.4275         estimate D2E/DX2                !
 ! R14   R(7,33)                 1.0874         estimate D2E/DX2                !
 ! R15   R(8,9)                  1.4231         estimate D2E/DX2                !
 ! R16   R(8,34)                 1.0873         estimate D2E/DX2                !
 ! R17   R(9,12)                 1.422          estimate D2E/DX2                !
 ! R18   R(10,11)                1.4274         estimate D2E/DX2                !
 ! R19   R(10,18)                1.4052         estimate D2E/DX2                !
 ! R20   R(11,12)                1.4268         estimate D2E/DX2                !
 ! R21   R(11,36)                1.0875         estimate D2E/DX2                !
 ! R22   R(12,35)                1.0872         estimate D2E/DX2                !
 ! R23   R(13,14)                1.4311         estimate D2E/DX2                !
 ! R24   R(13,30)                1.5514         estimate D2E/DX2                !
 ! R25   R(14,15)                1.428          estimate D2E/DX2                !
 ! R26   R(14,31)                1.0879         estimate D2E/DX2                !
 ! R27   R(15,32)                1.0868         estimate D2E/DX2                !
 ! R28   R(16,17)                1.4448         estimate D2E/DX2                !
 ! R29   R(16,19)                1.4513         estimate D2E/DX2                !
 ! R30   R(17,18)                1.4307         estimate D2E/DX2                !
 ! R31   R(17,22)                1.384          estimate D2E/DX2                !
 ! R32   R(18,37)                1.0882         estimate D2E/DX2                !
 ! R33   R(19,20)                1.4267         estimate D2E/DX2                !
 ! R34   R(19,23)                1.4934         estimate D2E/DX2                !
 ! R35   R(20,21)                1.4005         estimate D2E/DX2                !
 ! R36   R(20,26)                1.3878         estimate D2E/DX2                !
 ! R37   R(21,22)                1.3858         estimate D2E/DX2                !
 ! R38   R(21,39)                1.0894         estimate D2E/DX2                !
 ! R39   R(22,38)                1.0875         estimate D2E/DX2                !
 ! R40   R(23,24)                1.4341         estimate D2E/DX2                !
 ! R41   R(23,30)                1.4862         estimate D2E/DX2                !
 ! R42   R(24,25)                1.3899         estimate D2E/DX2                !
 ! R43   R(24,27)                1.4016         estimate D2E/DX2                !
 ! R44   R(25,26)                1.3809         estimate D2E/DX2                !
 ! R45   R(25,41)                1.0888         estimate D2E/DX2                !
 ! R46   R(26,40)                1.0885         estimate D2E/DX2                !
 ! R47   R(27,28)                1.3798         estimate D2E/DX2                !
 ! R48   R(27,42)                1.0893         estimate D2E/DX2                !
 ! R49   R(28,29)                1.3812         estimate D2E/DX2                !
 ! R50   R(28,43)                1.0858         estimate D2E/DX2                !
 ! R51   R(29,30)                1.4371         estimate D2E/DX2                !
 ! R52   R(29,44)                1.0894         estimate D2E/DX2                !
 ! R53   R(30,45)                1.1373         estimate D2E/DX2                !
 ! A1    A(2,1,4)              106.3656         estimate D2E/DX2                !
 ! A2    A(2,1,13)             133.2864         estimate D2E/DX2                !
 ! A3    A(4,1,13)             120.3274         estimate D2E/DX2                !
 ! A4    A(1,2,3)              105.3799         estimate D2E/DX2                !
 ! A5    A(1,2,16)             133.2085         estimate D2E/DX2                !
 ! A6    A(3,2,16)             120.9801         estimate D2E/DX2                !
 ! A7    A(2,3,5)              109.7495         estimate D2E/DX2                !
 ! A8    A(2,3,10)             127.8149         estimate D2E/DX2                !
 ! A9    A(5,3,10)             122.3252         estimate D2E/DX2                !
 ! A10   A(1,4,5)              109.295          estimate D2E/DX2                !
 ! A11   A(1,4,6)              127.9035         estimate D2E/DX2                !
 ! A12   A(5,4,6)              122.8013         estimate D2E/DX2                !
 ! A13   A(3,5,4)              109.1458         estimate D2E/DX2                !
 ! A14   A(3,5,9)              125.5807         estimate D2E/DX2                !
 ! A15   A(4,5,9)              125.2447         estimate D2E/DX2                !
 ! A16   A(4,6,7)              115.4866         estimate D2E/DX2                !
 ! A17   A(4,6,15)             113.0839         estimate D2E/DX2                !
 ! A18   A(7,6,15)             131.4275         estimate D2E/DX2                !
 ! A19   A(6,7,8)              121.1087         estimate D2E/DX2                !
 ! A20   A(6,7,33)             119.5993         estimate D2E/DX2                !
 ! A21   A(8,7,33)             119.2919         estimate D2E/DX2                !
 ! A22   A(7,8,9)              121.0011         estimate D2E/DX2                !
 ! A23   A(7,8,34)             119.3113         estimate D2E/DX2                !
 ! A24   A(9,8,34)             119.6828         estimate D2E/DX2                !
 ! A25   A(5,9,8)              114.3525         estimate D2E/DX2                !
 ! A26   A(5,9,12)             114.2434         estimate D2E/DX2                !
 ! A27   A(8,9,12)             131.3996         estimate D2E/DX2                !
 ! A28   A(3,10,11)            115.754          estimate D2E/DX2                !
 ! A29   A(3,10,18)            112.9558         estimate D2E/DX2                !
 ! A30   A(11,10,18)           131.2429         estimate D2E/DX2                !
 ! A31   A(10,11,12)           121.115          estimate D2E/DX2                !
 ! A32   A(10,11,36)           119.6094         estimate D2E/DX2                !
 ! A33   A(12,11,36)           119.2497         estimate D2E/DX2                !
 ! A34   A(9,12,11)            120.8999         estimate D2E/DX2                !
 ! A35   A(9,12,35)            119.7252         estimate D2E/DX2                !
 ! A36   A(11,12,35)           119.357          estimate D2E/DX2                !
 ! A37   A(1,13,14)            114.3348         estimate D2E/DX2                !
 ! A38   A(1,13,30)            121.3589         estimate D2E/DX2                !
 ! A39   A(14,13,30)           124.0526         estimate D2E/DX2                !
 ! A40   A(13,14,15)           123.683          estimate D2E/DX2                !
 ! A41   A(13,14,31)           120.3216         estimate D2E/DX2                !
 ! A42   A(15,14,31)           115.9892         estimate D2E/DX2                !
 ! A43   A(6,15,14)            120.3775         estimate D2E/DX2                !
 ! A44   A(6,15,32)            120.1729         estimate D2E/DX2                !
 ! A45   A(14,15,32)           119.4412         estimate D2E/DX2                !
 ! A46   A(2,16,17)            113.7221         estimate D2E/DX2                !
 ! A47   A(2,16,19)            123.3191         estimate D2E/DX2                !
 ! A48   A(17,16,19)           122.8253         estimate D2E/DX2                !
 ! A49   A(16,17,18)           123.1484         estimate D2E/DX2                !
 ! A50   A(16,17,22)           118.7972         estimate D2E/DX2                !
 ! A51   A(18,17,22)           117.9918         estimate D2E/DX2                !
 ! A52   A(10,18,17)           121.1885         estimate D2E/DX2                !
 ! A53   A(10,18,37)           118.5895         estimate D2E/DX2                !
 ! A54   A(17,18,37)           120.0829         estimate D2E/DX2                !
 ! A55   A(16,19,20)           113.8            estimate D2E/DX2                !
 ! A56   A(16,19,23)           128.05           estimate D2E/DX2                !
 ! A57   A(20,19,23)           118.1487         estimate D2E/DX2                !
 ! A58   A(19,20,21)           122.6365         estimate D2E/DX2                !
 ! A59   A(19,20,26)           121.3501         estimate D2E/DX2                !
 ! A60   A(21,20,26)           116.0134         estimate D2E/DX2                !
 ! A61   A(20,21,22)           121.6823         estimate D2E/DX2                !
 ! A62   A(20,21,39)           120.5782         estimate D2E/DX2                !
 ! A63   A(22,21,39)           117.7389         estimate D2E/DX2                !
 ! A64   A(17,22,21)           119.977          estimate D2E/DX2                !
 ! A65   A(17,22,38)           121.192          estimate D2E/DX2                !
 ! A66   A(21,22,38)           118.743          estimate D2E/DX2                !
 ! A67   A(19,23,24)           116.5512         estimate D2E/DX2                !
 ! A68   A(19,23,30)           128.6112         estimate D2E/DX2                !
 ! A69   A(24,23,30)           114.6107         estimate D2E/DX2                !
 ! A70   A(23,24,25)           121.7902         estimate D2E/DX2                !
 ! A71   A(23,24,27)           123.018          estimate D2E/DX2                !
 ! A72   A(25,24,27)           115.1421         estimate D2E/DX2                !
 ! A73   A(24,25,26)           121.0438         estimate D2E/DX2                !
 ! A74   A(24,25,41)           121.0374         estimate D2E/DX2                !
 ! A75   A(26,25,41)           117.8296         estimate D2E/DX2                !
 ! A76   A(20,26,25)           120.8165         estimate D2E/DX2                !
 ! A77   A(20,26,40)           121.1015         estimate D2E/DX2                !
 ! A78   A(25,26,40)           118.0808         estimate D2E/DX2                !
 ! A79   A(24,27,28)           121.6319         estimate D2E/DX2                !
 ! A80   A(24,27,42)           120.6493         estimate D2E/DX2                !
 ! A81   A(28,27,42)           117.6242         estimate D2E/DX2                !
 ! A82   A(27,28,29)           118.792          estimate D2E/DX2                !
 ! A83   A(27,28,43)           120.5741         estimate D2E/DX2                !
 ! A84   A(29,28,43)           120.6122         estimate D2E/DX2                !
 ! A85   A(28,29,30)           122.6797         estimate D2E/DX2                !
 ! A86   A(28,29,44)           117.2685         estimate D2E/DX2                !
 ! A87   A(30,29,44)           120.0278         estimate D2E/DX2                !
 ! A88   A(13,30,23)           120.9455         estimate D2E/DX2                !
 ! A89   A(13,30,29)           113.6616         estimate D2E/DX2                !
 ! A90   A(13,30,45)            89.4486         estimate D2E/DX2                !
 ! A91   A(23,30,29)           118.9589         estimate D2E/DX2                !
 ! A92   A(23,30,45)           101.5082         estimate D2E/DX2                !
 ! A93   A(29,30,45)           104.2661         estimate D2E/DX2                !
 ! D1    D(4,1,2,3)             -2.3558         estimate D2E/DX2                !
 ! D2    D(4,1,2,16)           169.8799         estimate D2E/DX2                !
 ! D3    D(13,1,2,3)           175.9393         estimate D2E/DX2                !
 ! D4    D(13,1,2,16)          -11.8249         estimate D2E/DX2                !
 ! D5    D(2,1,4,5)              2.5557         estimate D2E/DX2                !
 ! D6    D(2,1,4,6)           -177.5779         estimate D2E/DX2                !
 ! D7    D(13,1,4,5)          -176.0066         estimate D2E/DX2                !
 ! D8    D(13,1,4,6)             3.8598         estimate D2E/DX2                !
 ! D9    D(2,1,13,14)          175.7586         estimate D2E/DX2                !
 ! D10   D(2,1,13,30)           -9.8044         estimate D2E/DX2                !
 ! D11   D(4,1,13,14)           -6.1366         estimate D2E/DX2                !
 ! D12   D(4,1,13,30)          168.3005         estimate D2E/DX2                !
 ! D13   D(1,2,3,5)              1.3652         estimate D2E/DX2                !
 ! D14   D(1,2,3,10)           177.5736         estimate D2E/DX2                !
 ! D15   D(16,2,3,5)          -172.0397         estimate D2E/DX2                !
 ! D16   D(16,2,3,10)            4.1687         estimate D2E/DX2                !
 ! D17   D(1,2,16,17)         -173.8371         estimate D2E/DX2                !
 ! D18   D(1,2,16,19)            2.0654         estimate D2E/DX2                !
 ! D19   D(3,2,16,17)           -2.5761         estimate D2E/DX2                !
 ! D20   D(3,2,16,19)          173.3264         estimate D2E/DX2                !
 ! D21   D(2,3,5,4)              0.1904         estimate D2E/DX2                !
 ! D22   D(2,3,5,9)            178.3161         estimate D2E/DX2                !
 ! D23   D(10,3,5,4)          -176.2652         estimate D2E/DX2                !
 ! D24   D(10,3,5,9)             1.8604         estimate D2E/DX2                !
 ! D25   D(2,3,10,11)         -179.0071         estimate D2E/DX2                !
 ! D26   D(2,3,10,18)           -1.2229         estimate D2E/DX2                !
 ! D27   D(5,3,10,11)           -3.2309         estimate D2E/DX2                !
 ! D28   D(5,3,10,18)          174.5533         estimate D2E/DX2                !
 ! D29   D(1,4,5,3)             -1.7586         estimate D2E/DX2                !
 ! D30   D(1,4,5,9)           -179.8921         estimate D2E/DX2                !
 ! D31   D(6,4,5,3)            178.3669         estimate D2E/DX2                !
 ! D32   D(6,4,5,9)              0.2334         estimate D2E/DX2                !
 ! D33   D(1,4,6,7)           -179.6417         estimate D2E/DX2                !
 ! D34   D(1,4,6,15)             0.8138         estimate D2E/DX2                !
 ! D35   D(5,4,6,7)              0.2083         estimate D2E/DX2                !
 ! D36   D(5,4,6,15)          -179.3363         estimate D2E/DX2                !
 ! D37   D(3,5,9,8)           -178.569          estimate D2E/DX2                !
 ! D38   D(3,5,9,12)             0.7444         estimate D2E/DX2                !
 ! D39   D(4,5,9,8)             -0.7372         estimate D2E/DX2                !
 ! D40   D(4,5,9,12)           178.5762         estimate D2E/DX2                !
 ! D41   D(4,6,7,8)             -0.0909         estimate D2E/DX2                !
 ! D42   D(4,6,7,33)          -179.9496         estimate D2E/DX2                !
 ! D43   D(15,6,7,8)           179.3502         estimate D2E/DX2                !
 ! D44   D(15,6,7,33)           -0.5084         estimate D2E/DX2                !
 ! D45   D(4,6,15,14)           -2.4998         estimate D2E/DX2                !
 ! D46   D(4,6,15,32)          178.5637         estimate D2E/DX2                !
 ! D47   D(7,6,15,14)          178.0486         estimate D2E/DX2                !
 ! D48   D(7,6,15,32)           -0.888          estimate D2E/DX2                !
 ! D49   D(6,7,8,9)             -0.4447         estimate D2E/DX2                !
 ! D50   D(6,7,8,34)          -179.6438         estimate D2E/DX2                !
 ! D51   D(33,7,8,9)           179.4144         estimate D2E/DX2                !
 ! D52   D(33,7,8,34)            0.2152         estimate D2E/DX2                !
 ! D53   D(7,8,9,5)              0.8167         estimate D2E/DX2                !
 ! D54   D(7,8,9,12)          -178.3487         estimate D2E/DX2                !
 ! D55   D(34,8,9,5)          -179.9871         estimate D2E/DX2                !
 ! D56   D(34,8,9,12)            0.8475         estimate D2E/DX2                !
 ! D57   D(5,9,12,11)           -1.717          estimate D2E/DX2                !
 ! D58   D(5,9,12,35)          179.8317         estimate D2E/DX2                !
 ! D59   D(8,9,12,11)          177.4491         estimate D2E/DX2                !
 ! D60   D(8,9,12,35)           -1.0022         estimate D2E/DX2                !
 ! D61   D(3,10,11,12)           2.1833         estimate D2E/DX2                !
 ! D62   D(3,10,11,36)        -179.6812         estimate D2E/DX2                !
 ! D63   D(18,10,11,12)       -175.103          estimate D2E/DX2                !
 ! D64   D(18,10,11,36)          3.0325         estimate D2E/DX2                !
 ! D65   D(3,10,18,17)          -2.8191         estimate D2E/DX2                !
 ! D66   D(3,10,18,37)        -178.5362         estimate D2E/DX2                !
 ! D67   D(11,10,18,17)        174.5265         estimate D2E/DX2                !
 ! D68   D(11,10,18,37)         -1.1906         estimate D2E/DX2                !
 ! D69   D(10,11,12,9)           0.2746         estimate D2E/DX2                !
 ! D70   D(10,11,12,35)        178.7316         estimate D2E/DX2                !
 ! D71   D(36,11,12,9)        -177.8675         estimate D2E/DX2                !
 ! D72   D(36,11,12,35)          0.5895         estimate D2E/DX2                !
 ! D73   D(1,13,14,15)           4.5788         estimate D2E/DX2                !
 ! D74   D(1,13,14,31)        -176.3685         estimate D2E/DX2                !
 ! D75   D(30,13,14,15)       -169.6871         estimate D2E/DX2                !
 ! D76   D(30,13,14,31)          9.3655         estimate D2E/DX2                !
 ! D77   D(1,13,30,23)          37.7422         estimate D2E/DX2                !
 ! D78   D(1,13,30,29)        -170.7276         estimate D2E/DX2                !
 ! D79   D(1,13,30,45)         -65.3701         estimate D2E/DX2                !
 ! D80   D(14,13,30,23)       -148.3776         estimate D2E/DX2                !
 ! D81   D(14,13,30,29)          3.1526         estimate D2E/DX2                !
 ! D82   D(14,13,30,45)        108.5101         estimate D2E/DX2                !
 ! D83   D(13,14,15,6)          -0.1733         estimate D2E/DX2                !
 ! D84   D(13,14,15,32)        178.771          estimate D2E/DX2                !
 ! D85   D(31,14,15,6)        -179.2636         estimate D2E/DX2                !
 ! D86   D(31,14,15,32)         -0.3193         estimate D2E/DX2                !
 ! D87   D(2,16,17,18)          -1.3076         estimate D2E/DX2                !
 ! D88   D(2,16,17,22)         175.7551         estimate D2E/DX2                !
 ! D89   D(19,16,17,18)       -177.2331         estimate D2E/DX2                !
 ! D90   D(19,16,17,22)         -0.1704         estimate D2E/DX2                !
 ! D91   D(2,16,19,20)        -171.0553         estimate D2E/DX2                !
 ! D92   D(2,16,19,23)           9.3734         estimate D2E/DX2                !
 ! D93   D(17,16,19,20)          4.4799         estimate D2E/DX2                !
 ! D94   D(17,16,19,23)       -175.0915         estimate D2E/DX2                !
 ! D95   D(16,17,18,10)          4.2223         estimate D2E/DX2                !
 ! D96   D(16,17,18,37)        179.876          estimate D2E/DX2                !
 ! D97   D(22,17,18,10)       -172.8627         estimate D2E/DX2                !
 ! D98   D(22,17,18,37)          2.7911         estimate D2E/DX2                !
 ! D99   D(16,17,22,21)         -3.5822         estimate D2E/DX2                !
 ! D100  D(16,17,22,38)        179.8722         estimate D2E/DX2                !
 ! D101  D(18,17,22,21)        173.6328         estimate D2E/DX2                !
 ! D102  D(18,17,22,38)         -2.9128         estimate D2E/DX2                !
 ! D103  D(16,19,20,21)         -5.4083         estimate D2E/DX2                !
 ! D104  D(16,19,20,26)        174.6795         estimate D2E/DX2                !
 ! D105  D(23,19,20,21)        174.2088         estimate D2E/DX2                !
 ! D106  D(23,19,20,26)         -5.7033         estimate D2E/DX2                !
 ! D107  D(16,19,23,24)       -176.1346         estimate D2E/DX2                !
 ! D108  D(16,19,23,30)          9.6805         estimate D2E/DX2                !
 ! D109  D(20,19,23,24)          4.3103         estimate D2E/DX2                !
 ! D110  D(20,19,23,30)       -169.8746         estimate D2E/DX2                !
 ! D111  D(19,20,21,22)          2.0741         estimate D2E/DX2                !
 ! D112  D(19,20,21,39)       -178.2253         estimate D2E/DX2                !
 ! D113  D(26,20,21,22)       -178.0094         estimate D2E/DX2                !
 ! D114  D(26,20,21,39)          1.6912         estimate D2E/DX2                !
 ! D115  D(19,20,26,25)          2.2098         estimate D2E/DX2                !
 ! D116  D(19,20,26,40)       -178.1842         estimate D2E/DX2                !
 ! D117  D(21,20,26,25)       -177.7079         estimate D2E/DX2                !
 ! D118  D(21,20,26,40)          1.8981         estimate D2E/DX2                !
 ! D119  D(20,21,22,17)          2.7553         estimate D2E/DX2                !
 ! D120  D(20,21,22,38)        179.3851         estimate D2E/DX2                !
 ! D121  D(39,21,22,17)       -176.9535         estimate D2E/DX2                !
 ! D122  D(39,21,22,38)         -0.3237         estimate D2E/DX2                !
 ! D123  D(19,23,24,25)          0.4016         estimate D2E/DX2                !
 ! D124  D(19,23,24,27)       -176.9071         estimate D2E/DX2                !
 ! D125  D(30,23,24,25)        175.406          estimate D2E/DX2                !
 ! D126  D(30,23,24,27)         -1.9028         estimate D2E/DX2                !
 ! D127  D(19,23,30,13)        -38.7819         estimate D2E/DX2                !
 ! D128  D(19,23,30,29)        171.1528         estimate D2E/DX2                !
 ! D129  D(19,23,30,45)         57.5693         estimate D2E/DX2                !
 ! D130  D(24,23,30,13)        146.9394         estimate D2E/DX2                !
 ! D131  D(24,23,30,29)         -3.1259         estimate D2E/DX2                !
 ! D132  D(24,23,30,45)       -116.7095         estimate D2E/DX2                !
 ! D133  D(23,24,25,26)         -4.0541         estimate D2E/DX2                !
 ! D134  D(23,24,25,41)        179.4545         estimate D2E/DX2                !
 ! D135  D(27,24,25,26)        173.4533         estimate D2E/DX2                !
 ! D136  D(27,24,25,41)         -3.0382         estimate D2E/DX2                !
 ! D137  D(23,24,27,28)          4.6868         estimate D2E/DX2                !
 ! D138  D(23,24,27,42)       -178.9349         estimate D2E/DX2                !
 ! D139  D(25,24,27,28)       -172.7864         estimate D2E/DX2                !
 ! D140  D(25,24,27,42)          3.5919         estimate D2E/DX2                !
 ! D141  D(24,25,26,20)          2.7988         estimate D2E/DX2                !
 ! D142  D(24,25,26,40)       -176.8189         estimate D2E/DX2                !
 ! D143  D(41,25,26,20)        179.3995         estimate D2E/DX2                !
 ! D144  D(41,25,26,40)         -0.2181         estimate D2E/DX2                !
 ! D145  D(24,27,28,29)         -2.0121         estimate D2E/DX2                !
 ! D146  D(24,27,28,43)        176.3016         estimate D2E/DX2                !
 ! D147  D(42,27,28,29)       -178.4956         estimate D2E/DX2                !
 ! D148  D(42,27,28,43)         -0.1819         estimate D2E/DX2                !
 ! D149  D(27,28,29,30)         -3.2854         estimate D2E/DX2                !
 ! D150  D(27,28,29,44)        174.9306         estimate D2E/DX2                !
 ! D151  D(43,28,29,30)        178.4016         estimate D2E/DX2                !
 ! D152  D(43,28,29,44)         -3.3824         estimate D2E/DX2                !
 ! D153  D(28,29,30,13)       -146.2546         estimate D2E/DX2                !
 ! D154  D(28,29,30,23)          5.8886         estimate D2E/DX2                !
 ! D155  D(28,29,30,45)        117.9733         estimate D2E/DX2                !
 ! D156  D(44,29,30,13)         35.577          estimate D2E/DX2                !
 ! D157  D(44,29,30,23)       -172.2799         estimate D2E/DX2                !
 ! D158  D(44,29,30,45)        -60.1951         estimate D2E/DX2                !
 --------------------------------------------------------------------------------
 Trust Radius=3.00D-01 FncErr=1.00D-07 GrdErr=1.00D-06 EigMax=2.50D+02 EigMin=1.00D-04
 Number of steps in this run=    270 maximum allowed number of steps=    270.
 GradGradGradGradGradGradGradGradGradGradGradGradGradGradGradGradGradGrad

                          Input orientation:                          
 ---------------------------------------------------------------------
 Center     Atomic      Atomic             Coordinates (Angstroms)
 Number     Number       Type             X           Y           Z
 ---------------------------------------------------------------------
      1          6           0       -4.001250   -0.103990    0.049430
      2          6           0       -2.577930   -0.295360    0.175860
      3          6           0       -2.389220   -1.674270    0.173310
      4          6           0       -4.556970   -1.370770   -0.074080
      5          6           0       -3.580210   -2.298320    0.025870
      6          6           0       -5.883280   -1.699590   -0.266220
      7          6           0       -6.163770   -3.095970   -0.349260
      8          6           0       -5.121660   -4.065380   -0.239490
      9          6           0       -3.767860   -3.668290   -0.052980
     10          6           0       -1.199220   -2.362950    0.225260
     11          6           0       -1.303920   -3.785930    0.185780
     12          6           0       -2.570710   -4.428590    0.051480
     13          6           0       -4.806830    1.008430    0.063300
     14          6           0       -6.188340    0.739320   -0.195380
     15          6           0       -6.722620   -0.575190   -0.355610
     16          6           0       -1.500510    0.570340    0.149290
     17          6           0       -0.218810   -0.095760    0.179480
     18          6           0       -0.077580   -1.517190    0.259280
     19          6           0       -1.636640    2.008510    0.009540
     20          6           0       -0.398380    2.686780   -0.195790
     21          6           0        0.838760    2.032220   -0.145550
     22          6           0        0.931210    0.665980    0.067200
     23          6           0       -2.886170    2.824450    0.064640
     24          6           0       -2.746560    4.228750   -0.190610
     25          6           0       -1.514050    4.800860   -0.482800
     26          6           0       -0.356060    4.049020   -0.457650
     27          6           0       -3.817510    5.129460   -0.111920
     28          6           0       -5.068430    4.731070    0.312790
     29          6           0       -5.272110    3.401580    0.627050
     30          6           0       -4.253420    2.401040    0.464800
     31          1           0       -6.903240    1.556370   -0.265900
     32          1           0       -7.787880   -0.701230   -0.530380
     33          1           0       -7.187400   -3.430100   -0.500960
     34          1           0       -5.367640   -5.121940   -0.312840
     35          1           0       -2.615420   -5.513850    0.003650
     36          1           0       -0.402260   -4.392430    0.228420
     37          1           0        0.913280   -1.966770    0.276870
     38          1           0        1.916140    0.205290    0.087240
     39          1           0        1.765860    2.588480   -0.278940
     40          1           0        0.588740    4.556950   -0.642610
     41          1           0       -1.423490    5.867240   -0.683270
     42          1           0       -3.671300    6.186520   -0.330660
     43          1           0       -5.870260    5.454730    0.424320
     44          1           0       -6.242860    3.129310    1.039830
     45          1           0       -4.071540    2.012860    1.518220
 ---------------------------------------------------------------------
                    Distance matrix (angstroms):
                    1          2          3          4          5
     1  C    0.000000
     2  C    1.441682   0.000000
     3  C    2.253834   1.391765   0.000000
     4  C    1.388816   2.266181   2.202829   0.000000
     5  C    2.234483   2.244752   1.352640   1.350703   0.000000
     6  C    2.487491   3.618375   3.521688   1.379905   2.397483
     7  C    3.713138   4.580111   4.067129   2.373572   2.729789
     8  C    4.126912   4.566851   3.654318   2.758108   2.359870
     9  C    3.573401   3.583986   2.434743   2.429349   1.385008
    10  C    3.603497   2.485601   1.375892   3.514045   2.390198
    11  C    4.566274   3.715815   2.374266   4.059909   2.723977
    12  C    4.555065   4.135107   2.762980   3.648460   2.357498
    13  C    1.373546   2.584673   3.613007   2.396225   3.527123
    14  C    2.356792   3.774049   4.516045   2.669937   4.009807
    15  C    2.791405   4.187985   4.501787   2.324273   3.604087
    16  C    2.591986   1.382381   2.414261   3.627637   3.545362
    17  C    3.784684   2.367552   2.683731   4.528750   4.021676
    18  C    4.175686   2.784166   2.318565   4.494163   3.596257
    19  C    3.171061   2.494295   3.762455   4.467086   4.725094
    20  C    4.563902   3.712374   4.808163   5.811402   5.918141
    21  C    5.294063   4.146650   4.925403   6.379604   6.189528
    22  C    4.992227   3.640061   4.063654   5.855632   5.398305
    23  C    3.133591   3.136972   4.527389   4.517819   5.169716
    24  C    4.517134   4.542060   5.925013   5.886067   6.583652
    25  C    5.525123   5.247583   6.566865   6.893144   7.411216
    26  C    5.549057   4.920536   6.106382   6.867961   7.135661
    27  C    5.239160   5.572078   6.957881   6.542264   7.432847
    28  C    4.958431   5.611269   6.944494   6.135447   7.190928
    29  C    3.773294   4.596688   5.855014   4.876303   5.976019
    30  C    2.551724   3.187683   4.490920   3.822183   4.767584
    31  H    3.358240   4.725713   5.568332   3.756318   5.097675
    32  H    3.877040   5.273242   5.530598   3.330957   4.534821
    33  H    4.638695   5.615327   5.153650   3.367823   3.817106
    34  H    5.213260   5.596176   4.581894   3.845188   3.358937
    35  H    5.584730   5.221465   3.849977   4.576109   3.357223
    36  H    5.601382   4.639212   3.367409   5.146217   3.811258
    37  H    5.260635   3.871997   3.317045   5.513802   4.512691
    38  H    5.925588   4.522739   4.698540   6.664169   6.040008
    39  H    6.373129   5.233726   5.969946   7.462962   7.249427
    40  H    6.578092   5.851718   6.954285   7.870160   8.051195
    41  H    6.545020   6.328386   7.651192   7.910664   8.475299
    42  H    6.310614   6.592935   7.980585   7.613335   8.492816
    43  H    5.876488   6.630589   7.937461   6.968542   8.094002
    44  H    4.057085   5.089845   6.218985   4.932924   6.130007
    45  H    2.577467   3.059523   4.270118   3.770943   4.588550
                    6          7          8          9         10
     6  C    0.000000
     7  C    1.426691   0.000000
     8  C    2.485506   1.427515   0.000000
     9  C    2.897629   2.481072   1.423110   0.000000
    10  C    4.756261   5.051153   4.301139   2.894692   0.000000
    11  C    5.052490   4.937657   3.851504   2.478275   1.427373
    12  C    4.303661   3.853122   2.593054   1.422018   2.485569
    13  C    2.932695   4.342533   5.092578   4.792149   4.940373
    14  C    2.458935   3.838454   4.921879   5.030510   5.890020
    15  C    1.405972   2.581993   3.841612   4.288293   5.834505
    16  C    4.953171   5.952846   5.895233   4.811213   2.949701
    17  C    5.903994   6.680073   6.322290   5.041107   2.470516
    18  C    5.832287   6.317007   5.673164   4.282862   1.405185
    19  C    5.644466   6.832229   7.007105   6.063997   4.398583
    20  C    7.023484   8.167219   8.240325   7.194491   5.130146
    21  C    7.689395   8.681892   8.527377   7.329757   4.858846
    22  C    7.221105   8.041421   7.688762   6.393872   3.706499
    23  C    5.436826   6.779775   7.249805   6.553387   5.457171
    24  C    6.707454   8.084183   8.627635   7.963996   6.783636
    25  C    7.835364   9.165023   9.575190   8.774446   7.205598
    26  C    7.977050   9.208264   9.412865   8.447545   6.503126
    27  C    7.136325   8.556808   9.287743   8.798088   7.943887
    28  C    6.507889   7.930992   8.813931   8.507321   8.081062
    29  C    5.214729   6.630716   7.518578   7.260046   7.069630
    30  C    4.472807   5.876159   6.562351   6.110698   5.664020
    31  H    3.411978   4.711479   5.897355   6.096968   6.938166
    32  H    2.166565   2.899193   4.302424   5.019155   6.836867
    33  H    2.179563   1.087416   2.176977   3.456975   6.125725
    34  H    3.461291   2.177086   1.087293   2.177136   5.027654
    35  H    5.029942   4.308303   2.904896   2.176561   3.461633
    36  H    6.126797   5.933761   4.753802   3.454103   2.180354
    37  H    6.823457   7.193870   6.410249   4.991697   2.149948
    38  H    8.036445   8.739210   8.238689   6.879836   4.039848
    39  H    8.769096   9.756892   9.576708   8.355853   5.793322
    40  H    9.009606  10.210271  10.349674   9.326425   7.199654
    41  H    8.793212  10.144996  10.608032   9.839699   8.283221
    42  H    8.190711   9.611315  10.354386   9.859194   8.917043
    43  H    7.187580   8.590637   9.572541   9.374294   9.109026
    44  H    5.015311   6.378866   7.393058   7.316230   7.501116
    45  H    4.499879   5.827954   6.413836   5.902233   5.391631
                   11         12         13         14         15
    11  C    0.000000
    12  C    1.426816   0.000000
    13  C    5.938962   5.878908   0.000000
    14  C    6.669387   6.313120   1.431050   0.000000
    15  C    6.321730   5.679152   2.520633   1.427958   0.000000
    16  C    4.360856   5.113140   3.336326   4.703520   5.370065
    17  C    3.846408   4.931656   4.720451   6.039302   6.543372
    18  C    2.580018   3.838636   5.364976   6.529927   6.739585
    19  C    5.806660   6.504652   3.324629   4.729779   5.716295
    20  C    6.546875   7.443699   4.724237   6.108702   7.117725
    21  C    6.209004   7.307898   5.741468   7.145223   8.001074
    22  C    4.982908   6.182098   5.748251   7.124768   7.765332
    23  C    6.798185   7.259909   2.643268   3.914039   5.143200
    24  C    8.152176   8.662509   3.831402   4.901224   6.238118
    25  C    8.615342   9.305092   5.052044   6.199008   7.486474
    26  C    7.918263   8.776888   5.415342   6.711065   7.869359
    27  C    9.267736   9.640411   4.241738   4.990103   6.406409
    28  C    9.312731   9.497698   3.740151   4.176901   5.598169
    29  C    8.222016   8.303036   2.502292   2.933172   4.345607
    30  C    6.859738   7.046005   1.551395   2.634590   3.953222
    31  H    7.752198   7.395356   2.191699   1.087946   2.141079
    32  H    7.215954   6.438217   3.487413   2.178517   1.086835
    33  H    5.934102   4.755628   5.068141   4.298321   2.896145
    34  H    4.306665   2.904528   6.167449   5.919604   4.744548
    35  H    2.176904   1.087233   6.880841   7.204686   6.433391
    36  H    1.087498   2.175957   6.971140   7.745527   7.406711
    37  H    2.869428   4.271949   6.451131   7.614391   7.787393
    38  H    5.129165   6.450267   6.770815   8.126971   8.685243
    39  H    7.090319   8.255561   6.768600   8.166742   9.059193
    40  H    8.594884   9.550069   6.496343   7.791221   8.937405
    41  H    9.692948  10.385571   5.967612   7.016936   8.348236
    42  H   10.262600  10.678852   5.315755   6.002148   7.418349
    43  H   10.310100  10.426220   4.585935   4.766581   6.139605
    44  H    8.540672   8.460696   2.741154   2.690868   3.987574
    45  H    6.562094   6.774666   1.914765   3.006521   4.151803
                   16         17         18         19         20
    16  C    0.000000
    17  C    1.444768   0.000000
    18  C    2.528756   1.430656   0.000000
    19  C    1.451342   2.543044   3.863107   0.000000
    20  C    2.411035   2.813468   4.240680   1.426709   0.000000
    21  C    2.774204   2.398416   3.688072   2.480367   1.400531
    22  C    2.434984   1.383980   2.412630   2.898200   2.433230
    23  C    2.647306   3.956719   5.174543   1.493358   2.505170
    24  C    3.879708   5.022736   6.351510   2.490271   2.809208
    25  C    4.277502   5.108145   6.521647   2.838071   2.407577
    26  C    3.712056   4.195709   5.619095   2.453942   1.387825
    27  C    5.120771   6.351258   7.635628   3.809367   4.202876
    28  C    5.483471   6.843601   7.997012   4.391068   5.123196
    29  C    4.740163   6.161781   7.163288   3.941904   4.994121
    30  C    3.321072   4.753262   5.729957   2.684936   3.921653
    31  H    5.507643   6.899964   7.504147   5.293144   6.602723
    32  H    6.450571   7.626357   7.793464   6.743290   8.136048
    33  H    6.983342   7.755132   7.401806   7.787813   9.143311
    34  H    6.897123   7.212164   6.426996   8.054043   9.256530
    35  H    6.187213   5.927087   4.741231   7.585773   8.497375
    36  H    5.083454   4.300863   2.893678   6.522548   7.091910
    37  H    3.504224   2.189016   1.088226   4.730371   4.857920
    38  H    3.436657   2.158043   2.640351   3.984957   3.405129
    39  H    3.863346   3.369601   4.532602   3.463610   2.168066
    40  H    4.570025   4.793295   6.176776   3.445600   2.161386
    41  H    5.362484   6.144344   7.565030   3.926222   3.376953
    42  H    6.040212   7.186583   8.521150   4.659543   4.793576
    43  H    6.559544   7.925072   9.065873   5.474670   6.163404
    44  H    5.461801   6.886977   7.759504   4.851284   5.990036
    45  H    3.250389   4.591517   5.477034   2.864415   4.109027
                   21         22         23         24         25
    21  C    0.000000
    22  C    1.385793   0.000000
    23  C    3.814041   4.385361   0.000000
    24  C    4.204913   5.126967   1.434121   0.000000
    25  C    3.648948   4.835187   2.467509   1.389880   0.000000
    26  C    2.364843   3.657525   2.858988   2.412075   1.380883
    27  C    5.592395   6.519592   2.492316   1.401572   2.356153
    28  C    6.510665   7.251272   2.908442   2.428336   3.643000
    29  C    6.309896   6.802802   2.518351   2.780500   4.160861
    30  C    5.141872   5.481688   1.486195   2.457786   3.763141
    31  H    7.757544   7.891917   4.225415   4.942193   6.294214
    32  H    9.057525   8.845841   6.067226   7.059395   8.344831
    33  H    9.715066   9.111120   7.611825   8.858632   9.996796
    34  H    9.472560   8.562707   8.333385   9.711869  10.646173
    35  H    8.300409   7.125512   8.342917   9.745419  10.384743
    36  H    6.554091   5.233703   7.634133   8.944052   9.287545
    37  H    4.021929   2.641147   6.118550   7.210925   7.229789
    38  H    2.133685   1.087531   5.470164   6.164917   5.762848
    39  H    1.089373   2.124255   4.670665   4.802106   3.961565
    40  H    2.585312   3.969983   3.946740   3.381752   2.122912
    41  H    4.484896   5.758552   3.457943   2.162840   1.088832
    42  H    6.134584   7.198455   3.475084   2.169705   2.568449
    43  H    7.553097   8.325843   3.994063   3.411549   4.497441
    44  H    7.263475   7.647306   3.508747   3.866118   5.241577
    45  H    5.184549   5.380246   2.043692   3.096101   4.279928
                   26         27         28         29         30
    26  C    0.000000
    27  C    3.642597   0.000000
    28  C    4.823401   1.379817   0.000000
    29  C    5.075756   2.376448   1.381227   0.000000
    30  C    4.330839   2.822570   2.473133   1.437058   0.000000
    31  H    7.008255   4.723602   3.712160   2.619684   2.875576
    32  H    8.820551   7.066533   6.133207   4.949929   4.806961
    33  H   10.129478   9.207257   8.470946   7.184191   6.598721
    34  H   10.451957  10.369883   9.877386   8.575716   7.644700
    35  H    9.836970  10.711602  10.539033   9.323707   8.095751
    36  H    8.469410  10.121569  10.247854   9.198964   7.812717
    37  H    6.191968   8.537448   8.980156   8.197613   6.768151
    38  H    4.498228   7.560546   8.325730   7.885341   6.559523
    39  H    2.582181   6.136652   7.186679   7.142477   6.067950
    40  H    1.088508   4.474867   5.739920   6.107084   5.414870
    41  H    2.120433   2.569454   3.945707   4.754818   4.619644
    42  H    3.946625   1.089312   2.117625   3.351968   3.911711
    43  H    5.758497   2.146424   1.085843   2.148094   3.455551
    44  H    6.143511   3.348052   2.115067   1.089437   2.195201
    45  H    4.674912   3.526341   3.136163   2.040612   1.137303
                   31         32         33         34         35
    31  H    0.000000
    32  H    2.439118   0.000000
    33  H    5.000088   2.794311   0.000000
    34  H    6.852744   5.044558   2.491834   0.000000
    35  H    8.273214   7.085255   5.049717   2.797941   0.000000
    36  H    8.825832   8.291448   6.891749   5.047786   2.491221
    37  H    8.590989   8.829690   8.268456   7.053567   5.010803
    38  H    8.929255   9.765820   9.820208   9.032879   7.297300
    39  H    8.730333  10.107391  10.790434  10.504216   9.215380
    40  H    8.079304   9.890845  11.148156  11.369614  10.587979
    41  H    6.984659   9.147329  10.940586  11.681422  11.463933
    42  H    5.646939   8.026657  10.240671  11.434997  11.752672
    43  H    4.091535   6.518018   9.029463  10.614235  11.449048
    44  H    2.148295   4.418787   6.803826   8.407072   9.430599
    45  H    3.377868   5.037284   6.588739   7.479173   7.814446
                   36         37         38         39         40
    36  H    0.000000
    37  H    2.759859   0.000000
    38  H    5.151111   2.399903   0.000000
    39  H    7.327432   4.667560   2.415837   0.000000
    40  H    9.046114   6.596188   4.607778   2.322228   0.000000
    41  H   10.350600   8.231286   6.618496   4.591917   2.401579
    42  H   11.086631   9.373559   8.195684   6.520067   4.571734
    43  H   11.265166  10.055686   9.396716   8.186592   6.607801
    44  H    9.557592   8.818304   8.719323   8.134571   7.179103
    45  H    7.493660   6.498218   6.416177   6.134848   5.732346
                   41         42         43         44         45
    41  H    0.000000
    42  H    2.297591   0.000000
    43  H    4.601161   2.437404   0.000000
    44  H    5.804452   4.223470   2.434186   0.000000
    45  H    5.168653   4.582356   4.034660   2.487961   0.000000
 Stoichiometry    C30H15(2)
 Framework group  C1[X(C30H15)]
 Deg. of freedom   129
 Full point group                 C1      NOp   1
 Largest Abelian subgroup         C1      NOp   1
 Largest concise Abelian subgroup C1      NOp   1
                         Standard orientation:                         
 ---------------------------------------------------------------------
 Center     Atomic      Atomic             Coordinates (Angstroms)
 Number     Number       Type             X           Y           Z
 ---------------------------------------------------------------------
      1          6           0        0.683969   -0.904242    0.055880
      2          6           0        0.563799    0.527693    0.172366
      3          6           0        1.869485    1.009502    0.164969
      4          6           0        2.040690   -1.174352   -0.067244
      5          6           0        2.735696   -0.019762    0.023805
      6          6           0        2.647782   -2.399770   -0.251439
      7          6           0        4.071696   -2.372890   -0.336257
      8          6           0        4.793482   -1.145389   -0.235931
      9          6           0        4.113790    0.092099   -0.057371
     10          6           0        2.285176    2.320416    0.207228
     11          6           0        3.697174    2.524987    0.164732
     12          6           0        4.597929    1.425819    0.037163
     13          6           0       -0.228365   -1.930783    0.077995
     14          6           0        0.332262   -3.223453   -0.172216
     15          6           0        1.730921   -3.462587   -0.332326
     16          6           0       -0.514051    1.392693    0.140908
     17          6           0       -0.140222    2.788118    0.160858
     18          6           0        1.217320    3.233323    0.236012
     19          6           0       -1.889106    0.948433    0.005815
     20          6           0       -2.818854    2.009669   -0.205955
     21          6           0       -2.446654    3.359235   -0.165630
     22          6           0       -1.132325    3.745837    0.042939
     23          6           0       -2.416091   -0.447315    0.071330
     24          6           0       -3.817712   -0.615844   -0.181177
     25          6           0       -4.642657    0.462075   -0.480044
     26          6           0       -4.158416    1.755175   -0.464536
     27          6           0       -4.465983   -1.855352   -0.093036
     28          6           0       -3.806543   -2.987803    0.338922
     29          6           0       -2.464076   -2.897562    0.651058
     30          6           0       -1.707143   -1.688126    0.479445
     31          1           0       -0.311327   -4.098306   -0.235862
     32          1           0        2.083693   -4.476751   -0.500354
     33          1           0        4.618696   -3.301337   -0.482035
     34          1           0        5.878147   -1.158077   -0.310403
     35          1           0        5.667209    1.616026   -0.013200
     36          1           0        4.094838    3.536562    0.199808
     37          1           0        1.442485    4.297954    0.245856
     38          1           0       -0.895031    4.807093    0.055243
     39          1           0       -3.190034    4.143487   -0.303715
     40          1           0       -4.858483    2.566776   -0.654434
     41          1           0       -5.703674    0.318963   -0.678328
     42          1           0       -5.529930   -1.942244   -0.309984
     43          1           0       -4.339979   -3.926100    0.457655
     44          1           0       -1.988262   -3.783752    1.069557
     45          1           0       -1.366188   -1.419351    1.530620
 ---------------------------------------------------------------------
 Rotational constants (GHZ):           0.2802090           0.1572196           0.1018889
 Standard basis: 6-311+G(d,p) (5D, 7F)
 There are   780 symmetry adapted cartesian basis functions of A   symmetry.
 There are   750 symmetry adapted basis functions of A   symmetry.
   750 basis functions,  1200 primitive gaussians,   780 cartesian basis functions
    98 alpha electrons       97 beta electrons
       nuclear repulsion energy      2613.4989227100 Hartrees.
 NAtoms=   45 NActive=   45 NUniq=   45 SFac= 1.00D+00 NAtFMM=   60 NAOKFM=F Big=F
 Integral buffers will be    131072 words long.
 Raffenetti 2 integral format.
 Two-electron integral symmetry is turned on.
 One-electron integrals computed using PRISM.
 NBasis=   750 RedAO= T EigKep=  1.00D-06  NBF=   750
 NBsUse=   727 1.00D-06 EigRej=  8.25D-07 NBFU=   727
 ExpMin= 4.38D-02 ExpMax= 4.56D+03 ExpMxC= 6.82D+02 IAcc=2 IRadAn=         4 AccDes= 0.00D+00
 Harris functional with IExCor=  402 and IRadAn=       4 diagonalized for initial guess.
 HarFok:  IExCor=  402 AccDes= 0.00D+00 IRadAn=         4 IDoV= 1 UseB2=F ITyADJ=14
 ICtDFT=  3500011 ScaDFX=  1.000000  1.000000  1.000000  1.000000
 FoFCou: FMM=F IPFlag=           0 FMFlag=      100000 FMFlg1=           0
         NFxFlg=           0 DoJE=T BraDBF=F KetDBF=T FulRan=T
         wScrn=  0.000000 ICntrl=       500 IOpCl=  0 I1Cent=   200000004 NGrid=           0
         NMat0=    1 NMatS0=      1 NMatT0=    0 NMatD0=    1 NMtDS0=    0 NMtDT0=    0
 Petite list used in FoFCou.
 Initial guess <Sx>= 0.0000 <Sy>= 0.0000 <Sz>= 0.5000 <S**2>= 0.7500 S= 0.5000
 Requested convergence on RMS density matrix=1.00D-08 within 128 cycles.
 Requested convergence on MAX density matrix=1.00D-06.
 Requested convergence on             energy=1.00D-06.
 No special actions if energy rises.
 Restarting incremental Fock formation.
 SCF Done:  E(UB3LYP) =  -1152.44509188     A.U. after   25 cycles
            NFock= 25  Conv=0.66D-08     -V/T= 2.0038
 <Sx>= 0.0000 <Sy>= 0.0000 <Sz>= 0.5000 <S**2>= 0.7869 S= 0.5183
 <L.S>=  0.00000000000    
 Annihilation of the first spin contaminant:
 S**2 before annihilation     0.7869,   after     0.7510

 **********************************************************************

            Population analysis using the SCF Density.

 **********************************************************************

 Orbital symmetries:
 Alpha Orbitals:
       Occupied  (A) (A) (A) (A) (A) (A) (A) (A) (A) (A) (A) (A)
                 (A) (A) (A) (A) (A) (A) (A) (A) (A) (A) (A) (A)
                 (A) (A) (A) (A) (A) (A) (A) (A) (A) (A) (A) (A)
                 (A) (A) (A) (A) (A) (A) (A) (A) (A) (A) (A) (A)
                 (A) (A) (A) (A) (A) (A) (A) (A) (A) (A) (A) (A)
                 (A) (A) (A) (A) (A) (A) (A) (A) (A) (A) (A) (A)
                 (A) (A) (A) (A) (A) (A) (A) (A) (A) (A) (A) (A)
                 (A) (A) (A) (A) (A) (A) (A) (A) (A) (A) (A) (A)
                 (A) (A)
       Virtual   (A) (A) (A) (A) (A) (A) (A) (A) (A) (A) (A) (A)
                 (A) (A) (A) (A) (A) (A) (A) (A) (A) (A) (A) (A)
                 (A) (A) (A) (A) (A) (A) (A) (A) (A) (A) (A) (A)
                 (A) (A) (A) (A) (A) (A) (A) (A) (A) (A) (A) (A)
                 (A) (A) (A) (A) (A) (A) (A) (A) (A) (A) (A) (A)
                 (A) (A) (A) (A) (A) (A) (A) (A) (A) (A) (A) (A)
                 (A) (A) (A) (A) (A) (A) (A) (A) (A) (A) (A) (A)
                 (A) (A) (A) (A) (A) (A) (A) (A) (A) (A) (A) (A)
                 (A) (A) (A) (A) (A) (A) (A) (A) (A) (A) (A) (A)
                 (A) (A) (A) (A) (A) (A) (A) (A) (A) (A) (A) (A)
                 (A) (A) (A) (A) (A) (A) (A) (A) (A) (A) (A) (A)
                 (A) (A) (A) (A) (A) (A) (A) (A) (A) (A) (A) (A)
                 (A) (A) (A) (A) (A) (A) (A) (A) (A) (A) (A) (A)
                 (A) (A) (A) (A) (A) (A) (A) (A) (A) (A) (A) (A)
                 (A) (A) (A) (A) (A) (A) (A) (A) (A) (A) (A) (A)
                 (A) (A) (A) (A) (A) (A) (A) (A) (A) (A) (A) (A)
                 (A) (A) (A) (A) (A) (A) (A) (A) (A) (A) (A) (A)
                 (A) (A) (A) (A) (A) (A) (A) (A) (A) (A) (A) (A)
                 (A) (A) (A) (A) (A) (A) (A) (A) (A) (A) (A) (A)
                 (A) (A) (A) (A) (A) (A) (A) (A) (A) (A) (A) (A)
                 (A) (A) (A) (A) (A) (A) (A) (A) (A) (A) (A) (A)
                 (A) (A) (A) (A) (A) (A) (A) (A) (A) (A) (A) (A)
                 (A) (A) (A) (A) (A) (A) (A) (A) (A) (A) (A) (A)
                 (A) (A) (A) (A) (A) (A) (A) (A) (A) (A) (A) (A)
                 (A) (A) (A) (A) (A) (A) (A) (A) (A) (A) (A) (A)
                 (A) (A) (A) (A) (A) (A) (A) (A) (A) (A) (A) (A)
                 (A) (A) (A) (A) (A) (A) (A) (A) (A) (A) (A) (A)
                 (A) (A) (A) (A) (A) (A) (A) (A) (A) (A) (A) (A)
                 (A) (A) (A) (A) (A) (A) (A) (A) (A) (A) (A) (A)
                 (A) (A) (A) (A) (A) (A) (A) (A) (A) (A) (A) (A)
                 (A) (A) (A) (A) (A) (A) (A) (A) (A) (A) (A) (A)
                 (A) (A) (A) (A) (A) (A) (A) (A) (A) (A) (A) (A)
                 (A) (A) (A) (A) (A) (A) (A) (A) (A) (A) (A) (A)
                 (A) (A) (A) (A) (A) (A) (A) (A) (A) (A) (A) (A)
                 (A) (A) (A) (A) (A) (A) (A) (A) (A) (A) (A) (A)
                 (A) (A) (A) (A) (A) (A) (A) (A) (A) (A) (A) (A)
                 (A) (A) (A) (A) (A) (A) (A) (A) (A) (A) (A) (A)
                 (A) (A) (A) (A) (A) (A) (A) (A) (A) (A) (A) (A)
                 (A) (A) (A) (A) (A) (A) (A) (A) (A) (A) (A) (A)
                 (A) (A) (A) (A) (A) (A) (A) (A) (A) (A) (A) (A)
                 (A) (A) (A) (A) (A) (A) (A) (A) (A) (A) (A) (A)
                 (A) (A) (A) (A) (A) (A) (A) (A) (A) (A) (A) (A)
                 (A) (A) (A) (A) (A) (A) (A) (A) (A) (A) (A) (A)
                 (A) (A) (A) (A) (A) (A) (A) (A) (A) (A) (A) (A)
                 (A) (A) (A) (A) (A) (A) (A) (A) (A) (A) (A) (A)
                 (A) (A) (A) (A) (A) (A) (A) (A) (A) (A) (A) (A)
                 (A) (A) (A) (A) (A) (A) (A) (A) (A) (A) (A) (A)
                 (A) (A) (A) (A) (A) (A) (A) (A) (A) (A) (A) (A)
                 (A) (A) (A) (A) (A) (A) (A) (A) (A) (A) (A) (A)
                 (A) (A) (A) (A) (A) (A) (A) (A) (A) (A) (A) (A)
                 (A) (A) (A) (A) (A) (A) (A) (A) (A) (A) (A) (A)
                 (A) (A) (A) (A) (A) (A) (A) (A) (A) (A) (A) (A)
                 (A) (A) (A) (A) (A)
 Beta  Orbitals:
       Occupied  (A) (A) (A) (A) (A) (A) (A) (A) (A) (A) (A) (A)
                 (A) (A) (A) (A) (A) (A) (A) (A) (A) (A) (A) (A)
                 (A) (A) (A) (A) (A) (A) (A) (A) (A) (A) (A) (A)
                 (A) (A) (A) (A) (A) (A) (A) (A) (A) (A) (A) (A)
                 (A) (A) (A) (A) (A) (A) (A) (A) (A) (A) (A) (A)
                 (A) (A) (A) (A) (A) (A) (A) (A) (A) (A) (A) (A)
                 (A) (A) (A) (A) (A) (A) (A) (A) (A) (A) (A) (A)
                 (A) (A) (A) (A) (A) (A) (A) (A) (A) (A) (A) (A)
                 (A)
       Virtual   (A) (A) (A) (A) (A) (A) (A) (A) (A) (A) (A) (A)
                 (A) (A) (A) (A) (A) (A) (A) (A) (A) (A) (A) (A)
                 (A) (A) (A) (A) (A) (A) (A) (A) (A) (A) (A) (A)
                 (A) (A) (A) (A) (A) (A) (A) (A) (A) (A) (A) (A)
                 (A) (A) (A) (A) (A) (A) (A) (A) (A) (A) (A) (A)
                 (A) (A) (A) (A) (A) (A) (A) (A) (A) (A) (A) (A)
                 (A) (A) (A) (A) (A) (A) (A) (A) (A) (A) (A) (A)
                 (A) (A) (A) (A) (A) (A) (A) (A) (A) (A) (A) (A)
                 (A) (A) (A) (A) (A) (A) (A) (A) (A) (A) (A) (A)
                 (A) (A) (A) (A) (A) (A) (A) (A) (A) (A) (A) (A)
                 (A) (A) (A) (A) (A) (A) (A) (A) (A) (A) (A) (A)
                 (A) (A) (A) (A) (A) (A) (A) (A) (A) (A) (A) (A)
                 (A) (A) (A) (A) (A) (A) (A) (A) (A) (A) (A) (A)
                 (A) (A) (A) (A) (A) (A) (A) (A) (A) (A) (A) (A)
                 (A) (A) (A) (A) (A) (A) (A) (A) (A) (A) (A) (A)
                 (A) (A) (A) (A) (A) (A) (A) (A) (A) (A) (A) (A)
                 (A) (A) (A) (A) (A) (A) (A) (A) (A) (A) (A) (A)
                 (A) (A) (A) (A) (A) (A) (A) (A) (A) (A) (A) (A)
                 (A) (A) (A) (A) (A) (A) (A) (A) (A) (A) (A) (A)
                 (A) (A) (A) (A) (A) (A) (A) (A) (A) (A) (A) (A)
                 (A) (A) (A) (A) (A) (A) (A) (A) (A) (A) (A) (A)
                 (A) (A) (A) (A) (A) (A) (A) (A) (A) (A) (A) (A)
                 (A) (A) (A) (A) (A) (A) (A) (A) (A) (A) (A) (A)
                 (A) (A) (A) (A) (A) (A) (A) (A) (A) (A) (A) (A)
                 (A) (A) (A) (A) (A) (A) (A) (A) (A) (A) (A) (A)
                 (A) (A) (A) (A) (A) (A) (A) (A) (A) (A) (A) (A)
                 (A) (A) (A) (A) (A) (A) (A) (A) (A) (A) (A) (A)
                 (A) (A) (A) (A) (A) (A) (A) (A) (A) (A) (A) (A)
                 (A) (A) (A) (A) (A) (A) (A) (A) (A) (A) (A) (A)
                 (A) (A) (A) (A) (A) (A) (A) (A) (A) (A) (A) (A)
                 (A) (A) (A) (A) (A) (A) (A) (A) (A) (A) (A) (A)
                 (A) (A) (A) (A) (A) (A) (A) (A) (A) (A) (A) (A)
                 (A) (A) (A) (A) (A) (A) (A) (A) (A) (A) (A) (A)
                 (A) (A) (A) (A) (A) (A) (A) (A) (A) (A) (A) (A)
                 (A) (A) (A) (A) (A) (A) (A) (A) (A) (A) (A) (A)
                 (A) (A) (A) (A) (A) (A) (A) (A) (A) (A) (A) (A)
                 (A) (A) (A) (A) (A) (A) (A) (A) (A) (A) (A) (A)
                 (A) (A) (A) (A) (A) (A) (A) (A) (A) (A) (A) (A)
                 (A) (A) (A) (A) (A) (A) (A) (A) (A) (A) (A) (A)
                 (A) (A) (A) (A) (A) (A) (A) (A) (A) (A) (A) (A)
                 (A) (A) (A) (A) (A) (A) (A) (A) (A) (A) (A) (A)
                 (A) (A) (A) (A) (A) (A) (A) (A) (A) (A) (A) (A)
                 (A) (A) (A) (A) (A) (A) (A) (A) (A) (A) (A) (A)
                 (A) (A) (A) (A) (A) (A) (A) (A) (A) (A) (A) (A)
                 (A) (A) (A) (A) (A) (A) (A) (A) (A) (A) (A) (A)
                 (A) (A) (A) (A) (A) (A) (A) (A) (A) (A) (A) (A)
                 (A) (A) (A) (A) (A) (A) (A) (A) (A) (A) (A) (A)
                 (A) (A) (A) (A) (A) (A) (A) (A) (A) (A) (A) (A)
                 (A) (A) (A) (A) (A) (A) (A) (A) (A) (A) (A) (A)
                 (A) (A) (A) (A) (A) (A) (A) (A) (A) (A) (A) (A)
                 (A) (A) (A) (A) (A) (A) (A) (A) (A) (A) (A) (A)
                 (A) (A) (A) (A) (A) (A) (A) (A) (A) (A) (A) (A)
                 (A) (A) (A) (A) (A) (A)
 The electronic state is 2-A.
 Alpha  occ. eigenvalues --  -10.21429 -10.21078 -10.20732 -10.20708 -10.20025
 Alpha  occ. eigenvalues --  -10.19395 -10.19393 -10.19337 -10.19289 -10.19147
 Alpha  occ. eigenvalues --  -10.19095 -10.19011 -10.18963 -10.18923 -10.18889
 Alpha  occ. eigenvalues --  -10.18810 -10.18580 -10.18523 -10.18435 -10.17930
 Alpha  occ. eigenvalues --  -10.17927 -10.17857 -10.17808 -10.17803 -10.17747
 Alpha  occ. eigenvalues --  -10.17745 -10.17552 -10.15810 -10.15742 -10.15663
 Alpha  occ. eigenvalues --   -0.93432  -0.89822  -0.88232  -0.85833  -0.85343
 Alpha  occ. eigenvalues --   -0.83096  -0.81070  -0.80783  -0.79031  -0.76522
 Alpha  occ. eigenvalues --   -0.76109  -0.74926  -0.72597  -0.71650  -0.71009
 Alpha  occ. eigenvalues --   -0.67243  -0.66304  -0.64160  -0.63445  -0.62328
 Alpha  occ. eigenvalues --   -0.61361  -0.60332  -0.58797  -0.56846  -0.55282
 Alpha  occ. eigenvalues --   -0.53225  -0.52075  -0.51479  -0.50794  -0.50478
 Alpha  occ. eigenvalues --   -0.49833  -0.47752  -0.47079  -0.46643  -0.45367
 Alpha  occ. eigenvalues --   -0.45025  -0.44690  -0.44364  -0.43685  -0.43582
 Alpha  occ. eigenvalues --   -0.42771  -0.42303  -0.41383  -0.41071  -0.40634
 Alpha  occ. eigenvalues --   -0.40096  -0.39868  -0.39060  -0.38304  -0.37397
 Alpha  occ. eigenvalues --   -0.37050  -0.35883  -0.35576  -0.35383  -0.34542
 Alpha  occ. eigenvalues --   -0.34196  -0.33558  -0.33035  -0.32766  -0.31205
 Alpha  occ. eigenvalues --   -0.29702  -0.28015  -0.26970  -0.25053  -0.22714
 Alpha  occ. eigenvalues --   -0.22051  -0.20834  -0.16861
 Alpha virt. eigenvalues --   -0.09571  -0.05979  -0.04592  -0.03061  -0.00988
 Alpha virt. eigenvalues --   -0.00298   0.00146   0.00549   0.00675   0.01523
 Alpha virt. eigenvalues --    0.01620   0.02008   0.02074   0.02837   0.02949
 Alpha virt. eigenvalues --    0.03368   0.03993   0.04430   0.04519   0.04753
 Alpha virt. eigenvalues --    0.04798   0.04860   0.05418   0.05864   0.06637
 Alpha virt. eigenvalues --    0.06883   0.06942   0.07598   0.07829   0.08377
 Alpha virt. eigenvalues --    0.08904   0.09026   0.09134   0.09534   0.09690
 Alpha virt. eigenvalues --    0.09913   0.10484   0.10872   0.11418   0.11791
 Alpha virt. eigenvalues --    0.11852   0.12138   0.12342   0.12698   0.12982
 Alpha virt. eigenvalues --    0.13306   0.13595   0.14327   0.14687   0.14809
 Alpha virt. eigenvalues --    0.14921   0.15388   0.15964   0.16042   0.16101
 Alpha virt. eigenvalues --    0.16530   0.16639   0.16800   0.17014   0.17069
 Alpha virt. eigenvalues --    0.17197   0.17272   0.17905   0.18112   0.18180
 Alpha virt. eigenvalues --    0.18417   0.18745   0.18931   0.18993   0.19521
 Alpha virt. eigenvalues --    0.19613   0.19727   0.20146   0.20218   0.20386
 Alpha virt. eigenvalues --    0.20549   0.20753   0.21010   0.21552   0.21616
 Alpha virt. eigenvalues --    0.21834   0.22038   0.22386   0.22676   0.22736
 Alpha virt. eigenvalues --    0.23075   0.23360   0.23502   0.23807   0.23815
 Alpha virt. eigenvalues --    0.24065   0.24179   0.24412   0.24780   0.25023
 Alpha virt. eigenvalues --    0.25240   0.25293   0.25621   0.25804   0.26021
 Alpha virt. eigenvalues --    0.26479   0.26707   0.26845   0.27301   0.27715
 Alpha virt. eigenvalues --    0.27850   0.28156   0.28942   0.28992   0.29265
 Alpha virt. eigenvalues --    0.29369   0.29715   0.29887   0.29975   0.30269
 Alpha virt. eigenvalues --    0.30590   0.30816   0.31096   0.31406   0.31982
 Alpha virt. eigenvalues --    0.32525   0.33134   0.33402   0.33510   0.33929
 Alpha virt. eigenvalues --    0.34147   0.34207   0.34435   0.34800   0.35403
 Alpha virt. eigenvalues --    0.35647   0.36231   0.36298   0.36668   0.37574
 Alpha virt. eigenvalues --    0.37772   0.38435   0.39367   0.39559   0.39824
 Alpha virt. eigenvalues --    0.40133   0.40788   0.41084   0.41696   0.42427
 Alpha virt. eigenvalues --    0.42783   0.43921   0.44049   0.44753   0.45685
 Alpha virt. eigenvalues --    0.45970   0.46812   0.47184   0.47438   0.48720
 Alpha virt. eigenvalues --    0.49688   0.49834   0.50348   0.51101   0.51944
 Alpha virt. eigenvalues --    0.52368   0.52544   0.53048   0.53525   0.53869
 Alpha virt. eigenvalues --    0.54191   0.54647   0.55055   0.55352   0.55542
 Alpha virt. eigenvalues --    0.56005   0.56067   0.56804   0.57037   0.57324
 Alpha virt. eigenvalues --    0.57810   0.58143   0.58481   0.59050   0.59552
 Alpha virt. eigenvalues --    0.59889   0.60114   0.60370   0.61084   0.61286
 Alpha virt. eigenvalues --    0.61638   0.62006   0.62210   0.62486   0.63167
 Alpha virt. eigenvalues --    0.63500   0.64201   0.64283   0.64585   0.65079
 Alpha virt. eigenvalues --    0.65414   0.66168   0.66372   0.66626   0.66934
 Alpha virt. eigenvalues --    0.67176   0.67595   0.67842   0.68163   0.68504
 Alpha virt. eigenvalues --    0.68777   0.69964   0.70290   0.70842   0.70923
 Alpha virt. eigenvalues --    0.71495   0.71744   0.72087   0.72560   0.73025
 Alpha virt. eigenvalues --    0.73363   0.73414   0.73679   0.73961   0.74237
 Alpha virt. eigenvalues --    0.74645   0.75096   0.75853   0.75998   0.76609
 Alpha virt. eigenvalues --    0.76960   0.77200   0.77428   0.78205   0.78619
 Alpha virt. eigenvalues --    0.79062   0.79833   0.80966   0.81387   0.82394
 Alpha virt. eigenvalues --    0.83212   0.83251   0.84089   0.85314   0.86564
 Alpha virt. eigenvalues --    0.86943   0.87895   0.88651   0.88972   0.89291
 Alpha virt. eigenvalues --    0.89519   0.90254   0.90617   0.90730   0.91659
 Alpha virt. eigenvalues --    0.91900   0.92574   0.93071   0.93401   0.93946
 Alpha virt. eigenvalues --    0.94222   0.94540   0.95158   0.95627   0.96039
 Alpha virt. eigenvalues --    0.96240   0.96390   0.96887   0.97415   0.97804
 Alpha virt. eigenvalues --    0.98041   0.98283   0.98944   0.99501   0.99549
 Alpha virt. eigenvalues --    1.00102   1.00548   1.01382   1.01437   1.02345
 Alpha virt. eigenvalues --    1.02771   1.03423   1.03706   1.04511   1.05065
 Alpha virt. eigenvalues --    1.05490   1.05734   1.06807   1.07101   1.07843
 Alpha virt. eigenvalues --    1.08177   1.08975   1.09560   1.10550   1.11094
 Alpha virt. eigenvalues --    1.11207   1.12649   1.13206   1.14132   1.15156
 Alpha virt. eigenvalues --    1.15834   1.16271   1.16562   1.17435   1.17776
 Alpha virt. eigenvalues --    1.18802   1.19679   1.20878   1.21696   1.23515
 Alpha virt. eigenvalues --    1.25363   1.26033   1.27528   1.30045   1.30746
 Alpha virt. eigenvalues --    1.31009   1.33062   1.33835   1.34939   1.36633
 Alpha virt. eigenvalues --    1.37061   1.38936   1.39507   1.40811   1.42189
 Alpha virt. eigenvalues --    1.42541   1.43481   1.44955   1.45256   1.46611
 Alpha virt. eigenvalues --    1.47314   1.47598   1.48408   1.48437   1.48942
 Alpha virt. eigenvalues --    1.49430   1.49691   1.50065   1.50573   1.51503
 Alpha virt. eigenvalues --    1.51799   1.52493   1.52644   1.53381   1.55195
 Alpha virt. eigenvalues --    1.55476   1.56456   1.57124   1.57543   1.58275
 Alpha virt. eigenvalues --    1.58737   1.59402   1.59726   1.60277   1.60904
 Alpha virt. eigenvalues --    1.61761   1.62207   1.64128   1.64473   1.64833
 Alpha virt. eigenvalues --    1.66869   1.67432   1.67744   1.68722   1.69461
 Alpha virt. eigenvalues --    1.69839   1.71490   1.72192   1.73212   1.73583
 Alpha virt. eigenvalues --    1.73967   1.74378   1.74997   1.75565   1.76211
 Alpha virt. eigenvalues --    1.76973   1.77997   1.78687   1.79381   1.80247
 Alpha virt. eigenvalues --    1.80508   1.81823   1.82366   1.83463   1.84205
 Alpha virt. eigenvalues --    1.84477   1.85357   1.85873   1.85932   1.86515
 Alpha virt. eigenvalues --    1.87164   1.87532   1.87968   1.88568   1.89047
 Alpha virt. eigenvalues --    1.89458   1.89681   1.90314   1.91050   1.91821
 Alpha virt. eigenvalues --    1.92378   1.92505   1.93730   1.94669   1.95046
 Alpha virt. eigenvalues --    1.95720   1.96271   1.97424   1.98181   1.98810
 Alpha virt. eigenvalues --    1.99059   2.00229   2.00919   2.01383   2.01561
 Alpha virt. eigenvalues --    2.01951   2.03177   2.03754   2.04376   2.05761
 Alpha virt. eigenvalues --    2.06053   2.06740   2.07020   2.08388   2.09812
 Alpha virt. eigenvalues --    2.10940   2.11423   2.11669   2.12742   2.14382
 Alpha virt. eigenvalues --    2.14723   2.15511   2.16511   2.16807   2.17295
 Alpha virt. eigenvalues --    2.17459   2.19279   2.20963   2.22432   2.23043
 Alpha virt. eigenvalues --    2.23328   2.23795   2.25580   2.26157   2.26975
 Alpha virt. eigenvalues --    2.28311   2.28964   2.30095   2.30400   2.33248
 Alpha virt. eigenvalues --    2.34507   2.35736   2.36478   2.37824   2.38334
 Alpha virt. eigenvalues --    2.40806   2.42186   2.42723   2.43262   2.45239
 Alpha virt. eigenvalues --    2.46267   2.47237   2.47645   2.48924   2.50485
 Alpha virt. eigenvalues --    2.52903   2.53958   2.55911   2.57613   2.58126
 Alpha virt. eigenvalues --    2.58882   2.59619   2.61089   2.63696   2.63912
 Alpha virt. eigenvalues --    2.64466   2.65072   2.66619   2.67194   2.67935
 Alpha virt. eigenvalues --    2.69367   2.69703   2.69881   2.71256   2.72176
 Alpha virt. eigenvalues --    2.72655   2.73112   2.73439   2.73704   2.74004
 Alpha virt. eigenvalues --    2.74523   2.74866   2.75313   2.75868   2.76626
 Alpha virt. eigenvalues --    2.77091   2.77350   2.77382   2.77636   2.77906
 Alpha virt. eigenvalues --    2.78221   2.79357   2.79710   2.80780   2.81648
 Alpha virt. eigenvalues --    2.81910   2.83370   2.84328   2.84905   2.85390
 Alpha virt. eigenvalues --    2.85963   2.86329   2.87598   2.88105   2.88770
 Alpha virt. eigenvalues --    2.89981   2.90769   2.90944   2.92447   2.93082
 Alpha virt. eigenvalues --    2.94250   2.94750   2.97169   2.98904   3.00486
 Alpha virt. eigenvalues --    3.01373   3.03140   3.03893   3.04461   3.05930
 Alpha virt. eigenvalues --    3.08377   3.08685   3.11690   3.13681   3.14507
 Alpha virt. eigenvalues --    3.16568   3.18024   3.18864   3.20524   3.20975
 Alpha virt. eigenvalues --    3.22754   3.23223   3.23486   3.25108   3.26513
 Alpha virt. eigenvalues --    3.30891   3.32964   3.34984   3.36615   3.37111
 Alpha virt. eigenvalues --    3.39439   3.40282   3.41824   3.42780   3.43499
 Alpha virt. eigenvalues --    3.44333   3.46263   3.47169   3.47585   3.48424
 Alpha virt. eigenvalues --    3.48822   3.49524   3.50330   3.53390   3.53834
 Alpha virt. eigenvalues --    3.56566   3.56909   3.59324   3.60956   3.63118
 Alpha virt. eigenvalues --    3.64974   3.65518   3.70030   3.71620   3.74780
 Alpha virt. eigenvalues --    3.76388   3.82691   3.86888   3.89904   3.91438
 Alpha virt. eigenvalues --    3.97452   4.04502   4.07128   4.07357   4.08672
 Alpha virt. eigenvalues --    4.09670   4.10952   4.12086   4.13378   4.22021
 Alpha virt. eigenvalues --    4.26027   4.31214   4.34648   4.45052   4.54025
 Alpha virt. eigenvalues --    4.70186   4.78065   4.79527   4.80572   4.81900
 Alpha virt. eigenvalues --    4.83593   4.86434   4.90861   4.93608  23.38808
 Alpha virt. eigenvalues --   23.60757  23.71599  23.79406  23.83789  23.85699
 Alpha virt. eigenvalues --   23.88844  23.88989  23.91974  23.93081  23.95376
 Alpha virt. eigenvalues --   23.96229  23.98571  24.00073  24.00478  24.04047
 Alpha virt. eigenvalues --   24.04766  24.05029  24.06886  24.08242  24.08693
 Alpha virt. eigenvalues --   24.08911  24.10751  24.15223  24.16773  24.18310
 Alpha virt. eigenvalues --   24.19577  24.19904  24.25828  24.35662
  Beta  occ. eigenvalues --  -10.21157 -10.21105 -10.20831 -10.20593 -10.19974
  Beta  occ. eigenvalues --  -10.19430 -10.19380 -10.19326 -10.19304 -10.19147
  Beta  occ. eigenvalues --  -10.19085 -10.19085 -10.19017 -10.18910 -10.18802
  Beta  occ. eigenvalues --  -10.18765 -10.18601 -10.18433 -10.18022 -10.17946
  Beta  occ. eigenvalues --  -10.17864 -10.17849 -10.17837 -10.17793 -10.17782
  Beta  occ. eigenvalues --  -10.17541 -10.17105 -10.15793 -10.15739 -10.15667
  Beta  occ. eigenvalues --   -0.93414  -0.89582  -0.88019  -0.85689  -0.85208
  Beta  occ. eigenvalues --   -0.82976  -0.80872  -0.80621  -0.78830  -0.76303
  Beta  occ. eigenvalues --   -0.75927  -0.74720  -0.72503  -0.71447  -0.70917
  Beta  occ. eigenvalues --   -0.67123  -0.65926  -0.63866  -0.63377  -0.62136
  Beta  occ. eigenvalues --   -0.61126  -0.60303  -0.58676  -0.56732  -0.55172
  Beta  occ. eigenvalues --   -0.53140  -0.51935  -0.51394  -0.50682  -0.50375
  Beta  occ. eigenvalues --   -0.49634  -0.47549  -0.46959  -0.46232  -0.45185
  Beta  occ. eigenvalues --   -0.44956  -0.44585  -0.44278  -0.43612  -0.43336
  Beta  occ. eigenvalues --   -0.42603  -0.42273  -0.41260  -0.40970  -0.40466
  Beta  occ. eigenvalues --   -0.40034  -0.39810  -0.38918  -0.38160  -0.37152
  Beta  occ. eigenvalues --   -0.36690  -0.35662  -0.35497  -0.35328  -0.34458
  Beta  occ. eigenvalues --   -0.33769  -0.33466  -0.32893  -0.32112  -0.30926
  Beta  occ. eigenvalues --   -0.29112  -0.27795  -0.26399  -0.24560  -0.22643
  Beta  occ. eigenvalues --   -0.21628  -0.20552
  Beta virt. eigenvalues --   -0.09702  -0.08932  -0.05677  -0.04011  -0.02885
  Beta virt. eigenvalues --   -0.00752  -0.00020   0.00248   0.00565   0.00681
  Beta virt. eigenvalues --    0.01535   0.01633   0.02035   0.02134   0.02836
  Beta virt. eigenvalues --    0.02971   0.03839   0.04020   0.04520   0.04571
  Beta virt. eigenvalues --    0.04782   0.04832   0.05221   0.05461   0.05882
  Beta virt. eigenvalues --    0.06714   0.06937   0.06963   0.07649   0.08004
  Beta virt. eigenvalues --    0.08440   0.08945   0.09091   0.09210   0.09608
  Beta virt. eigenvalues --    0.09757   0.09938   0.10547   0.10926   0.11503
  Beta virt. eigenvalues --    0.11875   0.11945   0.12192   0.12509   0.12742
  Beta virt. eigenvalues --    0.13027   0.13333   0.13686   0.14367   0.14743
  Beta virt. eigenvalues --    0.14884   0.15031   0.15435   0.16004   0.16139
  Beta virt. eigenvalues --    0.16168   0.16638   0.16705   0.16904   0.17104
  Beta virt. eigenvalues --    0.17120   0.17246   0.17410   0.17957   0.18176
  Beta virt. eigenvalues --    0.18242   0.18470   0.18820   0.19016   0.19023
  Beta virt. eigenvalues --    0.19584   0.19670   0.19819   0.20197   0.20290
  Beta virt. eigenvalues --    0.20426   0.20619   0.20814   0.21042   0.21636
  Beta virt. eigenvalues --    0.21731   0.21955   0.22072   0.22476   0.22706
  Beta virt. eigenvalues --    0.22801   0.23130   0.23457   0.23546   0.23843
  Beta virt. eigenvalues --    0.23932   0.24091   0.24243   0.24443   0.24840
  Beta virt. eigenvalues --    0.25056   0.25284   0.25377   0.25647   0.25879
  Beta virt. eigenvalues --    0.26056   0.26572   0.26789   0.26924   0.27412
  Beta virt. eigenvalues --    0.27773   0.27909   0.28193   0.28992   0.29028
  Beta virt. eigenvalues --    0.29334   0.29433   0.29759   0.29930   0.30050
  Beta virt. eigenvalues --    0.30333   0.30639   0.30938   0.31136   0.31426
  Beta virt. eigenvalues --    0.32033   0.32607   0.33196   0.33466   0.33569
[...]
 00119,-0.00002010,-0.00000417,0.00001856,0.00000613,0.00000396,0.00015
 857,0.00000311,0.00002085,-0.00002464,-0.00000852,-0.00003028,0.000020
 35,0.00002885,0.00000307,-0.00037031,0.00006069,-0.00007498,0.00001940
 ,0.00012399,-0.00002424,-0.00005281,-0.00002159,-0.00000281,0.00073547
 ,0.00109349,-0.00026768,-0.00007766,0.00021186,0.00000626,0.00010316,-
 0.00020337,0.00005126,-0.00000896,0.00010256,-0.00003680,-0.00386220,0
 .00229477,0.00134782,0.00443742,0.02092180,-0.01010371,0.00020697,0.00
 193074,-0.00166757,0.00015182,-0.00049719,0.00019176,-0.05572307,-0.01
 403771,0.01886994,0.00340661,-0.02368353,0.01058029,-0.00372035,-0.000
 05822,0.00412929,-0.00048255,-0.00002736,-0.00022438,0.00003949,0.0000
 0961,0.00004354,-0.00000427,-0.00000490,0.00000166,-0.00000223,-0.0000
 0133,-0.00000016,0.00000129,-0.00000208,0.00000033,0.00000158,-0.00000
 155,0.00000006,0.00000045,-0.00000023,0.00000098,-0.00000061,0.0000132
 0,0.00000298,-0.00000047,-0.00000310,0.00000158,-0.00001935,0.00000765
 ,0.00000185,-0.00000393,0.00001328,0.00003083,-0.00054375,-0.00049608,
 0.00040076,0.05534621,-0.00002989,-0.00003987,-0.00002369,0.00002644,0
 .00004222,0.00001303,-0.00001550,-0.00004010,0.00001215,0.00000783,0.0
 0001444,-0.00000738,0.00002545,0.00000135,-0.00000098,-0.00001768,-0.0
 0001544,-0.00000109,0.00000013,0.00001212,-0.00000047,0.00001109,-0.00
 000330,0.00000078,0.00000251,-0.00003410,-0.00000182,-0.00001112,-0.00
 001164,-0.00000094,0.00000149,0.00002693,0.00000419,-0.00002605,-0.000
 00152,-0.00000563,0.00005077,0.00013019,0.00014225,-0.00000437,-0.0000
 4103,-0.00002445,-0.00000427,-0.00000022,-0.00001487,0.00027047,-0.000
 05124,-0.00010810,-0.00006143,-0.00012418,-0.00000351,0.00004190,0.000
 02052,0.00000232,-0.00058302,-0.00073410,0.00036674,-0.00012427,0.0003
 2156,-0.00005990,0.00003589,0.00001740,-0.00001084,0.00003137,0.000048
 03,-0.00000771,0.00325662,0.00061385,0.00049529,-0.00266573,-0.0147877
 7,0.00866814,-0.00268107,0.00011950,-0.00052642,0.00049976,0.00011481,
 -0.00016204,-0.01333428,-0.27687981,0.12056352,0.00228881,-0.00256254,
 0.00166145,-0.00057558,0.00167726,0.00140627,0.00000650,0.00032312,-0.
 00053884,0.00000327,0.00000154,0.00001974,-0.00001078,-0.00000888,0.00
 000214,-0.00000604,-0.00000292,-0.00000042,-0.00000144,-0.00000577,-0.
 00000020,-0.00000105,-0.00000568,-0.00000063,0.00000455,-0.00000320,-0
 .00000009,0.00000573,-0.00001236,-0.00000080,0.00000615,-0.00000109,-0
 .00000104,0.00002521,-0.00000058,0.00000497,0.00005465,-0.00001587,0.0
 0003862,0.00066705,0.00087651,-0.00029677,0.01361511,0.29102291,-0.000
 01357,-0.00003103,-0.00001725,0.00000798,-0.00000735,0.00003243,-0.000
 01395,-0.00000414,0.00001135,0.00000798,-0.00000800,-0.00001207,0.0000
 0670,0.00001111,0.00000444,0.00000158,0.00002095,-0.00000043,-0.000006
 73,-0.00001902,-0.00000753,-0.00001019,0.00000995,-0.00000070,0.000013
 24,-0.00000748,-0.00000060,-0.00000260,-0.00000030,0.00000062,0.000001
 26,0.00001077,0.00000026,-0.00001294,-0.00000286,-0.00000213,0.0000211
 0,0.00003179,0.00009258,0.00004373,0.00000491,0.00001964,-0.00001813,-
 0.00002039,-0.00000593,-0.00004487,-0.00004244,-0.00020823,0.00001404,
 0.00000068,-0.00002377,-0.00000275,0.00000011,-0.00000206,0.00022992,-
 0.00003664,0.00021015,0.00003541,0.00009356,0.00016429,0.00001998,-0.0
 0004932,0.00000461,0.00000468,0.00002594,-0.00002016,0.00109993,0.0008
 8511,0.00259481,0.00198884,-0.00233800,0.00309317,-0.00005802,-0.00126
 291,-0.00153380,-0.00009147,-0.00027390,0.00004972,0.01631767,0.119279
 81,-0.08783131,0.00059190,0.01490898,-0.00280678,0.00400297,0.00063234
 ,0.00165594,-0.00034471,-0.00056555,-0.00040107,-0.00001986,0.00000384
 ,-0.00000520,-0.00000127,-0.00000356,0.00000352,0.00000097,0.00000004,
 0.00000129,-0.00000099,0.00000133,0.00000144,-0.00000048,0.00000128,0.
 00000077,-0.00000128,0.00000092,0.00000058,-0.00000266,0.00000107,0.00
 000374,-0.00000271,0.00000159,0.00000129,-0.00000382,0.00000270,0.0000
 0995,-0.00003207,0.00003573,0.00003418,-0.00005737,-0.00007986,0.00028
 639,-0.02243181,-0.13087840,0.08646043,0.00014372,0.00012399,0.0000462
 2,0.00000173,0.00003147,-0.00000453,0.00000751,-0.00000320,-0.00000984
 ,-0.00004062,0.00003664,-0.00002611,0.00001225,0.00001999,0.00000985,-
 0.00000114,0.00000144,0.00000035,-0.00000021,-0.00000522,0.00000431,-0
 .00000314,-0.00000258,-0.00000349,-0.00000960,0.00001960,0.00000017,-0
 .00000984,0.00000949,-0.00000423,0.00000327,-0.00002042,-0.00000352,0.
 00001602,0.00000514,0.00000469,-0.00058660,0.00040144,-0.00002659,-0.0
 0005504,-0.00000750,-0.00002130,0.00001477,-0.00000623,-0.00000450,-0.
 00002392,-0.00003532,0.00000080,-0.00002752,0.00002690,0.00000571,0.00
 000636,-0.00000033,-0.00000349,0.00003624,-0.00005901,-0.00033968,-0.0
 0000137,-0.00007879,0.00009505,0.00004598,0.00003498,0.00001639,-0.000
 03556,0.00000540,-0.00001520,0.00008590,-0.00028220,-0.00001859,-0.000
 84030,-0.00193486,0.00464938,-0.00051705,0.00098219,-0.00021831,-0.000
 36831,-0.00030425,-0.00011078,-0.01556549,0.01820982,0.00134790,-0.204
 07511,0.13902478,0.02693402,0.00491772,-0.00331269,0.00061068,0.002758
 28,-0.00009061,0.00332394,0.00000215,-0.00003726,-0.00000486,0.0000061
 8,0.00000217,0.00000314,0.00000531,0.00000235,0.00000147,0.00000146,0.
 00000562,0.00000121,0.00000026,0.00000577,0.00000158,-0.00000473,0.000
 00315,0.00000118,-0.00000404,0.00000238,0.00000474,-0.00000339,0.00000
 926,0.00000203,-0.00000327,-0.00000557,0.00000172,-0.00011304,0.000056
 14,-0.00001875,0.00000418,-0.00001000,0.00009741,0.00026788,-0.0009198
 7,-0.00131622,0.21379732,-0.00016444,-0.00017084,-0.00015389,-0.000025
 95,0.00003956,0.00000132,0.00000491,0.00000753,-0.00001030,0.00005416,
 0.00004852,-0.00002355,0.00000035,-0.00004323,0.00001079,-0.00003947,-
 0.00002184,-0.00001353,0.00000015,0.00001520,0.00000305,0.00000271,-0.
 00001076,-0.00000108,0.00000349,-0.00000712,0.00000668,0.00000934,-0.0
 0000813,-0.00000388,-0.00000008,0.00001168,0.00000456,-0.00000907,-0.0
 0000361,-0.00000323,0.00025508,0.00030180,0.00031213,0.00004518,-0.000
 14928,-0.00006207,-0.00005939,-0.00000802,-0.00001205,-0.00003093,-0.0
 0000932,-0.00000214,-0.00001628,-0.00000548,0.00001399,0.00000769,-0.0
 0000621,0.00000035,0.00001324,0.00005368,-0.00028667,0.00004026,-0.000
 08144,0.00005992,-0.00001392,0.00005123,0.00001016,0.00000338,-0.00002
 131,0.,-0.00045155,0.00001110,0.00009870,-0.00120232,0.00093495,0.0025
 2167,-0.00006752,0.00018167,-0.00007449,-0.00012723,-0.00003487,-0.000
 16026,-0.00756404,0.00816498,0.00151482,0.13880960,-0.17545843,-0.0116
 7109,0.02266009,-0.01641905,-0.00397226,-0.00071528,-0.00065490,0.0054
 3275,-0.00003246,-0.00010090,-0.00000533,-0.00002067,-0.00002927,-0.00
 000664,-0.00000636,-0.00000637,-0.00000314,-0.00000092,-0.00000456,-0.
 00000138,0.00000031,-0.00000491,-0.00000141,0.00000346,-0.00000327,-0.
 00000012,0.00000400,-0.00000271,0.00000078,0.00000427,-0.00000326,-0.0
 0000096,0.00001017,0.00000189,-0.00000135,-0.00002746,0.00001418,-0.00
 000088,0.00000941,0.00001373,0.00004847,-0.00011264,0.00021687,-0.0011
 6184,-0.15075812,0.18411017,0.00044942,0.00039386,0.00013422,0.0000568
 1,-0.00004700,0.00002951,-0.00002041,0.00003130,-0.00000098,-0.0001487
 2,0.00006794,-0.00004544,0.00003347,0.00004694,0.00001162,-0.00001023,
 0.00001080,-0.00000019,-0.00000486,-0.00002990,0.00000244,-0.00002079,
 0.00001861,-0.00000443,0.00001438,0.00000418,-0.00000011,-0.00001464,-
 0.00002043,-0.00000193,-0.00000313,0.00002842,0.00000350,-0.00001950,-
 0.00001024,-0.00000108,-0.00152325,0.00088515,-0.00008191,-0.00009430,
 -0.00003561,-0.00008324,0.00003712,-0.00001725,-0.00002395,0.00003066,
 0.00005544,-0.00005068,-0.00003207,-0.00004131,0.00001841,-0.00000328,
 0.00003381,-0.00000184,0.00001820,-0.00029112,-0.00035418,-0.00020159,
 0.00019847,0.00001213,0.00008479,-0.00014866,0.00006876,0.00003744,0.0
 0010681,-0.00003479,0.00005736,0.00060266,-0.00049352,0.00407890,0.002
 86600,0.00221466,0.00028221,-0.00086849,0.00041539,0.00033058,-0.00009
 584,-0.00035576,0.00983443,-0.01269062,0.00349297,0.02964737,-0.009380
 14,-0.05085340,-0.01148066,0.00846889,0.00639926,0.00414845,0.00379114
 ,0.00522237,0.00002198,-0.00010889,0.00007607,0.00000097,-0.00000084,0
 .00000505,0.00000169,0.00000228,0.00000191,-0.00000081,0.00000170,-0.0
 0000021,-0.00000386,0.00000242,0.00000214,-0.00000088,0.00000015,-0.00
 000015,-0.00000058,-0.00000100,0.00000338,-0.00000032,-0.00000209,0.00
 000107,-0.00000339,0.00000065,0.00000066,0.00009176,-0.00004406,0.0000
 2072,0.00000881,0.00007216,0.00006109,-0.00147034,-0.00088728,-0.00165
 880,-0.03268960,0.00959342,0.03921267,0.00002039,0.00045480,-0.0000455
 8,0.00006124,-0.00002101,0.00002457,0.00001862,-0.00001906,0.00001177,
 -0.00009048,-0.00009293,-0.00005918,-0.00003464,0.00009056,0.00000454,
 0.00007357,-0.00010114,0.00006839,0.00002229,0.00005757,0.00003499,0.0
 0006762,-0.00002245,0.00000347,-0.00008140,-0.00002019,-0.00001142,0.0
 0001675,0.00006043,-0.00000033,-0.00000197,-0.00006515,-0.00001259,0.0
 0004898,0.00003345,0.00001217,-0.00024293,-0.00040827,-0.00004368,-0.0
 0032381,-0.00019523,-0.00056203,0.00024971,0.00014979,-0.00004743,0.00
 003158,-0.00011312,-0.00002463,0.00005204,0.00007835,-0.00001955,-0.00
 002905,-0.00004086,0.00000375,-0.00055128,-0.00082236,0.00075093,-0.00
 010732,0.00015054,-0.00005946,-0.00011153,-0.00003871,-0.00000437,-0.0
 0002696,-0.00005599,0.00002427,-0.00047139,0.00390956,-0.00022663,-0.0
 0027522,0.00023188,-0.00027643,0.00020720,-0.00012407,-0.00031759,-0.0
 0015957,0.00009734,0.00003403,0.00312865,0.00113624,0.00191608,0.00211
 320,0.00189191,0.00137325,-0.22606928,-0.04689833,0.13558435,-0.014275
 93,-0.00588898,0.01117037,0.00035140,-0.00078813,-0.00022869,0.0000139
 3,0.00001700,-0.00001449,0.00000105,0.00000251,0.00000291,0.00000541,0
 .00000044,0.00000055,0.00000224,0.00000255,0.00000081,-0.00000302,0.00
 000485,0.00000340,-0.00000562,0.00000842,0.00000279,-0.00000873,0.0000
 0964,0.00000314,-0.00004536,0.00001012,-0.00002477,-0.00001357,0.00000
 485,0.00003099,-0.00002510,-0.00003511,0.00003266,-0.00003331,0.000123
 53,0.00002088,-0.00035293,-0.00142598,-0.00215846,0.23644233,0.0000775
 8,-0.00009993,0.00015727,0.00004268,0.00000633,0.00005594,-0.00003236,
 0.00002646,-0.00000606,0.00002704,0.00008092,-0.00005690,0.00004712,-0
 .00001866,-0.00000416,-0.00011677,0.00014147,0.00001437,-0.00002397,-0
 .00012433,-0.00001663,-0.00009102,0.00005464,-0.00001640,0.00009951,0.
 00000530,0.00002194,-0.00003494,-0.00005803,-0.00000223,0.00001053,0.0
 0007093,0.00001407,-0.00006798,-0.00002701,-0.00001072,0.00009976,0.00
 112590,0.00015920,-0.00036053,-0.00024836,-0.00038944,-0.00008762,-0.0
 0031745,-0.00003177,-0.00013536,0.00011844,-0.00006421,-0.00001939,-0.
 00007623,-0.00001832,0.00002430,0.00004622,0.00000114,0.00072871,0.001
 00903,-0.00058283,0.00024506,-0.00017787,0.00010778,0.00009334,0.00010
 666,-0.00001235,0.00001131,0.00004375,-0.00000269,0.00186534,-0.003983
 96,0.00054711,0.00038816,-0.00048129,-0.00016383,-0.00029653,0.0000804
 6,-0.00013585,0.00008918,-0.00013299,0.00002463,0.00177941,-0.00368967
 ,0.00389867,-0.02406015,-0.00207300,0.01687790,-0.04494143,-0.06758457
 ,0.04404311,0.01756439,0.00653201,-0.01279108,-0.00019385,-0.00060800,
 -0.00067116,0.00001480,0.00000233,-0.00005025,0.00000479,0.00000007,0.
 00000003,-0.00000431,0.00000521,-0.00000059,-0.00000358,0.00000400,-0.
 00000008,-0.00000198,-0.00000023,-0.00000215,-0.00000141,-0.00000413,0
 .00000196,0.00000050,-0.00000364,0.00000174,0.00004353,-0.00002287,-0.
 00000726,-0.00000736,0.00001672,0.00000287,0.00007557,0.00005366,-0.00
 001993,-0.00118854,-0.00027441,0.00070841,-0.00072747,0.00022720,-0.00
 193891,0.04918328,0.06960326,-0.00007916,-0.00003082,-0.00015994,0.000
 09062,0.00000049,0.00006161,-0.00007700,0.00002730,-0.00000099,0.00000
 206,0.00007433,-0.00003617,0.00006632,-0.00002054,0.00002730,0.0000048
 7,0.00019396,-0.00004442,-0.00005810,-0.00011061,-0.00005447,-0.000087
 57,0.00006865,-0.00000279,0.00008613,0.00000787,0.00000978,-0.00000900
 ,-0.00002043,0.00000169,-0.00001591,0.00007258,0.00001228,-0.00005737,
 -0.00003801,-0.00001580,-0.00001573,0.00074710,0.00050285,0.00061451,-
 0.00027800,0.00030439,-0.00031880,-0.00009042,-0.00000538,-0.00006144,
 0.00003319,-0.00002813,0.00003530,-0.00001331,-0.00003114,-0.00000235,
 0.00000356,0.00000638,-0.00014737,0.00031447,0.00001564,0.00020018,-0.
 00015060,-0.00000602,-0.00011643,0.00007613,-0.00003076,0.00006153,-0.
 00004695,0.00004016,-0.00014752,-0.00039530,0.00183123,-0.00079613,-0.
 00020276,-0.00009069,0.00017400,-0.00013520,-0.00049332,-0.00008932,0.
 00002675,0.00005487,0.00127864,0.00466002,0.00401205,0.01265463,0.0020
 1646,-0.00216152,0.13412484,0.04481480,-0.12722534,0.00094627,0.001610
 99,0.00018094,-0.00052329,-0.00046672,-0.00065387,-0.00000227,-0.00002
 276,0.00001681,0.00000508,-0.00000201,0.00000431,-0.00000939,0.0000084
 9,0.00000485,-0.00000508,0.00000524,0.00000072,-0.00000288,-0.00000034
 ,-0.00000104,-0.00000545,0.00000032,-0.00000049,-0.00000566,-0.0000048
 4,0.00000257,0.00000581,-0.00000916,-0.00002637,0.00001588,0.00002101,
 0.00004098,-0.00002194,-0.00001883,0.00003520,0.00069367,0.00012592,-0
 .00018746,-0.00222198,-0.00183706,-0.00306012,-0.14675083,-0.05014607,
 0.12643010,0.00049240,0.00174850,0.00127920,0.00062156,-0.00000138,-0.
 00055474,-0.00004485,0.00043725,-0.00012771,-0.00049263,-0.00053247,0.
 00042328,-0.00010771,0.00011385,-0.00002505,0.00017260,-0.00019561,0.0
 0000415,0.00001254,0.00012472,-0.00006594,0.00013783,-0.00005200,0.000
 03350,-0.00020468,-0.00000880,-0.00009092,0.00028898,0.00011801,0.0000
 5581,-0.00008359,-0.00006628,-0.00000252,0.00011889,-0.00003370,0.0000
 2123,-0.00578242,-0.00259602,-0.01575244,0.00004689,-0.00133765,-0.000
 36089,-0.00040221,0.00004705,0.00054049,0.00054480,-0.00039022,0.00014
 816,-0.00053534,0.00023552,-0.00011635,-0.00001348,-0.00021127,-0.0000
 1820,0.00038245,-0.00028829,0.00077164,0.00020707,-0.00062104,-0.00049
 091,0.00013463,-0.00013018,0.00004739,0.00017596,0.00008537,-0.0000402
 0,0.00239123,-0.01006429,0.02637750,-0.00314334,0.00007717,0.00113203,
 -0.00020615,-0.00081218,-0.00072658,-0.00034958,-0.00016312,0.00019522
 ,0.00027118,-0.00020195,-0.00025757,-0.00317808,0.00074985,0.00077840,
 -0.00578434,0.01023939,-0.01910806,-0.06012624,0.02168552,-0.05760463,
 0.00013296,0.00015338,-0.00028252,-0.00005558,-0.00007139,-0.00005707,
 -0.00000834,-0.00000197,-0.00000067,-0.00000014,-0.00000536,0.00000398
 ,-0.00000185,-0.00000228,-0.00000480,0.00000270,-0.00000552,-0.0000042
 1,0.00000451,-0.00001145,0.00001512,0.00000857,0.00001284,0.00000295,0
 .00002550,0.00000080,0.00002649,0.00001321,0.00006480,0.00008186,-0.00
 019572,-0.00014444,0.00003111,0.00009310,0.00001118,0.00005973,0.00050
 772,0.00093087,0.00063891,0.00041222,-0.00011933,0.00056763,0.07351675
 ,-0.00080716,-0.00183662,-0.00240272,-0.00093025,0.00030801,0.00017031
 ,-0.00027955,-0.00063777,0.00002814,0.00018040,0.00144970,0.00058560,0
 .00042908,0.00001574,0.00003701,-0.00083494,0.00007684,-0.00019742,0.0
 0022329,0.00006401,-0.00002441,-0.00013004,-0.00027080,-0.00007656,-0.
 00006137,0.00004792,-0.00002413,-0.00000113,-0.00000929,-0.00002789,0.
 00011651,-0.00001122,-0.00000806,-0.00005256,0.00011308,0.00003436,-0.
 01270244,-0.00166179,-0.02619040,0.00088313,-0.00116318,-0.00072239,-0
 .00042734,-0.00120580,0.00079523,0.00014734,0.00085952,0.00021977,0.00
 035575,0.00008610,0.00010197,-0.00002288,-0.00001815,-0.00001219,0.001
 68673,-0.00040912,-0.00079524,-0.00061097,-0.00065113,0.00010420,0.000
 07107,0.00007162,-0.00000959,-0.00026928,-0.00007315,-0.00002314,-0.00
 279411,-0.00311595,0.01048701,-0.00181002,0.00043016,0.00027589,0.0004
 1526,-0.00028022,-0.00016734,-0.00023127,0.00061294,-0.00013754,0.0003
 3445,-0.00029334,0.00065921,0.00354953,-0.00035694,-0.00161619,0.01052
 051,-0.01419713,0.02238059,0.02276801,-0.05316644,0.06339491,0.0001703
 5,0.00004629,-0.00033657,-0.00010806,-0.00011905,0.00006438,-0.0000093
 2,-0.00001751,-0.00000258,0.00001613,0.00000128,0.00000330,0.00000756,
 -0.00000213,-0.00000888,0.00000614,0.00001032,0.00000008,0.00000336,0.
 00000843,-0.00001441,0.00000094,0.00000694,0.00000640,-0.00001359,-0.0
 0000301,0.00001875,-0.00003507,0.00001998,0.00002869,-0.00006762,-0.00
 006112,0.00002351,0.00003242,0.00005647,0.00012007,-0.00041859,-0.0011
 3685,-0.00062354,-0.00053253,0.00064567,-0.00086890,-0.01876787,0.0757
 6667,-0.00117374,0.00141712,0.00221384,0.00114893,-0.00019010,-0.00048
 183,-0.00012354,0.00011651,0.00003589,-0.00041827,-0.00062828,0.000530
 34,-0.00007775,0.00031805,-0.00007443,0.00008451,0.00001462,-0.0000950
 2,0.00008953,0.00010978,-0.00002802,0.00012591,-0.00007812,0.00005569,
 -0.00018216,-0.00015784,-0.00013380,0.00025607,0.00001937,0.00005936,-
 0.00003740,0.00000452,-0.00000136,0.00003067,-0.00000354,0.00002552,-0
 .00962882,-0.00303607,-0.01643343,0.00087220,-0.00135544,-0.00058799,-
 0.00038436,-0.00009335,0.00027327,0.00041930,-0.00125883,-0.00049461,-
 0.00043298,0.00007424,0.00010394,-0.00009072,-0.00014475,-0.00001398,-
 0.00166006,0.00151486,0.00155787,0.00058243,0.00085952,-0.00011257,0.0
 0000319,-0.00001470,-0.00001246,0.00010825,0.00009532,-0.00002910,0.00
 377269,0.00802076,-0.01532903,0.00260676,-0.00149626,-0.00119297,-0.00
 043374,0.00052155,0.00035179,0.00037012,-0.00046972,0.00003950,-0.0002
 1966,0.00006307,-0.00029760,-0.00093142,-0.00167127,0.00029608,-0.0014
 6663,0.00272201,0.00583130,-0.05542714,0.05954968,-0.24193868,0.000051
 05,0.00011480,-0.00009245,-0.00007589,-0.00011807,0.00004811,-0.000004
 61,0.00000243,-0.00000143,0.00001221,0.00000026,-0.00000429,-0.0000019
 7,0.00000339,-0.00000578,0.00000324,0.00000534,-0.00000656,0.00000113,
 -0.00000189,-0.00000151,0.00000133,-0.00000380,0.00000136,-0.00000778,
 -0.00000056,-0.00001742,0.00001038,-0.00004681,-0.00003648,0.00013552,
 0.00009397,-0.00003749,-0.00003372,0.00003677,-0.00001230,-0.00010241,
 -0.00016294,-0.00030330,-0.00022691,0.00050375,0.00071954,0.06245624,-
 0.06524930,0.26563249\\-0.00001143,-0.00001188,0.00000751,-0.00000031,
 -0.00000319,-0.00001092,0.00000216,0.00000043,-0.00002046,0.00000410,-
 0.00000565,0.00001212,0.00000116,0.00000131,-0.00000700,0.00001357,0.0
 0000636,0.00000384,-0.00000639,-0.00000036,-0.00000075,0.00000281,-0.0
 0000688,-0.00000380,0.00000320,0.00001791,0.00000599,-0.00001081,0.000
 00973,0.00000322,0.00000718,-0.00000219,0.00000285,-0.00000177,-0.0000
 0838,0.00000251,0.00001026,0.00000856,0.00000692,0.00000130,0.00000443
 ,0.00000091,-0.00000541,-0.00000847,-0.00000402,-0.00000102,-0.0000017
 2,-0.00000181,-0.00000882,0.00001319,-0.00000018,0.00000770,-0.0000091
 1,0.00000172,0.00001854,-0.00001032,-0.00000498,-0.00001313,-0.0000064
 2,0.00000628,0.00000763,0.00000216,-0.00000389,0.00000002,0.00000137,-
 0.00000166,-0.00000739,0.00002547,0.00000151,0.00000689,-0.00002364,0.
 00000717,-0.00000044,0.00000450,-0.00000110,-0.00000133,0.00000406,-0.
 00000317,-0.00001570,0.00000904,0.00000156,0.00000723,0.00000469,-0.00
 000432,-0.00000758,0.00000307,0.00000668,-0.00000524,-0.00001955,-0.00
 000775,-0.00000036,-0.00000309,0.00000269,0.00000035,-0.00000144,0.000
 00273,-0.00000033,0.00000057,0.00000242,0.00000237,-0.00000102,0.00000
 177,-0.00000047,0.00000033,-0.00000164,0.00000248,0.00000163,-0.000002
 64,0.00000012,0.00000040,-0.00000239,-0.00000058,-0.00000041,-0.000003
 27,-0.00000113,0.00000145,-0.00000050,-0.00000166,0.00000116,-0.000000
 35,-0.00000090,-0.00000046,-0.00000025,-0.00000207,-0.00000145,-0.0000
 0047,-0.00000116,0.00000017,0.00000234,0.00000206,0.00000049,0.0000007
 0,0.00000430,0.00000316,0.00000388\\\@


 BRING ME INTO THE COMPANY OF THOSE WHO SEEK TRUTH,
 AND DELIVER ME FROM THOSE WHO HAVE FOUND IT.
 Job cpu time:       2 days  7 hours 17 minutes 14.1 seconds.
 Elapsed time:       0 days  2 hours 46 minutes 19.5 seconds.
 File lengths (MBytes):  RWF=   4323 Int=      0 D2E=      0 Chk=     71 Scr=      1
 Normal termination of Gaussian 16 at Fri Jun 21 11:00:01 2019.
