 Entering Gaussian System, Link 0=/share/apps/gaussian16/g16/g16
 Initial command:
 /share/apps/gaussian16/g16/l1.exe "/home/amen01//scratch/597/Gau-17324.inp" -scrdir="/home/amen01//scratch/597/"
 Entering Link 1 = /share/apps/gaussian16/g16/l1.exe PID=     17325.
  
 Copyright (c) 1988-2017, Gaussian, Inc.  All Rights Reserved.
  
 This is part of the Gaussian(R) 16 program.  It is based on
 the Gaussian(R) 09 system (copyright 2009, Gaussian, Inc.),
 the Gaussian(R) 03 system (copyright 2003, Gaussian, Inc.),
 the Gaussian(R) 98 system (copyright 1998, Gaussian, Inc.),
 the Gaussian(R) 94 system (copyright 1995, Gaussian, Inc.),
 the Gaussian 92(TM) system (copyright 1992, Gaussian, Inc.),
 the Gaussian 90(TM) system (copyright 1990, Gaussian, Inc.),
 the Gaussian 88(TM) system (copyright 1988, Gaussian, Inc.),
 the Gaussian 86(TM) system (copyright 1986, Carnegie Mellon
 University), and the Gaussian 82(TM) system (copyright 1983,
 Carnegie Mellon University). Gaussian is a federally registered
 trademark of Gaussian, Inc.
  
 This software contains proprietary and confidential information,
 including trade secrets, belonging to Gaussian, Inc.
  
 This software is provided under written license and may be
 used, copied, transmitted, or stored only in accord with that
 written license.
  
 The following legend is applicable only to US Government
 contracts under FAR:
  
                    RESTRICTED RIGHTS LEGEND
  
 Use, reproduction and disclosure by the US Government is
 subject to restrictions as set forth in subparagraphs (a)
 and (c) of the Commercial Computer Software - Restricted
 Rights clause in FAR 52.227-19.
  
 Gaussian, Inc.
 340 Quinnipiac St., Bldg. 40, Wallingford CT 06492
  
  
 ---------------------------------------------------------------
 Warning -- This program may not be used in any manner that
 competes with the business of Gaussian, Inc. or will provide
 assistance to any competitor of Gaussian, Inc.  The licensee
 of this program is prohibited from giving any competitor of
 Gaussian, Inc. access to this program.  By using this program,
 the user acknowledges that Gaussian, Inc. is engaged in the
 business of creating and licensing software in the field of
 computational chemistry and represents and warrants to the
 licensee that it is not a competitor of Gaussian, Inc. and that
 it will not use this program in any manner prohibited above.
 ---------------------------------------------------------------
  

 Cite this work as:
 Gaussian 16, Revision B.01,
 M. J. Frisch, G. W. Trucks, H. B. Schlegel, G. E. Scuseria, 
 M. A. Robb, J. R. Cheeseman, G. Scalmani, V. Barone, 
 G. A. Petersson, H. Nakatsuji, X. Li, M. Caricato, A. V. Marenich, 
 J. Bloino, B. G. Janesko, R. Gomperts, B. Mennucci, H. P. Hratchian, 
 J. V. Ortiz, A. F. Izmaylov, J. L. Sonnenberg, D. Williams-Young, 
 F. Ding, F. Lipparini, F. Egidi, J. Goings, B. Peng, A. Petrone, 
 T. Henderson, D. Ranasinghe, V. G. Zakrzewski, J. Gao, N. Rega, 
 G. Zheng, W. Liang, M. Hada, M. Ehara, K. Toyota, R. Fukuda, 
 J. Hasegawa, M. Ishida, T. Nakajima, Y. Honda, O. Kitao, H. Nakai, 
 T. Vreven, K. Throssell, J. A. Montgomery, Jr., J. E. Peralta, 
 F. Ogliaro, M. J. Bearpark, J. J. Heyd, E. N. Brothers, K. N. Kudin, 
 V. N. Staroverov, T. A. Keith, R. Kobayashi, J. Normand, 
 K. Raghavachari, A. P. Rendell, J. C. Burant, S. S. Iyengar, 
 J. Tomasi, M. Cossi, J. M. Millam, M. Klene, C. Adamo, R. Cammi, 
 J. W. Ochterski, R. L. Martin, K. Morokuma, O. Farkas, 
 J. B. Foresman, and D. J. Fox, Gaussian, Inc., Wallingford CT, 2016.
 
 ******************************************
 Gaussian 16:  ES64L-G16RevB.01 20-Dec-2017
                21-Jun-2019 
 ******************************************
 %nprocshared=20
 Will use up to   20 processors via shared memory.
 %mem=100GB
 %chk=7-memb2-habs-2b.chk
 -------------------------------------------
 # opt freq b3lyp/6-311+g(d,p) int=grid=fine
 -------------------------------------------
 1/18=20,19=15,26=3,38=1/1,3;
 2/9=110,12=2,17=6,18=5,40=1/2;
 3/5=4,6=6,7=111,11=2,25=1,30=1,71=1,74=-5,75=-4/1,2,3;
 4//1;
 5/5=2,38=5/2;
 6/7=2,8=2,9=2,10=2,28=1/1;
 7//1,2,3,16;
 1/18=20,19=15,26=3/3(2);
 2/9=110/2;
 99//99;
 2/9=110/2;
 3/5=4,6=6,7=111,11=2,25=1,30=1,71=1,74=-5,75=-4/1,2,3;
 4/5=5,16=3,69=1/1;
 5/5=2,38=5/2;
 7//1,2,3,16;
 1/18=20,19=15,26=3/3(-5);
 2/9=110/2;
 6/7=2,8=2,9=2,10=2,19=2,28=1/1;
 99/9=1/99;
 ---------------
 7-memb2-habs-2b
 ---------------
 Symbolic Z-matrix:
 Charge =  0 Multiplicity = 2
 C                    -4.03157  -0.09461  -0.09679 
 C                    -2.60415  -0.28245  -0.02004 
 C                    -2.41684  -1.65568   0.10538 
 C                    -4.59746  -1.36171   0.01129 
 C                    -3.61581  -2.28001   0.14462 
 C                    -5.93094  -1.70881  -0.08141 
 C                    -6.21643  -3.10031   0.04635 
 C                    -5.16898  -4.05584   0.20673 
 C                    -3.8063   -3.64925   0.23524 
 C                    -1.22567  -2.34303   0.13985 
 C                    -1.33128  -3.76116   0.26255 
 C                    -2.60378  -4.40373   0.31514 
 C                    -4.81134   1.00765  -0.40768 
 C                    -6.22734   0.6934   -0.49653 
 C                    -6.77523  -0.61411  -0.3313 
 C                    -1.53131   0.58338  -0.09772 
 C                    -0.24999  -0.08469  -0.10647 
 C                    -0.10591  -1.50307   0.01658 
 C                    -1.66848   2.02846  -0.12745 
 C                    -0.42069   2.71871  -0.21661 
 C                     0.81027   2.05682  -0.30087 
 C                     0.89837   0.67644  -0.2326 
 C                    -2.91984   2.8403    0.00784 
 C                    -2.73915   4.25567   0.15363 
 C                    -1.49216   4.85623   0.02657 
 C                    -0.35492   4.10321  -0.18118 
 C                    -3.78913   5.13407   0.44493 
 C                    -5.07546   4.6756    0.62288 
 C                    -5.33515   3.33404   0.42093 
 C                    -4.32389   2.40912   0.04374 
 H                    -4.52921   1.2617   -1.477 
 H                    -6.93199   1.47726  -0.7771 
 H                    -7.84602  -0.76339  -0.44155 
 H                    -7.24648  -3.44459  -0.00739 
 H                    -5.41784  -5.11186   0.27747 
 H                    -2.65107  -5.48724   0.39149 
 H                    -0.42827  -4.36591   0.29966 
 H                     0.88492  -1.95299   0.01401 
 H                     1.88131   0.21222  -0.26365 
 H                     1.73969   2.61976  -0.37909 
 H                     0.59732   4.62494  -0.25846 
 H                    -1.37819   5.93639   0.10525 
 H                    -3.60771   6.20062   0.5701 
 H                    -5.87596   5.3598    0.88764 
 H                    -6.36665   3.01957   0.55101 
 

 GradGradGradGradGradGradGradGradGradGradGradGradGradGradGradGradGradGrad
 Berny optimization.
 Initialization pass.
                           ----------------------------
                           !    Initial Parameters    !
                           ! (Angstroms and Degrees)  !
 --------------------------                            --------------------------
 ! Name  Definition              Value          Derivative Info.                !
 --------------------------------------------------------------------------------
 ! R1    R(1,2)                  1.4418         estimate D2E/DX2                !
 ! R2    R(1,4)                  1.3919         estimate D2E/DX2                !
 ! R3    R(1,13)                 1.3855         estimate D2E/DX2                !
 ! R4    R(2,3)                  1.3916         estimate D2E/DX2                !
 ! R5    R(2,16)                 1.3808         estimate D2E/DX2                !
 ! R6    R(3,5)                  1.3524         estimate D2E/DX2                !
 ! R7    R(3,10)                 1.3757         estimate D2E/DX2                !
 ! R8    R(4,5)                  1.3508         estimate D2E/DX2                !
 ! R9    R(4,6)                  1.381          estimate D2E/DX2                !
 ! R10   R(5,9)                  1.3854         estimate D2E/DX2                !
 ! R11   R(6,7)                  1.4262         estimate D2E/DX2                !
 ! R12   R(6,15)                 1.4049         estimate D2E/DX2                !
 ! R13   R(7,8)                  1.4269         estimate D2E/DX2                !
 ! R14   R(7,34)                 1.0874         estimate D2E/DX2                !
 ! R15   R(8,9)                  1.4223         estimate D2E/DX2                !
 ! R16   R(8,35)                 1.0873         estimate D2E/DX2                !
 ! R17   R(9,12)                 1.4219         estimate D2E/DX2                !
 ! R18   R(10,11)                1.4273         estimate D2E/DX2                !
 ! R19   R(10,18)                1.4052         estimate D2E/DX2                !
 ! R20   R(11,12)                1.4265         estimate D2E/DX2                !
 ! R21   R(11,37)                1.0874         estimate D2E/DX2                !
 ! R22   R(12,36)                1.0872         estimate D2E/DX2                !
 ! R23   R(13,14)                1.4532         estimate D2E/DX2                !
 ! R24   R(13,30)                1.551          estimate D2E/DX2                !
 ! R25   R(13,31)                1.1347         estimate D2E/DX2                !
 ! R26   R(14,15)                1.4273         estimate D2E/DX2                !
 ! R27   R(14,32)                1.0907         estimate D2E/DX2                !
 ! R28   R(15,33)                1.0868         estimate D2E/DX2                !
 ! R29   R(16,17)                1.4451         estimate D2E/DX2                !
 ! R30   R(16,19)                1.4519         estimate D2E/DX2                !
 ! R31   R(17,18)                1.431          estimate D2E/DX2                !
 ! R32   R(17,22)                1.3835         estimate D2E/DX2                !
 ! R33   R(18,38)                1.0882         estimate D2E/DX2                !
 ! R34   R(19,20)                1.4288         estimate D2E/DX2                !
 ! R35   R(19,23)                1.4978         estimate D2E/DX2                !
 ! R36   R(20,21)                1.4002         estimate D2E/DX2                !
 ! R37   R(20,26)                1.3865         estimate D2E/DX2                !
 ! R38   R(21,22)                1.3849         estimate D2E/DX2                !
 ! R39   R(21,40)                1.0894         estimate D2E/DX2                !
 ! R40   R(22,39)                1.0875         estimate D2E/DX2                !
 ! R41   R(23,24)                1.4343         estimate D2E/DX2                !
 ! R42   R(23,30)                1.4692         estimate D2E/DX2                !
 ! R43   R(24,25)                1.3899         estimate D2E/DX2                !
 ! R44   R(24,27)                1.3996         estimate D2E/DX2                !
 ! R45   R(25,26)                1.3797         estimate D2E/DX2                !
 ! R46   R(25,42)                1.089          estimate D2E/DX2                !
 ! R47   R(26,41)                1.0885         estimate D2E/DX2                !
 ! R48   R(27,28)                1.3771         estimate D2E/DX2                !
 ! R49   R(27,43)                1.0891         estimate D2E/DX2                !
 ! R50   R(28,29)                1.3813         estimate D2E/DX2                !
 ! R51   R(28,44)                1.0858         estimate D2E/DX2                !
 ! R52   R(29,30)                1.4214         estimate D2E/DX2                !
 ! R53   R(29,45)                1.0862         estimate D2E/DX2                !
 ! A1    A(2,1,4)              106.2466         estimate D2E/DX2                !
 ! A2    A(2,1,13)             132.2828         estimate D2E/DX2                !
 ! A3    A(4,1,13)             120.8524         estimate D2E/DX2                !
 ! A4    A(1,2,3)              105.4633         estimate D2E/DX2                !
 ! A5    A(1,2,16)             133.199          estimate D2E/DX2                !
 ! A6    A(3,2,16)             121.2819         estimate D2E/DX2                !
 ! A7    A(2,3,5)              109.8066         estimate D2E/DX2                !
 ! A8    A(2,3,10)             127.7231         estimate D2E/DX2                !
 ! A9    A(5,3,10)             122.4303         estimate D2E/DX2                !
 ! A10   A(1,4,5)              109.3336         estimate D2E/DX2                !
 ! A11   A(1,4,6)              128.0346         estimate D2E/DX2                !
 ! A12   A(5,4,6)              122.5106         estimate D2E/DX2                !
 ! A13   A(3,5,4)              109.122          estimate D2E/DX2                !
 ! A14   A(3,5,9)              125.4562         estimate D2E/DX2                !
 ! A15   A(4,5,9)              125.3396         estimate D2E/DX2                !
 ! A16   A(4,6,7)              115.6253         estimate D2E/DX2                !
 ! A17   A(4,6,15)             113.352          estimate D2E/DX2                !
 ! A18   A(7,6,15)             130.987          estimate D2E/DX2                !
 ! A19   A(6,7,8)              121.0976         estimate D2E/DX2                !
 ! A20   A(6,7,34)             119.61           estimate D2E/DX2                !
 ! A21   A(8,7,34)             119.2693         estimate D2E/DX2                !
 ! A22   A(7,8,9)              120.9392         estimate D2E/DX2                !
 ! A23   A(7,8,35)             119.3226         estimate D2E/DX2                !
 ! A24   A(9,8,35)             119.7117         estimate D2E/DX2                !
 ! A25   A(5,9,8)              114.3903         estimate D2E/DX2                !
 ! A26   A(5,9,12)             114.3199         estimate D2E/DX2                !
 ! A27   A(8,9,12)             131.2777         estimate D2E/DX2                !
 ! A28   A(3,10,11)            115.7537         estimate D2E/DX2                !
 ! A29   A(3,10,18)            112.9002         estimate D2E/DX2                !
 ! A30   A(11,10,18)           131.33           estimate D2E/DX2                !
 ! A31   A(10,11,12)           121.1122         estimate D2E/DX2                !
 ! A32   A(10,11,37)           119.6055         estimate D2E/DX2                !
 ! A33   A(12,11,37)           119.2739         estimate D2E/DX2                !
 ! A34   A(9,12,11)            120.8865         estimate D2E/DX2                !
 ! A35   A(9,12,36)            119.7342         estimate D2E/DX2                !
 ! A36   A(11,12,36)           119.3603         estimate D2E/DX2                !
 ! A37   A(1,13,14)            112.9596         estimate D2E/DX2                !
 ! A38   A(1,13,30)            118.4689         estimate D2E/DX2                !
 ! A39   A(1,13,31)            104.456          estimate D2E/DX2                !
 ! A40   A(14,13,30)           121.2954         estimate D2E/DX2                !
 ! A41   A(14,13,31)           103.478          estimate D2E/DX2                !
 ! A42   A(30,13,31)            89.6466         estimate D2E/DX2                !
 ! A43   A(13,14,15)           124.4083         estimate D2E/DX2                !
 ! A44   A(13,14,32)           119.3293         estimate D2E/DX2                !
 ! A45   A(15,14,32)           116.113          estimate D2E/DX2                !
 ! A46   A(6,15,14)            120.2475         estimate D2E/DX2                !
 ! A47   A(6,15,33)            120.2092         estimate D2E/DX2                !
 ! A48   A(14,15,33)           119.4939         estimate D2E/DX2                !
 ! A49   A(2,16,17)            113.539          estimate D2E/DX2                !
 ! A50   A(2,16,19)            123.4939         estimate D2E/DX2                !
 ! A51   A(17,16,19)           122.9426         estimate D2E/DX2                !
 ! A52   A(16,17,18)           123.1616         estimate D2E/DX2                !
 ! A53   A(16,17,22)           118.8302         estimate D2E/DX2                !
 ! A54   A(18,17,22)           118.0073         estimate D2E/DX2                !
 ! A55   A(10,18,17)           121.3187         estimate D2E/DX2                !
 ! A56   A(10,18,38)           118.596          estimate D2E/DX2                !
 ! A57   A(17,18,38)           120.0852         estimate D2E/DX2                !
 ! A58   A(16,19,20)           113.554          estimate D2E/DX2                !
 ! A59   A(16,19,23)           128.067          estimate D2E/DX2                !
 ! A60   A(20,19,23)           118.2574         estimate D2E/DX2                !
 ! A61   A(19,20,21)           122.8999         estimate D2E/DX2                !
 ! A62   A(19,20,26)           121.4826         estimate D2E/DX2                !
 ! A63   A(21,20,26)           115.5864         estimate D2E/DX2                !
 ! A64   A(20,21,22)           121.6111         estimate D2E/DX2                !
 ! A65   A(20,21,40)           120.6693         estimate D2E/DX2                !
 ! A66   A(22,21,40)           117.6664         estimate D2E/DX2                !
 ! A67   A(17,22,21)           120.0046         estimate D2E/DX2                !
 ! A68   A(17,22,39)           121.1992         estimate D2E/DX2                !
 ! A69   A(21,22,39)           118.7887         estimate D2E/DX2                !
 ! A70   A(19,23,24)           116.0283         estimate D2E/DX2                !
 ! A71   A(19,23,30)           129.9088         estimate D2E/DX2                !
 ! A72   A(24,23,30)           114.0489         estimate D2E/DX2                !
 ! A73   A(23,24,25)           122.014          estimate D2E/DX2                !
 ! A74   A(23,24,27)           123.0913         estimate D2E/DX2                !
 ! A75   A(25,24,27)           114.892          estimate D2E/DX2                !
 ! A76   A(24,25,26)           121.1622         estimate D2E/DX2                !
 ! A77   A(24,25,42)           121.0558         estimate D2E/DX2                !
 ! A78   A(26,25,42)           117.7734         estimate D2E/DX2                !
 ! A79   A(20,26,25)           120.6471         estimate D2E/DX2                !
 ! A80   A(20,26,41)           121.2166         estimate D2E/DX2                !
 ! A81   A(25,26,41)           118.0447         estimate D2E/DX2                !
 ! A82   A(24,27,28)           121.244          estimate D2E/DX2                !
 ! A83   A(24,27,43)           120.902          estimate D2E/DX2                !
 ! A84   A(28,27,43)           117.8249         estimate D2E/DX2                !
 ! A85   A(27,28,29)           118.6887         estimate D2E/DX2                !
 ! A86   A(27,28,44)           120.6867         estimate D2E/DX2                !
 ! A87   A(29,28,44)           120.5995         estimate D2E/DX2                !
 ! A88   A(28,29,30)           122.4814         estimate D2E/DX2                !
 ! A89   A(28,29,45)           116.2453         estimate D2E/DX2                !
 ! A90   A(30,29,45)           121.2664         estimate D2E/DX2                !
 ! A91   A(13,30,23)           123.9471         estimate D2E/DX2                !
 ! A92   A(13,30,29)           116.2074         estimate D2E/DX2                !
 ! A93   A(23,30,29)           119.6971         estimate D2E/DX2                !
 ! D1    D(4,1,2,3)              1.0141         estimate D2E/DX2                !
 ! D2    D(4,1,2,16)           178.2234         estimate D2E/DX2                !
 ! D3    D(13,1,2,3)          -169.7371         estimate D2E/DX2                !
 ! D4    D(13,1,2,16)            7.4722         estimate D2E/DX2                !
 ! D5    D(2,1,4,5)             -0.0412         estimate D2E/DX2                !
 ! D6    D(2,1,4,6)           -176.0729         estimate D2E/DX2                !
 ! D7    D(13,1,4,5)           171.9973         estimate D2E/DX2                !
 ! D8    D(13,1,4,6)            -4.0344         estimate D2E/DX2                !
 ! D9    D(2,1,13,14)          173.8944         estimate D2E/DX2                !
 ! D10   D(2,1,13,30)          -35.476          estimate D2E/DX2                !
 ! D11   D(2,1,13,31)           62.1408         estimate D2E/DX2                !
 ! D12   D(4,1,13,14)            4.2489         estimate D2E/DX2                !
 ! D13   D(4,1,13,30)          154.8785         estimate D2E/DX2                !
 ! D14   D(4,1,13,31)         -107.5047         estimate D2E/DX2                !
 ! D15   D(1,2,3,5)             -1.6503         estimate D2E/DX2                !
 ! D16   D(1,2,3,10)           176.0677         estimate D2E/DX2                !
 ! D17   D(16,2,3,5)          -179.2702         estimate D2E/DX2                !
 ! D18   D(16,2,3,10)           -1.5521         estimate D2E/DX2                !
 ! D19   D(1,2,16,17)         -173.786          estimate D2E/DX2                !
 ! D20   D(1,2,16,19)            7.9686         estimate D2E/DX2                !
 ! D21   D(3,2,16,17)            3.0665         estimate D2E/DX2                !
 ! D22   D(3,2,16,19)         -175.1789         estimate D2E/DX2                !
 ! D23   D(2,3,5,4)              1.6814         estimate D2E/DX2                !
 ! D24   D(2,3,5,9)            178.5227         estimate D2E/DX2                !
 ! D25   D(10,3,5,4)          -176.1802         estimate D2E/DX2                !
 ! D26   D(10,3,5,9)             0.6611         estimate D2E/DX2                !
 ! D27   D(2,3,10,11)         -179.3553         estimate D2E/DX2                !
 ! D28   D(2,3,10,18)           -0.6483         estimate D2E/DX2                !
 ! D29   D(5,3,10,11)           -1.8991         estimate D2E/DX2                !
 ! D30   D(5,3,10,18)          176.808          estimate D2E/DX2                !
 ! D31   D(1,4,5,3)             -0.9962         estimate D2E/DX2                !
 ! D32   D(1,4,5,9)           -177.8421         estimate D2E/DX2                !
 ! D33   D(6,4,5,3)            175.2977         estimate D2E/DX2                !
 ! D34   D(6,4,5,9)             -1.5482         estimate D2E/DX2                !
 ! D35   D(1,4,6,7)            178.8663         estimate D2E/DX2                !
 ! D36   D(1,4,6,15)             0.7952         estimate D2E/DX2                !
 ! D37   D(5,4,6,7)              3.3076         estimate D2E/DX2                !
 ! D38   D(5,4,6,15)          -174.7635         estimate D2E/DX2                !
 ! D39   D(3,5,9,8)           -177.6613         estimate D2E/DX2                !
 ! D40   D(3,5,9,12)             1.2144         estimate D2E/DX2                !
 ! D41   D(4,5,9,8)             -1.3205         estimate D2E/DX2                !
 ! D42   D(4,5,9,12)           177.5553         estimate D2E/DX2                !
 ! D43   D(4,6,7,8)             -2.3228         estimate D2E/DX2                !
 ! D44   D(4,6,7,34)           179.4406         estimate D2E/DX2                !
 ! D45   D(15,6,7,8)           175.3309         estimate D2E/DX2                !
 ! D46   D(15,6,7,34)           -2.9056         estimate D2E/DX2                !
 ! D47   D(4,6,15,14)            1.5493         estimate D2E/DX2                !
 ! D48   D(4,6,15,33)          178.9804         estimate D2E/DX2                !
 ! D49   D(7,6,15,14)         -176.1464         estimate D2E/DX2                !
 ! D50   D(7,6,15,33)            1.2846         estimate D2E/DX2                !
 ! D51   D(6,7,8,9)             -0.4149         estimate D2E/DX2                !
 ! D52   D(6,7,8,35)          -178.5392         estimate D2E/DX2                !
 ! D53   D(34,7,8,9)           177.8275         estimate D2E/DX2                !
 ! D54   D(34,7,8,35)           -0.2967         estimate D2E/DX2                !
 ! D55   D(7,8,9,5)              2.1959         estimate D2E/DX2                !
 ! D56   D(7,8,9,12)          -176.4409         estimate D2E/DX2                !
 ! D57   D(35,8,9,5)          -179.6871         estimate D2E/DX2                !
 ! D58   D(35,8,9,12)            1.6762         estimate D2E/DX2                !
 ! D59   D(5,9,12,11)           -1.7357         estimate D2E/DX2                !
 ! D60   D(5,9,12,36)          179.8626         estimate D2E/DX2                !
 ! D61   D(8,9,12,11)          176.9018         estimate D2E/DX2                !
 ! D62   D(8,9,12,36)           -1.4999         estimate D2E/DX2                !
 ! D63   D(3,10,11,12)           1.2924         estimate D2E/DX2                !
 ! D64   D(3,10,11,37)        -179.7667         estimate D2E/DX2                !
 ! D65   D(18,10,11,12)       -177.1214         estimate D2E/DX2                !
 ! D66   D(18,10,11,37)          1.8194         estimate D2E/DX2                !
 ! D67   D(3,10,18,17)           0.978          estimate D2E/DX2                !
 ! D68   D(3,10,18,38)        -178.8983         estimate D2E/DX2                !
 ! D69   D(11,10,18,17)        179.4271         estimate D2E/DX2                !
 ! D70   D(11,10,18,38)         -0.4491         estimate D2E/DX2                !
 ! D71   D(10,11,12,9)           0.5394         estimate D2E/DX2                !
 ! D72   D(10,11,12,36)        178.947          estimate D2E/DX2                !
 ! D73   D(37,11,12,9)        -178.4049         estimate D2E/DX2                !
 ! D74   D(37,11,12,36)          0.0026         estimate D2E/DX2                !
 ! D75   D(1,13,14,15)          -2.0854         estimate D2E/DX2                !
 ! D76   D(1,13,14,32)        -177.4625         estimate D2E/DX2                !
 ! D77   D(30,13,14,15)       -151.7834         estimate D2E/DX2                !
 ! D78   D(30,13,14,32)         32.8396         estimate D2E/DX2                !
 ! D79   D(31,13,14,15)        110.2686         estimate D2E/DX2                !
 ! D80   D(31,13,14,32)        -65.1084         estimate D2E/DX2                !
 ! D81   D(1,13,30,23)          39.2061         estimate D2E/DX2                !
 ! D82   D(1,13,30,29)        -145.2476         estimate D2E/DX2                !
 ! D83   D(14,13,30,23)       -172.6978         estimate D2E/DX2                !
 ! D84   D(14,13,30,29)          2.8485         estimate D2E/DX2                !
 ! D85   D(31,13,30,23)        -67.0922         estimate D2E/DX2                !
 ! D86   D(31,13,30,29)        108.4541         estimate D2E/DX2                !
 ! D87   D(13,14,15,6)          -0.8747         estimate D2E/DX2                !
 ! D88   D(13,14,15,33)       -178.3241         estimate D2E/DX2                !
 ! D89   D(32,14,15,6)         174.637          estimate D2E/DX2                !
 ! D90   D(32,14,15,33)         -2.8124         estimate D2E/DX2                !
 ! D91   D(2,16,17,18)          -2.7572         estimate D2E/DX2                !
 ! D92   D(2,16,17,22)         177.585          estimate D2E/DX2                !
 ! D93   D(19,16,17,18)        175.4992         estimate D2E/DX2                !
 ! D94   D(19,16,17,22)         -4.1586         estimate D2E/DX2                !
 ! D95   D(2,16,19,20)        -179.6992         estimate D2E/DX2                !
 ! D96   D(2,16,19,23)           4.4248         estimate D2E/DX2                !
 ! D97   D(17,16,19,20)          2.2177         estimate D2E/DX2                !
 ! D98   D(17,16,19,23)       -173.6583         estimate D2E/DX2                !
 ! D99   D(16,17,18,10)          0.7521         estimate D2E/DX2                !
 ! D100  D(16,17,18,38)       -179.3735         estimate D2E/DX2                !
 ! D101  D(22,17,18,10)       -179.5875         estimate D2E/DX2                !
 ! D102  D(22,17,18,38)          0.2869         estimate D2E/DX2                !
 ! D103  D(16,17,22,21)          2.2443         estimate D2E/DX2                !
 ! D104  D(16,17,22,39)       -178.7658         estimate D2E/DX2                !
 ! D105  D(18,17,22,21)       -177.4313         estimate D2E/DX2                !
 ! D106  D(18,17,22,39)          1.5586         estimate D2E/DX2                !
 ! D107  D(16,19,20,21)          1.518          estimate D2E/DX2                !
 ! D108  D(16,19,20,26)       -176.3623         estimate D2E/DX2                !
 ! D109  D(23,19,20,21)        177.8326         estimate D2E/DX2                !
 ! D110  D(23,19,20,26)         -0.0477         estimate D2E/DX2                !
 ! D111  D(16,19,23,24)        170.4517         estimate D2E/DX2                !
 ! D112  D(16,19,23,30)         -8.0896         estimate D2E/DX2                !
 ! D113  D(20,19,23,24)         -5.2561         estimate D2E/DX2                !
 ! D114  D(20,19,23,30)        176.2026         estimate D2E/DX2                !
 ! D115  D(19,20,21,22)         -3.4249         estimate D2E/DX2                !
 ! D116  D(19,20,21,40)        179.2879         estimate D2E/DX2                !
 ! D117  D(26,20,21,22)        174.5709         estimate D2E/DX2                !
 ! D118  D(26,20,21,40)         -2.7163         estimate D2E/DX2                !
 ! D119  D(19,20,26,25)          4.1057         estimate D2E/DX2                !
 ! D120  D(19,20,26,41)       -179.443          estimate D2E/DX2                !
 ! D121  D(21,20,26,25)       -173.9211         estimate D2E/DX2                !
 ! D122  D(21,20,26,41)          2.5302         estimate D2E/DX2                !
 ! D123  D(20,21,22,17)          1.3934         estimate D2E/DX2                !
 ! D124  D(20,21,22,39)       -177.6208         estimate D2E/DX2                !
 ! D125  D(40,21,22,17)        178.7588         estimate D2E/DX2                !
 ! D126  D(40,21,22,39)         -0.2553         estimate D2E/DX2                !
 ! D127  D(19,23,24,25)          6.9871         estimate D2E/DX2                !
 ! D128  D(19,23,24,27)       -172.3797         estimate D2E/DX2                !
 ! D129  D(30,23,24,25)       -174.2382         estimate D2E/DX2                !
 ! D130  D(30,23,24,27)          6.395          estimate D2E/DX2                !
 ! D131  D(19,23,30,13)        -15.9699         estimate D2E/DX2                !
 ! D132  D(19,23,30,29)        168.6305         estimate D2E/DX2                !
 ! D133  D(24,23,30,13)        165.4654         estimate D2E/DX2                !
 ! D134  D(24,23,30,29)         -9.9342         estimate D2E/DX2                !
 ! D135  D(23,24,25,26)         -3.2792         estimate D2E/DX2                !
 ! D136  D(23,24,25,42)        177.8061         estimate D2E/DX2                !
 ! D137  D(27,24,25,26)        176.136          estimate D2E/DX2                !
 ! D138  D(27,24,25,42)         -2.7787         estimate D2E/DX2                !
 ! D139  D(23,24,27,28)          0.6189         estimate D2E/DX2                !
 ! D140  D(23,24,27,43)        178.6128         estimate D2E/DX2                !
 ! D141  D(25,24,27,28)       -178.7892         estimate D2E/DX2                !
 ! D142  D(25,24,27,43)         -0.7953         estimate D2E/DX2                !
 ! D143  D(24,25,26,20)         -2.5372         estimate D2E/DX2                !
 ! D144  D(24,25,26,41)       -179.0987         estimate D2E/DX2                !
 ! D145  D(42,25,26,20)        176.412          estimate D2E/DX2                !
 ! D146  D(42,25,26,41)         -0.1495         estimate D2E/DX2                !
 ! D147  D(24,27,28,29)         -4.2691         estimate D2E/DX2                !
 ! D148  D(24,27,28,44)        177.5405         estimate D2E/DX2                !
 ! D149  D(43,27,28,29)        177.6772         estimate D2E/DX2                !
 ! D150  D(43,27,28,44)         -0.5132         estimate D2E/DX2                !
 ! D151  D(27,28,29,30)          0.3453         estimate D2E/DX2                !
 ! D152  D(27,28,29,45)       -178.712          estimate D2E/DX2                !
 ! D153  D(44,28,29,30)        178.5373         estimate D2E/DX2                !
 ! D154  D(44,28,29,45)         -0.52           estimate D2E/DX2                !
 ! D155  D(28,29,30,13)       -168.6652         estimate D2E/DX2                !
 ! D156  D(28,29,30,23)          7.0819         estimate D2E/DX2                !
 ! D157  D(45,29,30,13)         10.3456         estimate D2E/DX2                !
 ! D158  D(45,29,30,23)       -173.9073         estimate D2E/DX2                !
 --------------------------------------------------------------------------------
 Trust Radius=3.00D-01 FncErr=1.00D-07 GrdErr=1.00D-06 EigMax=2.50D+02 EigMin=1.00D-04
 Number of steps in this run=    270 maximum allowed number of steps=    270.
 GradGradGradGradGradGradGradGradGradGradGradGradGradGradGradGradGradGrad

                          Input orientation:                          
 ---------------------------------------------------------------------
 Center     Atomic      Atomic             Coordinates (Angstroms)
 Number     Number       Type             X           Y           Z
 ---------------------------------------------------------------------
      1          6           0       -4.031570   -0.094610   -0.096790
      2          6           0       -2.604150   -0.282450   -0.020040
      3          6           0       -2.416840   -1.655680    0.105380
      4          6           0       -4.597460   -1.361710    0.011290
      5          6           0       -3.615810   -2.280010    0.144620
      6          6           0       -5.930940   -1.708810   -0.081410
      7          6           0       -6.216430   -3.100310    0.046350
      8          6           0       -5.168980   -4.055840    0.206730
      9          6           0       -3.806300   -3.649250    0.235240
     10          6           0       -1.225670   -2.343030    0.139850
     11          6           0       -1.331280   -3.761160    0.262550
     12          6           0       -2.603780   -4.403730    0.315140
     13          6           0       -4.811340    1.007650   -0.407680
     14          6           0       -6.227340    0.693400   -0.496530
     15          6           0       -6.775230   -0.614110   -0.331300
     16          6           0       -1.531310    0.583380   -0.097720
     17          6           0       -0.249990   -0.084690   -0.106470
     18          6           0       -0.105910   -1.503070    0.016580
     19          6           0       -1.668480    2.028460   -0.127450
     20          6           0       -0.420690    2.718710   -0.216610
     21          6           0        0.810270    2.056820   -0.300870
     22          6           0        0.898370    0.676440   -0.232600
     23          6           0       -2.919840    2.840300    0.007840
     24          6           0       -2.739150    4.255670    0.153630
     25          6           0       -1.492160    4.856230    0.026570
     26          6           0       -0.354920    4.103210   -0.181180
     27          6           0       -3.789130    5.134070    0.444930
     28          6           0       -5.075460    4.675600    0.622880
     29          6           0       -5.335150    3.334040    0.420930
     30          6           0       -4.323890    2.409120    0.043740
     31          1           0       -4.529210    1.261700   -1.477000
     32          1           0       -6.931990    1.477260   -0.777100
     33          1           0       -7.846020   -0.763390   -0.441550
     34          1           0       -7.246480   -3.444590   -0.007390
     35          1           0       -5.417840   -5.111860    0.277470
     36          1           0       -2.651070   -5.487240    0.391490
     37          1           0       -0.428270   -4.365910    0.299660
     38          1           0        0.884920   -1.952990    0.014010
     39          1           0        1.881310    0.212220   -0.263650
     40          1           0        1.739690    2.619760   -0.379090
     41          1           0        0.597320    4.624940   -0.258460
     42          1           0       -1.378190    5.936390    0.105250
     43          1           0       -3.607710    6.200620    0.570100
     44          1           0       -5.875960    5.359800    0.887640
     45          1           0       -6.366650    3.019570    0.551010
 ---------------------------------------------------------------------
                    Distance matrix (angstroms):
                    1          2          3          4          5
     1  C    0.000000
     2  C    1.441771   0.000000
     3  C    2.255031   1.391609   0.000000
     4  C    1.391925   2.266951   2.202357   0.000000
     5  C    2.237657   2.245176   1.352352   1.350810   0.000000
     6  C    2.492686   3.620193   3.519462   1.381029   2.395242
     7  C    3.718647   4.581846   4.065381   2.375926   2.728694
     8  C    4.132453   4.568178   3.653124   2.761009   2.360035
     9  C    3.577213   3.584086   2.433472   2.430828   1.385394
    10  C    3.603396   2.484303   1.375690   3.514041   2.390975
    11  C    4.567743   3.715034   2.374066   4.060594   2.725214
    12  C    4.558156   4.134887   2.762377   3.649790   2.358701
    13  C    1.385522   2.585790   3.618036   2.415605   3.541615
    14  C    2.366888   3.782437   4.516678   2.671679   4.009031
    15  C    2.802239   4.195806   4.502346   2.327865   3.603284
    16  C    2.590554   1.380826   2.416361   3.632703   3.550052
    17  C    3.781605   2.364032   2.684796   4.532675   4.026316
    18  C    4.172220   2.780730   2.317665   4.493777   3.597142
    19  C    3.176879   2.495460   3.766582   4.482346   4.735930
    20  C    4.579037   3.716598   4.819085   5.843558   5.943608
    21  C    5.302237   4.148411   4.935781   6.405258   6.212627
    22  C    4.991720   3.637623   4.067386   5.866659   5.409317
    23  C    3.140157   3.138790   4.525081   4.524523   5.169203
    24  C    4.545107   4.543448   5.920327   5.918491   6.594219
    25  C    5.565486   5.257825   6.577706   6.950245   7.446459
    26  C    5.580911   4.931431   6.123597   6.921094   7.175308
    27  C    5.262255   5.564087   6.935357   6.560229   7.422184
    28  C    4.935842   5.577004   6.886303   6.087006   7.123189
    29  C    3.704456   4.553220   5.789077   4.770960   5.877928
    30  C    2.524651   3.194702   4.490349   3.780880   4.743363
    31  H    1.998050   2.865831   3.934100   3.016943   4.000957
    32  H    3.368387   4.732855   5.566028   3.759167   5.095458
    33  H    3.887950   5.280736   5.529133   3.334096   4.531932
    34  H    4.643921   5.616985   5.151537   3.369873   3.815903
    35  H    5.218679   5.597193   4.580480   3.848051   3.359217
    36  H    5.587903   5.221245   3.849360   4.577443   3.358272
    37  H    5.602227   4.638028   3.367121   5.146894   3.812536
    38  H    5.257160   3.868523   3.316378   5.514174   4.514485
    39  H    5.923186   4.519225   4.700992   6.672879   6.049481
    40  H    6.383960   5.236476   5.982545   7.494262   7.277596
    41  H    6.612633   5.864191   6.975939   7.930856   8.098844
    42  H    6.591980   6.339767   7.662788   7.977142   8.515734
    43  H    6.344629   6.586774   7.959622   7.647268   8.491300
    44  H    5.841358   6.585105   7.860942   6.897916   8.001691
    45  H    3.945930   5.038436   6.136575   4.755728   5.984799
                    6          7          8          9         10
     6  C    0.000000
     7  C    1.426219   0.000000
     8  C    2.484383   1.426853   0.000000
     9  C    2.894766   2.479061   1.422331   0.000000
    10  C    4.752973   5.048752   4.299754   2.893953   0.000000
    11  C    5.048497   4.934385   3.849402   2.477699   1.427341
    12  C    4.299981   3.849986   2.590952   1.421857   2.485236
    13  C    2.956199   4.365290   5.113153   4.807304   4.938003
    14  C    2.455767   3.832372   4.916297   5.025488   5.885711
    15  C    1.404863   2.576057   3.836016   4.283408   5.831703
    16  C    4.960962   5.961600   5.903194   4.816804   2.951903
    17  C    5.908603   6.686982   6.329659   5.046800   2.472392
    18  C    5.829486   6.315894   5.673400   4.283315   1.405201
    19  C    5.669027   6.856992   7.027367   6.077681   4.401983
    20  C    7.069941   8.217101   8.283719   7.226163   5.137730
    21  C    7.724768   8.723019   8.565845   7.359305   4.868056
    22  C    7.235451   8.059903   7.707154   6.408150   3.710453
    23  C    5.456106   6.794103   7.256372   6.553761   5.454773
    24  C    6.768884   8.137163   8.659566   7.977044   6.770056
    25  C    7.925540   9.253413   9.642430   8.817141   7.205081
    26  C    8.054907   9.289767   9.481337   8.496238   6.512701
    27  C    7.189533   8.593932   9.295976   8.785839   7.910210
    28  C    6.479858   7.880290   8.741852   8.429956   8.019686
    29  C    5.102710   6.505215   7.394851   7.151098   7.013983
    30  C    4.422174   5.825421   6.521997   6.083455   5.673723
    31  H    3.568816   4.918784   5.614311   5.250885   5.149918
    32  H    3.411323   4.705767   5.889934   6.088996   6.928023
    33  H    2.165883   2.890468   4.292672   5.010546   6.830983
    34  H    2.179233   1.087391   2.176116   3.454793   6.122521
    35  H    3.460176   2.176579   1.087251   2.176711   5.025898
    36  H    5.025705   4.304457   2.902226   2.176506   3.461379
    37  H    6.122481   5.930321   4.751748   3.453815   2.180236
    38  H    6.820900   7.193508   6.411616   4.993374   2.150013
    39  H    8.047038   8.754562   8.254949   6.892659   4.042949
    40  H    8.812701   9.808162   9.624788   8.392609   5.804476
    41  H    9.097577  10.305318  10.431805   9.386044   7.213498
    42  H    8.900082  10.250560  10.687612   9.889242   8.280897
    43  H    8.269277   9.674039  10.380972   9.857561   8.879932
    44  H    7.134937   8.508651   9.466664   9.266720   9.028731
    45  H    4.790342   6.142490   7.184314   7.150403   7.440175
                   11         12         13         14         15
    11  C    0.000000
    12  C    1.426506   0.000000
    13  C    5.941513   5.888873   0.000000
    14  C    6.662635   6.306325   1.453170   0.000000
    15  C    6.316104   5.672751   2.548098   1.427258   0.000000
    16  C    4.364039   5.117803   3.321848   4.714218   5.383980
    17  C    3.849909   4.936820   4.699984   6.040388   6.550541
    18  C    2.580892   3.839573   5.350213   6.523777   6.737292
    19  C    5.812530   6.514886   3.316346   4.764642   5.753575
    20  C    6.561058   7.468453   4.716147   6.156088   7.176421
    21  C    6.225156   7.333070   5.719674   7.171133   8.042052
    22  C    4.990872   6.194611   5.721988   7.130616   7.781992
    23  C    6.794680   7.257431   2.666277   3.975314   5.187677
    24  C    8.140241   8.661964   3.893414   5.027917   6.343489
    25  C    8.622122   9.330907   5.100696   6.326509   7.613378
    26  C    7.937159   8.813157   5.430789   6.797909   7.968439
    27  C    9.230352   9.612051   4.335804   5.152743   6.523872
    28  C    9.237296   9.414783   3.819119   4.293929   5.637438
    29  C    8.148492   8.206379   2.524492   2.934402   4.269376
    30  C    6.861191   7.031882   1.550969   2.618914   3.910197
    31  H    6.203379   6.246290   1.134718   2.041551   3.142594
    32  H    7.738854   7.383254   2.203216   1.090728   2.144094
    33  H    7.205846   6.426954   3.513832   2.178390   1.086752
    34  H    5.929812   4.751698   5.090440   4.289623   2.887665
    35  H    4.304020   2.902034   6.187542   5.912310   4.737390
    36  H    2.176654   1.087226   6.891229   7.195735   6.424836
    37  H    1.087440   2.175894   6.970422   7.736908   7.399866
    38  H    2.871027   4.274089   6.433552   7.605805   7.783941
    39  H    5.136669   6.462045   6.741292   8.126252   8.696153
    40  H    7.110464   8.287165   6.746533   8.197452   9.108461
    41  H    8.620767   9.596507   6.508506   7.879700   9.044747
    42  H    9.698939  10.414615   6.028440   7.166962   8.498686
    43  H   10.223198  10.654817   5.419568   6.191093   7.568768
    44  H   10.209641  10.313168   4.663955   4.880029   6.162962
    45  H    8.450826   8.325876   2.717701   2.554959   3.761521
                   16         17         18         19         20
    16  C    0.000000
    17  C    1.445052   0.000000
    18  C    2.529447   1.430979   0.000000
    19  C    1.451880   2.545183   3.864463   0.000000
    20  C    2.409823   2.810751   4.239916   1.428767   0.000000
    21  C    2.774039   2.397500   3.689577   2.484971   1.400165
    22  C    2.435200   1.383459   2.412661   2.903056   2.431263
    23  C    2.651951   3.961910   5.175243   1.497761   2.512153
    24  C    3.873986   5.010219   6.333705   2.487128   2.806168
    25  C    4.274837   5.096408   6.508647   2.837445   2.403368
    26  C    3.712151   4.189880   5.615291   2.456199   1.386514
    27  C    5.108914   6.329693   7.602711   3.803891   4.197379
    28  C    5.461367   6.817439   7.952358   4.379253   5.118696
    29  C    4.722746   6.150180   7.134850   3.930614   4.993697
    30  C    3.339437   4.778945   5.753027   2.688012   3.924105
    31  H    3.368967   4.690719   5.425893   3.254686   4.537775
    32  H    5.516151   6.894821   7.490505   5.332017   6.652246
    33  H    6.465877   7.633648   7.788858   6.786390   8.204337
    34  H    6.992558   7.762063   7.399852   7.815547   9.198992
    35  H    6.905189   7.219870   6.427132   8.075013   9.302336
    36  H    6.192384   5.933017   4.742574   7.597403   8.525374
    37  H    5.086264   4.304134   2.894806   6.527520   7.103410
    38  H    3.504829   2.189311   1.088200   4.731998   4.856190
    39  H    3.436753   2.157615   2.640036   3.989773   3.403514
    40  H    3.863347   3.368560   4.534371   3.468224   2.168740
    41  H    4.570679   4.787656   6.174357   3.448583   2.161437
    42  H    5.359045   6.129524   7.547988   3.925600   3.372516
    43  H    6.025845   7.158013   8.480320   4.653397   4.785364
    44  H    6.531547   7.891911   9.008396   5.461787   6.160738
    45  H    5.453108   6.890736   7.741883   4.849269   6.002849
                   21         22         23         24         25
    21  C    0.000000
    22  C    1.384872   0.000000
    23  C    3.823985   4.395319   0.000000
    24  C    4.199987   5.117774   1.434286   0.000000
    25  C    3.639381   4.822079   2.470343   1.389892   0.000000
    26  C    2.357903   3.649128   2.865220   2.412446   1.379679
    27  C    5.583920   6.504012   2.491605   1.399607   2.351232
    28  C    6.507929   7.239597   2.897119   2.419686   3.637066
    29  C    6.318107   6.807842   2.499629   2.767683   4.152247
    30  C    5.157758   5.509133   1.469204   2.435821   3.742638
    31  H    5.524993   5.599079   2.699407   3.850601   4.940146
    32  H    7.778514   7.890015   4.309450   5.115245   6.454074
    33  H    9.105204   8.864600   6.120113   7.185076   8.495340
    34  H    9.760270   9.130837   7.630196   8.923898  10.100345
    35  H    9.513874   8.582488   8.339637   9.743784  10.716190
    36  H    8.329050   7.139955   8.340704   9.746211  10.414586
    37  H    6.568567   5.241046   7.630370   8.927101   9.287320
    38  H    4.022847   2.641004   6.119793   7.190329   7.212222
    39  H    2.133322   1.087490   5.480105   6.154044   5.747291
    40  H    1.089422   2.122680   4.680766   4.797916   3.951103
    41  H    2.577283   3.960044   3.953008   3.382042   2.121477
    42  H    4.472735   5.741423   3.460050   2.163186   1.089002
    43  H    6.119495   7.173956   3.475781   2.170409   2.564832
    44  H    7.551682   8.311459   3.982534   3.405503   4.495857
    45  H    7.291143   7.673644   3.493948   3.852870   5.235361
                   26         27         28         29         30
    26  C    0.000000
    27  C    3.639847   0.000000
    28  C    4.822618   1.377137   0.000000
    29  C    5.075121   2.372944   1.381306   0.000000
    30  C    4.321256   2.805757   2.457070   1.421406   0.000000
    31  H    5.213255   4.385976   4.045071   2.923401   1.916084
    32  H    7.106939   4.974252   3.954242   2.726317   2.888655
    33  H    8.936899   7.212783   6.196098   4.882343   4.765053
    34  H   10.222186   9.260198   8.429001   7.055952   6.542940
    35  H   10.524307  10.375925   9.799536   8.447523   7.603716
    36  H    9.878106  10.682241  10.450575   9.220636   8.079094
    37  H    8.483076  10.078001  10.171025   9.131342   7.819359
    38  H    6.184890   8.500521   8.935047   8.173588   6.794158
    39  H    4.488578   7.541922   8.312902   7.892509   6.589793
    40  H    2.574332   6.129324   7.188650   7.155668   6.081953
    41  H    1.088547   4.471567   5.741059   6.109189   5.405506
    42  H    2.118885   2.563539   3.940474   4.746516   4.595929
    43  H    3.942612   1.089087   2.117253   3.350161   3.894283
    44  H    5.762229   2.145182   1.085830   2.148022   3.439128
    45  H    6.152339   3.335562   2.101136   1.086188   2.191538
                   31         32         33         34         35
    31  H    0.000000
    32  H    2.511907   0.000000
    33  H    4.021738   2.443063   0.000000
    34  H    5.629607   4.991589   2.781506   0.000000
    35  H    6.670090   6.842607   5.032121   2.490955   0.000000
    36  H    7.250300   8.258095   7.070801   5.044732   2.794446
    37  H    7.186392   8.809110   8.279526   6.887024   5.045071
    38  H    6.470715   8.573013   8.823378   8.267103   7.054974
    39  H    6.608207   8.918420   9.777751   9.836385   9.050758
    40  H    6.507599   8.755670  10.165404  10.847385  10.556479
    41  H    6.251203   8.177248  10.017865  11.256356  11.457515
    42  H    5.855354   7.176843   9.328390  11.065817  11.764874
    43  H    5.425192   5.930929   8.214873  10.324932  11.460122
    44  H    4.919317   4.354386   6.568207   8.955260  10.499421
    45  H    3.252555   2.112393   4.181447   6.547616   8.191167
                   36         37         38         39         40
    36  H    0.000000
    37  H    2.491316   0.000000
    38  H    5.013645   2.761928   0.000000
    39  H    7.311328   5.158561   2.399588   0.000000
    40  H    9.251811   7.345770   4.668533   2.414463   0.000000
    41  H   10.640989   9.066351   6.589850   4.595732   2.310911
    42  H   11.497890  10.347827   8.208064   6.597465   4.577750
    43  H   11.728305  11.037823   9.326002   8.166114   6.505245
    44  H   11.327151  11.162996   9.997481   9.380740   8.192103
    45  H    9.284223   9.480129   8.809086   8.750642   8.169313
                   41         42         43         44         45
    41  H    0.000000
    42  H    2.398922   0.000000
    43  H    4.566350   2.292741   0.000000
    44  H    6.614901   4.601579   2.439829   0.000000
    45  H    7.192311   5.795798   4.210842   2.414699   0.000000
 Stoichiometry    C30H15(2)
 Framework group  C1[X(C30H15)]
 Deg. of freedom   129
 Full point group                 C1      NOp   1
 Largest Abelian subgroup         C1      NOp   1
 Largest concise Abelian subgroup C1      NOp   1
                         Standard orientation:                         
 ---------------------------------------------------------------------
 Center     Atomic      Atomic             Coordinates (Angstroms)
 Number     Number       Type             X           Y           Z
 ---------------------------------------------------------------------
      1          6           0       -0.698707   -0.887728    0.125235
      2          6           0       -0.539956    0.541909    0.027066
      3          6           0       -1.828963    1.050416   -0.101225
      4          6           0       -2.064754   -1.135606    0.025590
      5          6           0       -2.722076    0.035156   -0.122504
      6          6           0       -2.720390   -2.345848    0.138269
      7          6           0       -4.140228   -2.292027    0.014732
      8          6           0       -4.818057   -1.048871   -0.161398
      9          6           0       -4.097447    0.176425   -0.210329
     10          6           0       -2.211577    2.370790   -0.153601
     11          6           0       -3.614231    2.605693   -0.274779
     12          6           0       -4.542688    1.523214   -0.308305
     13          6           0        0.186148   -1.903908    0.447850
     14          6           0       -0.457343   -3.202179    0.557919
     15          6           0       -1.858523   -3.423749    0.400858
     16          6           0        0.557614    1.377508    0.088687
     17          6           0        0.215435    2.781423    0.078174
     18          6           0       -1.127742    3.258794   -0.047101
     19          6           0        1.928038    0.899097    0.120549
     20          6           0        2.897011    1.946715    0.191014
     21          6           0        2.549054    3.301360    0.256759
     22          6           0        1.229578    3.716092    0.187100
     23          6           0        2.416532   -0.511967    0.004095
     24          6           0        3.833514   -0.677232   -0.144314
     25          6           0        4.715343    0.391615   -0.035946
     26          6           0        4.256923    1.678871    0.154676
     27          6           0        4.434249   -1.910981   -0.419779
     28          6           0        3.680796   -3.052753   -0.578433
     29          6           0        2.316785   -2.981022   -0.372681
     30          6           0        1.661923   -1.772485   -0.010757
     31          1           0        0.504084   -1.675177    1.512830
     32          1           0        0.136215   -4.069708    0.849073
     33          1           0       -2.259190   -4.426020    0.527154
     34          1           0       -4.720690   -3.208924    0.083903
     35          1           0       -5.903192   -1.038905   -0.228453
     36          1           0       -5.606324    1.735370   -0.383995
     37          1           0       -3.985574    3.626507   -0.325467
     38          1           0       -1.327606    4.328412   -0.059422
     39          1           0        1.014044    4.781885    0.203373
     40          1           0        3.318226    4.070179    0.321055
     41          1           0        4.991536    2.479689    0.217688
     42          1           0        5.791126    0.242737   -0.116269
     43          1           0        5.512786   -1.991798   -0.547599
     44          1           0        4.152734   -3.997451   -0.831115
     45          1           0        1.764271   -3.909138   -0.487287
 ---------------------------------------------------------------------
 Rotational constants (GHZ):           0.2804291           0.1568830           0.1017128
 Standard basis: 6-311+G(d,p) (5D, 7F)
 There are   780 symmetry adapted cartesian basis functions of A   symmetry.
 There are   750 symmetry adapted basis functions of A   symmetry.
   750 basis functions,  1200 primitive gaussians,   780 cartesian basis functions
    98 alpha electrons       97 beta electrons
       nuclear repulsion energy      2612.8950354600 Hartrees.
 NAtoms=   45 NActive=   45 NUniq=   45 SFac= 1.00D+00 NAtFMM=   60 NAOKFM=F Big=F
 Integral buffers will be    131072 words long.
 Raffenetti 2 integral format.
 Two-electron integral symmetry is turned on.
 One-electron integrals computed using PRISM.
 NBasis=   750 RedAO= T EigKep=  1.06D-06  NBF=   750
 NBsUse=   727 1.00D-06 EigRej=  7.58D-07 NBFU=   727
 ExpMin= 4.38D-02 ExpMax= 4.56D+03 ExpMxC= 6.82D+02 IAcc=2 IRadAn=         4 AccDes= 0.00D+00
 Harris functional with IExCor=  402 and IRadAn=       4 diagonalized for initial guess.
 HarFok:  IExCor=  402 AccDes= 0.00D+00 IRadAn=         4 IDoV= 1 UseB2=F ITyADJ=14
 ICtDFT=  3500011 ScaDFX=  1.000000  1.000000  1.000000  1.000000
 FoFCou: FMM=F IPFlag=           0 FMFlag=      100000 FMFlg1=           0
         NFxFlg=           0 DoJE=T BraDBF=F KetDBF=T FulRan=T
         wScrn=  0.000000 ICntrl=       500 IOpCl=  0 I1Cent=   200000004 NGrid=           0
         NMat0=    1 NMatS0=      1 NMatT0=    0 NMatD0=    1 NMtDS0=    0 NMtDT0=    0
 Petite list used in FoFCou.
 Initial guess <Sx>= 0.0000 <Sy>= 0.0000 <Sz>= 0.5000 <S**2>= 0.7500 S= 0.5000
 Requested convergence on RMS density matrix=1.00D-08 within 128 cycles.
 Requested convergence on MAX density matrix=1.00D-06.
 Requested convergence on             energy=1.00D-06.
 No special actions if energy rises.
 Restarting incremental Fock formation.
 SCF Done:  E(UB3LYP) =  -1152.43838663     A.U. after   26 cycles
            NFock= 26  Conv=0.51D-08     -V/T= 2.0038
 <Sx>= 0.0000 <Sy>= 0.0000 <Sz>= 0.5000 <S**2>= 0.7792 S= 0.5145
 <L.S>=  0.00000000000    
 Annihilation of the first spin contaminant:
 S**2 before annihilation     0.7792,   after     0.7507

 **********************************************************************

            Population analysis using the SCF Density.

 **********************************************************************

 Orbital symmetries:
 Alpha Orbitals:
       Occupied  (A) (A) (A) (A) (A) (A) (A) (A) (A) (A) (A) (A)
                 (A) (A) (A) (A) (A) (A) (A) (A) (A) (A) (A) (A)
                 (A) (A) (A) (A) (A) (A) (A) (A) (A) (A) (A) (A)
                 (A) (A) (A) (A) (A) (A) (A) (A) (A) (A) (A) (A)
                 (A) (A) (A) (A) (A) (A) (A) (A) (A) (A) (A) (A)
                 (A) (A) (A) (A) (A) (A) (A) (A) (A) (A) (A) (A)
                 (A) (A) (A) (A) (A) (A) (A) (A) (A) (A) (A) (A)
                 (A) (A) (A) (A) (A) (A) (A) (A) (A) (A) (A) (A)
                 (A) (A)
       Virtual   (A) (A) (A) (A) (A) (A) (A) (A) (A) (A) (A) (A)
                 (A) (A) (A) (A) (A) (A) (A) (A) (A) (A) (A) (A)
                 (A) (A) (A) (A) (A) (A) (A) (A) (A) (A) (A) (A)
                 (A) (A) (A) (A) (A) (A) (A) (A) (A) (A) (A) (A)
                 (A) (A) (A) (A) (A) (A) (A) (A) (A) (A) (A) (A)
                 (A) (A) (A) (A) (A) (A) (A) (A) (A) (A) (A) (A)
                 (A) (A) (A) (A) (A) (A) (A) (A) (A) (A) (A) (A)
                 (A) (A) (A) (A) (A) (A) (A) (A) (A) (A) (A) (A)
                 (A) (A) (A) (A) (A) (A) (A) (A) (A) (A) (A) (A)
                 (A) (A) (A) (A) (A) (A) (A) (A) (A) (A) (A) (A)
                 (A) (A) (A) (A) (A) (A) (A) (A) (A) (A) (A) (A)
                 (A) (A) (A) (A) (A) (A) (A) (A) (A) (A) (A) (A)
                 (A) (A) (A) (A) (A) (A) (A) (A) (A) (A) (A) (A)
                 (A) (A) (A) (A) (A) (A) (A) (A) (A) (A) (A) (A)
                 (A) (A) (A) (A) (A) (A) (A) (A) (A) (A) (A) (A)
                 (A) (A) (A) (A) (A) (A) (A) (A) (A) (A) (A) (A)
                 (A) (A) (A) (A) (A) (A) (A) (A) (A) (A) (A) (A)
                 (A) (A) (A) (A) (A) (A) (A) (A) (A) (A) (A) (A)
                 (A) (A) (A) (A) (A) (A) (A) (A) (A) (A) (A) (A)
                 (A) (A) (A) (A) (A) (A) (A) (A) (A) (A) (A) (A)
                 (A) (A) (A) (A) (A) (A) (A) (A) (A) (A) (A) (A)
                 (A) (A) (A) (A) (A) (A) (A) (A) (A) (A) (A) (A)
                 (A) (A) (A) (A) (A) (A) (A) (A) (A) (A) (A) (A)
                 (A) (A) (A) (A) (A) (A) (A) (A) (A) (A) (A) (A)
                 (A) (A) (A) (A) (A) (A) (A) (A) (A) (A) (A) (A)
                 (A) (A) (A) (A) (A) (A) (A) (A) (A) (A) (A) (A)
                 (A) (A) (A) (A) (A) (A) (A) (A) (A) (A) (A) (A)
                 (A) (A) (A) (A) (A) (A) (A) (A) (A) (A) (A) (A)
                 (A) (A) (A) (A) (A) (A) (A) (A) (A) (A) (A) (A)
                 (A) (A) (A) (A) (A) (A) (A) (A) (A) (A) (A) (A)
                 (A) (A) (A) (A) (A) (A) (A) (A) (A) (A) (A) (A)
                 (A) (A) (A) (A) (A) (A) (A) (A) (A) (A) (A) (A)
                 (A) (A) (A) (A) (A) (A) (A) (A) (A) (A) (A) (A)
                 (A) (A) (A) (A) (A) (A) (A) (A) (A) (A) (A) (A)
                 (A) (A) (A) (A) (A) (A) (A) (A) (A) (A) (A) (A)
                 (A) (A) (A) (A) (A) (A) (A) (A) (A) (A) (A) (A)
                 (A) (A) (A) (A) (A) (A) (A) (A) (A) (A) (A) (A)
                 (A) (A) (A) (A) (A) (A) (A) (A) (A) (A) (A) (A)
                 (A) (A) (A) (A) (A) (A) (A) (A) (A) (A) (A) (A)
                 (A) (A) (A) (A) (A) (A) (A) (A) (A) (A) (A) (A)
                 (A) (A) (A) (A) (A) (A) (A) (A) (A) (A) (A) (A)
                 (A) (A) (A) (A) (A) (A) (A) (A) (A) (A) (A) (A)
                 (A) (A) (A) (A) (A) (A) (A) (A) (A) (A) (A) (A)
                 (A) (A) (A) (A) (A) (A) (A) (A) (A) (A) (A) (A)
                 (A) (A) (A) (A) (A) (A) (A) (A) (A) (A) (A) (A)
                 (A) (A) (A) (A) (A) (A) (A) (A) (A) (A) (A) (A)
                 (A) (A) (A) (A) (A) (A) (A) (A) (A) (A) (A) (A)
                 (A) (A) (A) (A) (A) (A) (A) (A) (A) (A) (A) (A)
                 (A) (A) (A) (A) (A) (A) (A) (A) (A) (A) (A) (A)
                 (A) (A) (A) (A) (A) (A) (A) (A) (A) (A) (A) (A)
                 (A) (A) (A) (A) (A) (A) (A) (A) (A) (A) (A) (A)
                 (A) (A) (A) (A) (A) (A) (A) (A) (A) (A) (A) (A)
                 (A) (A) (A) (A) (A)
 Beta  Orbitals:
       Occupied  (A) (A) (A) (A) (A) (A) (A) (A) (A) (A) (A) (A)
                 (A) (A) (A) (A) (A) (A) (A) (A) (A) (A) (A) (A)
                 (A) (A) (A) (A) (A) (A) (A) (A) (A) (A) (A) (A)
                 (A) (A) (A) (A) (A) (A) (A) (A) (A) (A) (A) (A)
                 (A) (A) (A) (A) (A) (A) (A) (A) (A) (A) (A) (A)
                 (A) (A) (A) (A) (A) (A) (A) (A) (A) (A) (A) (A)
                 (A) (A) (A) (A) (A) (A) (A) (A) (A) (A) (A) (A)
                 (A) (A) (A) (A) (A) (A) (A) (A) (A) (A) (A) (A)
                 (A)
       Virtual   (A) (A) (A) (A) (A) (A) (A) (A) (A) (A) (A) (A)
                 (A) (A) (A) (A) (A) (A) (A) (A) (A) (A) (A) (A)
                 (A) (A) (A) (A) (A) (A) (A) (A) (A) (A) (A) (A)
                 (A) (A) (A) (A) (A) (A) (A) (A) (A) (A) (A) (A)
                 (A) (A) (A) (A) (A) (A) (A) (A) (A) (A) (A) (A)
                 (A) (A) (A) (A) (A) (A) (A) (A) (A) (A) (A) (A)
                 (A) (A) (A) (A) (A) (A) (A) (A) (A) (A) (A) (A)
                 (A) (A) (A) (A) (A) (A) (A) (A) (A) (A) (A) (A)
                 (A) (A) (A) (A) (A) (A) (A) (A) (A) (A) (A) (A)
                 (A) (A) (A) (A) (A) (A) (A) (A) (A) (A) (A) (A)
                 (A) (A) (A) (A) (A) (A) (A) (A) (A) (A) (A) (A)
                 (A) (A) (A) (A) (A) (A) (A) (A) (A) (A) (A) (A)
                 (A) (A) (A) (A) (A) (A) (A) (A) (A) (A) (A) (A)
                 (A) (A) (A) (A) (A) (A) (A) (A) (A) (A) (A) (A)
                 (A) (A) (A) (A) (A) (A) (A) (A) (A) (A) (A) (A)
                 (A) (A) (A) (A) (A) (A) (A) (A) (A) (A) (A) (A)
                 (A) (A) (A) (A) (A) (A) (A) (A) (A) (A) (A) (A)
                 (A) (A) (A) (A) (A) (A) (A) (A) (A) (A) (A) (A)
                 (A) (A) (A) (A) (A) (A) (A) (A) (A) (A) (A) (A)
                 (A) (A) (A) (A) (A) (A) (A) (A) (A) (A) (A) (A)
                 (A) (A) (A) (A) (A) (A) (A) (A) (A) (A) (A) (A)
                 (A) (A) (A) (A) (A) (A) (A) (A) (A) (A) (A) (A)
                 (A) (A) (A) (A) (A) (A) (A) (A) (A) (A) (A) (A)
                 (A) (A) (A) (A) (A) (A) (A) (A) (A) (A) (A) (A)
                 (A) (A) (A) (A) (A) (A) (A) (A) (A) (A) (A) (A)
                 (A) (A) (A) (A) (A) (A) (A) (A) (A) (A) (A) (A)
                 (A) (A) (A) (A) (A) (A) (A) (A) (A) (A) (A) (A)
                 (A) (A) (A) (A) (A) (A) (A) (A) (A) (A) (A) (A)
                 (A) (A) (A) (A) (A) (A) (A) (A) (A) (A) (A) (A)
                 (A) (A) (A) (A) (A) (A) (A) (A) (A) (A) (A) (A)
                 (A) (A) (A) (A) (A) (A) (A) (A) (A) (A) (A) (A)
                 (A) (A) (A) (A) (A) (A) (A) (A) (A) (A) (A) (A)
                 (A) (A) (A) (A) (A) (A) (A) (A) (A) (A) (A) (A)
                 (A) (A) (A) (A) (A) (A) (A) (A) (A) (A) (A) (A)
                 (A) (A) (A) (A) (A) (A) (A) (A) (A) (A) (A) (A)
                 (A) (A) (A) (A) (A) (A) (A) (A) (A) (A) (A) (A)
                 (A) (A) (A) (A) (A) (A) (A) (A) (A) (A) (A) (A)
                 (A) (A) (A) (A) (A) (A) (A) (A) (A) (A) (A) (A)
                 (A) (A) (A) (A) (A) (A) (A) (A) (A) (A) (A) (A)
                 (A) (A) (A) (A) (A) (A) (A) (A) (A) (A) (A) (A)
                 (A) (A) (A) (A) (A) (A) (A) (A) (A) (A) (A) (A)
                 (A) (A) (A) (A) (A) (A) (A) (A) (A) (A) (A) (A)
                 (A) (A) (A) (A) (A) (A) (A) (A) (A) (A) (A) (A)
                 (A) (A) (A) (A) (A) (A) (A) (A) (A) (A) (A) (A)
                 (A) (A) (A) (A) (A) (A) (A) (A) (A) (A) (A) (A)
                 (A) (A) (A) (A) (A) (A) (A) (A) (A) (A) (A) (A)
                 (A) (A) (A) (A) (A) (A) (A) (A) (A) (A) (A) (A)
                 (A) (A) (A) (A) (A) (A) (A) (A) (A) (A) (A) (A)
                 (A) (A) (A) (A) (A) (A) (A) (A) (A) (A) (A) (A)
                 (A) (A) (A) (A) (A) (A) (A) (A) (A) (A) (A) (A)
                 (A) (A) (A) (A) (A) (A) (A) (A) (A) (A) (A) (A)
                 (A) (A) (A) (A) (A) (A) (A) (A) (A) (A) (A) (A)
                 (A) (A) (A) (A) (A) (A)
 The electronic state is 2-A.
 Alpha  occ. eigenvalues --  -10.21561 -10.21340 -10.20577 -10.20537 -10.20038
 Alpha  occ. eigenvalues --  -10.19725 -10.19367 -10.19201 -10.19199 -10.19132
 Alpha  occ. eigenvalues --  -10.19081 -10.19068 -10.19029 -10.18952 -10.18873
 Alpha  occ. eigenvalues --  -10.18818 -10.18705 -10.18399 -10.18288 -10.18198
 Alpha  occ. eigenvalues --  -10.17972 -10.17897 -10.17882 -10.17824 -10.17733
 Alpha  occ. eigenvalues --  -10.17683 -10.17003 -10.15727 -10.15523 -10.15207
 Alpha  occ. eigenvalues --   -0.93452  -0.89547  -0.88320  -0.86094  -0.85219
 Alpha  occ. eigenvalues --   -0.82981  -0.81466  -0.80555  -0.78867  -0.76742
 Alpha  occ. eigenvalues --   -0.75618  -0.74897  -0.72823  -0.71602  -0.70728
 Alpha  occ. eigenvalues --   -0.67562  -0.66064  -0.64204  -0.63554  -0.62150
 Alpha  occ. eigenvalues --   -0.60773  -0.60400  -0.58662  -0.56763  -0.55669
 Alpha  occ. eigenvalues --   -0.53185  -0.52299  -0.51385  -0.50952  -0.50714
 Alpha  occ. eigenvalues --   -0.49784  -0.47809  -0.47268  -0.46804  -0.45339
 Alpha  occ. eigenvalues --   -0.44944  -0.44743  -0.44375  -0.43839  -0.42925
 Alpha  occ. eigenvalues --   -0.42416  -0.42246  -0.41421  -0.41377  -0.40976
 Alpha  occ. eigenvalues --   -0.39966  -0.39727  -0.39054  -0.38238  -0.38109
 Alpha  occ. eigenvalues --   -0.36843  -0.35740  -0.35553  -0.35327  -0.34444
 Alpha  occ. eigenvalues --   -0.33829  -0.33446  -0.33108  -0.32704  -0.31337
 Alpha  occ. eigenvalues --   -0.29441  -0.28057  -0.25803  -0.25154  -0.23561
 Alpha  occ. eigenvalues --   -0.21902  -0.20330  -0.17303
 Alpha virt. eigenvalues --   -0.08784  -0.05356  -0.04935  -0.03486  -0.00904
 Alpha virt. eigenvalues --   -0.00254   0.00247   0.00563   0.00719   0.01499
 Alpha virt. eigenvalues --    0.01594   0.01605   0.01954   0.02818   0.02977
 Alpha virt. eigenvalues --    0.03220   0.03789   0.03891   0.04514   0.04673
 Alpha virt. eigenvalues --    0.04924   0.05230   0.05622   0.05827   0.06723
 Alpha virt. eigenvalues --    0.06800   0.07157   0.07196   0.08034   0.08525
 Alpha virt. eigenvalues --    0.08626   0.08815   0.08980   0.09425   0.09803
 Alpha virt. eigenvalues --    0.10140   0.10661   0.10912   0.11575   0.11713
 Alpha virt. eigenvalues --    0.11872   0.12065   0.12553   0.12749   0.12865
 Alpha virt. eigenvalues --    0.13375   0.13950   0.14266   0.14575   0.14711
 Alpha virt. eigenvalues --    0.15073   0.15428   0.15996   0.16011   0.16280
 Alpha virt. eigenvalues --    0.16375   0.16630   0.16705   0.16891   0.16996
 Alpha virt. eigenvalues --    0.17281   0.17416   0.17907   0.18054   0.18297
 Alpha virt. eigenvalues --    0.18440   0.18916   0.18978   0.19155   0.19364
 Alpha virt. eigenvalues --    0.19536   0.19708   0.19952   0.20120   0.20508
 Alpha virt. eigenvalues --    0.20911   0.21015   0.21336   0.21612   0.21740
 Alpha virt. eigenvalues --    0.21925   0.22134   0.22177   0.22391   0.22541
 Alpha virt. eigenvalues --    0.22886   0.23121   0.23569   0.23711   0.24006
 Alpha virt. eigenvalues --    0.24197   0.24387   0.24556   0.24641   0.24882
 Alpha virt. eigenvalues --    0.25324   0.25553   0.25575   0.25775   0.25998
 Alpha virt. eigenvalues --    0.26505   0.26559   0.26841   0.27238   0.27628
 Alpha virt. eigenvalues --    0.27768   0.28324   0.28544   0.28880   0.29178
 Alpha virt. eigenvalues --    0.29267   0.29603   0.30048   0.30126   0.30708
 Alpha virt. eigenvalues --    0.30832   0.31076   0.31331   0.31446   0.31728
 Alpha virt. eigenvalues --    0.32445   0.32704   0.33250   0.33353   0.33783
 Alpha virt. eigenvalues --    0.34025   0.34350   0.34703   0.35189   0.35681
 Alpha virt. eigenvalues --    0.35796   0.36309   0.36914   0.37127   0.37324
 Alpha virt. eigenvalues --    0.37721   0.38235   0.38934   0.39827   0.40142
 Alpha virt. eigenvalues --    0.40190   0.40653   0.41245   0.41641   0.42778
 Alpha virt. eigenvalues --    0.42980   0.44152   0.44505   0.45128   0.45825
 Alpha virt. eigenvalues --    0.46144   0.47001   0.47038   0.47725   0.48589
 Alpha virt. eigenvalues --    0.48893   0.50053   0.50268   0.50835   0.51903
 Alpha virt. eigenvalues --    0.52189   0.52753   0.53078   0.53558   0.53948
 Alpha virt. eigenvalues --    0.54598   0.54638   0.55025   0.55295   0.55539
 Alpha virt. eigenvalues --    0.55937   0.56524   0.56891   0.57334   0.57513
 Alpha virt. eigenvalues --    0.58147   0.58326   0.58770   0.59011   0.59550
 Alpha virt. eigenvalues --    0.59790   0.60313   0.60517   0.60858   0.61190
 Alpha virt. eigenvalues --    0.61570   0.62010   0.62104   0.62307   0.62732
 Alpha virt. eigenvalues --    0.63201   0.63692   0.63859   0.64561   0.64932
 Alpha virt. eigenvalues --    0.65156   0.65652   0.65994   0.66510   0.66934
 Alpha virt. eigenvalues --    0.67088   0.67886   0.68070   0.68305   0.68786
 Alpha virt. eigenvalues --    0.69514   0.69689   0.70070   0.70661   0.70933
 Alpha virt. eigenvalues --    0.71026   0.71443   0.72014   0.72173   0.72857
 Alpha virt. eigenvalues --    0.73222   0.73532   0.73924   0.74038   0.74549
 Alpha virt. eigenvalues --    0.75065   0.75390   0.75971   0.76273   0.76741
 Alpha virt. eigenvalues --    0.76933   0.77544   0.77690   0.78452   0.78855
 Alpha virt. eigenvalues --    0.79231   0.79821   0.81173   0.81624   0.82626
 Alpha virt. eigenvalues --    0.83602   0.83961   0.84708   0.85267   0.86154
 Alpha virt. eigenvalues --    0.87124   0.87755   0.87976   0.88914   0.89349
 Alpha virt. eigenvalues --    0.90020   0.90530   0.90892   0.91431   0.91892
 Alpha virt. eigenvalues --    0.92260   0.92784   0.92905   0.93493   0.93589
 Alpha virt. eigenvalues --    0.94653   0.94929   0.95346   0.95554   0.96119
 Alpha virt. eigenvalues --    0.96278   0.96915   0.97189   0.97622   0.98081
 Alpha virt. eigenvalues --    0.98173   0.99103   0.99328   0.99556   0.99758
 Alpha virt. eigenvalues --    1.00374   1.00761   1.00914   1.01389   1.02678
 Alpha virt. eigenvalues --    1.03164   1.03274   1.04013   1.04670   1.04931
 Alpha virt. eigenvalues --    1.05646   1.05743   1.06299   1.06725   1.07850
 Alpha virt. eigenvalues --    1.08307   1.08915   1.09766   1.10446   1.11008
 Alpha virt. eigenvalues --    1.12612   1.13109   1.13950   1.14001   1.15116
 Alpha virt. eigenvalues --    1.15675   1.16265   1.16817   1.17322   1.18492
 Alpha virt. eigenvalues --    1.18671   1.19450   1.20534   1.21626   1.22791
 Alpha virt. eigenvalues --    1.23888   1.25722   1.27662   1.29237   1.30221
 Alpha virt. eigenvalues --    1.32081   1.32876   1.34717   1.35366   1.36810
 Alpha virt. eigenvalues --    1.38492   1.39202   1.39548   1.40917   1.41848
 Alpha virt. eigenvalues --    1.43572   1.43988   1.44697   1.46203   1.46519
 Alpha virt. eigenvalues --    1.47876   1.48079   1.48182   1.48597   1.49004
 Alpha virt. eigenvalues --    1.49716   1.50194   1.50368   1.50877   1.51240
 Alpha virt. eigenvalues --    1.51522   1.52105   1.52383   1.53495   1.55614
 Alpha virt. eigenvalues --    1.55892   1.56895   1.57224   1.57675   1.58029
 Alpha virt. eigenvalues --    1.58944   1.59322   1.59700   1.59967   1.61145
 Alpha virt. eigenvalues --    1.62164   1.62568   1.63845   1.64548   1.65695
 Alpha virt. eigenvalues --    1.66376   1.67199   1.68094   1.68734   1.69892
 Alpha virt. eigenvalues --    1.70902   1.71604   1.72343   1.72611   1.73034
 Alpha virt. eigenvalues --    1.73948   1.74457   1.75293   1.75715   1.76586
 Alpha virt. eigenvalues --    1.77562   1.78097   1.79103   1.79943   1.80405
 Alpha virt. eigenvalues --    1.81610   1.81814   1.82989   1.83663   1.83778
 Alpha virt. eigenvalues --    1.84255   1.84766   1.85350   1.86444   1.86573
 Alpha virt. eigenvalues --    1.86851   1.87709   1.88371   1.88832   1.89553
 Alpha virt. eigenvalues --    1.89865   1.89961   1.90412   1.90735   1.91060
 Alpha virt. eigenvalues --    1.91842   1.92782   1.93247   1.93554   1.94215
 Alpha virt. eigenvalues --    1.95564   1.96035   1.96778   1.97779   1.98455
 Alpha virt. eigenvalues --    1.99577   1.99846   2.00815   2.01342   2.01618
 Alpha virt. eigenvalues --    2.02345   2.02755   2.03607   2.04636   2.06351
 Alpha virt. eigenvalues --    2.07246   2.07369   2.07941   2.08717   2.09767
 Alpha virt. eigenvalues --    2.10446   2.11703   2.12541   2.12572   2.14066
 Alpha virt. eigenvalues --    2.14637   2.14758   2.16106   2.16928   2.17470
 Alpha virt. eigenvalues --    2.18465   2.19558   2.19816   2.20825   2.22324
 Alpha virt. eigenvalues --    2.22956   2.24626   2.24901   2.25953   2.26944
 Alpha virt. eigenvalues --    2.28620   2.29070   2.30594   2.32057   2.33102
 Alpha virt. eigenvalues --    2.34262   2.35775   2.36867   2.37400   2.38430
 Alpha virt. eigenvalues --    2.40972   2.41835   2.42748   2.43278   2.43763
 Alpha virt. eigenvalues --    2.45054   2.46592   2.47694   2.49145   2.50562
 Alpha virt. eigenvalues --    2.52416   2.53653   2.56849   2.58013   2.58090
 Alpha virt. eigenvalues --    2.59323   2.60733   2.61565   2.63266   2.63881
 Alpha virt. eigenvalues --    2.64295   2.65064   2.66110   2.67079   2.68076
 Alpha virt. eigenvalues --    2.69251   2.69680   2.70431   2.71282   2.72490
 Alpha virt. eigenvalues --    2.72855   2.73612   2.73722   2.73852   2.74203
 Alpha virt. eigenvalues --    2.74396   2.74859   2.75502   2.75998   2.76668
 Alpha virt. eigenvalues --    2.77053   2.77435   2.77681   2.77909   2.78142
 Alpha virt. eigenvalues --    2.78874   2.79222   2.79831   2.80189   2.81075
 Alpha virt. eigenvalues --    2.82294   2.83825   2.84341   2.84913   2.85172
 Alpha virt. eigenvalues --    2.85628   2.86209   2.87078   2.88136   2.88694
 Alpha virt. eigenvalues --    2.89685   2.90326   2.90614   2.91605   2.93641
 Alpha virt. eigenvalues --    2.94025   2.94497   2.96243   2.99114   3.00501
 Alpha virt. eigenvalues --    3.01552   3.02585   3.03423   3.04431   3.06367
 Alpha virt. eigenvalues --    3.07475   3.08266   3.10989   3.12311   3.14575
 Alpha virt. eigenvalues --    3.15760   3.16854   3.18877   3.21036   3.21796
 Alpha virt. eigenvalues --    3.23014   3.23334   3.23628   3.25666   3.27778
 Alpha virt. eigenvalues --    3.30864   3.33661   3.34300   3.36713   3.37145
 Alpha virt. eigenvalues --    3.40353   3.40760   3.42329   3.43406   3.43805
 Alpha virt. eigenvalues --    3.44023   3.45688   3.47047   3.48461   3.48681
 Alpha virt. eigenvalues --    3.49143   3.49773   3.50209   3.52675   3.54400
 Alpha virt. eigenvalues --    3.56754   3.57885   3.60635   3.62578   3.63133
 Alpha virt. eigenvalues --    3.65646   3.66154   3.68007   3.71832   3.75152
 Alpha virt. eigenvalues --    3.78193   3.82734   3.87167   3.89048   3.91655
 Alpha virt. eigenvalues --    3.97620   4.05759   4.06646   4.07341   4.07949
 Alpha virt. eigenvalues --    4.09692   4.11579   4.12527   4.14321   4.22380
 Alpha virt. eigenvalues --    4.25897   4.31262   4.35759   4.47365   4.55449
 Alpha virt. eigenvalues --    4.73474   4.78078   4.78988   4.80697   4.81375
 Alpha virt. eigenvalues --    4.83714   4.86660   4.91076   4.94389  23.40389
 Alpha virt. eigenvalues --   23.59761  23.70116  23.80956  23.83714  23.86564
 Alpha virt. eigenvalues --   23.88511  23.88741  23.90651  23.93430  23.94555
 Alpha virt. eigenvalues --   23.95713  23.98373  24.00068  24.01145  24.03930
 Alpha virt. eigenvalues --   24.04431  24.05602  24.07167  24.08451  24.08741
 Alpha virt. eigenvalues --   24.09184  24.10995  24.15400  24.17045  24.18728
 Alpha virt. eigenvalues --   24.19836  24.20656  24.25636  24.35873
  Beta  occ. eigenvalues --  -10.21463 -10.21293 -10.20628 -10.20600 -10.19836
  Beta  occ. eigenvalues --  -10.19581 -10.19475 -10.19208 -10.19145 -10.19142
  Beta  occ. eigenvalues --  -10.19083 -10.19048 -10.18954 -10.18852 -10.18827
  Beta  occ. eigenvalues --  -10.18803 -10.18471 -10.18419 -10.18283 -10.17926
  Beta  occ. eigenvalues --  -10.17895 -10.17841 -10.17827 -10.17757 -10.17722
  Beta  occ. eigenvalues --  -10.17577 -10.17111 -10.15862 -10.15421 -10.15083
  Beta  occ. eigenvalues --   -0.93089  -0.89476  -0.88087  -0.85890  -0.85072
  Beta  occ. eigenvalues --   -0.82756  -0.81367  -0.80383  -0.78771  -0.76595
  Beta  occ. eigenvalues --   -0.75481  -0.74787  -0.72466  -0.71500  -0.70603
  Beta  occ. eigenvalues --   -0.67239  -0.65862  -0.64108  -0.63436  -0.62088
  Beta  occ. eigenvalues --   -0.60646  -0.60163  -0.58534  -0.56650  -0.55482
  Beta  occ. eigenvalues --   -0.53034  -0.52054  -0.51309  -0.50841  -0.50621
  Beta  occ. eigenvalues --   -0.49705  -0.47534  -0.47005  -0.46576  -0.45086
  Beta  occ. eigenvalues --   -0.44726  -0.44622  -0.44261  -0.43709  -0.42776
  Beta  occ. eigenvalues --   -0.42273  -0.41911  -0.41289  -0.41201  -0.40842
  Beta  occ. eigenvalues --   -0.39903  -0.39674  -0.39000  -0.38147  -0.37764
  Beta  occ. eigenvalues --   -0.36603  -0.35509  -0.35403  -0.35232  -0.34424
  Beta  occ. eigenvalues --   -0.33582  -0.33203  -0.32752  -0.32376  -0.30869
  Beta  occ. eigenvalues --   -0.29170  -0.27698  -0.25348  -0.24926  -0.22315
  Beta  occ. eigenvalues --   -0.21689  -0.20061
  Beta virt. eigenvalues --   -0.11435  -0.08120  -0.05113  -0.04588  -0.03114
  Beta virt. eigenvalues --   -0.00565  -0.00036   0.00372   0.00627   0.00735
  Beta virt. eigenvalues --    0.01530   0.01606   0.01910   0.02154   0.02844
  Beta virt. eigenvalues --    0.03007   0.03640   0.03904   0.04056   0.04528
  Beta virt. eigenvalues --    0.04684   0.04968   0.05277   0.05676   0.05909
  Beta virt. eigenvalues --    0.06752   0.06908   0.07217   0.07384   0.08165
  Beta virt. eigenvalues --    0.08613   0.08722   0.08879   0.09047   0.09467
  Beta virt. eigenvalues --    0.09835   0.10240   0.10726   0.10965   0.11605
  Beta virt. eigenvalues --    0.11779   0.11909   0.12160   0.12600   0.12778
  Beta virt. eigenvalues --    0.12902   0.13417   0.13985   0.14358   0.14635
  Beta virt. eigenvalues --    0.14835   0.15125   0.15462   0.16034   0.16051
  Beta virt. eigenvalues --    0.16322   0.16436   0.16657   0.16741   0.16951
  Beta virt. eigenvalues --    0.17098   0.17315   0.17507   0.17944   0.18141
  Beta virt. eigenvalues --    0.18353   0.18493   0.18948   0.19034   0.19203
  Beta virt. eigenvalues --    0.19434   0.19632   0.19813   0.20003   0.20201
  Beta virt. eigenvalues --    0.20559   0.20937   0.21075   0.21353   0.21721
  Beta virt. eigenvalues --    0.21823   0.21989   0.22228   0.22293   0.22450
  Beta virt. eigenvalues --    0.22584   0.23022   0.23195   0.23688   0.23910
  Beta virt. eigenvalues --    0.24043   0.24246   0.24565   0.24669   0.24778
  Beta virt. eigenvalues --    0.24945   0.25364   0.25611   0.25705   0.25875
  Beta virt. eigenvalues --    0.26093   0.26535   0.26617   0.26905   0.27283
  Beta virt. eigenvalues --    0.27739   0.27818   0.28363   0.28606   0.28927
  Beta virt. eigenvalues --    0.29214   0.29320   0.29641   0.30103   0.30164
  Beta virt. eigenvalues --    0.30762   0.30895   0.31145   0.31405   0.31677
  Beta virt. eigenvalues --    0.31808   0.32521   0.32775   0.33320   0.33419
[...]
 0006297,-0.00013700,-0.00004961,-0.00006381,0.00001467,-0.00001149,0.0
 0012555,-0.00007329,-0.00025730,-0.00004004,-0.00011939,0.00006854,0.0
 0004843,0.00004975,-0.00000347,-0.00045845,0.00021136,-0.00000497,-0.0
 0334376,0.00148018,0.00347789,0.00052235,0.00094419,-0.00016632,-0.000
 36026,0.00015736,-0.00012619,-0.00431189,-0.00048170,0.00201318,0.0002
 1842,-0.02725487,-0.00317279,-0.05626814,-0.01676543,0.00362376,0.0055
 0986,0.02717203,0.00358602,0.00041491,-0.00211274,-0.00115323,0.000119
 75,0.00040189,0.00001700,0.00000579,-0.00007490,-0.00000248,0.00033510
 ,-0.00124143,-0.00049959,0.00000894,0.00001845,0.00000783,-0.00000746,
 0.00000459,0.00000148,-0.00000646,-0.00001174,0.00001310,0.00000162,0.
 00000107,0.00000041,0.00000090,0.00000082,-0.00000003,0.00000136,0.000
 00132,-0.00000002,-0.00000162,0.00000175,0.00000118,-0.00000234,-0.000
 00303,0.00000082,-0.00001646,0.00012098,-0.00001338,-0.00003469,-0.000
 02198,0.00004759,0.00053705,-0.00020652,-0.00151439,0.05796882,0.00000
 497,0.00007559,-0.00002927,0.00000561,-0.00002543,0.00001907,-0.000008
 07,0.00001404,0.00000341,-0.00003324,-0.00002970,0.00000915,-0.0000130
 7,-0.00003603,-0.00000698,0.00001412,0.00002434,-0.00000031,0.00000641
 ,-0.00002034,0.00000185,-0.00001468,0.00000264,-0.00000238,0.00000427,
 0.00000036,0.00000648,0.00000083,-0.00000463,0.00000135,-0.00000562,0.
 00001609,0.00000271,-0.00000977,-0.00000146,-0.00000082,-0.00025828,0.
 00005457,0.00005977,0.00006240,-0.00008042,-0.00003177,-0.00004263,0.0
 0000180,-0.00000795,0.00005340,0.00001690,0.00010370,-0.00000969,0.000
 00538,-0.00000718,-0.00000414,0.00001929,-0.00000546,-0.00026318,0.000
 43988,0.00013510,0.00263174,0.00121291,-0.00198654,-0.00040730,-0.0007
 2669,0.00010242,0.00037849,-0.00001422,0.00003503,-0.00216336,0.000923
 62,0.00008160,0.00132709,-0.01168089,-0.00246534,-0.01747863,-0.327350
 88,-0.03767384,-0.00330610,-0.01272073,-0.00151405,0.00249082,0.000487
 13,-0.00029602,-0.00040662,0.00024684,0.00010321,0.00003230,0.00024254
 ,0.00011078,0.00046688,-0.00070678,-0.00032713,0.00000919,0.00000454,-
 0.00000004,-0.00000799,0.00000484,0.00000405,-0.00001056,-0.00001151,0
 .00000717,-0.00000494,-0.00000157,-0.00000103,-0.00000147,-0.00000552,
 -0.00000009,-0.00000129,-0.00000599,-0.00000123,0.00000466,-0.00000357
 ,-0.00000168,0.00000583,-0.00000236,-0.00000164,0.00000308,-0.00008728
 ,0.00000678,0.00002854,0.00000843,-0.00003390,0.00045967,0.00074381,0.
 00074022,0.01699273,0.34802128,0.00013076,-0.00001705,0.00003727,-0.00
 023240,-0.00005394,-0.00002262,-0.00005621,-0.00003130,0.00008065,-0.0
 0002843,0.00000097,-0.00000064,0.00003992,0.00000645,0.00001902,0.0000
 4091,-0.00005649,0.00002596,-0.00001628,0.00002645,-0.00000867,0.00003
 618,-0.00001885,0.00000518,-0.00005755,0.00001692,-0.00001571,0.000028
 89,0.00005142,-0.00002814,-0.00002173,-0.00003681,0.00000243,0.0000373
 7,-0.00000116,-0.00000232,0.00018122,-0.00007155,0.00001825,-0.0000488
 7,0.00004111,0.00004631,0.00003732,0.00004098,-0.00002109,-0.00013028,
 0.00018575,-0.00071596,0.00023459,0.00016069,0.00003778,-0.00000977,-0
 .00008668,0.00003389,0.00110414,-0.00011681,-0.00090635,0.00406911,-0.
 00151726,0.00772589,-0.00058512,-0.00043705,0.00022966,0.00008865,-0.0
 0037547,-0.00045512,0.00080176,0.00113542,0.00390624,-0.00134978,0.003
 02336,0.00344140,0.00575229,-0.03801378,-0.04329282,-0.00228548,-0.008
 51640,0.00413310,-0.00014257,0.00125802,-0.00221980,-0.00022713,-0.000
 20796,-0.00005876,-0.00007495,0.00018826,0.00009251,0.00022312,0.00031
 167,0.00014457,0.00000997,0.00000136,-0.00001083,-0.00000819,0.0000020
 9,0.00000593,0.00000047,0.00000411,-0.00000998,-0.00000192,-0.00000120
 ,0.00000085,-0.00000056,-0.00000040,0.00000027,0.00000057,-0.00000139,
 0.00000188,0.00000055,0.00000064,0.00000228,-0.00000651,0.00000500,-0.
 00000094,0.00000289,-0.00007712,0.00003456,0.00003674,0.00003388,0.000
 08437,-0.00139350,0.00077513,-0.00476435,-0.00638378,0.04253933,0.0321
 5380,-0.00006602,0.00001396,-0.00002900,0.00001326,-0.00003477,0.00002
 726,0.00001164,-0.00000679,-0.00000754,0.00002612,0.00000847,0.0000034
 7,0.00000613,0.00000790,-0.00000505,-0.00002220,0.00000561,0.00000555,
 0.00000682,0.00001534,0.00000305,0.00001511,-0.00000447,0.00000421,-0.
 00000390,-0.00001757,0.00000089,0.00000824,-0.00000236,-0.00000058,0.0
 0000194,0.00000146,0.00000186,-0.00000370,0.00000451,-0.00000078,0.000
 09254,0.00003828,-0.00018569,0.00001147,0.00000101,-0.00007297,0.00001
 943,0.00000922,-0.00001563,-0.00034378,0.00001387,0.00006680,0.0000003
 1,0.00006840,-0.00003698,-0.00004377,0.00000592,0.00000139,0.00041400,
 0.00107099,0.00003076,0.00009263,0.00024376,0.00001113,0.00001679,-0.0
 0013677,0.00000799,0.00001756,0.00006251,-0.00001490,-0.00333314,0.001
 07058,0.00209777,0.00572269,0.02288305,0.00485679,0.00023084,0.0025137
 8,-0.00031527,0.00015248,-0.00039865,-0.00012206,-0.06544767,-0.051574
 94,-0.00428540,-0.00066684,-0.02958563,-0.00614080,-0.00464380,-0.0015
 7421,0.00269757,-0.00067666,0.00016682,0.00005399,0.00001357,-0.000071
 32,-0.00004061,0.00003803,-0.00001392,0.00004103,-0.00000050,-0.000002
 77,-0.00000153,-0.00000239,0.00000035,-0.00000135,0.00000105,-0.000003
 60,-0.00000040,0.00000032,-0.00000295,0.00000017,0.00000219,-0.0000010
 8,-0.00000006,0.00000161,0.00001196,0.00000151,0.00000045,-0.00000675,
 0.00000055,-0.00001690,0.00001049,0.00000646,0.00001738,-0.00001421,0.
 00004277,-0.00051485,-0.00045236,0.00018686,0.06836367,0.00001969,0.00
 004967,-0.00004593,0.00001425,0.00001175,-0.00000849,-0.00000533,0.000
 00203,0.00001068,-0.00002524,-0.00002476,0.00002730,-0.00000453,-0.000
 01776,-0.00000474,0.00000678,0.00001173,0.00000845,0.00000892,-0.00000
 019,0.00000352,0.00000667,-0.00000251,0.00000186,-0.00000961,-0.000012
 59,0.00000227,0.00000530,0.00000438,-0.00000134,-0.00000336,0.00000500
 ,0.00000162,-0.00000412,0.00000325,0.00000028,-0.00008198,-0.00008886,
 0.00016561,0.00000239,-0.00006179,-0.00005121,-0.00000923,0.00001697,-
 0.00001626,0.00031270,-0.00003557,-0.00009946,-0.00005187,-0.00008313,
 0.00004500,0.00003176,0.00001241,0.00000530,-0.00074515,-0.00065461,0.
 00001061,-0.00010312,0.00021057,-0.00002469,0.00003267,0.00004051,0.00
 000688,0.00005092,0.00002321,-0.00000690,0.00302291,0.00090839,-0.0015
 0071,-0.00476097,-0.01581589,-0.00334135,-0.00224564,0.00039626,0.0016
 0140,0.00047852,0.00024308,-0.00003350,-0.05099039,-0.31253594,-0.0544
 3029,0.00072563,-0.00726015,-0.00296152,-0.00287919,0.00163846,-0.0006
 9535,0.00016025,0.00050145,0.00034227,0.00000488,0.00003210,0.00000813
 ,0.00001887,-0.00000746,0.00003327,-0.00000481,-0.00000825,-0.00000246
 ,-0.00000456,-0.00000057,-0.00000149,-0.00000033,-0.00000581,-0.000000
 75,-0.00000049,-0.00000569,-0.00000134,0.00000432,-0.00000307,-0.00000
 134,0.00000526,-0.00001246,-0.00000450,0.00000518,-0.00000075,-0.00000
 503,0.00002677,-0.00000365,-0.00001032,0.00004746,-0.00003304,-0.00005
 803,0.00074401,0.00091282,-0.00012180,0.05610441,0.33172307,-0.0000359
 8,0.00009495,0.00006245,0.00001697,0.00001624,0.00002049,-0.00000977,0
 .00000003,-0.00001056,-0.00001421,0.00003250,-0.00004755,0.00001912,-0
 .00002283,-0.00001014,0.00000441,-0.00000862,0.00000067,-0.00001132,-0
 .00000955,-0.00000484,-0.00001759,-0.00000331,-0.00000447,0.00000757,0
 .00002064,0.00000246,-0.00000215,0.00000630,0.00000800,-0.00000917,0.0
 0000718,-0.00000075,0.00000333,-0.00001080,0.00000079,-0.00008732,0.00
 031428,-0.00064398,0.00004937,0.00001767,-0.00000067,-0.00001392,-0.00
 000588,-0.00000090,0.00021939,0.00001690,0.00011345,-0.00004030,-0.000
 03506,0.00001645,0.00001177,-0.00001634,-0.00004089,-0.00011431,-0.000
 54365,0.00009523,-0.00008929,-0.00008171,0.00005701,0.00000055,0.00000
 339,0.00000904,0.00001015,0.00000432,-0.00002697,0.00113353,-0.0027753
 2,0.00401422,-0.00355369,-0.00712189,0.00153257,-0.00139659,-0.0001922
 2,-0.00299799,-0.00001330,0.00028684,0.00003260,-0.00181873,-0.0544393
 2,-0.04772783,-0.00024256,0.00352682,0.00483840,0.00250381,-0.00088690
 ,0.00707124,0.00147534,-0.00006729,-0.00114318,0.00002961,-0.00013042,
 -0.00004680,-0.00003547,0.00000068,-0.00002110,-0.00000697,-0.00000040
 ,0.00001070,-0.00000107,-0.00000204,0.00000042,-0.00000144,0.00000013,
 0.00000116,-0.00000097,-0.00000051,0.00000125,0.00000082,-0.00000159,0
 .00000082,0.00000378,-0.00000760,0.00001112,0.00000240,-0.00000048,-0.
 00000049,0.00001397,-0.00000196,0.00000887,0.00004730,-0.00002020,0.00
 015253,0.00041811,0.00029472,0.00016309,0.00273468,0.06023658,0.038105
 60,0.00003630,0.00006494,-0.00002260,-0.00006384,0.00004514,-0.0000326
 7,0.00000197,-0.00002397,0.00000391,-0.00004294,-0.00004339,0.00004697
 ,-0.00000995,0.00001939,0.00000445,0.00003374,0.00002676,-0.00000378,0
 .00000465,-0.00003136,-0.00000195,-0.00001020,0.00001289,-0.00000604,-
 0.00000241,0.00000534,-0.00000557,-0.00002049,0.00000793,-0.00000515,0
 .00000306,-0.00001443,-0.00000094,0.00000482,0.00000332,-0.00000039,0.
 00011052,-0.00032022,-0.00017808,-0.00000104,0.00004128,0.00003004,-0.
 00000117,-0.00001732,0.00002083,-0.00005305,0.00005498,0.00000915,0.00
 004827,0.00008956,-0.00001283,0.00000904,-0.00003262,0.00000393,0.0001
 1746,0.00003989,-0.00020942,0.00010473,-0.00022387,-0.00002668,-0.0000
 4100,0.00012441,0.00001664,-0.00004803,-0.00008806,0.00001620,-0.00024
 816,-0.00054396,-0.00025864,-0.00294180,-0.00402986,0.00196790,-0.0004
 4908,0.00128841,0.00029473,-0.00051676,-0.00020587,0.00000490,-0.01629
 699,0.01920408,0.00980143,-0.21457628,0.11650489,0.07475987,0.00750097
 ,-0.00525341,-0.00252531,0.00119996,-0.00196305,0.00037998,0.00000175,
 0.00002501,0.00000770,-0.00001156,-0.00001093,-0.00003024,0.00000417,0
 .00000253,0.00000115,0.00000420,0.00000082,0.00000228,-0.00000003,0.00
 000463,0.00000163,0.00000087,0.00000454,0.00000067,-0.00000378,0.00000
 305,0.00000135,-0.00000440,0.00000408,0.00000147,-0.00000523,0.0000067
 2,-0.00000060,0.00000050,-0.00000426,0.00000154,-0.00012101,0.00007918
 ,0.00004964,-0.00000150,-0.00006056,0.00000634,0.00068061,-0.00000285,
 -0.00130472,0.22499294,-0.00025231,-0.00000903,-0.00028713,0.00002580,
 -0.00003804,0.00007773,-0.00000362,0.00005057,-0.00000626,0.00006815,-
 0.00005379,0.00006023,-0.00001700,-0.00001281,-0.00000063,-0.00001076,
 -0.00000362,-0.00000557,-0.00000890,0.00004976,0.00000074,0.00006206,-
 0.00001724,0.00001648,-0.00004910,-0.00003924,-0.00000468,0.00007443,0
 .00002891,-0.00001341,-0.00001595,-0.00001397,0.00000246,0.00001985,-0
 .00000359,0.00000203,0.00107738,-0.00048237,-0.00014998,0.00022258,0.0
 0000513,0.00004358,-0.00010675,0.00000097,0.00001266,-0.00002067,0.000
 04934,-0.00000664,0.00003028,-0.00000730,-0.00000580,-0.00001216,-0.00
 004764,0.00001007,0.00032994,0.00000327,0.00020062,-0.00008337,-0.0002
 5000,-0.00003602,-0.00001775,0.00005572,-0.00001399,-0.00003724,-0.000
 03512,0.00001138,-0.00094066,-0.00042468,0.00022995,-0.00332428,0.0000
 6486,-0.00140993,-0.00005509,0.00047186,-0.00000931,-0.00021757,0.0001
 1871,0.00020393,-0.01036603,0.01091528,0.00439146,0.11676010,-0.146612
 94,-0.05875605,0.02419675,-0.01162549,-0.00917319,-0.00246990,-0.00358
 681,-0.00296961,-0.00004726,-0.00021078,-0.00014762,-0.00003933,0.0000
 1257,-0.00002823,-0.00001530,-0.00003099,-0.00001247,-0.00000546,-0.00
 000365,-0.00000649,0.00000122,-0.00000550,-0.00000242,0.00000080,-0.00
 000511,-0.00000190,0.00000328,-0.00000313,-0.00000066,0.00000201,-0.00
 000255,-0.00000409,0.00000339,-0.00000239,-0.00000089,0.00000836,0.000
 00147,-0.00000135,-0.00005020,0.00002874,0.00002724,-0.00001361,-0.000
 01741,-0.00003456,0.00080736,0.00042549,0.00115489,-0.12543687,0.15064
 580,0.00008680,0.00011928,-0.00004253,-0.00014853,0.00015978,-0.000112
 36,0.00000073,-0.00016155,0.00001536,-0.00008289,-0.00006657,0.0000909
 8,0.00003005,0.00000904,0.00002160,0.00005573,0.00002397,0.00002080,0.
 00001702,-0.00004541,-0.00000509,-0.00000505,0.00000669,-0.00000666,-0
 .00001125,-0.00003426,-0.00000882,-0.00007338,-0.00002223,0.00000614,0
 .00000419,0.00001548,0.00000023,-0.00002637,0.00000410,-0.00000011,0.0
 0031253,-0.00014993,-0.00020839,-0.00001510,-0.00002048,-0.00002692,0.
 00002441,0.00001062,0.00000958,-0.00008197,0.00002418,0.00003564,0.000
 02216,0.00007948,0.00001714,0.00002708,-0.00000511,-0.00000149,-0.0003
 8862,0.00009536,-0.00077867,0.00035221,0.00018525,0.00008307,-0.000076
 79,0.00013259,0.00003509,-0.00003971,-0.00010137,0.00001298,-0.0000688
 2,0.00015398,-0.00059136,0.00186042,-0.00029418,0.00784833,-0.00016054
 ,-0.00024019,0.00018939,0.00007032,-0.00004214,-0.00052732,0.00218525,
 -0.00261567,0.00262949,0.07454391,-0.05783027,-0.07055669,0.00615870,-
 0.00445647,0.00033078,-0.00069297,-0.00251968,0.00506101,0.00005429,-0
 .00002456,0.00000852,-0.00000635,-0.00007092,-0.00000818,-0.00000889,-
 0.00000747,0.00000623,-0.00000297,-0.00000224,0.00000142,-0.00000113,-
 0.00000131,0.00000272,-0.00000026,-0.00000206,0.00000061,0.00000198,-0
 .00000065,0.00000003,0.00000226,0.00000065,0.00000434,0.00000168,-0.00
 000292,0.00000022,-0.00000264,0.00000440,0.00000172,0.00001712,-0.0000
 1981,-0.00001302,0.00004075,-0.00000892,0.00009109,-0.00110967,0.00119
 530,-0.00400835,-0.08226377,0.06533476,0.06294386,-0.00015458,0.000154
 38,0.00006473,0.00010691,-0.00001540,-0.00003737,0.00010189,-0.0000042
 1,-0.00001352,0.00001099,-0.00006006,0.00011320,-0.00009369,0.00008077
 ,-0.00004525,-0.00007003,0.00011494,0.00011965,0.00006809,0.00002223,0
 .00006261,0.00003557,0.00001850,-0.00001699,0.00001106,-0.00002618,0.0
 0001794,-0.00004055,0.00001756,0.00000597,0.00003271,-0.00006197,-0.00
 000326,0.00001631,0.00004132,-0.00000284,-0.00074680,-0.00087629,-0.00
 154364,0.00009949,-0.00063345,-0.00117175,0.00014440,-0.00011595,-0.00
 017141,-0.00006813,-0.00017949,0.00007063,-0.00000041,0.00003676,-0.00
 001291,-0.00000159,-0.00000703,0.00000760,-0.00040418,-0.00080124,0.00
 000597,-0.00025951,0.00032579,-0.00004933,-0.00000032,-0.00006970,0.00
 001328,-0.00006204,0.00001965,0.00001560,-0.00076277,0.00305035,0.0021
 8421,0.00050841,0.00042101,-0.00020976,-0.00001271,-0.00002135,-0.0000
 9234,0.00000332,0.00001906,0.00001726,0.00156197,-0.00109725,0.0002708
 9,-0.00115345,0.00064030,0.00091712,-0.29960968,-0.09337667,0.01449142
 ,-0.01962691,-0.00776016,0.00111158,0.00001890,-0.00025213,0.00003480,
 0.00074026,-0.00122590,-0.00046626,0.00002866,-0.00003841,-0.00009484,
 0.00000077,0.00000622,-0.00000128,0.00000687,-0.00000864,-0.00000247,0
 .00000490,-0.00000328,0.00000149,0.00000062,0.00000314,0.00000237,0.00
 000057,0.00000774,-0.00000077,-0.00000265,0.00000821,-0.00000346,-0.00
 003887,0.00001561,-0.00000216,-0.00001621,-0.00000853,0.00000905,-0.00
 000136,-0.00001946,0.00001036,-0.00019274,0.00009223,0.00011485,0.0006
 1015,-0.00007662,-0.00060191,0.31920636,-0.00009501,-0.00028446,-0.000
 04426,0.00012554,-0.00005891,-0.00000631,0.00002198,0.00010756,-0.0000
 1359,0.00003214,0.00001410,-0.00002461,-0.00008558,-0.00004675,0.00006
 111,-0.00009810,-0.00002146,0.00014233,-0.00004726,-0.00002662,-0.0000
 2765,-0.00008070,-0.00001427,-0.00001472,0.00002080,0.00009358,-0.0000
 1723,0.00001991,-0.00001588,-0.00000098,-0.00001551,0.00001490,-0.0000
 0289,0.00002671,-0.00002278,-0.00000430,0.00113514,-0.00016162,0.00081
 726,-0.00001742,-0.00083178,-0.00102970,-0.00008645,-0.00069448,0.0001
 8289,-0.00002333,0.00006973,-0.00007058,-0.00004000,-0.00010822,0.0000
 1645,-0.00002764,0.00007210,-0.00001219,0.00059860,0.00059922,0.000007
 80,0.00007601,-0.00010245,0.00025048,0.00009294,-0.00005093,-0.0000056
 1,0.00007488,0.00007798,-0.00002163,0.00183472,-0.00164487,-0.00318247
 ,0.00054445,-0.00028007,-0.00003440,-0.00015293,-0.00003453,0.00031354
 ,0.00010153,-0.00002043,-0.00010059,0.00013400,-0.00469581,-0.00341813
 ,-0.02937497,-0.00742354,0.00109195,-0.09461999,-0.08751099,-0.0020908
 1,0.01885668,0.00815838,-0.00166646,0.00001250,0.00029856,0.00019649,-
 0.00007036,-0.00105072,-0.00133597,0.00001630,-0.00003401,-0.00013937,
 0.00000221,-0.00000941,0.00000521,-0.00000489,0.00001407,0.00000055,-0
 .00000284,0.00000884,0.00000122,-0.00000519,0.00000110,0.00000026,-0.0
 0000197,-0.00000426,0.00000406,-0.00000055,0.00000003,0.00000124,0.000
 02248,-0.00001652,-0.00000704,-0.00001317,0.00000644,-0.00001429,0.000
 06254,0.00005375,-0.00001399,-0.00123487,-0.00049812,0.00035087,0.0006
 4312,0.00061675,0.00119144,0.10164358,0.09545683,-0.00008128,0.0006808
 6,0.00034673,0.00005169,0.00011123,-0.00001252,0.00002671,-0.00002640,
 -0.00001779,-0.00014511,0.00012554,-0.00018505,0.00005057,-0.00010736,
 -0.00001219,0.00010203,0.00006540,0.00000767,-0.00007004,-0.00006593,-
 0.00005333,-0.00009144,0.00001683,-0.00000622,0.00001431,0.00013890,-0
 .00000907,-0.00007400,0.00006352,0.00002065,-0.00007104,-0.00001946,-0
 .00000433,0.00006616,-0.00005466,0.00000229,0.00022423,0.00217352,-0.0
 0398263,0.00070556,-0.00130871,-0.00013562,-0.00022857,0.00012480,-0.0
 0014400,0.00002329,-0.00027574,0.00005081,-0.00019625,-0.00002479,0.00
 001839,0.00000890,0.00004304,-0.00000958,-0.00011618,0.00111696,0.0006
 1762,0.00020980,0.00013403,-0.00035581,0.00014608,-0.00011733,-0.00008
 994,0.00012877,0.00017463,-0.00003565,0.00383723,-0.00301811,0.0053168
 0,0.00089337,-0.00120787,-0.00156237,-0.00068322,0.00012179,-0.0004477
 2,0.00014869,-0.00048851,0.00011678,-0.00065568,-0.00339917,0.00477514
 ,-0.00804329,-0.00094566,0.00419137,0.01467417,-0.00659914,-0.04096106
 ,0.00570927,0.00496758,0.00459980,0.00013105,-0.00091115,-0.00023122,-
 0.00060759,-0.00120290,-0.00119355,-0.00001237,-0.00000439,0.00007342,
 0.00000475,-0.00000633,0.00001018,-0.00000814,0.00001238,0.00000344,-0
 .00000341,0.00000636,0.00000459,-0.00000366,-0.00000391,0.00000359,-0.
 00000044,-0.00000361,0.00000092,0.00000300,0.00000063,0.00001046,0.000
 02770,-0.00001933,-0.00003208,0.00002036,0.00000103,0.00003838,0.00004
 662,0.00003567,0.00001588,-0.00049825,-0.00027753,0.00040683,-0.000545
 31,0.00130867,-0.00257239,-0.01511904,0.00866463,0.03142241\\0.0000591
 9,-0.00002456,-0.00004424,-0.00007472,-0.00000883,-0.00002817,0.000049
 81,0.00001633,-0.00002007,-0.00005086,0.00001595,-0.00007596,-0.000028
 34,-0.00007176,-0.00003265,0.00008877,0.00003086,0.00001861,-0.0000280
 6,-0.00001688,0.00001778,-0.00002407,-0.00002422,0.00002833,0.00001086
 ,0.00009397,-0.00000339,-0.00002263,0.00002913,0.00000380,-0.00000333,
 -0.00003571,0.00001641,0.00001377,-0.00001926,0.00004081,-0.00003083,-
 0.00006719,0.00003826,0.00004756,0.00005290,-0.00002223,-0.00005693,-0
 .00001217,0.00002031,-0.00000212,0.00002217,-0.00000580,0.00000192,-0.
 00000637,-0.00000095,0.00000121,-0.00001750,0.00002456,0.00001091,-0.0
 0001967,0.00002047,-0.00000304,-0.00001526,0.00000195,0.00001409,0.000
 00508,-0.00000696,0.00001172,0.00001043,0.00000538,-0.00000615,0.00000
 431,-0.00001575,-0.00002485,-0.00000493,0.00000016,0.00003935,0.000012
 82,-0.00000308,-0.00001448,0.00002811,0.00000331,0.00000020,-0.0000002
 3,-0.00000492,0.00000089,0.00000622,0.00000724,-0.00002074,-0.00001178
 ,-0.00001625,0.00003808,0.00001780,0.00004564,-0.00000068,0.00001217,0
 .00000603,-0.00000052,0.00000579,-0.00001113,-0.00000280,-0.00000058,0
 .00000366,-0.00000599,0.00001242,0.00000004,0.00000567,-0.00000246,0.0
 0000166,-0.00001458,0.00000192,0.00000212,0.00000318,0.00000541,0.0000
 0016,0.00000063,-0.00000192,-0.00000228,-0.00000340,-0.00001101,0.0000
 0026,-0.00000251,0.00000299,-0.00000079,0.00001143,-0.00001382,0.00000
 121,-0.00000529,-0.00000346,-0.00000025,0.00001123,0.00000071,-0.00000
 907,0.00000084,0.00000182,-0.00000965,0.00000565,0.00000026,0.00000542
 \\\@


 ...THE PHYSICISTS HAVE MADE THEIR UNIVERSE, AND IF YOU DO NOT LIKE
 IT, YOU MUST MAKE YOUR OWN.
                               -- E. R. HARRISON IN "COSMOLOGY" (1980)
 Job cpu time:       2 days  8 hours 29 minutes 29.1 seconds.
 Elapsed time:       0 days  2 hours 49 minutes 56.3 seconds.
 File lengths (MBytes):  RWF=   4323 Int=      0 D2E=      0 Chk=     75 Scr=      1
 Normal termination of Gaussian 16 at Fri Jun 21 23:06:52 2019.
