 Entering Gaussian System, Link 0=/share/apps/gaussian16/g16/g16
 Initial command:
 /share/apps/gaussian16/g16/l1.exe "/home/amen01//scratch/623/Gau-38752.inp" -scrdir="/home/amen01//scratch/623/"
 Entering Link 1 = /share/apps/gaussian16/g16/l1.exe PID=     38753.
  
 Copyright (c) 1988-2017, Gaussian, Inc.  All Rights Reserved.
  
 This is part of the Gaussian(R) 16 program.  It is based on
 the Gaussian(R) 09 system (copyright 2009, Gaussian, Inc.),
 the Gaussian(R) 03 system (copyright 2003, Gaussian, Inc.),
 the Gaussian(R) 98 system (copyright 1998, Gaussian, Inc.),
 the Gaussian(R) 94 system (copyright 1995, Gaussian, Inc.),
 the Gaussian 92(TM) system (copyright 1992, Gaussian, Inc.),
 the Gaussian 90(TM) system (copyright 1990, Gaussian, Inc.),
 the Gaussian 88(TM) system (copyright 1988, Gaussian, Inc.),
 the Gaussian 86(TM) system (copyright 1986, Carnegie Mellon
 University), and the Gaussian 82(TM) system (copyright 1983,
 Carnegie Mellon University). Gaussian is a federally registered
 trademark of Gaussian, Inc.
  
 This software contains proprietary and confidential information,
 including trade secrets, belonging to Gaussian, Inc.
  
 This software is provided under written license and may be
 used, copied, transmitted, or stored only in accord with that
 written license.
  
 The following legend is applicable only to US Government
 contracts under FAR:
  
                    RESTRICTED RIGHTS LEGEND
  
 Use, reproduction and disclosure by the US Government is
 subject to restrictions as set forth in subparagraphs (a)
 and (c) of the Commercial Computer Software - Restricted
 Rights clause in FAR 52.227-19.
  
 Gaussian, Inc.
 340 Quinnipiac St., Bldg. 40, Wallingford CT 06492
  
  
 ---------------------------------------------------------------
 Warning -- This program may not be used in any manner that
 competes with the business of Gaussian, Inc. or will provide
 assistance to any competitor of Gaussian, Inc.  The licensee
 of this program is prohibited from giving any competitor of
 Gaussian, Inc. access to this program.  By using this program,
 the user acknowledges that Gaussian, Inc. is engaged in the
 business of creating and licensing software in the field of
 computational chemistry and represents and warrants to the
 licensee that it is not a competitor of Gaussian, Inc. and that
 it will not use this program in any manner prohibited above.
 ---------------------------------------------------------------
  

 Cite this work as:
 Gaussian 16, Revision B.01,
 M. J. Frisch, G. W. Trucks, H. B. Schlegel, G. E. Scuseria, 
 M. A. Robb, J. R. Cheeseman, G. Scalmani, V. Barone, 
 G. A. Petersson, H. Nakatsuji, X. Li, M. Caricato, A. V. Marenich, 
 J. Bloino, B. G. Janesko, R. Gomperts, B. Mennucci, H. P. Hratchian, 
 J. V. Ortiz, A. F. Izmaylov, J. L. Sonnenberg, D. Williams-Young, 
 F. Ding, F. Lipparini, F. Egidi, J. Goings, B. Peng, A. Petrone, 
 T. Henderson, D. Ranasinghe, V. G. Zakrzewski, J. Gao, N. Rega, 
 G. Zheng, W. Liang, M. Hada, M. Ehara, K. Toyota, R. Fukuda, 
 J. Hasegawa, M. Ishida, T. Nakajima, Y. Honda, O. Kitao, H. Nakai, 
 T. Vreven, K. Throssell, J. A. Montgomery, Jr., J. E. Peralta, 
 F. Ogliaro, M. J. Bearpark, J. J. Heyd, E. N. Brothers, K. N. Kudin, 
 V. N. Staroverov, T. A. Keith, R. Kobayashi, J. Normand, 
 K. Raghavachari, A. P. Rendell, J. C. Burant, S. S. Iyengar, 
 J. Tomasi, M. Cossi, J. M. Millam, M. Klene, C. Adamo, R. Cammi, 
 J. W. Ochterski, R. L. Martin, K. Morokuma, O. Farkas, 
 J. B. Foresman, and D. J. Fox, Gaussian, Inc., Wallingford CT, 2016.
 
 ******************************************
 Gaussian 16:  ES64L-G16RevB.01 20-Dec-2017
                25-Jun-2019 
 ******************************************
 %nprocshared=20
 Will use up to   20 processors via shared memory.
 %mem=100GB
 %chk=7-memb2-hadd-2a.chk
 -------------------------------------------
 # opt freq b3lyp/6-311+g(d,p) int=grid=fine
 -------------------------------------------
 1/18=20,19=15,26=3,38=1/1,3;
 2/9=110,12=2,17=6,18=5,40=1/2;
 3/5=4,6=6,7=111,11=2,25=1,30=1,71=1,74=-5,75=-4/1,2,3;
 4//1;
 5/5=2,38=5/2;
 6/7=2,8=2,9=2,10=2,28=1/1;
 7//1,2,3,16;
 1/18=20,19=15,26=3/3(2);
 2/9=110/2;
 99//99;
 2/9=110/2;
 3/5=4,6=6,7=111,11=2,25=1,30=1,71=1,74=-5,75=-4/1,2,3;
 4/5=5,16=3,69=1/1;
 5/5=2,38=5/2;
 7//1,2,3,16;
 1/18=20,19=15,26=3/3(-5);
 2/9=110/2;
 6/7=2,8=2,9=2,10=2,19=2,28=1/1;
 99/9=1/99;
 ---------------
 7-memb2-hadd-2a
 ---------------
 Symbolic Z-matrix:
 Charge =  0 Multiplicity = 2
 C                    -3.96119   0.32215  -0.07512 
 C                    -2.54006   0.11392   0.10128 
 C                    -2.40884  -1.3314    0.18347 
 C                    -4.61958  -0.96644  -0.01714 
 C                    -3.70265  -1.93083   0.09629 
 C                    -6.00989  -1.29133   0.0421 
 C                    -6.38996  -2.71989   0.03257 
 C                    -5.43926  -3.69447   0.12135 
 C                    -4.01448  -3.32822   0.20954 
 C                    -1.3077   -2.06984   0.36477 
 C                    -1.55782  -3.52378   0.44916 
 C                    -2.92895  -4.12426   0.37511 
 C                    -4.78149   1.55344  -0.01813 
 C                    -6.26804   1.19456   0.41954 
 C                    -6.81772  -0.2278    0.19968 
 C                    -1.47979   0.93039   0.17976 
 C                    -0.14359   0.20556   0.24011 
 C                    -0.09055  -1.26995   0.43739 
 C                    -1.58067   2.40917   0.05448 
 C                    -0.29154   3.08296  -0.33449 
 C                     0.95017   2.31581  -0.28148 
 C                     0.99114   0.90405   0.04172 
 C                    -2.71703   3.15225   0.27886 
 C                    -2.65547   4.61058  -0.02887 
 C                    -1.46502   5.15044  -0.6641 
 C                    -0.2519    4.37896  -0.69458 
 C                    -3.66942   5.44767   0.2462 
 C                    -4.84845   5.02767   0.94254 
 C                    -5.03045   3.74138   1.25216 
 C                    -4.06584   2.62479   0.87128 
 H                    -4.84952   1.94612  -1.04332 
 H                    -6.38169   1.37361   1.49631 
 H                    -7.89051  -0.36126   0.3023 
 H                    -7.44376  -2.97196  -0.01613 
 H                    -5.70897  -4.74436   0.13459 
 H                    -3.01181  -5.20095   0.47044 
 H                    -0.71514  -4.1912    0.58916 
 H                     0.86425  -1.77092   0.53847 
 H                     1.96617   0.42785   0.05318 
 H                     1.89167   2.8062   -0.50605 
 H                     0.66656   4.88363  -0.9723 
 H                    -1.43561   6.17804  -1.00743 
 H                    -3.60822   6.50585   0.00586 
 H                    -5.56343   5.78575   1.24721 
 H                    -5.9085    3.48133   1.83605 
 H                    -3.80571   2.15309   1.83245 
 H                    -6.94353   1.89386  -0.08978 
 

 GradGradGradGradGradGradGradGradGradGradGradGradGradGradGradGradGradGrad
 Berny optimization.
 Initialization pass.
                           ----------------------------
                           !    Initial Parameters    !
                           ! (Angstroms and Degrees)  !
 --------------------------                            --------------------------
 ! Name  Definition              Value          Derivative Info.                !
 --------------------------------------------------------------------------------
 ! R1    R(1,2)                  1.4471         estimate D2E/DX2                !
 ! R2    R(1,4)                  1.4482         estimate D2E/DX2                !
 ! R3    R(1,13)                 1.4806         estimate D2E/DX2                !
 ! R4    R(2,3)                  1.4536         estimate D2E/DX2                !
 ! R5    R(2,16)                 1.3405         estimate D2E/DX2                !
 ! R6    R(3,5)                  1.4286         estimate D2E/DX2                !
 ! R7    R(3,10)                 1.3382         estimate D2E/DX2                !
 ! R8    R(4,5)                  1.3355         estimate D2E/DX2                !
 ! R9    R(4,6)                  1.429          estimate D2E/DX2                !
 ! R10   R(5,9)                  1.4362         estimate D2E/DX2                !
 ! R11   R(6,7)                  1.4783         estimate D2E/DX2                !
 ! R12   R(6,15)                 1.3448         estimate D2E/DX2                !
 ! R13   R(7,8)                  1.3644         estimate D2E/DX2                !
 ! R14   R(7,34)                 1.0846         estimate D2E/DX2                !
 ! R15   R(8,9)                  1.4737         estimate D2E/DX2                !
 ! R16   R(8,35)                 1.0841         estimate D2E/DX2                !
 ! R17   R(9,12)                 1.3563         estimate D2E/DX2                !
 ! R18   R(10,11)                1.4777         estimate D2E/DX2                !
 ! R19   R(10,18)                1.4583         estimate D2E/DX2                !
 ! R20   R(11,12)                1.4987         estimate D2E/DX2                !
 ! R21   R(11,37)                1.084          estimate D2E/DX2                !
 ! R22   R(12,36)                1.0841         estimate D2E/DX2                !
 ! R23   R(13,14)                1.5907         estimate D2E/DX2                !
 ! R24   R(13,30)                1.5656         estimate D2E/DX2                !
 ! R25   R(13,31)                1.0999         estimate D2E/DX2                !
 ! R26   R(14,15)                1.5406         estimate D2E/DX2                !
 ! R27   R(14,32)                1.0975         estimate D2E/DX2                !
 ! R28   R(14,47)                1.0976         estimate D2E/DX2                !
 ! R29   R(15,33)                1.0859         estimate D2E/DX2                !
 ! R30   R(16,17)                1.5213         estimate D2E/DX2                !
 ! R31   R(16,19)                1.4875         estimate D2E/DX2                !
 ! R32   R(17,18)                1.4896         estimate D2E/DX2                !
 ! R33   R(17,22)                1.3472         estimate D2E/DX2                !
 ! R34   R(18,38)                1.083          estimate D2E/DX2                !
 ! R35   R(19,20)                1.5057         estimate D2E/DX2                !
 ! R36   R(19,23)                1.3762         estimate D2E/DX2                !
 ! R37   R(20,21)                1.4605         estimate D2E/DX2                !
 ! R38   R(20,26)                1.3457         estimate D2E/DX2                !
 ! R39   R(21,22)                1.4489         estimate D2E/DX2                !
 ! R40   R(21,40)                1.0851         estimate D2E/DX2                !
 ! R41   R(22,39)                1.0852         estimate D2E/DX2                !
 ! R42   R(23,24)                1.4917         estimate D2E/DX2                !
 ! R43   R(23,30)                1.5648         estimate D2E/DX2                !
 ! R44   R(24,25)                1.4533         estimate D2E/DX2                !
 ! R45   R(24,27)                1.3433         estimate D2E/DX2                !
 ! R46   R(25,26)                1.438          estimate D2E/DX2                !
 ! R47   R(25,42)                1.0838         estimate D2E/DX2                !
 ! R48   R(26,41)                1.0842         estimate D2E/DX2                !
 ! R49   R(27,28)                1.4323         estimate D2E/DX2                !
 ! R50   R(27,43)                1.0869         estimate D2E/DX2                !
 ! R51   R(28,29)                1.3355         estimate D2E/DX2                !
 ! R52   R(28,44)                1.0857         estimate D2E/DX2                !
 ! R53   R(29,30)                1.5239         estimate D2E/DX2                !
 ! R54   R(29,45)                1.0861         estimate D2E/DX2                !
 ! R55   R(30,46)                1.1018         estimate D2E/DX2                !
 ! A1    A(2,1,4)              108.2734         estimate D2E/DX2                !
 ! A2    A(2,1,13)             131.2281         estimate D2E/DX2                !
 ! A3    A(4,1,13)             119.1131         estimate D2E/DX2                !
 ! A4    A(1,2,3)              103.8052         estimate D2E/DX2                !
 ! A5    A(1,2,16)             134.1268         estimate D2E/DX2                !
 ! A6    A(3,2,16)             122.0662         estimate D2E/DX2                !
 ! A7    A(2,3,5)              109.3903         estimate D2E/DX2                !
 ! A8    A(2,3,10)             129.0971         estimate D2E/DX2                !
 ! A9    A(5,3,10)             121.4641         estimate D2E/DX2                !
 ! A10   A(1,4,5)              109.4985         estimate D2E/DX2                !
 ! A11   A(1,4,6)              130.2613         estimate D2E/DX2                !
 ! A12   A(5,4,6)              120.0185         estimate D2E/DX2                !
 ! A13   A(3,5,4)              108.9039         estimate D2E/DX2                !
 ! A14   A(3,5,9)              126.8749         estimate D2E/DX2                !
 ! A15   A(4,5,9)              124.0697         estimate D2E/DX2                !
 ! A16   A(4,6,7)              118.0072         estimate D2E/DX2                !
 ! A17   A(4,6,15)             114.1732         estimate D2E/DX2                !
 ! A18   A(7,6,15)             127.6294         estimate D2E/DX2                !
 ! A19   A(6,7,8)              120.7111         estimate D2E/DX2                !
 ! A20   A(6,7,34)             118.3379         estimate D2E/DX2                !
 ! A21   A(8,7,34)             120.925          estimate D2E/DX2                !
 ! A22   A(7,8,9)              120.002          estimate D2E/DX2                !
 ! A23   A(7,8,35)             121.2801         estimate D2E/DX2                !
 ! A24   A(9,8,35)             118.717          estimate D2E/DX2                !
 ! A25   A(5,9,8)              116.5502         estimate D2E/DX2                !
 ! A26   A(5,9,12)             114.0109         estimate D2E/DX2                !
 ! A27   A(8,9,12)             129.4371         estimate D2E/DX2                !
 ! A28   A(3,10,11)            114.2936         estimate D2E/DX2                !
 ! A29   A(3,10,18)            113.0088         estimate D2E/DX2                !
 ! A30   A(11,10,18)           132.6975         estimate D2E/DX2                !
 ! A31   A(10,11,12)           123.1109         estimate D2E/DX2                !
 ! A32   A(10,11,37)           118.7881         estimate D2E/DX2                !
 ! A33   A(12,11,37)           118.0916         estimate D2E/DX2                !
 ! A34   A(9,12,11)            120.2068         estimate D2E/DX2                !
 ! A35   A(9,12,36)            122.1742         estimate D2E/DX2                !
 ! A36   A(11,12,36)           117.6149         estimate D2E/DX2                !
 ! A37   A(1,13,14)            109.9215         estimate D2E/DX2                !
 ! A38   A(1,13,30)            109.7367         estimate D2E/DX2                !
 ! A39   A(1,13,31)            107.1743         estimate D2E/DX2                !
 ! A40   A(14,13,30)           115.1685         estimate D2E/DX2                !
 ! A41   A(14,13,31)           106.2125         estimate D2E/DX2                !
 ! A42   A(30,13,31)           108.2686         estimate D2E/DX2                !
 ! A43   A(13,14,15)           120.1632         estimate D2E/DX2                !
 ! A44   A(13,14,32)           109.2648         estimate D2E/DX2                !
 ! A45   A(13,14,47)           107.6814         estimate D2E/DX2                !
 ! A46   A(15,14,32)           104.6961         estimate D2E/DX2                !
 ! A47   A(15,14,47)           107.6023         estimate D2E/DX2                !
 ! A48   A(32,14,47)           106.7148         estimate D2E/DX2                !
 ! A49   A(6,15,14)            122.176          estimate D2E/DX2                !
 ! A50   A(6,15,33)            120.4853         estimate D2E/DX2                !
 ! A51   A(14,15,33)           116.901          estimate D2E/DX2                !
 ! A52   A(2,16,17)            114.0058         estimate D2E/DX2                !
 ! A53   A(2,16,19)            123.1569         estimate D2E/DX2                !
 ! A54   A(17,16,19)           122.4496         estimate D2E/DX2                !
 ! A55   A(16,17,18)           120.562          estimate D2E/DX2                !
 ! A56   A(16,17,22)           119.1393         estimate D2E/DX2                !
 ! A57   A(18,17,22)           120.2053         estimate D2E/DX2                !
 ! A58   A(10,18,17)           120.4657         estimate D2E/DX2                !
 ! A59   A(10,18,38)           119.1291         estimate D2E/DX2                !
 ! A60   A(17,18,38)           120.1305         estimate D2E/DX2                !
 ! A61   A(16,19,20)           114.1145         estimate D2E/DX2                !
 ! A62   A(16,19,23)           125.3849         estimate D2E/DX2                !
 ! A63   A(20,19,23)           120.495          estimate D2E/DX2                !
 ! A64   A(19,20,21)           118.912          estimate D2E/DX2                !
 ! A65   A(19,20,26)           121.6897         estimate D2E/DX2                !
 ! A66   A(21,20,26)           119.3753         estimate D2E/DX2                !
 ! A67   A(20,21,22)           122.9521         estimate D2E/DX2                !
 ! A68   A(20,21,40)           119.5245         estimate D2E/DX2                !
 ! A69   A(22,21,40)           117.5169         estimate D2E/DX2                !
 ! A70   A(17,22,21)           120.9469         estimate D2E/DX2                !
 ! A71   A(17,22,39)           121.8529         estimate D2E/DX2                !
 ! A72   A(21,22,39)           117.0877         estimate D2E/DX2                !
 ! A73   A(19,23,24)           117.3979         estimate D2E/DX2                !
 ! A74   A(19,23,30)           126.2636         estimate D2E/DX2                !
 ! A75   A(24,23,30)           116.3094         estimate D2E/DX2                !
 ! A76   A(23,24,25)           119.1518         estimate D2E/DX2                !
 ! A77   A(23,24,27)           122.3993         estimate D2E/DX2                !
 ! A78   A(25,24,27)           118.4446         estimate D2E/DX2                !
 ! A79   A(24,25,26)           120.0669         estimate D2E/DX2                !
 ! A80   A(24,25,42)           120.8557         estimate D2E/DX2                !
 ! A81   A(26,25,42)           118.6241         estimate D2E/DX2                !
 ! A82   A(20,26,25)           119.0895         estimate D2E/DX2                !
 ! A83   A(20,26,41)           122.8072         estimate D2E/DX2                !
 ! A84   A(25,26,41)           118.0593         estimate D2E/DX2                !
 ! A85   A(24,27,28)           122.5596         estimate D2E/DX2                !
 ! A86   A(24,27,43)           121.2605         estimate D2E/DX2                !
 ! A87   A(28,27,43)           116.0635         estimate D2E/DX2                !
 ! A88   A(27,28,29)           120.4866         estimate D2E/DX2                !
 ! A89   A(27,28,44)           118.2808         estimate D2E/DX2                !
 ! A90   A(29,28,44)           121.1795         estimate D2E/DX2                !
 ! A91   A(28,29,30)           124.1604         estimate D2E/DX2                !
 ! A92   A(28,29,45)           117.7389         estimate D2E/DX2                !
 ! A93   A(30,29,45)           118.0782         estimate D2E/DX2                !
 ! A94   A(13,30,23)           114.1812         estimate D2E/DX2                !
 ! A95   A(13,30,29)           110.7354         estimate D2E/DX2                !
 ! A96   A(13,30,46)           108.092          estimate D2E/DX2                !
 ! A97   A(23,30,29)           113.1578         estimate D2E/DX2                !
 ! A98   A(23,30,46)           105.7281         estimate D2E/DX2                !
 ! A99   A(29,30,46)           104.1872         estimate D2E/DX2                !
 ! D1    D(4,1,2,3)              3.1307         estimate D2E/DX2                !
 ! D2    D(4,1,2,16)          -177.3548         estimate D2E/DX2                !
 ! D3    D(13,1,2,3)           169.2081         estimate D2E/DX2                !
 ! D4    D(13,1,2,16)          -11.2774         estimate D2E/DX2                !
 ! D5    D(2,1,4,5)             -3.7889         estimate D2E/DX2                !
 ! D6    D(2,1,4,6)            170.6825         estimate D2E/DX2                !
 ! D7    D(13,1,4,5)          -171.8347         estimate D2E/DX2                !
 ! D8    D(13,1,4,6)             2.6366         estimate D2E/DX2                !
 ! D9    D(2,1,13,14)         -152.5037         estimate D2E/DX2                !
 ! D10   D(2,1,13,30)          -24.8701         estimate D2E/DX2                !
 ! D11   D(2,1,13,31)           92.4823         estimate D2E/DX2                !
 ! D12   D(4,1,13,14)           12.3363         estimate D2E/DX2                !
 ! D13   D(4,1,13,30)          139.9698         estimate D2E/DX2                !
 ! D14   D(4,1,13,31)         -102.6777         estimate D2E/DX2                !
 ! D15   D(1,2,3,5)             -1.5591         estimate D2E/DX2                !
 ! D16   D(1,2,3,10)          -179.0174         estimate D2E/DX2                !
 ! D17   D(16,2,3,5)           178.8521         estimate D2E/DX2                !
 ! D18   D(16,2,3,10)            1.3939         estimate D2E/DX2                !
 ! D19   D(1,2,16,17)         -174.4944         estimate D2E/DX2                !
 ! D20   D(1,2,16,19)           -1.4936         estimate D2E/DX2                !
 ! D21   D(3,2,16,17)            4.9492         estimate D2E/DX2                !
 ! D22   D(3,2,16,19)          177.9501         estimate D2E/DX2                !
 ! D23   D(2,3,5,4)             -0.7222         estimate D2E/DX2                !
 ! D24   D(2,3,5,9)           -176.3638         estimate D2E/DX2                !
 ! D25   D(10,3,5,4)           176.9653         estimate D2E/DX2                !
 ! D26   D(10,3,5,9)             1.3237         estimate D2E/DX2                !
 ! D27   D(2,3,10,11)          177.7593         estimate D2E/DX2                !
 ! D28   D(2,3,10,18)           -2.3523         estimate D2E/DX2                !
 ! D29   D(5,3,10,11)            0.5703         estimate D2E/DX2                !
 ! D30   D(5,3,10,18)         -179.5413         estimate D2E/DX2                !
 ! D31   D(1,4,5,3)              2.7501         estimate D2E/DX2                !
 ! D32   D(1,4,5,9)            178.5415         estimate D2E/DX2                !
 ! D33   D(6,4,5,3)           -172.379          estimate D2E/DX2                !
 ! D34   D(6,4,5,9)              3.4123         estimate D2E/DX2                !
 ! D35   D(1,4,6,7)            177.3213         estimate D2E/DX2                !
 ! D36   D(1,4,6,15)            -7.3063         estimate D2E/DX2                !
 ! D37   D(5,4,6,7)             -8.6994         estimate D2E/DX2                !
 ! D38   D(5,4,6,15)           166.673          estimate D2E/DX2                !
 ! D39   D(3,5,9,8)            178.3126         estimate D2E/DX2                !
 ! D40   D(3,5,9,12)            -2.1369         estimate D2E/DX2                !
 ! D41   D(4,5,9,8)              3.2918         estimate D2E/DX2                !
 ! D42   D(4,5,9,12)          -177.1577         estimate D2E/DX2                !
 ! D43   D(4,6,7,8)              7.4488         estimate D2E/DX2                !
 ! D44   D(4,6,7,34)          -174.3872         estimate D2E/DX2                !
 ! D45   D(15,6,7,8)          -167.2185         estimate D2E/DX2                !
 ! D46   D(15,6,7,34)           10.9455         estimate D2E/DX2                !
 ! D47   D(4,6,15,14)           -5.0695         estimate D2E/DX2                !
 ! D48   D(4,6,15,33)         -177.2397         estimate D2E/DX2                !
 ! D49   D(7,6,15,14)          169.7703         estimate D2E/DX2                !
 ! D50   D(7,6,15,33)           -2.3999         estimate D2E/DX2                !
 ! D51   D(6,7,8,9)             -0.8402         estimate D2E/DX2                !
 ! D52   D(6,7,8,35)           178.7986         estimate D2E/DX2                !
 ! D53   D(34,7,8,9)          -178.9565         estimate D2E/DX2                !
 ! D54   D(34,7,8,35)            0.6824         estimate D2E/DX2                !
 ! D55   D(7,8,9,5)             -4.4615         estimate D2E/DX2                !
 ! D56   D(7,8,9,12)           176.0701         estimate D2E/DX2                !
 ! D57   D(35,8,9,5)           175.8904         estimate D2E/DX2                !
 ! D58   D(35,8,9,12)           -3.578          estimate D2E/DX2                !
 ! D59   D(5,9,12,11)            1.042          estimate D2E/DX2                !
 ! D60   D(5,9,12,36)         -179.7199         estimate D2E/DX2                !
 ! D61   D(8,9,12,11)         -179.4787         estimate D2E/DX2                !
 ! D62   D(8,9,12,36)           -0.2405         estimate D2E/DX2                !
 ! D63   D(3,10,11,12)          -1.538          estimate D2E/DX2                !
 ! D64   D(3,10,11,37)         179.6016         estimate D2E/DX2                !
 ! D65   D(18,10,11,12)        178.6018         estimate D2E/DX2                !
 ! D66   D(18,10,11,37)         -0.2586         estimate D2E/DX2                !
 ! D67   D(3,10,18,17)          -3.3045         estimate D2E/DX2                !
 ! D68   D(3,10,18,38)        -177.2921         estimate D2E/DX2                !
 ! D69   D(11,10,18,17)        176.5571         estimate D2E/DX2                !
 ! D70   D(11,10,18,38)          2.5695         estimate D2E/DX2                !
 ! D71   D(10,11,12,9)           0.6975         estimate D2E/DX2                !
 ! D72   D(10,11,12,36)       -178.5747         estimate D2E/DX2                !
 ! D73   D(37,11,12,9)         179.5654         estimate D2E/DX2                !
 ! D74   D(37,11,12,36)          0.2931         estimate D2E/DX2                !
 ! D75   D(1,13,14,15)         -23.2607         estimate D2E/DX2                !
 ! D76   D(1,13,14,32)          97.6662         estimate D2E/DX2                !
 ! D77   D(1,13,14,47)        -146.7906         estimate D2E/DX2                !
 ! D78   D(30,13,14,15)       -147.8137         estimate D2E/DX2                !
 ! D79   D(30,13,14,32)        -26.8868         estimate D2E/DX2                !
 ! D80   D(30,13,14,47)         88.6564         estimate D2E/DX2                !
 ! D81   D(31,13,14,15)         92.363          estimate D2E/DX2                !
 ! D82   D(31,13,14,32)       -146.7101         estimate D2E/DX2                !
 ! D83   D(31,13,14,47)        -31.1669         estimate D2E/DX2                !
 ! D84   D(1,13,30,23)          65.9347         estimate D2E/DX2                !
 ! D85   D(1,13,30,29)        -164.9461         estimate D2E/DX2                !
 ! D86   D(1,13,30,46)         -51.407          estimate D2E/DX2                !
 ! D87   D(14,13,30,23)       -169.4157         estimate D2E/DX2                !
 ! D88   D(14,13,30,29)        -40.2965         estimate D2E/DX2                !
 ! D89   D(14,13,30,46)         73.2427         estimate D2E/DX2                !
 ! D90   D(31,13,30,23)        -50.7317         estimate D2E/DX2                !
 ! D91   D(31,13,30,29)         78.3875         estimate D2E/DX2                !
 ! D92   D(31,13,30,46)       -168.0733         estimate D2E/DX2                !
 ! D93   D(13,14,15,6)          21.0938         estimate D2E/DX2                !
 ! D94   D(13,14,15,33)       -166.4708         estimate D2E/DX2                !
 ! D95   D(32,14,15,6)        -102.0631         estimate D2E/DX2                !
 ! D96   D(32,14,15,33)         70.3724         estimate D2E/DX2                !
 ! D97   D(47,14,15,6)         144.6616         estimate D2E/DX2                !
 ! D98   D(47,14,15,33)        -42.9029         estimate D2E/DX2                !
 ! D99   D(2,16,17,18)         -10.1604         estimate D2E/DX2                !
 ! D100  D(2,16,17,22)         166.3337         estimate D2E/DX2                !
 ! D101  D(19,16,17,18)        176.783          estimate D2E/DX2                !
 ! D102  D(19,16,17,22)         -6.7229         estimate D2E/DX2                !
 ! D103  D(2,16,19,20)        -158.5431         estimate D2E/DX2                !
 ! D104  D(2,16,19,23)          22.3176         estimate D2E/DX2                !
 ! D105  D(17,16,19,20)         13.8769         estimate D2E/DX2                !
 ! D106  D(17,16,19,23)       -165.2624         estimate D2E/DX2                !
 ! D107  D(16,17,18,10)          9.7258         estimate D2E/DX2                !
 ! D108  D(16,17,18,38)       -176.3469         estimate D2E/DX2                !
 ! D109  D(22,17,18,10)       -166.7309         estimate D2E/DX2                !
 ! D110  D(22,17,18,38)          7.1965         estimate D2E/DX2                !
 ! D111  D(16,17,22,21)         -2.5953         estimate D2E/DX2                !
 ! D112  D(16,17,22,39)       -178.6242         estimate D2E/DX2                !
 ! D113  D(18,17,22,21)        173.9116         estimate D2E/DX2                !
 ! D114  D(18,17,22,39)         -2.1173         estimate D2E/DX2                !
 ! D115  D(16,19,20,21)        -12.374          estimate D2E/DX2                !
 ! D116  D(16,19,20,26)        169.382          estimate D2E/DX2                !
 ! D117  D(23,19,20,21)        166.8117         estimate D2E/DX2                !
 ! D118  D(23,19,20,26)        -11.4323         estimate D2E/DX2                !
 ! D119  D(16,19,23,24)       -174.0982         estimate D2E/DX2                !
 ! D120  D(16,19,23,30)          7.9429         estimate D2E/DX2                !
 ! D121  D(20,19,23,24)          6.8134         estimate D2E/DX2                !
 ! D122  D(20,19,23,30)       -171.1455         estimate D2E/DX2                !
 ! D123  D(19,20,21,22)          4.3505         estimate D2E/DX2                !
 ! D124  D(19,20,21,40)       -176.6028         estimate D2E/DX2                !
 ! D125  D(26,20,21,22)       -177.3641         estimate D2E/DX2                !
 ! D126  D(26,20,21,40)          1.6825         estimate D2E/DX2                !
 ! D127  D(19,20,26,25)          2.0932         estimate D2E/DX2                !
 ! D128  D(19,20,26,41)        179.6326         estimate D2E/DX2                !
 ! D129  D(21,20,26,25)       -176.1429         estimate D2E/DX2                !
 ! D130  D(21,20,26,41)          1.3965         estimate D2E/DX2                !
 ! D131  D(20,21,22,17)          3.7362         estimate D2E/DX2                !
 ! D132  D(20,21,22,39)        179.9478         estimate D2E/DX2                !
 ! D133  D(40,21,22,17)       -175.3285         estimate D2E/DX2                !
 ! D134  D(40,21,22,39)          0.8832         estimate D2E/DX2                !
 ! D135  D(19,23,24,25)          5.9219         estimate D2E/DX2                !
 ! D136  D(19,23,24,27)       -174.8392         estimate D2E/DX2                !
 ! D137  D(30,23,24,25)       -175.9139         estimate D2E/DX2                !
 ! D138  D(30,23,24,27)          3.3249         estimate D2E/DX2                !
 ! D139  D(19,23,30,13)        -63.6076         estimate D2E/DX2                !
 ! D140  D(19,23,30,29)        168.5002         estimate D2E/DX2                !
 ! D141  D(19,23,30,46)         55.0848         estimate D2E/DX2                !
 ! D142  D(24,23,30,13)        118.414          estimate D2E/DX2                !
 ! D143  D(24,23,30,29)         -9.4782         estimate D2E/DX2                !
 ! D144  D(24,23,30,46)       -122.8936         estimate D2E/DX2                !
 ! D145  D(23,24,25,26)        -15.2034         estimate D2E/DX2                !
 ! D146  D(23,24,25,42)        172.6288         estimate D2E/DX2                !
 ! D147  D(27,24,25,26)        165.5275         estimate D2E/DX2                !
 ! D148  D(27,24,25,42)         -6.6403         estimate D2E/DX2                !
 ! D149  D(23,24,27,28)          4.6318         estimate D2E/DX2                !
 ! D150  D(23,24,27,43)       -179.4461         estimate D2E/DX2                !
 ! D151  D(25,24,27,28)       -176.1242         estimate D2E/DX2                !
 ! D152  D(25,24,27,43)         -0.2021         estimate D2E/DX2                !
 ! D153  D(24,25,26,20)         10.9837         estimate D2E/DX2                !
 ! D154  D(24,25,26,41)       -166.6728         estimate D2E/DX2                !
 ! D155  D(42,25,26,20)       -176.6751         estimate D2E/DX2                !
 ! D156  D(42,25,26,41)          5.6685         estimate D2E/DX2                !
 ! D157  D(24,27,28,29)         -5.5566         estimate D2E/DX2                !
 ! D158  D(24,27,28,44)        171.8248         estimate D2E/DX2                !
 ! D159  D(43,27,28,29)        178.3236         estimate D2E/DX2                !
 ! D160  D(43,27,28,44)         -4.2951         estimate D2E/DX2                !
 ! D161  D(27,28,29,30)         -2.0972         estimate D2E/DX2                !
 ! D162  D(27,28,29,45)        176.1415         estimate D2E/DX2                !
 ! D163  D(44,28,29,30)       -179.4017         estimate D2E/DX2                !
 ! D164  D(44,28,29,45)         -1.1631         estimate D2E/DX2                !
 ! D165  D(28,29,30,13)       -120.3389         estimate D2E/DX2                !
 ! D166  D(28,29,30,23)          9.3266         estimate D2E/DX2                !
 ! D167  D(28,29,30,46)        123.6719         estimate D2E/DX2                !
 ! D168  D(45,29,30,13)         61.428          estimate D2E/DX2                !
 ! D169  D(45,29,30,23)       -168.9065         estimate D2E/DX2                !
 ! D170  D(45,29,30,46)        -54.5613         estimate D2E/DX2                !
 --------------------------------------------------------------------------------
 Trust Radius=3.00D-01 FncErr=1.00D-07 GrdErr=1.00D-06 EigMax=2.50D+02 EigMin=1.00D-04
 Number of steps in this run=    282 maximum allowed number of steps=    282.
 GradGradGradGradGradGradGradGradGradGradGradGradGradGradGradGradGradGrad

                          Input orientation:                          
 ---------------------------------------------------------------------
 Center     Atomic      Atomic             Coordinates (Angstroms)
 Number     Number       Type             X           Y           Z
 ---------------------------------------------------------------------
      1          6           0       -3.961190    0.322150   -0.075120
      2          6           0       -2.540060    0.113920    0.101280
      3          6           0       -2.408840   -1.331400    0.183470
      4          6           0       -4.619580   -0.966440   -0.017140
      5          6           0       -3.702650   -1.930830    0.096290
      6          6           0       -6.009890   -1.291330    0.042100
      7          6           0       -6.389960   -2.719890    0.032570
      8          6           0       -5.439260   -3.694470    0.121350
      9          6           0       -4.014480   -3.328220    0.209540
     10          6           0       -1.307700   -2.069840    0.364770
     11          6           0       -1.557820   -3.523780    0.449160
     12          6           0       -2.928950   -4.124260    0.375110
     13          6           0       -4.781490    1.553440   -0.018130
     14          6           0       -6.268040    1.194560    0.419540
     15          6           0       -6.817720   -0.227800    0.199680
     16          6           0       -1.479790    0.930390    0.179760
     17          6           0       -0.143590    0.205560    0.240110
     18          6           0       -0.090550   -1.269950    0.437390
     19          6           0       -1.580670    2.409170    0.054480
     20          6           0       -0.291540    3.082960   -0.334490
     21          6           0        0.950170    2.315810   -0.281480
     22          6           0        0.991140    0.904050    0.041720
     23          6           0       -2.717030    3.152250    0.278860
     24          6           0       -2.655470    4.610580   -0.028870
     25          6           0       -1.465020    5.150440   -0.664100
     26          6           0       -0.251900    4.378960   -0.694580
     27          6           0       -3.669420    5.447670    0.246200
     28          6           0       -4.848450    5.027670    0.942540
     29          6           0       -5.030450    3.741380    1.252160
     30          6           0       -4.065840    2.624790    0.871280
     31          1           0       -4.849520    1.946120   -1.043320
     32          1           0       -6.381690    1.373610    1.496310
     33          1           0       -7.890510   -0.361260    0.302300
     34          1           0       -7.443760   -2.971960   -0.016130
     35          1           0       -5.708970   -4.744360    0.134590
     36          1           0       -3.011810   -5.200950    0.470440
     37          1           0       -0.715140   -4.191200    0.589160
     38          1           0        0.864250   -1.770920    0.538470
     39          1           0        1.966170    0.427850    0.053180
     40          1           0        1.891670    2.806200   -0.506050
     41          1           0        0.666560    4.883630   -0.972300
     42          1           0       -1.435610    6.178040   -1.007430
     43          1           0       -3.608220    6.505850    0.005860
     44          1           0       -5.563430    5.785750    1.247210
     45          1           0       -5.908500    3.481330    1.836050
     46          1           0       -3.805710    2.153090    1.832450
     47          1           0       -6.943530    1.893860   -0.089780
 ---------------------------------------------------------------------
                    Distance matrix (angstroms):
                    1          2          3          4          5
     1  C    0.000000
     2  C    1.447096   0.000000
     3  C    2.282737   1.453590   0.000000
     4  C    1.448207   2.346402   2.249625   0.000000
     5  C    2.274235   2.352157   1.428587   1.335543   0.000000
     6  C    2.610408   3.744055   3.604047   1.428994   2.394839
     7  C    3.894166   4.780892   4.219004   2.492249   2.801484
     8  C    4.284452   4.786397   3.843358   2.851877   2.475251
     9  C    3.661840   3.746193   2.562430   2.448578   1.436232
    10  C    3.599462   2.521298   1.338160   3.511680   2.413957
    11  C    4.565330   3.784003   2.366718   4.016441   2.694866
    12  C    4.586806   4.264785   2.847333   3.603320   2.342539
    13  C    1.480613   2.666549   3.740643   2.525076   3.649264
    14  C    2.515421   3.894471   4.618401   2.752822   4.056326
    15  C    2.921938   4.292415   4.544933   2.329038   3.551713
    16  C    2.567541   1.340505   2.445167   3.673556   3.624176
    17  C    3.832366   2.402236   2.738031   4.634032   4.153523
    18  C    4.216551   2.833402   2.332964   4.561889   3.687869
    19  C    3.168489   2.488130   3.833323   4.542559   4.831164
    20  C    4.599530   3.749791   4.923192   5.935510   6.079419
    21  C    5.304594   4.144458   4.980087   6.470329   6.310737
    22  C    4.987768   3.619009   4.071510   5.914590   5.483720
    23  C    3.111704   3.048656   4.495242   4.546528   5.180973
    24  C    4.483043   4.500023   5.950886   5.912784   6.625881
    25  C    5.467188   5.206539   6.604803   6.912744   7.465224
    26  C    5.531751   4.905062   6.166974   6.936055   7.235095
    27  C    5.143863   5.453929   6.895563   6.489450   7.380098
    28  C    4.895384   5.493753   6.853149   6.074761   7.102797
    29  C    3.820487   4.548080   5.809306   4.893210   5.939112
    30  C    2.491741   3.037330   4.343981   3.740702   4.635320
    31  H    2.088976   3.162384   4.266623   3.096599   4.200567
    32  H    3.071446   4.276804   4.982385   3.297180   4.478463
    33  H    4.006127   5.375269   5.568123   3.341746   4.477071
    34  H    4.794052   5.795059   5.299217   3.463828   3.884906
    35  H    5.363603   5.800516   4.747794   3.934777   3.455827
    36  H    5.630594   5.348520   3.926747   4.555627   3.363173
    37  H    5.598967   4.701321   3.348382   5.100130   3.778546
    38  H    5.295499   3.915748   3.321494   5.570304   4.591042
    39  H    5.929691   4.517408   4.717271   6.732094   6.140094
    40  H    6.372768   5.220867   6.007459   7.541102   7.355181
    41  H    6.559581   5.846804   7.029971   7.942224   8.165093
    42  H    6.445091   6.262795   7.665319   7.884284   8.491846
    43  H    6.194295   6.481268   7.930482   7.540457   8.437693
    44  H    5.845225   6.528673   7.857277   6.934083   8.020768
    45  H    4.174327   5.069050   6.175841   4.987814   6.097870
    46  H    2.648648   2.959229   4.100250   3.716831   4.438837
    47  H    3.371178   4.753445   5.571390   3.686100   5.016590
                    6          7          8          9         10
     6  C    0.000000
     7  C    1.478285   0.000000
     8  C    2.471231   1.364375   0.000000
     9  C    2.856329   2.458514   1.473742   0.000000
    10  C    4.777110   5.134422   4.446174   2.989026   0.000000
    11  C    4.997045   4.916235   3.898996   2.476053   1.477709
    12  C    4.198640   3.750757   2.559447   1.356270   2.617098
    13  C    3.099244   4.566300   5.290810   4.946791   5.034083
    14  C    2.527598   3.935420   4.967737   5.057487   5.938374
    15  C    1.344811   2.534051   3.731499   4.179815   5.812115
    16  C    5.047454   6.120129   6.088526   4.955936   3.010851
    17  C    6.057505   6.900614   6.577876   5.241405   2.558933
    18  C    5.932562   6.476787   5.881061   4.436848   1.458270
    19  C    5.771641   7.031145   7.221330   6.234190   4.498035
    20  C    7.209422   8.426062   8.522932   7.433672   5.298386
    21  C    7.845929   8.906987   8.781261   7.532856   4.974891
    22  C    7.337173   8.222753   7.905869   6.557172   3.772671
    23  C    5.535737   6.930592   7.369730   6.609438   5.409604
    24  C    6.788940   8.227149   8.760474   8.057809   6.826379
    25  C    7.915236   9.310342   9.728512   8.896666   7.294914
    26  C    8.114760   9.412662   9.630925   8.624098   6.619967
    27  C    7.136776   8.611389   9.312714   8.782748   7.880656
    28  C    6.487642   7.951666   8.780611   8.429335   7.952696
    29  C    5.267990   6.714438   7.532445   7.217929   6.958204
    30  C    4.450041   5.888172   6.510125   5.989897   5.468404
    31  H    3.606339   5.030124   5.789690   5.485035   5.536709
    32  H    3.058573   4.347338   5.335178   5.419102   6.235632
    33  H    2.114111   2.808476   4.141456   4.882117   6.801216
    34  H    2.209953   1.084622   2.135168   3.455114   6.213706
    35  H    3.467351   2.138372   1.084061   2.209608   5.155310
    36  H    4.945411   4.214177   2.878169   2.140218   3.566372
    37  H    6.061592   5.888814   4.773143   3.431398   2.213966
    38  H    6.908704   7.333488   6.603656   5.131801   2.199293
    39  H    8.159242   8.929367   8.475763   7.064042   4.129621
    40  H    8.917672   9.970616   9.818089   8.545513   5.896614
    41  H    9.150635  10.421984  10.585882   9.525931   7.350932
    42  H    8.821397  10.237204  10.713067   9.924745   8.362226
    43  H    8.158759   9.636030  10.364004   9.844565   8.886150
    44  H    7.192821   8.631594   9.547646   9.302712   8.977763
    45  H    5.099688   6.476069   7.392732   7.252780   7.358499
    46  H    4.464056   5.802056   6.307956   5.720331   5.121257
    47  H    3.321823   4.648451   5.791100   5.994918   6.905079
                   11         12         13         14         15
    11  C    0.000000
    12  C    1.498685   0.000000
    13  C    6.032294   5.985217   0.000000
    14  C    6.667067   6.280234   1.590654   0.000000
    15  C    6.212268   5.507786   2.714128   1.540647   0.000000
    16  C    4.462992   5.261912   3.365795   4.801522   5.462170
    17  C    3.993961   5.150126   4.836692   6.206384   6.688307
    18  C    2.689381   4.025851   5.493992   6.650978   6.811564
    19  C    5.946107   6.678800   3.314030   4.855923   5.865270
    20  C    6.772487   7.707366   4.753858   6.312937   7.337404
    21  C    6.397238   7.546733   5.788133   7.338337   8.187892
    22  C    5.125318   6.384525   5.809350   7.274808   7.892042
    23  C    6.778064   7.280232   2.628001   4.057341   5.314759
    24  C    8.221993   8.748452   3.723732   4.992086   6.386429
    25  C    8.745859   9.446857   4.935044   6.316032   7.636948
    26  C    8.091160   8.978618   5.381295   6.897507   8.070436
    27  C    9.218837   9.601394   4.058522   4.987165   6.490371
    28  C    9.175999   9.368259   3.605225   4.120861   5.661257
    29  C    8.092374   8.188639   2.542184   2.951470   4.478441
    30  C    6.653816   6.862097   1.565566   2.664453   4.020095
    31  H    6.556111   6.523040   1.099927   2.171866   3.185088
    32  H    6.953465   6.588253   2.210545   1.097456   2.106154
    33  H    7.079976   6.227564   3.665345   2.250940   1.085919
    34  H    5.930033   4.675936   5.250422   4.351094   2.822927
    35  H    4.338296   2.858476   6.367561   5.971978   4.651116
    36  H    2.219784   1.084073   6.999447   7.176919   6.268212
    37  H    1.084048   2.225141   7.064339   7.737563   7.287092
    38  H    2.991140   4.466907   6.575375   7.725139   7.842746
    39  H    5.309490   6.692350   6.841268   8.277939   8.809544
    40  H    7.271867   8.487997   6.807242   8.368690   9.249686
    41  H    8.812092   9.792103   6.456149   7.977163   9.138638
    42  H    9.811315  10.501375   5.793147   7.086868   8.453343
    43  H   10.246664  10.658189   5.089548   5.954458   7.461937
    44  H   10.166078  10.291226   4.486086   4.718108   6.231641
    45  H    8.362024   8.298016   2.902567   2.713869   4.154760
    46  H    6.260460   6.503666   2.176321   2.996358   4.172143
    47  H    7.658143   7.249189   2.189849   1.097595   2.145007
                   16         17         18         19         20
    16  C    0.000000
    17  C    1.521332   0.000000
    18  C    2.614930   1.489585   0.000000
    19  C    1.487502   2.637339   3.987857   0.000000
    20  C    2.511961   2.937939   4.425384   1.505705   0.000000
    21  C    2.834931   2.433418   3.802308   2.554748   1.460539
    22  C    2.474923   1.347167   2.460261   2.979892   2.556257
    23  C    2.545043   3.912426   5.145812   1.376164   2.502799
    24  C    3.869050   5.078001   6.432484   2.451193   2.831111
    25  C    4.303619   5.197654   6.657616   2.836246   2.400036
    26  C    3.763618   4.278159   5.763469   2.491344   1.345679
    27  C    5.020430   6.317534   7.613887   3.692169   4.164028
    28  C    5.358862   6.773615   7.909033   4.280605   5.116457
    29  C    4.653912   6.116181   7.083777   3.887184   5.040659
    30  C    3.168098   4.651354   5.582131   2.624828   3.988627
    31  H    3.725951   5.179046   5.931560   3.479218   4.750792
    32  H    5.094936   6.469642   6.905662   5.118696   6.585107
    33  H    6.540696   7.767878   7.853874   6.895707   8.367347
    34  H    7.129912   7.965851   7.561231   7.958478   9.376442
    35  H    7.077485   7.448912   6.612855   8.259677   9.530767
    36  H    6.326524   6.124548   4.897715   7.754683   8.756195
    37  H    5.194515   4.447472   2.991128   6.678316   7.344792
    38  H    3.594478   2.238578   1.082973   4.866727   5.065379
    39  H    3.484711   2.129658   2.694483   4.062721   3.506729
    40  H    3.918640   3.385612   4.629716   3.539629   2.207359
    41  H    4.643508   4.900063   6.358222   3.496752   2.137094
    42  H    5.380446   6.236681   7.705144   3.918300   3.367679
    43  H    5.970445   7.193899   8.545366   4.571226   4.778324
    44  H    6.433513   7.843943   8.966110   5.355957   6.131857
    45  H    5.372529   6.819962   7.640645   4.801420   6.034914
    46  H    3.104236   4.442921   5.240783   2.859643   4.231983
    47  H    5.554582   7.014155   7.566435   5.389492   6.761865
                   21         22         23         24         25
    21  C    0.000000
    22  C    1.448863   0.000000
    23  C    3.802890   4.342944   0.000000
    24  C    4.281404   5.200107   1.491715   0.000000
    25  C    3.743617   4.956080   2.539580   1.453319   0.000000
    26  C    2.423265   3.763281   2.920491   2.504789   1.437974
    27  C    5.606033   6.512074   2.485370   1.343309   2.403408
    28  C    6.517392   7.205313   2.915583   2.434494   3.747528
    29  C    6.336570   6.765734   2.578042   2.834974   4.286000
    30  C    5.156033   5.405753   1.564757   2.596685   3.937076
    31  H    5.861184   6.031296   2.783958   3.597542   4.676143
    32  H    7.602924   7.529604   4.251527   5.166127   6.565475
    33  H    9.255546   8.975111   6.253815   7.227345   8.520545
    34  H    9.924162   9.283013   7.741766   8.967876  10.106363
    35  H    9.714075   8.763825   8.445648   9.842026  10.796114
    36  H    8.530202   7.312895   8.360595   9.830687  10.527631
    37  H    6.772920   5.401172   7.617750   9.034278   9.455116
    38  H    4.169060   2.723660   6.093486   7.309846   7.401142
    39  H    2.169942   1.085164   5.422698   6.233901   5.881361
    40  H    1.085051   2.174668   4.687851   4.915279   4.097293
    41  H    2.674204   4.119544   4.001470   3.464174   2.170209
    42  H    4.597366   5.899559   3.528737   2.214175   1.083837
    43  H    6.198219   7.248142   3.480716   2.121553   2.622840
    44  H    7.536867   8.261149   3.996876   3.386095   4.566584
    45  H    7.272120   7.580701   3.566317   3.916036   5.364811
    46  H    5.207069   5.270350   2.144105   3.290414   4.549253
    47  H    7.907293   7.997250   4.425239   5.076587   6.399158
                   26         27         28         29         30
    26  C    0.000000
    27  C    3.702249   0.000000
    28  C    4.922322   1.432271   0.000000
    29  C    5.199120   2.403286   1.335489   0.000000
    30  C    4.480532   2.918309   2.528120   1.523914   0.000000
    31  H    5.213295   3.913611   3.666005   2.919747   2.177255
    32  H    7.169829   5.051450   4.001205   2.737114   2.705416
    33  H    9.044989   7.180837   6.221302   5.090563   4.885523
    34  H   10.306268   9.230635   8.464559   7.245796   6.597079
    35  H   10.663119  10.394696   9.843061   8.585868   7.585971
    36  H   10.037383  10.671262  10.402922   9.200612   7.906571
    37  H    8.678146  10.087279  10.109238   9.054684   7.600296
    38  H    6.370811   8.529222   8.889265   8.101993   6.613533
    39  H    4.592412   7.549551   8.269725   7.833883   6.471551
    40  H    2.665335   6.202336   7.243104   7.202889   6.117342
    41  H    1.084154   4.539120   5.839751   6.221646   5.558485
    42  H    2.176174   2.663632   4.095511   4.895501   4.803462
    43  H    4.034744   1.086855   2.144891   3.349373   4.002623
    44  H    5.827689   2.168777   1.085682   2.112709   3.517921
    45  H    6.261545   3.377513   2.076833   1.086060   2.249408
    46  H    4.895911   3.659101   3.184722   2.087915   1.101824
    47  H    7.163757   4.843784   3.908428   2.978927   3.120736
                   31         32         33         34         35
    31  H    0.000000
    32  H    3.020767   0.000000
    33  H    4.047507   2.590747   0.000000
    34  H    5.654442   4.722229   2.667721   0.000000
    35  H    6.847529   6.303681   4.898858   2.484676   0.000000
    36  H    7.533210   7.458776   6.874052   4.984709   2.756074
    37  H    7.577914   7.993736   8.138591   6.864929   5.044894
    38  H    6.997543   7.956706   8.870667   8.412675   7.225765
    39  H    7.068316   8.524310   9.891355  10.005513   9.255601
    40  H    6.817040   8.631932  10.313936  10.989878  10.732712
    41  H    6.249892   8.251794  10.117160  11.331454  11.600465
    42  H    5.437391   7.335869   9.281356  10.991044  11.784084
    43  H    4.840738   6.021085   8.098338  10.224516  11.445390
    44  H    4.527577   4.494283   6.640323   9.045947  10.589727
    45  H    3.430609   2.186736   4.587619   6.887129   8.402187
    46  H    3.066338   2.712241   5.034770   6.551244   7.353907
    47  H    2.301488   1.761251   2.477108   4.892020   6.755771
                   36         37         38         39         40
    36  H    0.000000
    37  H    2.511649   0.000000
    38  H    5.176251   2.890467   0.000000
    39  H    7.525808   5.367711   2.506855   0.000000
    40  H    9.439921   7.547089   4.805897   2.444348   0.000000
    41  H   10.831004   9.311272   6.826752   4.753375   2.456420
    42  H   11.582311  10.516145   8.418143   6.764738   4.763557
    43  H   11.731185  11.096713   9.422929   8.247312   6.648177
    44  H   11.305827  11.112087   9.945886   9.318137   8.217673
    45  H    9.254063   9.348446   8.668332   8.632079   8.172141
    46  H    7.521120   7.165711   6.235444   6.281469   6.193163
    47  H    8.130719   8.733943   8.647933   9.030635   8.891929
                   41         42         43         44         45
    41  H    0.000000
    42  H    2.468978   0.000000
    43  H    4.675697   2.419597   0.000000
    44  H    6.674790   4.719766   2.425354   0.000000
    45  H    7.285924   5.946795   4.217654   2.403364   0.000000
    46  H    5.943372   5.466490   4.724611   4.077782   2.487159
    47  H    8.223809   7.038001   5.692442   4.340395   2.701883
                   46         47
    46  H    0.000000
    47  H    3.688913   0.000000
 Stoichiometry    C30H17(2)
 Framework group  C1[X(C30H17)]
 Deg. of freedom   135
 Full point group                 C1      NOp   1
 Largest Abelian subgroup         C1      NOp   1
 Largest concise Abelian subgroup C1      NOp   1
                         Standard orientation:                         
 ---------------------------------------------------------------------
 Center     Atomic      Atomic             Coordinates (Angstroms)
 Number     Number       Type             X           Y           Z
 ---------------------------------------------------------------------
      1          6           0        0.661345   -0.769950   -0.322090
      2          6           0        0.437773    0.633010   -0.046761
      3          6           0        1.778607    1.188182    0.036141
      4          6           0        2.089258   -1.011515   -0.318314
      5          6           0        2.736395    0.143971   -0.145858
      6          6           0        2.818201   -2.239916   -0.359503
      7          6           0        4.294162   -2.170105   -0.404179
      8          6           0        4.940210   -0.977805   -0.253980
      9          6           0        4.165436    0.261222   -0.063053
     10          6           0        2.156806    2.446303    0.290641
     11          6           0        3.620455    2.641200    0.348699
     12          6           0        4.602820    1.522895    0.174318
     13          6           0       -0.264717   -1.925195   -0.316172
     14          6           0        0.535700   -3.259770    0.013106
     15          6           0        2.051045   -3.339333   -0.253337
     16          6           0       -0.657040    1.390214    0.111288
     17          6           0       -0.365666    2.875771    0.261859
     18          6           0        1.030523    3.358115    0.453852
     19          6           0       -2.040046    0.856645   -0.012254
     20          6           0       -3.080110    1.905289   -0.305103
     21          6           0       -2.720202    3.314210   -0.168787
     22          6           0       -1.377789    3.757574    0.148324
     23          6           0       -2.401200   -0.463045    0.135436
     24          6           0       -3.818395   -0.823941   -0.158717
     25          6           0       -4.707735    0.187407   -0.704964
     26          6           0       -4.337353    1.575927   -0.653976
     27          6           0       -4.304588   -2.058872    0.048743
     28          6           0       -3.531318   -3.099512    0.657448
     29          6           0       -2.241929   -2.905173    0.945958
     30          6           0       -1.477268   -1.625950    0.627845
     31          1           0       -0.646205   -2.040899   -1.341315
     32          1           0        0.428026   -3.492645    1.080150
     33          1           0        2.503266   -4.326278   -0.227676
     34          1           0        4.849705   -3.093278   -0.528797
     35          1           0        6.022591   -0.918684   -0.265940
     36          1           0        5.656837    1.762430    0.257310
     37          1           0        4.007461    3.634777    0.544122
     38          1           0        1.224107    4.410715    0.619352
     39          1           0       -1.216304    4.827840    0.226005
     40          1           0       -3.476577    4.076675   -0.323317
     41          1           0       -5.101850    2.315666   -0.863069
     42          1           0       -5.705550   -0.071866   -1.039397
     43          1           0       -5.338343   -2.303896   -0.180533
     44          1           0       -4.031182   -4.028188    0.915135
     45          1           0       -1.714583   -3.700353    1.464725
     46          1           0       -1.079854   -1.299487    1.602269
     47          1           0        0.058167   -4.079648   -0.538688
 ---------------------------------------------------------------------
 Rotational constants (GHZ):           0.2726205           0.1523496           0.1001109
 Standard basis: 6-311+G(d,p) (5D, 7F)
 There are   792 symmetry adapted cartesian basis functions of A   symmetry.
 There are   762 symmetry adapted basis functions of A   symmetry.
   762 basis functions,  1216 primitive gaussians,   792 cartesian basis functions
    99 alpha electrons       98 beta electrons
       nuclear repulsion energy      2632.8704317146 Hartrees.
 NAtoms=   47 NActive=   47 NUniq=   47 SFac= 1.00D+00 NAtFMM=   60 NAOKFM=F Big=F
 Integral buffers will be    131072 words long.
 Raffenetti 2 integral format.
 Two-electron integral symmetry is turned on.
 One-electron integrals computed using PRISM.
 NBasis=   762 RedAO= T EigKep=  1.22D-06  NBF=   762
 NBsUse=   742 1.00D-06 EigRej=  9.72D-07 NBFU=   742
 ExpMin= 4.38D-02 ExpMax= 4.56D+03 ExpMxC= 6.82D+02 IAcc=2 IRadAn=         4 AccDes= 0.00D+00
 Harris functional with IExCor=  402 and IRadAn=       4 diagonalized for initial guess.
 HarFok:  IExCor=  402 AccDes= 0.00D+00 IRadAn=         4 IDoV= 1 UseB2=F ITyADJ=14
 ICtDFT=  3500011 ScaDFX=  1.000000  1.000000  1.000000  1.000000
 FoFCou: FMM=F IPFlag=           0 FMFlag=      100000 FMFlg1=           0
         NFxFlg=           0 DoJE=T BraDBF=F KetDBF=T FulRan=T
         wScrn=  0.000000 ICntrl=       500 IOpCl=  0 I1Cent=   200000004 NGrid=           0
         NMat0=    1 NMatS0=      1 NMatT0=    0 NMatD0=    1 NMtDS0=    0 NMtDT0=    0
 Petite list used in FoFCou.
 Initial guess <Sx>= 0.0000 <Sy>= 0.0000 <Sz>= 0.5000 <S**2>= 0.7500 S= 0.5000
 Requested convergence on RMS density matrix=1.00D-08 within 128 cycles.
 Requested convergence on MAX density matrix=1.00D-06.
 Requested convergence on             energy=1.00D-06.
 No special actions if energy rises.
 Restarting incremental Fock formation.
 SCF Done:  E(UB3LYP) =  -1153.56829345     A.U. after   33 cycles
            NFock= 33  Conv=0.77D-08     -V/T= 2.0049
 <Sx>= 0.0000 <Sy>= 0.0000 <Sz>= 0.5000 <S**2>= 1.0602 S= 0.6446
 <L.S>=  0.00000000000    
 Annihilation of the first spin contaminant:
 S**2 before annihilation     1.0602,   after     0.8065

 **********************************************************************

            Population analysis using the SCF Density.

 **********************************************************************

 Orbital symmetries:
 Alpha Orbitals:
       Occupied  (A) (A) (A) (A) (A) (A) (A) (A) (A) (A) (A) (A)
                 (A) (A) (A) (A) (A) (A) (A) (A) (A) (A) (A) (A)
                 (A) (A) (A) (A) (A) (A) (A) (A) (A) (A) (A) (A)
                 (A) (A) (A) (A) (A) (A) (A) (A) (A) (A) (A) (A)
                 (A) (A) (A) (A) (A) (A) (A) (A) (A) (A) (A) (A)
                 (A) (A) (A) (A) (A) (A) (A) (A) (A) (A) (A) (A)
                 (A) (A) (A) (A) (A) (A) (A) (A) (A) (A) (A) (A)
                 (A) (A) (A) (A) (A) (A) (A) (A) (A) (A) (A) (A)
                 (A) (A) (A)
       Virtual   (A) (A) (A) (A) (A) (A) (A) (A) (A) (A) (A) (A)
                 (A) (A) (A) (A) (A) (A) (A) (A) (A) (A) (A) (A)
                 (A) (A) (A) (A) (A) (A) (A) (A) (A) (A) (A) (A)
                 (A) (A) (A) (A) (A) (A) (A) (A) (A) (A) (A) (A)
                 (A) (A) (A) (A) (A) (A) (A) (A) (A) (A) (A) (A)
                 (A) (A) (A) (A) (A) (A) (A) (A) (A) (A) (A) (A)
                 (A) (A) (A) (A) (A) (A) (A) (A) (A) (A) (A) (A)
                 (A) (A) (A) (A) (A) (A) (A) (A) (A) (A) (A) (A)
                 (A) (A) (A) (A) (A) (A) (A) (A) (A) (A) (A) (A)
                 (A) (A) (A) (A) (A) (A) (A) (A) (A) (A) (A) (A)
                 (A) (A) (A) (A) (A) (A) (A) (A) (A) (A) (A) (A)
                 (A) (A) (A) (A) (A) (A) (A) (A) (A) (A) (A) (A)
                 (A) (A) (A) (A) (A) (A) (A) (A) (A) (A) (A) (A)
                 (A) (A) (A) (A) (A) (A) (A) (A) (A) (A) (A) (A)
                 (A) (A) (A) (A) (A) (A) (A) (A) (A) (A) (A) (A)
                 (A) (A) (A) (A) (A) (A) (A) (A) (A) (A) (A) (A)
                 (A) (A) (A) (A) (A) (A) (A) (A) (A) (A) (A) (A)
                 (A) (A) (A) (A) (A) (A) (A) (A) (A) (A) (A) (A)
                 (A) (A) (A) (A) (A) (A) (A) (A) (A) (A) (A) (A)
                 (A) (A) (A) (A) (A) (A) (A) (A) (A) (A) (A) (A)
                 (A) (A) (A) (A) (A) (A) (A) (A) (A) (A) (A) (A)
                 (A) (A) (A) (A) (A) (A) (A) (A) (A) (A) (A) (A)
                 (A) (A) (A) (A) (A) (A) (A) (A) (A) (A) (A) (A)
                 (A) (A) (A) (A) (A) (A) (A) (A) (A) (A) (A) (A)
                 (A) (A) (A) (A) (A) (A) (A) (A) (A) (A) (A) (A)
                 (A) (A) (A) (A) (A) (A) (A) (A) (A) (A) (A) (A)
                 (A) (A) (A) (A) (A) (A) (A) (A) (A) (A) (A) (A)
                 (A) (A) (A) (A) (A) (A) (A) (A) (A) (A) (A) (A)
                 (A) (A) (A) (A) (A) (A) (A) (A) (A) (A) (A) (A)
                 (A) (A) (A) (A) (A) (A) (A) (A) (A) (A) (A) (A)
                 (A) (A) (A) (A) (A) (A) (A) (A) (A) (A) (A) (A)
                 (A) (A) (A) (A) (A) (A) (A) (A) (A) (A) (A) (A)
                 (A) (A) (A) (A) (A) (A) (A) (A) (A) (A) (A) (A)
                 (A) (A) (A) (A) (A) (A) (A) (A) (A) (A) (A) (A)
                 (A) (A) (A) (A) (A) (A) (A) (A) (A) (A) (A) (A)
                 (A) (A) (A) (A) (A) (A) (A) (A) (A) (A) (A) (A)
                 (A) (A) (A) (A) (A) (A) (A) (A) (A) (A) (A) (A)
                 (A) (A) (A) (A) (A) (A) (A) (A) (A) (A) (A) (A)
                 (A) (A) (A) (A) (A) (A) (A) (A) (A) (A) (A) (A)
                 (A) (A) (A) (A) (A) (A) (A) (A) (A) (A) (A) (A)
                 (A) (A) (A) (A) (A) (A) (A) (A) (A) (A) (A) (A)
                 (A) (A) (A) (A) (A) (A) (A) (A) (A) (A) (A) (A)
                 (A) (A) (A) (A) (A) (A) (A) (A) (A) (A) (A) (A)
                 (A) (A) (A) (A) (A) (A) (A) (A) (A) (A) (A) (A)
                 (A) (A) (A) (A) (A) (A) (A) (A) (A) (A) (A) (A)
                 (A) (A) (A) (A) (A) (A) (A) (A) (A) (A) (A) (A)
                 (A) (A) (A) (A) (A) (A) (A) (A) (A) (A) (A) (A)
                 (A) (A) (A) (A) (A) (A) (A) (A) (A) (A) (A) (A)
                 (A) (A) (A) (A) (A) (A) (A) (A) (A) (A) (A) (A)
                 (A) (A) (A) (A) (A) (A) (A) (A) (A) (A) (A) (A)
                 (A) (A) (A) (A) (A) (A) (A) (A) (A) (A) (A) (A)
                 (A) (A) (A) (A) (A) (A) (A) (A) (A) (A) (A) (A)
                 (A) (A) (A) (A) (A) (A) (A) (A) (A) (A) (A) (A)
                 (A) (A) (A) (A) (A) (A) (A)
 Beta  Orbitals:
       Occupied  (A) (A) (A) (A) (A) (A) (A) (A) (A) (A) (A) (A)
                 (A) (A) (A) (A) (A) (A) (A) (A) (A) (A) (A) (A)
                 (A) (A) (A) (A) (A) (A) (A) (A) (A) (A) (A) (A)
                 (A) (A) (A) (A) (A) (A) (A) (A) (A) (A) (A) (A)
                 (A) (A) (A) (A) (A) (A) (A) (A) (A) (A) (A) (A)
                 (A) (A) (A) (A) (A) (A) (A) (A) (A) (A) (A) (A)
                 (A) (A) (A) (A) (A) (A) (A) (A) (A) (A) (A) (A)
                 (A) (A) (A) (A) (A) (A) (A) (A) (A) (A) (A) (A)
                 (A) (A)
       Virtual   (A) (A) (A) (A) (A) (A) (A) (A) (A) (A) (A) (A)
                 (A) (A) (A) (A) (A) (A) (A) (A) (A) (A) (A) (A)
                 (A) (A) (A) (A) (A) (A) (A) (A) (A) (A) (A) (A)
                 (A) (A) (A) (A) (A) (A) (A) (A) (A) (A) (A) (A)
                 (A) (A) (A) (A) (A) (A) (A) (A) (A) (A) (A) (A)
                 (A) (A) (A) (A) (A) (A) (A) (A) (A) (A) (A) (A)
                 (A) (A) (A) (A) (A) (A) (A) (A) (A) (A) (A) (A)
                 (A) (A) (A) (A) (A) (A) (A) (A) (A) (A) (A) (A)
                 (A) (A) (A) (A) (A) (A) (A) (A) (A) (A) (A) (A)
                 (A) (A) (A) (A) (A) (A) (A) (A) (A) (A) (A) (A)
                 (A) (A) (A) (A) (A) (A) (A) (A) (A) (A) (A) (A)
                 (A) (A) (A) (A) (A) (A) (A) (A) (A) (A) (A) (A)
                 (A) (A) (A) (A) (A) (A) (A) (A) (A) (A) (A) (A)
                 (A) (A) (A) (A) (A) (A) (A) (A) (A) (A) (A) (A)
                 (A) (A) (A) (A) (A) (A) (A) (A) (A) (A) (A) (A)
                 (A) (A) (A) (A) (A) (A) (A) (A) (A) (A) (A) (A)
                 (A) (A) (A) (A) (A) (A) (A) (A) (A) (A) (A) (A)
                 (A) (A) (A) (A) (A) (A) (A) (A) (A) (A) (A) (A)
                 (A) (A) (A) (A) (A) (A) (A) (A) (A) (A) (A) (A)
                 (A) (A) (A) (A) (A) (A) (A) (A) (A) (A) (A) (A)
                 (A) (A) (A) (A) (A) (A) (A) (A) (A) (A) (A) (A)
                 (A) (A) (A) (A) (A) (A) (A) (A) (A) (A) (A) (A)
                 (A) (A) (A) (A) (A) (A) (A) (A) (A) (A) (A) (A)
                 (A) (A) (A) (A) (A) (A) (A) (A) (A) (A) (A) (A)
                 (A) (A) (A) (A) (A) (A) (A) (A) (A) (A) (A) (A)
                 (A) (A) (A) (A) (A) (A) (A) (A) (A) (A) (A) (A)
                 (A) (A) (A) (A) (A) (A) (A) (A) (A) (A) (A) (A)
                 (A) (A) (A) (A) (A) (A) (A) (A) (A) (A) (A) (A)
                 (A) (A) (A) (A) (A) (A) (A) (A) (A) (A) (A) (A)
                 (A) (A) (A) (A) (A) (A) (A) (A) (A) (A) (A) (A)
                 (A) (A) (A) (A) (A) (A) (A) (A) (A) (A) (A) (A)
                 (A) (A) (A) (A) (A) (A) (A) (A) (A) (A) (A) (A)
                 (A) (A) (A) (A) (A) (A) (A) (A) (A) (A) (A) (A)
                 (A) (A) (A) (A) (A) (A) (A) (A) (A) (A) (A) (A)
                 (A) (A) (A) (A) (A) (A) (A) (A) (A) (A) (A) (A)
                 (A) (A) (A) (A) (A) (A) (A) (A) (A) (A) (A) (A)
                 (A) (A) (A) (A) (A) (A) (A) (A) (A) (A) (A) (A)
                 (A) (A) (A) (A) (A) (A) (A) (A) (A) (A) (A) (A)
                 (A) (A) (A) (A) (A) (A) (A) (A) (A) (A) (A) (A)
                 (A) (A) (A) (A) (A) (A) (A) (A) (A) (A) (A) (A)
                 (A) (A) (A) (A) (A) (A) (A) (A) (A) (A) (A) (A)
                 (A) (A) (A) (A) (A) (A) (A) (A) (A) (A) (A) (A)
                 (A) (A) (A) (A) (A) (A) (A) (A) (A) (A) (A) (A)
                 (A) (A) (A) (A) (A) (A) (A) (A) (A) (A) (A) (A)
                 (A) (A) (A) (A) (A) (A) (A) (A) (A) (A) (A) (A)
                 (A) (A) (A) (A) (A) (A) (A) (A) (A) (A) (A) (A)
                 (A) (A) (A) (A) (A) (A) (A) (A) (A) (A) (A) (A)
                 (A) (A) (A) (A) (A) (A) (A) (A) (A) (A) (A) (A)
                 (A) (A) (A) (A) (A) (A) (A) (A) (A) (A) (A) (A)
                 (A) (A) (A) (A) (A) (A) (A) (A) (A) (A) (A) (A)
                 (A) (A) (A) (A) (A) (A) (A) (A) (A) (A) (A) (A)
                 (A) (A) (A) (A) (A) (A) (A) (A) (A) (A) (A) (A)
                 (A) (A) (A) (A) (A) (A) (A) (A) (A) (A) (A) (A)
                 (A) (A) (A) (A) (A) (A) (A) (A)
 The electronic state is 2-A.
 Alpha  occ. eigenvalues --  -10.20675 -10.20516 -10.20462 -10.20291 -10.20088
 Alpha  occ. eigenvalues --  -10.20003 -10.19870 -10.19648 -10.19565 -10.19325
 Alpha  occ. eigenvalues --  -10.19304 -10.19270 -10.19191 -10.19119 -10.19116
 Alpha  occ. eigenvalues --  -10.19062 -10.19013 -10.18903 -10.18828 -10.18805
 Alpha  occ. eigenvalues --  -10.18283 -10.18242 -10.18110 -10.17884 -10.17819
 Alpha  occ. eigenvalues --  -10.17775 -10.17548 -10.16412 -10.16257 -10.16017
 Alpha  occ. eigenvalues --   -0.91149  -0.88465  -0.86434  -0.84404  -0.84128
 Alpha  occ. eigenvalues --   -0.81820  -0.80220  -0.79707  -0.78541  -0.76164
 Alpha  occ. eigenvalues --   -0.75305  -0.74812  -0.71680  -0.70624  -0.69518
 Alpha  occ. eigenvalues --   -0.66709  -0.66200  -0.63378  -0.63210  -0.61246
 Alpha  occ. eigenvalues --   -0.60209  -0.59822  -0.58213  -0.56094  -0.54887
 Alpha  occ. eigenvalues --   -0.53360  -0.52331  -0.51020  -0.50563  -0.49721
 Alpha  occ. eigenvalues --   -0.49069  -0.47992  -0.46619  -0.46273  -0.45440
 Alpha  occ. eigenvalues --   -0.44418  -0.44254  -0.43681  -0.43578  -0.43066
 Alpha  occ. eigenvalues --   -0.41983  -0.41616  -0.41371  -0.40461  -0.40118
 Alpha  occ. eigenvalues --   -0.39746  -0.39470  -0.39103  -0.38109  -0.37807
 Alpha  occ. eigenvalues --   -0.37357  -0.36212  -0.35552  -0.35404  -0.34656
 Alpha  occ. eigenvalues --   -0.33591  -0.33469  -0.33287  -0.32572  -0.31986
 Alpha  occ. eigenvalues --   -0.31110  -0.29714  -0.28970  -0.26273  -0.25508
 Alpha  occ. eigenvalues --   -0.23212  -0.20901  -0.18524  -0.16867
 Alpha virt. eigenvalues --   -0.10860  -0.05837  -0.04690  -0.02226  -0.00838
 Alpha virt. eigenvalues --   -0.00183   0.00531   0.00706   0.00917   0.01472
 Alpha virt. eigenvalues --    0.01587   0.02263   0.02457   0.02788   0.02865
 Alpha virt. eigenvalues --    0.03093   0.03656   0.04007   0.04387   0.04524
 Alpha virt. eigenvalues --    0.04906   0.05380   0.05417   0.06151   0.06484
 Alpha virt. eigenvalues --    0.06671   0.07257   0.07360   0.07620   0.08292
 Alpha virt. eigenvalues --    0.08499   0.08745   0.08947   0.09179   0.09578
 Alpha virt. eigenvalues --    0.09978   0.10454   0.10603   0.11218   0.11307
 Alpha virt. eigenvalues --    0.11548   0.12168   0.12238   0.12828   0.12860
 Alpha virt. eigenvalues --    0.13279   0.13929   0.14181   0.14236   0.14450
 Alpha virt. eigenvalues --    0.14742   0.14846   0.15228   0.15675   0.15937
 Alpha virt. eigenvalues --    0.15993   0.16054   0.16234   0.16410   0.16734
 Alpha virt. eigenvalues --    0.16901   0.17239   0.17275   0.17486   0.17558
 Alpha virt. eigenvalues --    0.17896   0.18177   0.18295   0.18490   0.18723
 Alpha virt. eigenvalues --    0.18972   0.19071   0.19229   0.19290   0.19657
 Alpha virt. eigenvalues --    0.19897   0.20040   0.20326   0.20413   0.20586
 Alpha virt. eigenvalues --    0.20834   0.20981   0.21483   0.21789   0.22019
 Alpha virt. eigenvalues --    0.22275   0.22345   0.22677   0.22821   0.22881
 Alpha virt. eigenvalues --    0.22907   0.23140   0.23266   0.23695   0.24000
 Alpha virt. eigenvalues --    0.24098   0.24337   0.24420   0.24641   0.24884
 Alpha virt. eigenvalues --    0.25430   0.25574   0.26040   0.26294   0.26381
 Alpha virt. eigenvalues --    0.26671   0.27037   0.27350   0.27713   0.27794
 Alpha virt. eigenvalues --    0.28148   0.28162   0.28383   0.28670   0.28985
 Alpha virt. eigenvalues --    0.29476   0.29740   0.30164   0.30368   0.30401
 Alpha virt. eigenvalues --    0.30583   0.31068   0.31191   0.31723   0.31960
 Alpha virt. eigenvalues --    0.32115   0.32445   0.32820   0.32973   0.33321
 Alpha virt. eigenvalues --    0.33935   0.34107   0.34880   0.35183   0.35275
 Alpha virt. eigenvalues --    0.35494   0.36117   0.36552   0.36787   0.37093
 Alpha virt. eigenvalues --    0.37419   0.38294   0.38851   0.38956   0.39260
 Alpha virt. eigenvalues --    0.39851   0.40695   0.40957   0.41447   0.42204
 Alpha virt. eigenvalues --    0.42775   0.43212   0.43242   0.44128   0.44196
 Alpha virt. eigenvalues --    0.44856   0.45342   0.45703   0.46477   0.47152
 Alpha virt. eigenvalues --    0.48293   0.48589   0.48893   0.49550   0.50708
 Alpha virt. eigenvalues --    0.51115   0.51491   0.51562   0.52797   0.53107
 Alpha virt. eigenvalues --    0.53454   0.54090   0.54457   0.54547   0.55075
 Alpha virt. eigenvalues --    0.55614   0.55994   0.56551   0.56759   0.57157
 Alpha virt. eigenvalues --    0.57458   0.57852   0.58346   0.58712   0.59129
 Alpha virt. eigenvalues --    0.59323   0.59851   0.60256   0.60593   0.60708
 Alpha virt. eigenvalues --    0.60978   0.61557   0.62043   0.62077   0.62684
 Alpha virt. eigenvalues --    0.63255   0.63262   0.63900   0.64315   0.64636
 Alpha virt. eigenvalues --    0.65260   0.65598   0.65987   0.66511   0.66969
 Alpha virt. eigenvalues --    0.67568   0.67868   0.67997   0.68779   0.68944
 Alpha virt. eigenvalues --    0.69292   0.69784   0.70008   0.70155   0.70513
 Alpha virt. eigenvalues --    0.70762   0.71392   0.71624   0.71761   0.72452
 Alpha virt. eigenvalues --    0.72981   0.73297   0.73564   0.73750   0.74441
 Alpha virt. eigenvalues --    0.74755   0.74893   0.75459   0.75553   0.76024
 Alpha virt. eigenvalues --    0.76412   0.77633   0.77687   0.78428   0.78483
 Alpha virt. eigenvalues --    0.79018   0.79664   0.79770   0.80169   0.81014
 Alpha virt. eigenvalues --    0.81527   0.82134   0.82683   0.83005   0.83816
 Alpha virt. eigenvalues --    0.84046   0.84807   0.85406   0.86975   0.87186
 Alpha virt. eigenvalues --    0.87683   0.88710   0.88925   0.89513   0.89659
 Alpha virt. eigenvalues --    0.90329   0.90775   0.91680   0.91905   0.92721
 Alpha virt. eigenvalues --    0.93007   0.93176   0.93855   0.94213   0.94501
 Alpha virt. eigenvalues --    0.94953   0.95460   0.96001   0.96520   0.96808
 Alpha virt. eigenvalues --    0.97045   0.97461   0.97631   0.98305   0.98862
 Alpha virt. eigenvalues --    0.99156   0.99508   0.99763   1.00629   1.01151
 Alpha virt. eigenvalues --    1.01332   1.01785   1.02331   1.02906   1.03264
 Alpha virt. eigenvalues --    1.03793   1.04695   1.05401   1.06522   1.07076
 Alpha virt. eigenvalues --    1.07685   1.08113   1.08728   1.09365   1.10068
 Alpha virt. eigenvalues --    1.10305   1.11758   1.12508   1.12672   1.13577
 Alpha virt. eigenvalues --    1.13911   1.15075   1.15616   1.16686   1.17540
 Alpha virt. eigenvalues --    1.18380   1.19475   1.20338   1.20915   1.22471
 Alpha virt. eigenvalues --    1.22742   1.24465   1.24712   1.26882   1.28974
 Alpha virt. eigenvalues --    1.30063   1.30373   1.31163   1.32933   1.33050
 Alpha virt. eigenvalues --    1.34537   1.36332   1.37782   1.39395   1.40366
 Alpha virt. eigenvalues --    1.41267   1.41611   1.41648   1.42534   1.44792
 Alpha virt. eigenvalues --    1.45004   1.45501   1.46092   1.46835   1.47220
 Alpha virt. eigenvalues --    1.47422   1.47929   1.49015   1.49303   1.50057
 Alpha virt. eigenvalues --    1.50232   1.51333   1.51868   1.51958   1.52465
 Alpha virt. eigenvalues --    1.53313   1.54082   1.55070   1.55318   1.55676
 Alpha virt. eigenvalues --    1.56064   1.56836   1.57048   1.58408   1.59042
 Alpha virt. eigenvalues --    1.59705   1.60034   1.60838   1.61281   1.62332
 Alpha virt. eigenvalues --    1.63068   1.63860   1.64237   1.65298   1.65933
 Alpha virt. eigenvalues --    1.66750   1.67462   1.68887   1.69207   1.69867
 Alpha virt. eigenvalues --    1.70979   1.71202   1.71574   1.71754   1.72475
 Alpha virt. eigenvalues --    1.74110   1.74711   1.74951   1.75524   1.76308
 Alpha virt. eigenvalues --    1.76844   1.77528   1.78333   1.78750   1.79388
 Alpha virt. eigenvalues --    1.80759   1.81017   1.81618   1.82249   1.82358
 Alpha virt. eigenvalues --    1.83616   1.83752   1.84904   1.85149   1.85276
 Alpha virt. eigenvalues --    1.86653   1.86895   1.87458   1.88561   1.88681
 Alpha virt. eigenvalues --    1.89199   1.89872   1.90283   1.91193   1.91571
 Alpha virt. eigenvalues --    1.91894   1.92027   1.92604   1.93485   1.93844
 Alpha virt. eigenvalues --    1.95198   1.96207   1.97245   1.97986   1.98484
 Alpha virt. eigenvalues --    1.99850   2.00102   2.00159   2.01445   2.01614
 Alpha virt. eigenvalues --    2.02294   2.03309   2.03718   2.04515   2.05192
 Alpha virt. eigenvalues --    2.05880   2.06159   2.07534   2.07872   2.09079
 Alpha virt. eigenvalues --    2.09617   2.10941   2.11711   2.12094   2.13120
 Alpha virt. eigenvalues --    2.13709   2.15035   2.15429   2.16123   2.16566
 Alpha virt. eigenvalues --    2.18198   2.18690   2.20318   2.20841   2.21907
 Alpha virt. eigenvalues --    2.22267   2.22624   2.23531   2.24194   2.24775
 Alpha virt. eigenvalues --    2.25297   2.26778   2.27558   2.28033   2.29978
 Alpha virt. eigenvalues --    2.30299   2.32989   2.34257   2.34962   2.37081
 Alpha virt. eigenvalues --    2.37473   2.38732   2.40588   2.40693   2.41499
 Alpha virt. eigenvalues --    2.42674   2.43910   2.44564   2.45619   2.46533
 Alpha virt. eigenvalues --    2.48270   2.49034   2.51154   2.52496   2.54213
 Alpha virt. eigenvalues --    2.55051   2.55831   2.56735   2.56789   2.58277
 Alpha virt. eigenvalues --    2.58772   2.60312   2.61153   2.62765   2.63857
 Alpha virt. eigenvalues --    2.65001   2.66108   2.66331   2.68097   2.68255
 Alpha virt. eigenvalues --    2.68427   2.69017   2.70374   2.71279   2.71863
 Alpha virt. eigenvalues --    2.72687   2.72773   2.73471   2.73564   2.73947
 Alpha virt. eigenvalues --    2.74095   2.75066   2.75469   2.76023   2.76206
 Alpha virt. eigenvalues --    2.76231   2.76694   2.77440   2.77638   2.78123
 Alpha virt. eigenvalues --    2.78545   2.79270   2.79920   2.80455   2.81311
 Alpha virt. eigenvalues --    2.81900   2.82965   2.84511   2.84734   2.84936
 Alpha virt. eigenvalues --    2.85780   2.86970   2.88078   2.88631   2.89460
 Alpha virt. eigenvalues --    2.90634   2.91399   2.92739   2.94271   2.95197
 Alpha virt. eigenvalues --    2.97562   2.98605   2.99807   3.00530   3.03220
 Alpha virt. eigenvalues --    3.04254   3.04788   3.05025   3.06300   3.07305
 Alpha virt. eigenvalues --    3.08248   3.08840   3.11462   3.12164   3.13277
 Alpha virt. eigenvalues --    3.13999   3.14595   3.15818   3.16368   3.18734
 Alpha virt. eigenvalues --    3.20105   3.20727   3.23533   3.24633   3.25606
 Alpha virt. eigenvalues --    3.28036   3.29191   3.31430   3.33490   3.33684
 Alpha virt. eigenvalues --    3.35219   3.36373   3.36674   3.38510   3.38904
 Alpha virt. eigenvalues --    3.41020   3.41697   3.43452   3.44924   3.47731
 Alpha virt. eigenvalues --    3.48812   3.49396   3.51239   3.53386   3.54356
 Alpha virt. eigenvalues --    3.55957   3.58734   3.64241   3.64730   3.65922
 Alpha virt. eigenvalues --    3.67426   3.70860   3.73858   3.77530   3.78642
 Alpha virt. eigenvalues --    3.85350   3.85923   3.92570   3.96028   4.00207
 Alpha virt. eigenvalues --    4.03414   4.04187   4.05321   4.06907   4.07767
 Alpha virt. eigenvalues --    4.08975   4.10530   4.13532   4.18713   4.23884
 Alpha virt. eigenvalues --    4.28444   4.31135   4.36118   4.40969   4.59123
 Alpha virt. eigenvalues --    4.63057   4.67877   4.69653   4.72037   4.74555
 Alpha virt. eigenvalues --    4.76883   4.80614   4.82272  23.43617  23.59658
 Alpha virt. eigenvalues --   23.69637  23.73574  23.75251  23.77282  23.79061
 Alpha virt. eigenvalues --   23.81653  23.83304  23.84630  23.86879  23.88330
 Alpha virt. eigenvalues --   23.89076  23.89418  23.91875  23.94739  23.95097
[...]
 1,0.00000254,-0.00000359,-0.00000558,0.00000156,-0.00010931,0.00006064
 ,-0.00000467,0.00001122,-0.00001837,0.00010032,0.00003375,-0.00080753,
 -0.00158148,0.19296457,-0.00021809,-0.00010623,-0.00019982,0.00005946,
 0.00001358,0.00000606,0.00006033,0.00000465,-0.00000341,0.00006121,0.0
 0000890,-0.00000179,-0.00004182,-0.00006353,0.00001561,-0.00000839,0.0
 0005970,-0.00000056,0.00000230,-0.00000545,-0.00000224,0.00000014,0.00
 002191,0.00000267,0.00003192,0.00001732,0.00001521,-0.00002795,-0.0000
 0654,-0.00000539,0.00000356,-0.00001840,0.00000305,0.00001375,0.000003
 07,-0.00000690,0.00020210,0.00007858,0.00022559,0.00008724,-0.00010146
 ,0.00001961,-0.00008880,-0.00001072,-0.00004378,-0.00008031,-0.0000113
 5,-0.00000058,0.00000553,-0.00001631,0.00001346,0.00000655,0.00001307,
 0.00000059,-0.00001039,0.00011162,-0.00021194,0.00008137,-0.00009415,0
 .00002425,-0.00002664,0.00007255,0.00000872,-0.00000120,-0.00003581,0.
 00000341,-0.00045165,-0.00008442,0.00015680,-0.00144173,0.00059694,0.0
 0213417,-0.00009084,0.00023985,-0.00007944,-0.00013863,-0.00000429,-0.
 00009203,-0.00736888,0.00880238,0.00246067,0.13331038,-0.18366415,-0.0
 3591738,0.02217644,-0.01792819,-0.00816593,-0.00101132,-0.00146938,0.0
 0491889,-0.00002830,-0.00005731,-0.00006006,0.00002618,0.00001921,0.00
 000660,-0.00001639,-0.00002913,-0.00000333,-0.00000656,-0.00000448,-0.
 00000064,-0.00000308,-0.00000683,-0.00000079,0.00000156,-0.00000676,-0
 .00000093,0.00000305,-0.00000282,0.00000161,0.00000451,-0.00000271,-0.
 00000075,0.00000388,-0.00000373,-0.00000092,0.00001061,0.00000177,-0.0
 0000192,-0.00003131,0.00001678,0.00000057,0.00001038,0.00000114,0.0000
 3275,0.00004552,0.00046634,-0.00084566,-0.14464253,0.19365550,0.000400
 81,0.00026589,0.00031495,0.00004030,-0.00002964,-0.00001177,-0.0000585
 8,0.00004412,0.00000149,-0.00016076,0.00004077,-0.00000840,0.00003739,
 0.00009567,-0.00004383,0.00000890,-0.00002465,0.00001328,-0.00000636,-
 0.00000545,0.00000366,-0.00000119,0.,-0.00000189,0.00000973,-0.0000368
 1,-0.00001121,-0.00000543,-0.00004541,-0.00000164,0.00001809,0.0000722
 6,0.00000227,-0.00006286,-0.00001261,0.00000689,-0.00123652,0.00094763
 ,-0.00002061,-0.00010541,-0.00017130,-0.00004607,0.00002364,0.00000138
 ,-0.00002334,0.00004468,0.00007399,-0.00003800,-0.00004350,-0.00004137
 ,0.00001879,0.00001123,0.00003015,-0.00000527,-0.00003149,-0.00026222,
 -0.00038997,-0.00017295,0.00022924,0.00001319,0.00008718,-0.00016213,0
 .00006423,0.00004646,0.00011473,-0.00003704,0.00005799,0.00058975,-0.0
 0048274,0.00430892,0.00266058,0.00223216,0.00023150,-0.00094514,0.0003
 6506,0.00034584,-0.00010383,-0.00037871,0.00909350,-0.01360154,0.00161
 656,0.05248904,-0.03362729,-0.06061868,-0.00834451,0.00637536,0.007277
 59,0.00423544,0.00269443,0.00566629,0.00001901,0.00002569,0.00001969,0
 .00002745,0.00005114,-0.00006193,0.00000083,0.00000533,0.00000163,0.00
 000020,0.00000073,0.00000124,-0.00000055,0.00000070,-0.00000051,-0.000
 00363,0.00000150,0.00000165,0.00000062,-0.00000104,-0.00000071,0.00000
 057,-0.00000155,0.00000389,0.00000128,-0.00000240,0.00000171,-0.000001
 63,0.00000128,-0.00000017,0.00009291,-0.00005495,0.00000620,0.00001754
 ,0.00006394,0.00006402,-0.00162763,-0.00054565,-0.00169046,-0.05768076
 ,0.03725701,0.04960296,0.00021887,0.00005376,0.00014017,-0.00013040,0.
 00008646,0.00002390,-0.00005467,-0.00013964,0.00000772,-0.00013887,0.0
 0010747,-0.00014354,0.00013740,0.00003000,0.00000572,0.00003860,-0.000
 30113,-0.00001273,0.00002672,0.00006350,0.00006159,0.00004583,-0.00006
 695,-0.00000471,-0.00012170,0.00001087,-0.00000677,0.00001886,0.000089
 66,-0.00000767,-0.00004746,-0.00004294,-0.00000573,0.00006117,0.000004
 56,0.00000671,-0.00082426,0.00015142,0.00039324,-0.00043231,-0.0014817
 7,-0.00060158,0.00044235,0.00020442,-0.00022177,0.00006561,-0.00008462
 ,-0.00001954,0.00005130,0.00009649,-0.00002471,-0.00001196,-0.00006592
 ,0.00000889,-0.00053410,-0.00080458,0.00060058,-0.00002039,0.00011802,
 -0.00004733,-0.00013497,0.00001248,-0.00001278,-0.00003549,-0.00007923
 ,0.00003214,-0.00020986,0.00352959,0.00078017,-0.00036956,0.00026600,-
 0.00030505,0.00020407,-0.00009460,-0.00039169,-0.00017531,0.00010090,0
 .00005811,0.00362239,0.00073079,0.00237492,0.00152461,0.00150164,0.002
 69747,-0.21580721,-0.04890289,0.13987608,-0.01197999,-0.00553788,0.009
 85298,0.00001000,0.00000292,-0.00001863,0.00023349,-0.00023604,-0.0006
 7197,-0.00001846,-0.00001486,0.00004091,0.00000086,0.00000067,0.000003
 10,0.00000996,0.00000236,-0.00000580,-0.00000050,0.00000522,0.00000202
 ,-0.00000254,0.00000312,0.00000188,-0.00000651,0.00000852,0.00000297,-
 0.00000842,0.00000870,0.00000260,-0.00004177,0.00001262,-0.00002328,-0
 .00000964,0.00000446,0.00003282,-0.00002156,-0.00003176,0.00003710,-0.
 00006823,0.00010566,0.00005931,-0.00074698,-0.00124214,-0.00264685,0.2
 2461180,-0.00004306,0.00003057,0.00020622,0.00013498,-0.00000787,0.000
 07289,-0.00002984,0.00011894,-0.00003063,-0.00002755,-0.00014658,-0.00
 002113,-0.00006493,0.00002236,-0.00004148,0.00009145,0.00012167,0.0000
 7433,-0.00004135,-0.00010235,-0.00001473,-0.00001662,0.00008641,-0.000
 00557,0.00009485,-0.00004656,0.00002445,-0.00003668,-0.00008779,0.0000
 1068,0.00002900,0.00006789,0.00000213,-0.00008066,-0.00001591,-0.00000
 593,-0.00014591,0.00079844,0.00036042,-0.00058303,-0.00129316,-0.00133
 538,-0.00004679,-0.00009207,-0.00000278,-0.00014310,0.00012619,-0.0000
 4668,-0.00000954,-0.00008055,-0.00001077,0.00001274,0.00006677,-0.0000
 0700,0.00079701,0.00104880,-0.00052644,0.00024275,-0.00018792,0.000117
 19,0.00010419,0.00009679,-0.00001293,0.00001499,0.00004600,-0.00000437
 ,0.00166750,-0.00427235,-0.00052887,0.00042978,-0.00047835,-0.00020361
 ,-0.00029253,0.00011286,-0.00003612,0.00009627,-0.00013671,-0.00000078
 ,0.00141985,-0.00464078,0.00280849,-0.02468656,-0.00327132,0.01852945,
 -0.04673621,-0.07025049,0.04450298,0.01767922,0.00768064,-0.01334940,-
 0.00011136,-0.00003731,0.00005713,-0.00052613,-0.00132491,-0.00006874,
 0.00002551,0.00005268,-0.00001764,0.00000588,0.00000506,-0.00000049,-0
 .00000746,0.00000359,0.00000102,-0.00000137,0.00000276,-0.00000080,-0.
 00000252,0.00000122,-0.00000029,-0.00000142,-0.00000423,0.00000210,0.0
 0000060,-0.00000392,0.00000084,0.00004360,-0.00002542,-0.00000853,-0.0
 0000695,0.00001418,-0.00000066,0.00007808,0.00005456,-0.00002707,-0.00
 123335,-0.00032620,0.00074081,-0.00053270,0.00063917,-0.00136716,0.052
 75754,0.07517391,-0.00018399,-0.00031455,0.00003892,0.00018890,0.00000
 001,0.00005734,-0.00005343,0.00008887,-0.00002443,0.00014569,-0.000018
 87,0.00000241,-0.00003273,-0.00002394,-0.00002907,0.00002070,0.0004613
 2,0.00009706,-0.00007127,-0.00017036,-0.00008432,-0.00007215,0.0001534
 1,0.00000040,0.00017180,-0.00002920,0.00003340,-0.00004084,-0.00008237
 ,0.00000608,0.00003427,0.00007008,0.00000703,-0.00010033,-0.00000917,-
 0.00001092,0.00028485,0.00105408,0.00061311,0.00039609,0.00028129,0.00
 004794,-0.00053478,-0.00024719,0.00010012,-0.00009102,0.00002263,-0.00
 002199,0.00005840,-0.00001537,-0.00001798,-0.00001096,0.00003734,0.000
 00254,-0.00004860,0.00052756,-0.00008794,0.00026794,-0.00023126,-0.000
 03015,-0.00011139,0.00013430,-0.00003109,0.00005226,-0.00006691,0.0000
 3473,0.00011114,-0.00130815,0.00181093,-0.00079144,-0.00020484,-0.0000
 1966,0.00016616,-0.00007166,-0.00052785,-0.00009951,0.00004164,0.00007
 015,0.00177929,0.00361594,0.00444424,0.01029314,0.00111431,-0.00083179
 ,0.13753863,0.04607292,-0.13530759,0.00427802,0.00244250,-0.00232043,-
 0.00000190,-0.00010817,-0.00005655,0.00013410,-0.00023578,0.00064211,0
 .00003549,0.00001768,-0.00000566,0.00000848,0.00000532,0.00000336,-0.0
 0001663,0.00000667,0.00000865,-0.00000103,0.00000112,-0.00000089,-0.00
 000268,0.00000248,0.00000095,-0.00000406,-0.00000038,-0.00000049,-0.00
 000541,-0.00000612,0.00000174,0.00001194,-0.00001083,-0.00002527,0.000
 01999,0.00001764,0.00003909,-0.00001134,-0.00001111,0.00002859,0.00057
 156,0.00007615,-0.00014118,-0.00251906,-0.00125354,-0.00306692,-0.1517
 1753,-0.05057366,0.13454436,0.00071397,0.00220066,0.00093432,0.0002825
 1,-0.00010375,-0.00009333,0.00007577,0.00052206,-0.00023794,-0.0003530
 6,-0.00055136,0.00031719,-0.00019663,-0.00001712,-0.00010365,0.0001400
 3,-0.00001275,-0.00000530,-0.00001837,-0.00005595,-0.00000542,-0.00005
 298,-0.00000378,-0.00000422,-0.00001694,0.00012703,-0.00001113,0.00017
 353,0.00006602,0.00004216,-0.00005602,-0.00002889,0.00000155,0.0000754
 6,-0.00008286,0.00001756,-0.00514991,0.00191651,-0.01671940,0.00081912
 ,0.00039080,-0.00089062,-0.00001961,-0.00010808,0.00012412,0.00012625,
 -0.00051637,0.00054912,-0.00042524,0.00027459,-0.00011001,-0.00006114,
 -0.00016381,-0.00001069,0.00077710,0.00003415,0.00030145,-0.00030265,-
 0.00092781,-0.00044615,0.00013548,-0.00023339,0.00003007,0.00019667,0.
 00010276,-0.00005317,0.00372796,-0.01414564,0.02316682,-0.00399163,-0.
 00042467,0.00141581,0.00029945,-0.00092588,-0.00079158,-0.00051727,0.0
 0032189,0.00009871,0.00001106,-0.00022381,0.00000602,-0.00260675,0.001
 33826,0.00076174,-0.00377925,0.01202787,-0.01596381,-0.06108728,0.0320
 2763,-0.04595767,-0.00084453,-0.00182057,-0.00120661,-0.00030336,-0.00
 003494,0.00065678,-0.00000952,0.00000800,0.00001125,0.00000209,-0.0000
 0164,-0.00000351,-0.00000329,0.00000303,-0.00000246,-0.00000128,0.0000
 0304,0.00000021,-0.00000267,-0.00000961,-0.00000718,0.00000360,-0.0000
 0711,0.00001082,0.00000728,0.00001612,0.00000946,0.00002288,-0.0000013
 4,0.00003907,0.00000910,0.00006005,0.00008493,-0.00022006,-0.00014858,
 0.00009514,0.00011786,0.00000103,0.00004393,0.00052744,0.00082360,0.00
 055317,0.00057345,-0.00015033,0.00033339,0.07106063,-0.00118359,-0.000
 38196,-0.00257829,-0.00004200,-0.00005596,0.00028490,-0.00022094,-0.00
 027210,0.00003867,0.00005548,0.00054509,-0.00046808,0.00028709,0.00017
 380,0.00002111,-0.00039046,-0.00005223,0.00002958,0.00004406,0.0000268
 9,0.00000865,-0.00004866,-0.00007300,-0.00001995,0.00000688,-0.0001659
 4,0.00003163,0.00001191,-0.00010736,-0.00000242,0.00008755,0.00016030,
 -0.00000532,-0.00018636,0.00006144,0.00001798,-0.00778221,0.00326272,-
 0.02081295,0.00099892,0.00057040,-0.00044865,0.00025472,-0.00025711,0.
 00028836,0.00021200,0.00119155,-0.00008499,0.00032704,0.00000526,-0.00
 003862,0.00004809,0.00002599,0.00001859,0.00149533,-0.00097243,-0.0011
 8426,-0.00038135,-0.00047256,0.00010448,-0.00004877,0.00013332,-0.0000
 2924,-0.00023688,-0.00012073,0.00001821,-0.00337237,-0.00661420,0.0100
 2434,-0.00205881,0.00118266,0.00069242,0.00035582,-0.00039052,-0.00010
 007,-0.00009281,0.00045584,-0.00007389,0.00038154,-0.00030252,0.000555
 96,0.00410810,-0.00025063,-0.00175951,0.00909621,-0.01928937,0.0188779
 1,0.03279074,-0.09202789,0.10343310,-0.00195282,-0.00233630,-0.0021482
 1,0.00005110,-0.00000948,0.00037723,-0.00000268,0.00000102,0.00006711,
 0.00000798,0.00000252,0.00000105,0.00001099,0.00000928,0.00000051,-0.0
 0000475,0.00001024,-0.00001039,-0.00000155,0.00001161,-0.00000608,-0.0
 0001035,0.00000608,0.00000454,-0.00000771,0.00000204,0.00000289,-0.000
 01258,-0.00000124,0.00001815,-0.00003143,0.00001339,0.00002277,-0.0001
 0067,-0.00007614,0.00003022,0.00002895,0.00001421,0.00007888,-0.000473
 29,-0.00108366,-0.00055629,-0.00049792,0.00070472,-0.00099673,-0.03161
 152,0.11671444,-0.00010095,0.00222524,0.00099480,0.00002586,-0.0001990
 8,-0.00021471,-0.00010538,-0.00030395,0.00011182,-0.00040021,-0.000913
 61,0.00053274,0.00003374,0.00026456,-0.00020074,0.00036852,-0.00030543
 ,-0.00010678,-0.00001374,0.00006807,0.00001567,0.00008275,-0.00008991,
 0.00001601,-0.00011408,-0.00018240,-0.00007638,-0.00011560,-0.00002691
 ,0.00002786,-0.00004135,0.00014274,-0.00000537,-0.00010866,-0.00009802
 ,0.00002640,-0.00839024,0.00289976,-0.02247548,0.00049094,-0.00006665,
 -0.00021819,0.00011255,0.00047647,0.00025255,0.00033083,-0.00034199,-0
 .00034334,-0.00010148,-0.00012809,0.00003924,0.00001457,0.00011686,-0.
 00001669,-0.00077128,0.00117625,0.00120269,0.00043250,0.00058624,-0.00
 001954,-0.00006233,-0.00002720,0.00000187,0.00016400,0.00008078,-0.000
 00122,0.00021789,0.00764667,-0.01075650,0.00210917,-0.00076138,-0.0013
 1817,-0.00042224,0.00043236,0.00036728,0.00035013,-0.00038908,-0.00002
 922,-0.00008657,-0.00017033,-0.00001319,-0.00004198,-0.00156736,-0.000
 45602,0.00126751,-0.00334591,0.00982411,-0.04532653,0.09923215,-0.2141
 6289,-0.00194075,-0.00286148,-0.00115189,-0.00052341,-0.00015453,0.000
 51854,-0.00003743,-0.00006606,0.00005844,0.00000851,0.00000597,-0.0000
 0438,0.00001077,0.00001233,-0.00000614,-0.00000683,0.00001439,0.000001
 05,-0.00000193,-0.00000055,-0.00001568,-0.00000499,0.00000418,-0.00000
 151,-0.00000919,-0.00000983,0.00000241,0.00000074,-0.00001079,-0.00001
 694,0.00001257,-0.00003699,-0.00002810,0.00012549,0.00006727,-0.000068
 23,-0.00001433,0.00005526,0.00002477,-0.00019662,-0.00037142,-0.000411
 71,-0.00020152,0.00062611,0.00068536,0.05290201,-0.10369397,0.23726926
 ,-0.00493150,-0.00295051,0.00173022,-0.00044880,0.00142812,-0.00031098
 ,-0.00107540,-0.00007323,-0.00010125,-0.00022795,0.00008783,0.00038609
 ,0.00053664,0.00013748,0.00015651,-0.00079990,-0.00296626,-0.00097838,
 0.00035070,0.00041186,-0.00077186,0.00006606,-0.00046830,0.00006511,-0
 .00028823,-0.00009144,-0.00012029,0.00039138,0.00010544,-0.00007559,-0
 .00006311,0.00019349,0.00002418,-0.00010738,-0.00000043,-0.00002024,-0
 .01845777,0.02070819,-0.01060671,-0.14074955,0.11097805,-0.06013011,0.
 00745455,-0.00909308,0.00587732,0.00032272,0.00013828,0.00001232,-0.00
 013789,0.00013472,0.00004087,-0.00005091,-0.00022861,0.00000822,0.0000
 2964,0.00007785,-0.00000548,0.00003926,-0.00008142,0.00001736,-0.00006
 012,-0.00000095,0.00000196,0.00001798,-0.00000110,0.00000187,0.0002133
 0,-0.00019250,-0.00014081,-0.00021716,-0.00006050,0.00006136,0.0000967
 7,-0.00008975,0.00001268,-0.00003296,0.00007005,-0.00001466,-0.0000721
 2,-0.00005969,0.00004382,0.00017680,-0.00022584,0.00011023,0.00015570,
 0.00026342,0.00012403,-0.00059442,0.00052641,0.00047201,0.00172304,0.0
 0027395,0.00015567,0.00103690,-0.00154743,0.00021638,0.00073205,0.0003
 4877,0.00008046,-0.00000943,-0.00001163,0.00001515,0.00002977,-0.00001
 336,0.00012759,-0.00001516,0.00001504,-0.00000524,0.00000379,0.0000170
 7,0.00002497,-0.00001474,-0.00000250,-0.00000741,-0.00001069,-0.000005
 89,0.00000140,-0.00000010,-0.00000206,-0.00000236,0.00000333,-0.000003
 10,0.00000034,-0.00001425,-0.00001000,0.00000140,0.00001965,-0.0000024
 7,-0.00001329,0.00000342,-0.00005461,-0.00001360,0.00005579,-0.0001678
 1,-0.00038015,0.00014078,0.00009199,0.00007853,0.15477954,-0.00099522,
 -0.00019112,0.00010990,-0.00038813,0.00044083,-0.00025791,-0.00008762,
 -0.00013421,0.00007406,-0.00083992,0.00016121,0.00068258,0.00013584,0.
 00009782,0.00001623,-0.00316396,-0.00421975,-0.00050511,0.00112950,-0.
 00003379,-0.00122555,-0.00007216,-0.00054857,0.00000686,-0.00032384,0.
 00001504,-0.00013731,0.00012213,0.00012847,-0.00001838,-0.00006848,-0.
 00004730,-0.00000407,0.00012305,0.00002105,0.00000819,-0.00444732,0.00
 463954,-0.00214154,0.11103870,-0.17666109,0.07176885,0.01735129,-0.021
 68944,0.01013250,0.00016733,-0.00002898,0.00002834,-0.00008988,0.00004
 586,0.00002818,-0.00000486,-0.00008956,-0.00000428,0.00012331,-0.00004
 924,-0.00000563,-0.00010162,-0.00000211,0.00002629,0.00006099,-0.00003
 320,-0.00000060,-0.00002986,0.00003129,-0.00001575,-0.00003315,-0.0000
 0432,0.00017027,0.00004553,-0.00005018,-0.00004619,-0.00006555,0.00000
 878,-0.00001145,0.00000723,-0.00000680,0.00000590,-0.00001953,0.000034
 79,0.00006425,-0.00009593,-0.00002328,-0.00010853,-0.00007419,-0.00028
 531,-0.00043379,0.00027418,0.00029308,0.00010297,0.00023294,0.00080308
 ,-0.00047686,-0.00154112,0.00162379,-0.00047778,-0.00040001,0.00106972
 ,-0.00052230,-0.00005253,-0.00006455,0.00002571,0.00007242,-0.00009445
 ,0.00019778,-0.00000245,-0.00000640,0.00000411,0.00001130,-0.00000144,
 0.00000292,0.00000911,-0.00000242,0.00000197,0.00000753,-0.00000080,0.
 00000047,0.00000375,0.00000408,-0.00000219,0.00000423,0.00000260,0.000
 00033,-0.00000048,0.00000573,0.00000114,0.00000116,0.00000648,0.000001
 16,-0.00002170,-0.00002620,-0.00004487,-0.00044498,-0.00024342,-0.0002
 5507,0.00004650,0.00002852,-0.00001074,-0.11760351,0.19507618,0.002453
 44,0.00064331,-0.00007679,0.00030346,-0.00064636,0.00046841,0.00019604
 ,0.00009712,-0.00000753,0.00048799,0.00006951,0.00017288,0.00000016,-0
 .00003768,0.00001715,-0.00159100,-0.00063128,0.00032255,0.00038602,-0.
 00076495,-0.00034410,-0.00035691,0.00009694,-0.00003475,0.00032212,0.0
 0000922,0.00002921,-0.00004545,-0.00016288,-0.00002678,0.00010630,0.00
 009318,0.00000788,-0.00016715,0.00000396,-0.00001574,0.00811805,-0.007
 87676,0.00224926,-0.06058731,0.07257380,-0.08107999,0.00615624,-0.0103
 9059,0.00225617,-0.00009511,0.00002733,-0.00000625,0.00007476,-0.00005
 474,-0.00004488,0.00000895,0.00007574,0.00000022,0.00000708,0.00001503
 ,0.00000931,0.00003692,-0.00000221,-0.00001580,-0.00002902,-0.00002601
 ,0.00000471,0.00006317,-0.00000340,0.00000081,0.00003407,-0.00017847,0
 .00001156,-0.00004992,0.00010566,0.00000720,-0.00001354,-0.00004912,0.
 00000602,0.00001349,-0.00004067,0.00000260,-0.00004710,0.00003806,-0.0
 0012265,0.00014909,-0.00015799,-0.00000655,-0.00031480,0.00032968,0.00
 073384,-0.00019510,0.00008073,-0.00029303,-0.00018946,-0.00067413,0.00
 091445,-0.01946077,0.02329068,-0.01396446,0.00022376,0.00088614,0.0002
 1795,-0.00000111,0.00000404,0.00001093,0.00001027,-0.00003837,0.000049
 37,-0.00000111,-0.00000001,-0.00000159,-0.00000204,-0.00000562,-0.0000
 0420,0.00000060,0.00000153,0.00000634,-0.00000071,-0.00000062,0.000000
 22,0.00000295,-0.00000117,0.00000159,0.00000590,0.00000010,0.00000152,
 -0.00000726,-0.00000077,0.00000535,0.00003569,0.00001215,-0.00001014,0
 .00000285,-0.00003613,0.00005219,-0.00001194,0.00011242,-0.00067841,0.
 00011709,-0.00003132,0.00014614,0.06385035,-0.07675508,0.08902779\\-0.
 00004012,-0.00010043,-0.00001501,0.00006233,-0.00003646,0.00001811,-0.
 00017912,-0.00002080,-0.00000847,0.00001736,0.00006931,-0.00001766,0.0
 0014553,-0.00008066,0.00000387,0.00003636,0.00002422,0.00001112,-0.000
 08197,0.00006824,-0.00001173,0.00006306,-0.00010524,0.00000326,0.00009
 288,0.00017307,-0.00000794,-0.00005666,0.00002096,0.00000941,0.0001605
 8,0.00006279,0.00004722,-0.00018695,-0.00006207,-0.00001606,0.00005448
 ,-0.00001743,-0.00002326,-0.00003030,0.00002589,-0.00000291,0.00001292
 ,-0.00000811,0.00002648,-0.00002923,-0.00005561,-0.00000507,-0.0000742
 7,0.00006489,0.00001071,0.00001185,-0.00008247,0.00002423,-0.00008495,
 0.00005417,-0.00001748,0.00000884,0.00001799,-0.00000888,0.00001535,0.
 00001755,-0.00001238,0.00007362,0.00002775,0.00000519,0.00005669,-0.00
 003507,-0.00004182,-0.00002884,0.00003307,0.00001292,-0.00002400,0.000
 00843,-0.00000767,0.00002714,-0.00002031,0.00001713,0.00003103,0.00000
 268,-0.00001058,-0.00002843,-0.00002444,0.00001418,-0.00000673,0.00003
 597,0.00000294,-0.00001259,-0.00002164,0.00002142,0.00000299,-0.000007
 61,0.00002146,-0.00000043,0.00000140,-0.00001153,-0.00000531,0.0000075
 0,-0.00000904,-0.00001253,0.00000429,-0.00000364,0.00000520,-0.0000099
 9,-0.00000020,-0.00000745,-0.00000475,0.00001035,0.00000578,-0.0000037
 0,-0.00001698,-0.00000002,-0.00001562,-0.00000191,-0.00000505,-0.00001
 059,0.00000112,0.00000132,0.00000031,0.00001108,0.00000114,-0.00000397
 ,0.00000256,0.00000291,0.00000152,0.00000582,0.00000245,-0.00000414,-0
 .00001346,0.00000191,-0.00000022,-0.00000324,0.00000140,-0.00000659,-0
 .00000157,0.00000436,0.00000625,-0.00000733,-0.00000452,0.00000964,-0.
 00000479\\\@


 THE GREAT THING ABOUT BEING IMPERFECT IS THE JOY IT BRINGS OTHERS.
   -- SIGN OUTSIDE LAKE AGASSIZ JR. HIGH SCHOOL, FARGO, N.D.
 Job cpu time:       2 days  6 hours 31 minutes 51.0 seconds.
 Elapsed time:       0 days  2 hours 44 minutes  2.1 seconds.
 File lengths (MBytes):  RWF=   4615 Int=      0 D2E=      0 Chk=     65 Scr=      1
 Normal termination of Gaussian 16 at Tue Jun 25 22:57:42 2019.
