 Entering Gaussian System, Link 0=/share/apps/gaussian16/g16/g16
 Initial command:
 /share/apps/gaussian16/g16/l1.exe "/home/amen01//scratch/624/Gau-33164.inp" -scrdir="/home/amen01//scratch/624/"
 Entering Link 1 = /share/apps/gaussian16/g16/l1.exe PID=     33165.
  
 Copyright (c) 1988-2017, Gaussian, Inc.  All Rights Reserved.
  
 This is part of the Gaussian(R) 16 program.  It is based on
 the Gaussian(R) 09 system (copyright 2009, Gaussian, Inc.),
 the Gaussian(R) 03 system (copyright 2003, Gaussian, Inc.),
 the Gaussian(R) 98 system (copyright 1998, Gaussian, Inc.),
 the Gaussian(R) 94 system (copyright 1995, Gaussian, Inc.),
 the Gaussian 92(TM) system (copyright 1992, Gaussian, Inc.),
 the Gaussian 90(TM) system (copyright 1990, Gaussian, Inc.),
 the Gaussian 88(TM) system (copyright 1988, Gaussian, Inc.),
 the Gaussian 86(TM) system (copyright 1986, Carnegie Mellon
 University), and the Gaussian 82(TM) system (copyright 1983,
 Carnegie Mellon University). Gaussian is a federally registered
 trademark of Gaussian, Inc.
  
 This software contains proprietary and confidential information,
 including trade secrets, belonging to Gaussian, Inc.
  
 This software is provided under written license and may be
 used, copied, transmitted, or stored only in accord with that
 written license.
  
 The following legend is applicable only to US Government
 contracts under FAR:
  
                    RESTRICTED RIGHTS LEGEND
  
 Use, reproduction and disclosure by the US Government is
 subject to restrictions as set forth in subparagraphs (a)
 and (c) of the Commercial Computer Software - Restricted
 Rights clause in FAR 52.227-19.
  
 Gaussian, Inc.
 340 Quinnipiac St., Bldg. 40, Wallingford CT 06492
  
  
 ---------------------------------------------------------------
 Warning -- This program may not be used in any manner that
 competes with the business of Gaussian, Inc. or will provide
 assistance to any competitor of Gaussian, Inc.  The licensee
 of this program is prohibited from giving any competitor of
 Gaussian, Inc. access to this program.  By using this program,
 the user acknowledges that Gaussian, Inc. is engaged in the
 business of creating and licensing software in the field of
 computational chemistry and represents and warrants to the
 licensee that it is not a competitor of Gaussian, Inc. and that
 it will not use this program in any manner prohibited above.
 ---------------------------------------------------------------
  

 Cite this work as:
 Gaussian 16, Revision B.01,
 M. J. Frisch, G. W. Trucks, H. B. Schlegel, G. E. Scuseria, 
 M. A. Robb, J. R. Cheeseman, G. Scalmani, V. Barone, 
 G. A. Petersson, H. Nakatsuji, X. Li, M. Caricato, A. V. Marenich, 
 J. Bloino, B. G. Janesko, R. Gomperts, B. Mennucci, H. P. Hratchian, 
 J. V. Ortiz, A. F. Izmaylov, J. L. Sonnenberg, D. Williams-Young, 
 F. Ding, F. Lipparini, F. Egidi, J. Goings, B. Peng, A. Petrone, 
 T. Henderson, D. Ranasinghe, V. G. Zakrzewski, J. Gao, N. Rega, 
 G. Zheng, W. Liang, M. Hada, M. Ehara, K. Toyota, R. Fukuda, 
 J. Hasegawa, M. Ishida, T. Nakajima, Y. Honda, O. Kitao, H. Nakai, 
 T. Vreven, K. Throssell, J. A. Montgomery, Jr., J. E. Peralta, 
 F. Ogliaro, M. J. Bearpark, J. J. Heyd, E. N. Brothers, K. N. Kudin, 
 V. N. Staroverov, T. A. Keith, R. Kobayashi, J. Normand, 
 K. Raghavachari, A. P. Rendell, J. C. Burant, S. S. Iyengar, 
 J. Tomasi, M. Cossi, J. M. Millam, M. Klene, C. Adamo, R. Cammi, 
 J. W. Ochterski, R. L. Martin, K. Morokuma, O. Farkas, 
 J. B. Foresman, and D. J. Fox, Gaussian, Inc., Wallingford CT, 2016.
 
 ******************************************
 Gaussian 16:  ES64L-G16RevB.01 20-Dec-2017
                25-Jun-2019 
 ******************************************
 %nprocshared=20
 Will use up to   20 processors via shared memory.
 %mem=100GB
 %chk=7-memb2-hadd-2b.chk
 -------------------------------------------
 # opt freq b3lyp/6-311+g(d,p) int=grid=fine
 -------------------------------------------
 1/18=20,19=15,26=3,38=1/1,3;
 2/9=110,12=2,17=6,18=5,40=1/2;
 3/5=4,6=6,7=111,11=2,25=1,30=1,71=1,74=-5,75=-4/1,2,3;
 4//1;
 5/5=2,38=5/2;
 6/7=2,8=2,9=2,10=2,28=1/1;
 7//1,2,3,16;
 1/18=20,19=15,26=3/3(2);
 2/9=110/2;
 99//99;
 2/9=110/2;
 3/5=4,6=6,7=111,11=2,25=1,30=1,71=1,74=-5,75=-4/1,2,3;
 4/5=5,16=3,69=1/1;
 5/5=2,38=5/2;
 7//1,2,3,16;
 1/18=20,19=15,26=3/3(-5);
 2/9=110/2;
 6/7=2,8=2,9=2,10=2,19=2,28=1/1;
 99/9=1/99;
 ---------------
 7-memb2-hadd-2b
 ---------------
 Symbolic Z-matrix:
 Charge =  0 Multiplicity = 2
 C                    -3.91385   0.33664  -0.33565 
 C                    -2.4939    0.10173  -0.11419 
 C                    -2.38136  -1.34207  -0.00605 
 C                    -4.59022  -0.94438  -0.20644 
 C                    -3.68835  -1.92162  -0.05979 
 C                    -5.97905  -1.21369   0.031 
 C                    -6.39224  -2.6253    0.19 
 C                    -5.4615   -3.61663   0.29333 
 C                    -4.02704  -3.28578   0.24497 
 C                    -1.29553  -2.07794   0.26668 
 C                    -1.57054  -3.51847   0.44633 
 C                    -2.95625  -4.08699   0.47117 
 C                    -4.71756   1.58536  -0.16046 
 C                    -6.20258   1.24601   0.09906 
 C                    -6.75203  -0.11859   0.16117 
 C                    -1.43589   0.90438   0.07717 
 C                    -0.10678   0.1877    0.17794 
 C                    -0.06955  -1.2886    0.36373 
 C                    -1.53675   2.38098   0.05813 
 C                    -0.26593   3.09256  -0.28513 
 C                     0.98146   2.32929  -0.25758 
 C                     1.0269    0.90446   0.03472 
 C                    -2.68185   3.08029   0.33656 
 C                    -2.70242   4.5331    0.03071 
 C                    -1.50159   5.14387  -0.5233 
 C                    -0.26066   4.40793  -0.57248 
 C                    -3.80257   5.28711   0.19945 
 C                    -5.0007    4.79494   0.82338 
 C                    -4.88294   3.52259   1.59056 
 C                    -3.98877   2.46389   0.90841 
 H                    -4.71118   2.12083  -1.1205 
 H                    -7.81606  -0.20765   0.3596 
 H                    -7.45215  -2.84794   0.24866 
 H                    -5.75372  -4.65136   0.4317 
 H                    -3.0635   -5.13666   0.72023 
 H                    -0.74329  -4.18293   0.66876 
 H                     0.87462  -1.79316   0.52589 
 H                     2.00633   0.43929   0.07675 
 H                     1.92098   2.83363  -0.45691 
 H                     0.64578   4.95027  -0.81623 
 H                    -1.50116   6.18259  -0.83289 
 H                    -3.81168   6.3367   -0.08474 
 H                    -5.81406   5.48328   1.022 
 H                    -4.45639   3.77025   2.57317 
 H                    -3.69484   1.8017    1.73921 
 H                    -6.92416   2.05732   0.07487 
 H                    -5.8801    3.13104   1.81023 
 

 GradGradGradGradGradGradGradGradGradGradGradGradGradGradGradGradGradGrad
 Berny optimization.
 Initialization pass.
                           ----------------------------
                           !    Initial Parameters    !
                           ! (Angstroms and Degrees)  !
 --------------------------                            --------------------------
 ! Name  Definition              Value          Derivative Info.                !
 --------------------------------------------------------------------------------
 ! R1    R(1,2)                  1.4562         estimate D2E/DX2                !
 ! R2    R(1,4)                  1.4544         estimate D2E/DX2                !
 ! R3    R(1,13)                 1.4953         estimate D2E/DX2                !
 ! R4    R(2,3)                  1.4522         estimate D2E/DX2                !
 ! R5    R(2,16)                 1.3417         estimate D2E/DX2                !
 ! R6    R(3,5)                  1.4307         estimate D2E/DX2                !
 ! R7    R(3,10)                 1.3397         estimate D2E/DX2                !
 ! R8    R(4,5)                  1.3379         estimate D2E/DX2                !
 ! R9    R(4,6)                  1.4345         estimate D2E/DX2                !
 ! R10   R(5,9)                  1.4382         estimate D2E/DX2                !
 ! R11   R(6,7)                  1.4794         estimate D2E/DX2                !
 ! R12   R(6,15)                 1.3467         estimate D2E/DX2                !
 ! R13   R(7,8)                  1.3637         estimate D2E/DX2                !
 ! R14   R(7,33)                 1.0846         estimate D2E/DX2                !
 ! R15   R(8,9)                  1.4729         estimate D2E/DX2                !
 ! R16   R(8,34)                 1.0841         estimate D2E/DX2                !
 ! R17   R(9,12)                 1.3564         estimate D2E/DX2                !
 ! R18   R(10,11)                1.4775         estimate D2E/DX2                !
 ! R19   R(10,18)                1.4613         estimate D2E/DX2                !
 ! R20   R(11,12)                1.498          estimate D2E/DX2                !
 ! R21   R(11,36)                1.0841         estimate D2E/DX2                !
 ! R22   R(12,35)                1.0841         estimate D2E/DX2                !
 ! R23   R(13,14)                1.5452         estimate D2E/DX2                !
 ! R24   R(13,30)                1.5638         estimate D2E/DX2                !
 ! R25   R(13,31)                1.0993         estimate D2E/DX2                !
 ! R26   R(14,15)                1.4724         estimate D2E/DX2                !
 ! R27   R(14,46)                1.086          estimate D2E/DX2                !
 ! R28   R(15,32)                1.086          estimate D2E/DX2                !
 ! R29   R(16,17)                1.5134         estimate D2E/DX2                !
 ! R30   R(16,19)                1.4802         estimate D2E/DX2                !
 ! R31   R(17,18)                1.4884         estimate D2E/DX2                !
 ! R32   R(17,22)                1.3489         estimate D2E/DX2                !
 ! R33   R(18,37)                1.0827         estimate D2E/DX2                !
 ! R34   R(19,20)                1.4964         estimate D2E/DX2                !
 ! R35   R(19,23)                1.3703         estimate D2E/DX2                !
 ! R36   R(20,21)                1.4626         estimate D2E/DX2                !
 ! R37   R(20,26)                1.3464         estimate D2E/DX2                !
 ! R38   R(21,22)                1.4552         estimate D2E/DX2                !
 ! R39   R(21,39)                1.0848         estimate D2E/DX2                !
 ! R40   R(22,38)                1.0851         estimate D2E/DX2                !
 ! R41   R(23,24)                1.4848         estimate D2E/DX2                !
 ! R42   R(23,30)                1.554          estimate D2E/DX2                !
 ! R43   R(24,25)                1.4567         estimate D2E/DX2                !
 ! R44   R(24,27)                1.3444         estimate D2E/DX2                !
 ! R45   R(25,26)                1.4436         estimate D2E/DX2                !
 ! R46   R(25,41)                1.0839         estimate D2E/DX2                !
 ! R47   R(26,40)                1.0841         estimate D2E/DX2                !
 ! R48   R(27,28)                1.4377         estimate D2E/DX2                !
 ! R49   R(27,42)                1.0874         estimate D2E/DX2                !
 ! R50   R(28,29)                1.4904         estimate D2E/DX2                !
 ! R51   R(28,43)                1.0839         estimate D2E/DX2                !
 ! R52   R(29,30)                1.5446         estimate D2E/DX2                !
 ! R53   R(29,44)                1.0995         estimate D2E/DX2                !
 ! R54   R(29,47)                1.0936         estimate D2E/DX2                !
 ! R55   R(30,45)                1.1023         estimate D2E/DX2                !
 ! A1    A(2,1,4)              107.3307         estimate D2E/DX2                !
 ! A2    A(2,1,13)             129.8672         estimate D2E/DX2                !
 ! A3    A(4,1,13)             118.3713         estimate D2E/DX2                !
 ! A4    A(1,2,3)              104.3164         estimate D2E/DX2                !
 ! A5    A(1,2,16)             133.9557         estimate D2E/DX2                !
 ! A6    A(3,2,16)             121.5354         estimate D2E/DX2                !
 ! A7    A(2,3,5)              109.2164         estimate D2E/DX2                !
 ! A8    A(2,3,10)             128.6123         estimate D2E/DX2                !
 ! A9    A(5,3,10)             121.7043         estimate D2E/DX2                !
 ! A10   A(1,4,5)              109.8538         estimate D2E/DX2                !
 ! A11   A(1,4,6)              129.0743         estimate D2E/DX2                !
 ! A12   A(5,4,6)              119.8268         estimate D2E/DX2                !
 ! A13   A(3,5,4)              108.9076         estimate D2E/DX2                !
 ! A14   A(3,5,9)              126.2545         estimate D2E/DX2                !
 ! A15   A(4,5,9)              123.8698         estimate D2E/DX2                !
 ! A16   A(4,6,7)              117.8611         estimate D2E/DX2                !
 ! A17   A(4,6,15)             114.7738         estimate D2E/DX2                !
 ! A18   A(7,6,15)             127.2428         estimate D2E/DX2                !
 ! A19   A(6,7,8)              120.7403         estimate D2E/DX2                !
 ! A20   A(6,7,33)             118.3335         estimate D2E/DX2                !
 ! A21   A(8,7,33)             120.9065         estimate D2E/DX2                !
 ! A22   A(7,8,9)              119.9283         estimate D2E/DX2                !
 ! A23   A(7,8,34)             121.3021         estimate D2E/DX2                !
 ! A24   A(9,8,34)             118.758          estimate D2E/DX2                !
 ! A25   A(5,9,8)              116.7022         estimate D2E/DX2                !
 ! A26   A(5,9,12)             114.1868         estimate D2E/DX2                !
 ! A27   A(8,9,12)             129.101          estimate D2E/DX2                !
 ! A28   A(3,10,11)            114.1679         estimate D2E/DX2                !
 ! A29   A(3,10,18)            113.3771         estimate D2E/DX2                !
 ! A30   A(11,10,18)           132.4316         estimate D2E/DX2                !
 ! A31   A(10,11,12)           122.9709         estimate D2E/DX2                !
 ! A32   A(10,11,36)           118.7167         estimate D2E/DX2                !
 ! A33   A(12,11,36)           118.0244         estimate D2E/DX2                !
 ! A34   A(9,12,11)            120.2206         estimate D2E/DX2                !
 ! A35   A(9,12,35)            122.1505         estimate D2E/DX2                !
 ! A36   A(11,12,35)           117.5663         estimate D2E/DX2                !
 ! A37   A(1,13,14)            110.66           estimate D2E/DX2                !
 ! A38   A(1,13,30)            107.382          estimate D2E/DX2                !
 ! A39   A(1,13,31)            107.538          estimate D2E/DX2                !
 ! A40   A(14,13,30)           117.1588         estimate D2E/DX2                !
 ! A41   A(14,13,31)           105.0239         estimate D2E/DX2                !
 ! A42   A(30,13,31)           108.6975         estimate D2E/DX2                !
 ! A43   A(13,14,15)           124.6977         estimate D2E/DX2                !
 ! A44   A(13,14,46)           118.0811         estimate D2E/DX2                !
 ! A45   A(15,14,46)           116.4458         estimate D2E/DX2                !
 ! A46   A(6,15,14)            122.3688         estimate D2E/DX2                !
 ! A47   A(6,15,32)            120.885          estimate D2E/DX2                !
 ! A48   A(14,15,32)           116.7002         estimate D2E/DX2                !
 ! A49   A(2,16,17)            114.7544         estimate D2E/DX2                !
 ! A50   A(2,16,19)            122.7662         estimate D2E/DX2                !
 ! A51   A(17,16,19)           122.2167         estimate D2E/DX2                !
 ! A52   A(16,17,18)           119.9992         estimate D2E/DX2                !
 ! A53   A(16,17,22)           118.6472         estimate D2E/DX2                !
 ! A54   A(18,17,22)           121.284          estimate D2E/DX2                !
 ! A55   A(10,18,17)           120.4296         estimate D2E/DX2                !
 ! A56   A(10,18,37)           119.328          estimate D2E/DX2                !
 ! A57   A(17,18,37)           120.1799         estimate D2E/DX2                !
 ! A58   A(16,19,20)           114.8011         estimate D2E/DX2                !
 ! A59   A(16,19,23)           124.2927         estimate D2E/DX2                !
 ! A60   A(20,19,23)           120.9045         estimate D2E/DX2                !
 ! A61   A(19,20,21)           118.1515         estimate D2E/DX2                !
 ! A62   A(19,20,26)           121.1216         estimate D2E/DX2                !
 ! A63   A(21,20,26)           120.697          estimate D2E/DX2                !
 ! A64   A(20,21,22)           122.7764         estimate D2E/DX2                !
 ! A65   A(20,21,39)           119.508          estimate D2E/DX2                !
 ! A66   A(22,21,39)           117.715          estimate D2E/DX2                !
 ! A67   A(17,22,21)           121.0216         estimate D2E/DX2                !
 ! A68   A(17,22,38)           121.7833         estimate D2E/DX2                !
 ! A69   A(21,22,38)           117.1103         estimate D2E/DX2                !
 ! A70   A(19,23,24)           117.9727         estimate D2E/DX2                !
 ! A71   A(19,23,30)           125.1074         estimate D2E/DX2                !
 ! A72   A(24,23,30)           116.8881         estimate D2E/DX2                !
 ! A73   A(23,24,25)           118.5009         estimate D2E/DX2                !
 ! A74   A(23,24,27)           122.294          estimate D2E/DX2                !
 ! A75   A(25,24,27)           119.155          estimate D2E/DX2                !
 ! A76   A(24,25,26)           120.5196         estimate D2E/DX2                !
 ! A77   A(24,25,41)           120.7155         estimate D2E/DX2                !
 ! A78   A(26,25,41)           118.5868         estimate D2E/DX2                !
 ! A79   A(20,26,25)           119.1709         estimate D2E/DX2                !
 ! A80   A(20,26,40)           122.6848         estimate D2E/DX2                !
 ! A81   A(25,26,40)           118.1244         estimate D2E/DX2                !
 ! A82   A(24,27,28)           122.9862         estimate D2E/DX2                !
 ! A83   A(24,27,42)           121.0245         estimate D2E/DX2                !
 ! A84   A(28,27,42)           115.9032         estimate D2E/DX2                !
 ! A85   A(27,28,29)           116.7298         estimate D2E/DX2                !
 ! A86   A(27,28,43)           119.1752         estimate D2E/DX2                !
 ! A87   A(29,28,43)           120.472          estimate D2E/DX2                !
 ! A88   A(28,29,30)           113.8006         estimate D2E/DX2                !
 ! A89   A(28,29,44)           107.3612         estimate D2E/DX2                !
 ! A90   A(28,29,47)           109.6952         estimate D2E/DX2                !
 ! A91   A(30,29,44)           108.9358         estimate D2E/DX2                !
 ! A92   A(30,29,47)           111.7878         estimate D2E/DX2                !
 ! A93   A(44,29,47)           104.767          estimate D2E/DX2                !
 ! A94   A(13,30,23)           111.3            estimate D2E/DX2                !
 ! A95   A(13,30,29)           114.6545         estimate D2E/DX2                !
 ! A96   A(13,30,45)           107.5739         estimate D2E/DX2                !
 ! A97   A(23,30,29)           112.1788         estimate D2E/DX2                !
 ! A98   A(23,30,45)           106.9398         estimate D2E/DX2                !
 ! A99   A(29,30,45)           103.4891         estimate D2E/DX2                !
 ! D1    D(4,1,2,3)              5.9682         estimate D2E/DX2                !
 ! D2    D(4,1,2,16)          -168.8402         estimate D2E/DX2                !
 ! D3    D(13,1,2,3)           161.358          estimate D2E/DX2                !
 ! D4    D(13,1,2,16)          -13.4505         estimate D2E/DX2                !
 ! D5    D(2,1,4,5)             -5.9589         estimate D2E/DX2                !
 ! D6    D(2,1,4,6)            161.0341         estimate D2E/DX2                !
 ! D7    D(13,1,4,5)          -164.6579         estimate D2E/DX2                !
 ! D8    D(13,1,4,6)             2.335          estimate D2E/DX2                !
 ! D9    D(2,1,13,14)         -154.8289         estimate D2E/DX2                !
 ! D10   D(2,1,13,30)          -25.8371         estimate D2E/DX2                !
 ! D11   D(2,1,13,31)           90.9845         estimate D2E/DX2                !
 ! D12   D(4,1,13,14)           -1.6885         estimate D2E/DX2                !
 ! D13   D(4,1,13,30)          127.3034         estimate D2E/DX2                !
 ! D14   D(4,1,13,31)         -115.875          estimate D2E/DX2                !
 ! D15   D(1,2,3,5)             -4.1721         estimate D2E/DX2                !
 ! D16   D(1,2,3,10)          -176.3204         estimate D2E/DX2                !
 ! D17   D(16,2,3,5)           171.4447         estimate D2E/DX2                !
 ! D18   D(16,2,3,10)           -0.7036         estimate D2E/DX2                !
 ! D19   D(1,2,16,17)         -176.1648         estimate D2E/DX2                !
 ! D20   D(1,2,16,19)           -1.9385         estimate D2E/DX2                !
 ! D21   D(3,2,16,17)            9.7396         estimate D2E/DX2                !
 ! D22   D(3,2,16,19)         -176.0341         estimate D2E/DX2                !
 ! D23   D(2,3,5,4)              0.6366         estimate D2E/DX2                !
 ! D24   D(2,3,5,9)           -168.3904         estimate D2E/DX2                !
 ! D25   D(10,3,5,4)           173.4288         estimate D2E/DX2                !
 ! D26   D(10,3,5,9)             4.4018         estimate D2E/DX2                !
 ! D27   D(2,3,10,11)          173.6057         estimate D2E/DX2                !
 ! D28   D(2,3,10,18)           -4.8559         estimate D2E/DX2                !
 ! D29   D(5,3,10,11)            2.3268         estimate D2E/DX2                !
 ! D30   D(5,3,10,18)         -176.1348         estimate D2E/DX2                !
 ! D31   D(1,4,5,3)              3.2893         estimate D2E/DX2                !
 ! D32   D(1,4,5,9)            172.636          estimate D2E/DX2                !
 ! D33   D(6,4,5,3)           -165.0914         estimate D2E/DX2                !
 ! D34   D(6,4,5,9)              4.2553         estimate D2E/DX2                !
 ! D35   D(1,4,6,7)           -176.8608         estimate D2E/DX2                !
 ! D36   D(1,4,6,15)            -0.5875         estimate D2E/DX2                !
 ! D37   D(5,4,6,7)            -10.9846         estimate D2E/DX2                !
 ! D38   D(5,4,6,15)           165.2888         estimate D2E/DX2                !
 ! D39   D(3,5,9,8)            172.1703         estimate D2E/DX2                !
 ! D40   D(3,5,9,12)            -6.7818         estimate D2E/DX2                !
 ! D41   D(4,5,9,8)              4.6961         estimate D2E/DX2                !
 ! D42   D(4,5,9,12)          -174.256          estimate D2E/DX2                !
 ! D43   D(4,6,7,8)              8.9346         estimate D2E/DX2                !
 ! D44   D(4,6,7,33)          -172.6639         estimate D2E/DX2                !
 ! D45   D(15,6,7,8)          -166.8141         estimate D2E/DX2                !
 ! D46   D(15,6,7,33)           11.5874         estimate D2E/DX2                !
 ! D47   D(4,6,15,14)           -1.5366         estimate D2E/DX2                !
 ! D48   D(4,6,15,32)         -178.9876         estimate D2E/DX2                !
 ! D49   D(7,6,15,14)          174.3241         estimate D2E/DX2                !
 ! D50   D(7,6,15,32)           -3.1269         estimate D2E/DX2                !
 ! D51   D(6,7,8,9)             -0.0877         estimate D2E/DX2                !
 ! D52   D(6,7,8,34)           178.6539         estimate D2E/DX2                !
 ! D53   D(33,7,8,9)          -178.4479         estimate D2E/DX2                !
 ! D54   D(33,7,8,34)            0.2937         estimate D2E/DX2                !
 ! D55   D(7,8,9,5)             -6.6487         estimate D2E/DX2                !
 ! D56   D(7,8,9,12)           172.1194         estimate D2E/DX2                !
 ! D57   D(34,8,9,5)           174.5777         estimate D2E/DX2                !
 ! D58   D(34,8,9,12)           -6.6541         estimate D2E/DX2                !
 ! D59   D(5,9,12,11)            2.4091         estimate D2E/DX2                !
 ! D60   D(5,9,12,35)          179.4619         estimate D2E/DX2                !
 ! D61   D(8,9,12,11)         -176.3845         estimate D2E/DX2                !
 ! D62   D(8,9,12,35)            0.6682         estimate D2E/DX2                !
 ! D63   D(3,10,11,12)          -6.3635         estimate D2E/DX2                !
 ! D64   D(3,10,11,36)         179.9277         estimate D2E/DX2                !
 ! D65   D(18,10,11,12)        171.7231         estimate D2E/DX2                !
 ! D66   D(18,10,11,36)         -1.9856         estimate D2E/DX2                !
 ! D67   D(3,10,18,17)           0.5433         estimate D2E/DX2                !
 ! D68   D(3,10,18,37)        -176.5887         estimate D2E/DX2                !
 ! D69   D(11,10,18,17)       -177.555          estimate D2E/DX2                !
 ! D70   D(11,10,18,37)          5.3131         estimate D2E/DX2                !
 ! D71   D(10,11,12,9)           3.9822         estimate D2E/DX2                !
 ! D72   D(10,11,12,35)       -173.2031         estimate D2E/DX2                !
 ! D73   D(36,11,12,9)         177.732          estimate D2E/DX2                !
 ! D74   D(36,11,12,35)          0.5467         estimate D2E/DX2                !
 ! D75   D(1,13,14,15)          -0.18           estimate D2E/DX2                !
 ! D76   D(1,13,14,46)        -169.7104         estimate D2E/DX2                !
 ! D77   D(30,13,14,15)       -123.7036         estimate D2E/DX2                !
 ! D78   D(30,13,14,46)         66.7659         estimate D2E/DX2                !
 ! D79   D(31,13,14,15)        115.5832         estimate D2E/DX2                !
 ! D80   D(31,13,14,46)        -53.9473         estimate D2E/DX2                !
 ! D81   D(1,13,30,23)          72.1589         estimate D2E/DX2                !
 ! D82   D(1,13,30,29)        -159.1761         estimate D2E/DX2                !
 ! D83   D(1,13,30,45)         -44.6825         estimate D2E/DX2                !
 ! D84   D(14,13,30,23)       -162.6637         estimate D2E/DX2                !
 ! D85   D(14,13,30,29)        -33.9986         estimate D2E/DX2                !
 ! D86   D(14,13,30,45)         80.495          estimate D2E/DX2                !
 ! D87   D(31,13,30,23)        -43.8999         estimate D2E/DX2                !
 ! D88   D(31,13,30,29)         84.7652         estimate D2E/DX2                !
 ! D89   D(31,13,30,45)       -160.7413         estimate D2E/DX2                !
 ! D90   D(13,14,15,6)           1.9685         estimate D2E/DX2                !
 ! D91   D(13,14,15,32)        179.5199         estimate D2E/DX2                !
 ! D92   D(46,14,15,6)         171.6535         estimate D2E/DX2                !
 ! D93   D(46,14,15,32)        -10.795          estimate D2E/DX2                !
 ! D94   D(2,16,17,18)         -13.3555         estimate D2E/DX2                !
 ! D95   D(2,16,17,22)         163.6509         estimate D2E/DX2                !
 ! D96   D(19,16,17,18)        172.3829         estimate D2E/DX2                !
 ! D97   D(19,16,17,22)        -10.6106         estimate D2E/DX2                !
 ! D98   D(2,16,19,20)        -155.4656         estimate D2E/DX2                !
 ! D99   D(2,16,19,23)          25.0051         estimate D2E/DX2                !
 ! D100  D(17,16,19,20)         18.3355         estimate D2E/DX2                !
 ! D101  D(17,16,19,23)       -161.1938         estimate D2E/DX2                !
 ! D102  D(16,17,18,10)          8.437          estimate D2E/DX2                !
 ! D103  D(16,17,18,37)       -174.4555         estimate D2E/DX2                !
 ! D104  D(22,17,18,10)       -168.4888         estimate D2E/DX2                !
 ! D105  D(22,17,18,37)          8.6187         estimate D2E/DX2                !
 ! D106  D(16,17,22,21)         -2.1377         estimate D2E/DX2                !
 ! D107  D(16,17,22,38)       -178.6923         estimate D2E/DX2                !
 ! D108  D(18,17,22,21)        174.8287         estimate D2E/DX2                !
 ! D109  D(18,17,22,38)         -1.726          estimate D2E/DX2                !
 ! D110  D(16,19,20,21)        -13.9282         estimate D2E/DX2                !
 ! D111  D(16,19,20,26)        168.0495         estimate D2E/DX2                !
 ! D112  D(23,19,20,21)        165.6186         estimate D2E/DX2                !
 ! D113  D(23,19,20,26)        -12.4036         estimate D2E/DX2                !
 ! D114  D(16,19,23,24)       -168.6667         estimate D2E/DX2                !
 ! D115  D(16,19,23,30)          9.2139         estimate D2E/DX2                !
 ! D116  D(20,19,23,24)         11.8312         estimate D2E/DX2                !
 ! D117  D(20,19,23,30)       -170.2882         estimate D2E/DX2                !
 ! D118  D(19,20,21,22)          2.5726         estimate D2E/DX2                !
 ! D119  D(19,20,21,39)       -177.1348         estimate D2E/DX2                !
 ! D120  D(26,20,21,22)       -179.3965         estimate D2E/DX2                !
 ! D121  D(26,20,21,39)          0.8961         estimate D2E/DX2                !
 ! D122  D(19,20,26,25)          1.13           estimate D2E/DX2                !
 ! D123  D(19,20,26,40)        179.4737         estimate D2E/DX2                !
 ! D124  D(21,20,26,25)       -176.842          estimate D2E/DX2                !
 ! D125  D(21,20,26,40)          1.5017         estimate D2E/DX2                !
 ! D126  D(20,21,22,17)          6.085          estimate D2E/DX2                !
 ! D127  D(20,21,22,38)       -177.205          estimate D2E/DX2                !
 ! D128  D(39,21,22,17)       -174.2026         estimate D2E/DX2                !
 ! D129  D(39,21,22,38)          2.5073         estimate D2E/DX2                !
 ! D130  D(19,23,24,25)         -1.1533         estimate D2E/DX2                !
 ! D131  D(19,23,24,27)        176.2478         estimate D2E/DX2                !
 ! D132  D(30,23,24,25)       -179.2093         estimate D2E/DX2                !
 ! D133  D(30,23,24,27)         -1.8082         estimate D2E/DX2                !
 ! D134  D(19,23,30,13)        -71.2464         estimate D2E/DX2                !
 ! D135  D(19,23,30,29)        158.7794         estimate D2E/DX2                !
 ! D136  D(19,23,30,45)         45.981          estimate D2E/DX2                !
 ! D137  D(24,23,30,13)        106.6549         estimate D2E/DX2                !
 ! D138  D(24,23,30,29)        -23.3193         estimate D2E/DX2                !
 ! D139  D(24,23,30,45)       -136.1177         estimate D2E/DX2                !
 ! D140  D(23,24,25,26)         -9.7889         estimate D2E/DX2                !
 ! D141  D(23,24,25,41)        175.129          estimate D2E/DX2                !
 ! D142  D(27,24,25,26)        172.7267         estimate D2E/DX2                !
 ! D143  D(27,24,25,41)         -2.3554         estimate D2E/DX2                !
 ! D144  D(23,24,27,28)          7.0632         estimate D2E/DX2                !
 ! D145  D(23,24,27,42)       -176.4508         estimate D2E/DX2                !
 ! D146  D(25,24,27,28)       -175.5521         estimate D2E/DX2                !
 ! D147  D(25,24,27,42)          0.9339         estimate D2E/DX2                !
 ! D148  D(24,25,26,20)          9.6554         estimate D2E/DX2                !
 ! D149  D(24,25,26,40)       -168.7639         estimate D2E/DX2                !
 ! D150  D(41,25,26,20)       -175.1593         estimate D2E/DX2                !
 ! D151  D(41,25,26,40)          6.4214         estimate D2E/DX2                !
 ! D152  D(24,27,28,29)         14.9714         estimate D2E/DX2                !
 ! D153  D(24,27,28,43)        173.6346         estimate D2E/DX2                !
 ! D154  D(42,27,28,29)       -161.6812         estimate D2E/DX2                !
 ! D155  D(42,27,28,43)         -3.018          estimate D2E/DX2                !
 ! D156  D(27,28,29,30)        -40.5454         estimate D2E/DX2                !
 ! D157  D(27,28,29,44)         80.0847         estimate D2E/DX2                !
 ! D158  D(27,28,29,47)       -166.6145         estimate D2E/DX2                !
 ! D159  D(43,28,29,30)        161.084          estimate D2E/DX2                !
 ! D160  D(43,28,29,44)        -78.2859         estimate D2E/DX2                !
 ! D161  D(43,28,29,47)         35.015          estimate D2E/DX2                !
 ! D162  D(28,29,30,13)        -84.6594         estimate D2E/DX2                !
 ! D163  D(28,29,30,23)         43.5643         estimate D2E/DX2                !
 ! D164  D(28,29,30,45)        158.4849         estimate D2E/DX2                !
 ! D165  D(44,29,30,13)        155.5979         estimate D2E/DX2                !
 ! D166  D(44,29,30,23)        -76.1785         estimate D2E/DX2                !
 ! D167  D(44,29,30,45)         38.7421         estimate D2E/DX2                !
 ! D168  D(47,29,30,13)         40.2992         estimate D2E/DX2                !
 ! D169  D(47,29,30,23)        168.5229         estimate D2E/DX2                !
 ! D170  D(47,29,30,45)        -76.5565         estimate D2E/DX2                !
 --------------------------------------------------------------------------------
 Trust Radius=3.00D-01 FncErr=1.00D-07 GrdErr=1.00D-06 EigMax=2.50D+02 EigMin=1.00D-04
 Number of steps in this run=    282 maximum allowed number of steps=    282.
 GradGradGradGradGradGradGradGradGradGradGradGradGradGradGradGradGradGrad

                          Input orientation:                          
 ---------------------------------------------------------------------
 Center     Atomic      Atomic             Coordinates (Angstroms)
 Number     Number       Type             X           Y           Z
 ---------------------------------------------------------------------
      1          6           0       -3.913850    0.336640   -0.335650
      2          6           0       -2.493900    0.101730   -0.114190
      3          6           0       -2.381360   -1.342070   -0.006050
      4          6           0       -4.590220   -0.944380   -0.206440
      5          6           0       -3.688350   -1.921620   -0.059790
      6          6           0       -5.979050   -1.213690    0.031000
      7          6           0       -6.392240   -2.625300    0.190000
      8          6           0       -5.461500   -3.616630    0.293330
      9          6           0       -4.027040   -3.285780    0.244970
     10          6           0       -1.295530   -2.077940    0.266680
     11          6           0       -1.570540   -3.518470    0.446330
     12          6           0       -2.956250   -4.086990    0.471170
     13          6           0       -4.717560    1.585360   -0.160460
     14          6           0       -6.202580    1.246010    0.099060
     15          6           0       -6.752030   -0.118590    0.161170
     16          6           0       -1.435890    0.904380    0.077170
     17          6           0       -0.106780    0.187700    0.177940
     18          6           0       -0.069550   -1.288600    0.363730
     19          6           0       -1.536750    2.380980    0.058130
     20          6           0       -0.265930    3.092560   -0.285130
     21          6           0        0.981460    2.329290   -0.257580
     22          6           0        1.026900    0.904460    0.034720
     23          6           0       -2.681850    3.080290    0.336560
     24          6           0       -2.702420    4.533100    0.030710
     25          6           0       -1.501590    5.143870   -0.523300
     26          6           0       -0.260660    4.407930   -0.572480
     27          6           0       -3.802570    5.287110    0.199450
     28          6           0       -5.000700    4.794940    0.823380
     29          6           0       -4.882940    3.522590    1.590560
     30          6           0       -3.988770    2.463890    0.908410
     31          1           0       -4.711180    2.120830   -1.120500
     32          1           0       -7.816060   -0.207650    0.359600
     33          1           0       -7.452150   -2.847940    0.248660
     34          1           0       -5.753720   -4.651360    0.431700
     35          1           0       -3.063500   -5.136660    0.720230
     36          1           0       -0.743290   -4.182930    0.668760
     37          1           0        0.874620   -1.793160    0.525890
     38          1           0        2.006330    0.439290    0.076750
     39          1           0        1.920980    2.833630   -0.456910
     40          1           0        0.645780    4.950270   -0.816230
     41          1           0       -1.501160    6.182590   -0.832890
     42          1           0       -3.811680    6.336700   -0.084740
     43          1           0       -5.814060    5.483280    1.022000
     44          1           0       -4.456390    3.770250    2.573170
     45          1           0       -3.694840    1.801700    1.739210
     46          1           0       -6.924160    2.057320    0.074870
     47          1           0       -5.880100    3.131040    1.810230
 ---------------------------------------------------------------------
                    Distance matrix (angstroms):
                    1          2          3          4          5
     1  C    0.000000
     2  C    1.456189   0.000000
     3  C    2.296787   1.452211   0.000000
     4  C    1.454367   2.344656   2.253303   0.000000
     5  C    2.286195   2.350237   1.430730   1.337862   0.000000
     6  C    2.608257   3.727959   3.600170   1.434488   2.399315
     7  C    3.897668   4.767209   4.215717   2.495983   2.805099
     8  C    4.291757   4.774822   3.840640   2.854789   2.478268
     9  C    3.670403   3.735604   2.559157   2.450122   1.438236
    10  C    3.612284   2.516369   1.339744   3.516217   2.420043
    11  C    4.578697   3.777913   2.366177   4.021258   2.700223
    12  C    4.597440   4.254620   2.844789   3.606246   2.346639
    13  C    1.495307   2.673567   3.748536   2.533360   3.656271
    14  C    2.500842   3.887050   4.616376   2.736941   4.047279
    15  C    2.917076   4.272708   4.541764   2.343179   3.561724
    16  C    2.575468   1.341734   2.438724   3.667171   3.616436
    17  C    3.844443   2.406465   2.747319   4.640106   4.163339
    18  C    4.231924   2.835295   2.341807   4.569468   3.698080
    19  C    3.159904   2.478066   3.818192   4.522355   4.812032
    20  C    4.572195   3.733381   4.921267   5.916296   6.075009
    21  C    5.285907   4.130461   4.985049   6.462441   6.317949
    22  C    4.987044   3.614219   4.082254   5.918480   5.498113
    23  C    3.081770   3.018331   4.445778   4.487170   5.117542
    24  C    4.383156   4.438639   5.884051   5.798518   6.530211
    25  C    5.381791   5.155116   6.565741   6.834239   7.410662
    26  C    5.475152   4.872448   6.154731   6.893932   7.216309
    27  C    4.980549   5.357159   6.782927   6.294172   7.214294
    28  C    4.732973   5.402713   6.723971   5.845410   6.900321
    29  C    3.847038   4.507324   5.698419   4.823766   5.812927
    30  C    2.465460   2.976600   4.231470   3.636061   4.501151
    31  H    2.105958   3.163188   4.319923   3.200883   4.302637
    32  H    4.000858   5.352157   5.563863   3.356965   4.489050
    33  H    4.796096   5.780697   5.295794   3.467175   3.888367
    34  H    5.371600   5.789325   4.745086   3.937341   3.458149
    35  H    5.638705   5.334926   3.923227   4.556841   3.366801
    36  H    5.611399   4.694247   3.348003   5.104219   3.783872
    37  H    5.311096   3.917555   3.329842   5.578639   4.602197
    38  H    5.935414   4.516910   4.736235   6.746052   6.166192
    39  H    6.347827   5.203066   6.012477   7.532053   7.364421
    40  H    6.504365   5.818831   7.029474   7.907872   8.159642
    41  H    6.343773   6.203138   7.620953   7.792845   8.429692
    42  H    6.006173   6.372775   7.811243   7.323596   8.259279
    43  H    5.651718   6.424599   7.708808   6.657452   7.779554
    44  H    4.532688   4.952909   6.090480   5.474658   6.318208
    45  H    2.549394   2.786978   3.828113   3.482559   4.135161
    46  H    3.491595   4.846368   5.674454   3.812691   5.130357
    47  H    4.034800   4.934213   5.962279   4.726499   5.816366
                    6          7          8          9         10
     6  C    0.000000
     7  C    1.479409   0.000000
     8  C    2.472002   1.363704   0.000000
     9  C    2.854765   2.456303   1.472914   0.000000
    10  C    4.768420   5.126591   4.441124   2.986720   0.000000
    11  C    4.991941   4.910422   3.895204   2.475698   1.477508
    12  C    4.193676   3.744546   2.555219   1.356354   2.614592
    13  C    3.076149   4.545001   5.274474   4.936517   5.031153
    14  C    2.470774   3.877020   4.922622   5.029054   5.929239
    15  C    1.346732   2.532563   3.730847   4.178957   5.798584
    16  C    5.012849   6.085785   6.057375   4.929468   2.991630
    17  C    6.038960   6.886227   6.569571   5.238129   2.560103
    18  C    5.919334   6.464778   5.873483   4.434474   1.461336
    19  C    5.714579   6.975386   7.171493   6.192626   4.470307
    20  C    7.161248   8.393530   8.505398   7.423623   5.300815
    21  C    7.815669   8.894928   8.784600   7.540997   4.988307
    22  C    7.319147   8.217479   7.912425   6.568457   3.787109
    23  C    5.422468   6.807513   7.251004   6.507286   5.341732
    24  C    6.615278   8.054988   8.608112   7.933184   6.763200
    25  C    7.795734   9.208000   9.648530   8.833297   7.267810
    26  C    8.041566   9.361836   9.601663   8.605058   6.621303
    27  C    6.857539   8.325426   9.057453   8.575949   7.780343
    28  C    6.139110   7.576115   8.440841   8.159694   7.827814
    29  C    5.105490   6.483526   7.279148   6.992645   6.781453
    30  C    4.272664   5.673855   6.286492   5.787946   5.319171
    31  H    3.748662   5.202800   5.956538   5.618184   5.587540
    32  H    2.120071   2.810882   4.143608   4.883103   6.784094
    33  H    2.210921   1.084628   2.134377   3.452984   6.204611
    34  H    3.468272   2.138000   1.084069   2.209321   5.150260
    35  H    4.936108   4.203401   2.871087   2.140102   3.561909
    36  H    6.052793   5.879291   4.766880   3.430378   2.213057
    37  H    6.895904   7.322058   6.597389   5.131579   2.204051
    38  H    8.154798   8.940946   8.500934   7.092672   4.156296
    39  H    8.889844   9.966345   9.832076   8.562637   5.915491
    40  H    9.088486  10.389200  10.579308   9.528584   7.371371
    41  H    8.689233  10.126593  10.629082   9.858594   8.335928
    42  H    7.856162   9.330178  10.096218   9.630535   8.789805
    43  H    6.771906   8.171633   9.135843   8.982963   8.840796
    44  H    5.798343   7.094369   7.795762   7.442608   7.036495
    45  H    4.150684   5.410577   5.879622   5.312774   4.793395
    46  H    3.405094   4.714141   5.863515   6.080375   6.987034
    47  H    4.695969   6.001907   6.928727   6.859989   7.108748
                   11         12         13         14         15
    11  C    0.000000
    12  C    1.498007   0.000000
    13  C    6.026691   5.973000   0.000000
    14  C    6.654071   6.254439   1.545249   0.000000
    15  C    6.203897   5.500204   2.673193   1.472374   0.000000
    16  C    4.440272   5.232638   3.359994   4.778967   5.414321
    17  C    3.993785   5.145720   4.829830   6.187489   6.652326
    18  C    2.689259   4.021886   5.489847   6.641412   6.787156
    19  C    5.912305   6.634773   3.286084   4.802062   5.784256
    20  C    6.778109   7.704268   4.701511   6.229058   7.251218
    21  C    6.419072   7.563418   5.748190   7.274003   8.122459
    22  C    5.145719   6.400824   5.787965   7.237830   7.846934
    23  C    6.692585   7.173794   2.574094   3.977000   5.179764
    24  C    8.141356   8.635067   3.575822   4.802161   6.168840
    25  C    8.716712   9.397541   4.810105   6.138400   7.465193
    26  C    8.098245   8.973242   5.291561   6.764253   7.947673
    27  C    9.087417   9.416148   3.830104   4.701129   6.158114
    28  C    9.001164   9.120993   3.368904   3.816289   5.258180
    29  C    7.864972   7.929116   2.616540   3.024705   4.335302
    30  C    6.469156   6.646150   1.563788   2.653155   3.855279
    31  H    6.642310   6.644563   1.099293   2.115871   3.289795
    32  H    7.069340   6.219283   3.617465   2.187310   1.086032
    33  H    5.923008   4.668819   5.224893   4.283017   2.819073
    34  H    4.333895   2.854104   6.349879   5.923774   4.649281
    35  H    2.218668   1.084131   6.978329   7.139899   6.252906
    36  H    1.084124   2.223834   7.053765   7.720220   7.271964
    37  H    2.993632   4.465447   6.569471   7.713981   7.816841
    38  H    5.347378   6.728297   6.824987   8.248485   8.776516
    39  H    7.304501   8.517258   6.761381   8.295895   9.182523
    40  H    8.844529   9.813465   6.365381   7.839600   9.020878
    41  H    9.785284  10.453809   5.650833   6.880531   8.262243
    42  H   10.120727  10.473496   4.837518   5.627194   7.097669
    43  H    9.968468  10.003028   4.218330   4.353989   5.744716
    44  H    8.122624   8.270734   3.509229   3.942358   5.119647
    45  H    5.872682   6.068782   2.168295   3.047564   3.940068
    46  H    7.738777   7.324883   2.268746   1.086042   2.184413
    47  H    8.040430   7.902021   2.761204   2.566210   3.746966
                   16         17         18         19         20
    16  C    0.000000
    17  C    1.513380   0.000000
    18  C    2.599647   1.488410   0.000000
    19  C    1.480163   2.621001   3.963822   0.000000
    20  C    2.507628   2.945840   4.433300   1.496381   0.000000
    21  C    2.825952   2.441383   3.818347   2.538450   1.462642
    22  C    2.463156   1.348884   2.473856   2.958540   2.561542
    23  C    2.520770   3.875980   5.090388   1.370333   2.494658
    24  C    3.843679   5.063746   6.398054   2.447684   2.848051
    25  C    4.282307   5.196235   6.649378   2.823625   2.406544
    26  C    3.752076   4.289190   5.776112   2.476813   1.346401
    27  C    4.982414   6.297881   7.563226   3.687750   4.190309
    28  C    5.329274   6.752311   7.844551   4.290893   5.152178
    29  C    4.585578   5.994055   6.915301   3.853388   5.001992
    30  C    3.104872   4.558999   5.453269   2.596585   3.959710
    31  H    3.693466   5.159790   5.947426   3.396153   4.626267
    32  H    6.482511   7.721548   7.821566   6.798649   8.265079
    33  H    7.092581   7.948243   7.546361   7.897459   9.338963
    34  H    7.045253   7.441023   6.604738   8.208300   9.518297
    35  H    6.289420   6.114334   4.888598   7.699627   8.749698
    36  H    5.168210   4.443923   2.987326   6.639831   7.353267
    37  H    3.580018   2.237861   1.082744   4.843237   5.082211
    38  H    3.473498   2.130439   2.716107   4.040287   3.511974
    39  H    3.908430   3.393492   4.650639   3.525061   2.208875
    40  H    4.636889   4.923088   6.389640   3.482699   2.136438
    41  H    5.356489   6.237370   7.700655   3.904795   3.372554
    42  H    5.931332   7.183696   8.505872   4.565462   4.810088
    43  H    6.405264   7.831261   8.904554   5.371098   6.181090
    44  H    4.854549   6.122981   7.051096   4.096315   5.117528
    45  H    2.944557   4.232816   4.958289   2.796238   4.185892
    46  H    5.608064   7.069850   7.633105   5.397149   6.747840
    47  H    5.264268   6.682727   7.442316   4.743114   5.992572
                   21         22         23         24         25
    21  C    0.000000
    22  C    1.455213   0.000000
    23  C    3.786402   4.310472   0.000000
    24  C    4.302425   5.203352   1.484798   0.000000
    25  C    3.762712   4.967620   2.527990   1.456695   0.000000
    26  C    2.441878   3.781640   2.907085   2.518273   1.443584
    27  C    5.643095   6.523690   2.478884   1.344371   2.416070
    28  C    6.560041   7.217325   2.924737   2.445195   3.765511
    29  C    6.263447   6.648417   2.571564   2.865123   4.304704
    30  C    5.106940   5.324669   1.554027   2.589727   3.926595
    31  H    5.761444   5.978265   2.676148   3.343568   4.449369
    32  H    9.176782   8.918536   6.096818   6.980845   8.324110
    33  H    9.908873   9.274727   7.609691   8.779931   9.993704
    34  H    9.724568   8.775052   8.320087   9.686358  10.720968
    35  H    8.547410   7.327785   8.234751   9.701035  10.472594
    36  H    6.800138   5.423755   7.524808   8.956254   9.433198
    37  H    4.197599   2.746196   6.036128   7.284366   7.407399
    38  H    2.175830   1.085096   5.387153   6.239690   5.899037
    39  H    1.084799   2.182379   4.677230   4.949929   4.129843
    40  H    2.700797   4.151861   3.987339   3.478761   2.175888
    41  H    4.619773   5.916290   3.519362   2.215773   1.083875
    42  H    6.250072   7.275669   3.472494   2.120556   2.636607
    43  H    7.600268   8.290902   4.006860   3.401147   4.593533
    44  H    6.297597   6.687522   2.937254   3.181580   4.495086
    45  H    5.112074   5.099525   2.151364   3.371115   4.593408
    46  H    7.917280   8.034305   4.371744   4.894336   6.268083
    47  H    7.211078   7.471060   3.521801   3.902578   5.354269
                   26         27         28         29         30
    26  C    0.000000
    27  C    3.730142   0.000000
    28  C    4.956428   1.437719   0.000000
    29  C    5.179579   2.493174   1.490405   0.000000
    30  C    4.457705   2.916825   2.542642   1.544576   0.000000
    31  H    5.033714   3.548686   3.318638   3.056841   2.180835
    32  H    8.902608   6.806331   5.759102   4.902361   4.699624
    33  H   10.248875   8.916327   8.046957   6.998942   6.375407
    34  H   10.642031  10.130850   9.484357   8.301486   7.346365
    35  H   10.031262  10.462907  10.119292   8.891032   7.658975
    36  H    8.693474   9.962987   9.937384   8.795536   7.400729
    37  H    6.399125   8.491931   8.832381   7.908237   6.474671
    38  H    4.616367   7.567016   8.284178   7.698078   6.382154
    39  H    2.692829   6.261741   7.307225   7.138636   6.076673
    40  H    1.084057   4.575247   5.881767   6.196584   5.534937
    41  H    2.180842   2.676583   4.112856   4.938132   4.800944
    42  H    4.070355   1.087422   2.148366   3.445786   4.002045
    43  H    5.876989   2.182009   1.083889   2.243780   3.530057
    44  H    5.282604   2.891866   2.099530   1.099456   2.167180
    45  H    4.891824   3.811896   3.391681   2.096459   1.102324
    46  H    7.095538   4.493483   3.428488   2.934435   3.078409
    47  H    6.235853   3.399909   2.125037   1.093570   2.198976
                   31         32         33         34         35
    31  H    0.000000
    32  H    4.153648   0.000000
    33  H    5.837482   2.667559   0.000000
    34  H    7.025580   4.899490   2.484047   0.000000
    35  H    7.666440   6.856531   4.972008   2.748827   0.000000
    36  H    7.660483   8.119268   6.853283   5.037860   2.509108
    37  H    7.016486   8.835690   8.397888   7.218938   5.169676
    38  H    7.027512   9.847735  10.014903   9.287577   7.563628
    39  H    6.703281  10.233573  10.983334  10.757124   9.473976
    40  H    6.065916   9.979451  11.292588  11.606129  10.856594
    41  H    5.185060   9.062845  10.868970  11.707174  11.531631
    42  H    4.433448   7.685116   9.885433  11.170304  11.525873
    43  H    4.136752   6.069058   8.525879  10.151996  10.974506
    44  H    4.053234   5.657823   7.627474   8.785925   9.203617
    45  H    3.051677   4.788034   6.161028   6.898591   7.041147
    46  H    2.515994   2.450846   4.936654   6.819358   8.189904
    47  H    3.313016   4.122999   6.376366   7.904560   8.802057
                   36         37         38         39         40
    36  H    0.000000
    37  H    2.889471   0.000000
    38  H    5.410712   2.542897   0.000000
    39  H    7.589307   4.844373   2.454576   0.000000
    40  H    9.356819   6.879499   4.795566   2.497080   0.000000
    41  H   10.501111   8.432271   6.790834   4.802909   2.475529
    42  H   10.983870   9.403664   8.285817   6.728551   4.725062
    43  H   10.921223   9.896017   9.353814   8.308951   6.737412
    44  H    8.981479   7.972613   7.687272   7.122464   6.237998
    45  H    6.758203   5.939287   6.092887   6.117619   5.940097
    46  H    8.803214   8.709224   9.075884   8.895052   8.152743
    47  H    9.010212   8.457158   8.511536   8.129282   7.266017
                   41         42         43         44         45
    41  H    0.000000
    42  H    2.433512   0.000000
    43  H    4.746658   2.441869   0.000000
    44  H    5.114099   3.750574   2.680274   0.000000
    45  H    5.533546   4.889445   4.308076   2.269501   0.000000
    46  H    6.873922   5.293968   3.723786   3.907112   3.641961
    47  H    5.955935   4.259757   2.481673   1.737129   2.558818
                   46         47
    46  H    0.000000
    47  H    2.292250   0.000000
 Stoichiometry    C30H17(2)
 Framework group  C1[X(C30H17)]
 Deg. of freedom   135
 Full point group                 C1      NOp   1
 Largest Abelian subgroup         C1      NOp   1
 Largest concise Abelian subgroup C1      NOp   1
                         Standard orientation:                         
 ---------------------------------------------------------------------
 Center     Atomic      Atomic             Coordinates (Angstroms)
 Number     Number       Type             X           Y           Z
 ---------------------------------------------------------------------
      1          6           0        0.635666   -0.733194   -0.565007
      2          6           0        0.433085    0.673366   -0.247147
      3          6           0        1.776522    1.213386   -0.135469
      4          6           0        2.064316   -0.993791   -0.486072
      5          6           0        2.724424    0.151573   -0.280467
      6          6           0        2.748466   -2.246744   -0.345356
      7          6           0        4.222212   -2.219383   -0.218974
      8          6           0        4.885947   -1.039493   -0.054642
      9          6           0        4.133769    0.225846   -0.003422
     10          6           0        2.153808    2.451837    0.209216
     11          6           0        3.613591    2.617981    0.365614
     12          6           0        4.576761    1.472927    0.293631
     13          6           0       -0.305260   -1.888825   -0.442049
     14          6           0        0.475349   -3.213259   -0.286105
     15          6           0        1.943452   -3.323443   -0.265618
     16          6           0       -0.648396    1.421700    0.018647
     17          6           0       -0.367368    2.896583    0.208547
     18          6           0        1.031738    3.369930    0.392427
     19          6           0       -2.024526    0.877025   -0.003250
     20          6           0       -3.096526    1.889877   -0.256437
     21          6           0       -2.748013    3.306039   -0.145326
     22          6           0       -1.397916    3.764617    0.145517
     23          6           0       -2.336007   -0.442214    0.197748
     24          6           0       -3.720629   -0.884813   -0.104827
     25          6           0       -4.680307    0.105876   -0.573350
     26          6           0       -4.357666    1.512527   -0.539156
     27          6           0       -4.100450   -2.170925   -0.010022
     28          6           0       -3.252903   -3.199715    0.528765
     29          6           0       -2.058832   -2.749575    1.298749
     30          6           0       -1.338307   -1.533149    0.676764
     31          1           0       -0.839782   -1.983943   -1.397917
     32          1           0        2.356304   -4.320184   -0.141011
     33          1           0        4.757746   -3.162463   -0.233888
     34          1           0        5.963499   -1.010722    0.060499
     35          1           0        5.614935    1.674862    0.531869
     36          1           0        4.000264    3.592208    0.642546
     37          1           0        1.229169    4.410414    0.617701
     38          1           0       -1.251543    4.834362    0.253476
     39          1           0       -3.518565    4.057948   -0.278253
     40          1           0       -5.155402    2.224291   -0.718568
     41          1           0       -5.677014   -0.190313   -0.879344
     42          1           0       -5.104013   -2.481133   -0.291301
     43          1           0       -3.656631   -4.195227    0.672906
     44          1           0       -2.401210   -2.483232    2.309017
     45          1           0       -0.777401   -1.105694    1.523987
     46          1           0       -0.078634   -4.144644   -0.357605
     47          1           0       -1.377707   -3.591948    1.448315
 ---------------------------------------------------------------------
 Rotational constants (GHZ):           0.2722115           0.1567136           0.1024297
 Standard basis: 6-311+G(d,p) (5D, 7F)
 There are   792 symmetry adapted cartesian basis functions of A   symmetry.
 There are   762 symmetry adapted basis functions of A   symmetry.
   762 basis functions,  1216 primitive gaussians,   792 cartesian basis functions
    99 alpha electrons       98 beta electrons
       nuclear repulsion energy      2643.5392304827 Hartrees.
 NAtoms=   47 NActive=   47 NUniq=   47 SFac= 1.00D+00 NAtFMM=   60 NAOKFM=F Big=F
 Integral buffers will be    131072 words long.
 Raffenetti 2 integral format.
 Two-electron integral symmetry is turned on.
 One-electron integrals computed using PRISM.
 NBasis=   762 RedAO= T EigKep=  1.12D-06  NBF=   762
 NBsUse=   744 1.00D-06 EigRej=  7.31D-07 NBFU=   744
 ExpMin= 4.38D-02 ExpMax= 4.56D+03 ExpMxC= 6.82D+02 IAcc=2 IRadAn=         4 AccDes= 0.00D+00
 Harris functional with IExCor=  402 and IRadAn=       4 diagonalized for initial guess.
 HarFok:  IExCor=  402 AccDes= 0.00D+00 IRadAn=         4 IDoV= 1 UseB2=F ITyADJ=14
 ICtDFT=  3500011 ScaDFX=  1.000000  1.000000  1.000000  1.000000
 FoFCou: FMM=F IPFlag=           0 FMFlag=      100000 FMFlg1=           0
         NFxFlg=           0 DoJE=T BraDBF=F KetDBF=T FulRan=T
         wScrn=  0.000000 ICntrl=       500 IOpCl=  0 I1Cent=   200000004 NGrid=           0
         NMat0=    1 NMatS0=      1 NMatT0=    0 NMatD0=    1 NMtDS0=    0 NMtDT0=    0
 Petite list used in FoFCou.
 Initial guess <Sx>= 0.0000 <Sy>= 0.0000 <Sz>= 0.5000 <S**2>= 0.7500 S= 0.5000
 Requested convergence on RMS density matrix=1.00D-08 within 128 cycles.
 Requested convergence on MAX density matrix=1.00D-06.
 Requested convergence on             energy=1.00D-06.
 No special actions if energy rises.
 Restarting incremental Fock formation.
 SCF Done:  E(UB3LYP) =  -1153.56915235     A.U. after   31 cycles
            NFock= 31  Conv=0.48D-08     -V/T= 2.0052
 <Sx>= 0.0000 <Sy>= 0.0000 <Sz>= 0.5000 <S**2>= 0.8449 S= 0.5464
 <L.S>=  0.00000000000    
 Annihilation of the first spin contaminant:
 S**2 before annihilation     0.8449,   after     0.7569

 **********************************************************************

            Population analysis using the SCF Density.

 **********************************************************************

 Orbital symmetries:
 Alpha Orbitals:
       Occupied  (A) (A) (A) (A) (A) (A) (A) (A) (A) (A) (A) (A)
                 (A) (A) (A) (A) (A) (A) (A) (A) (A) (A) (A) (A)
                 (A) (A) (A) (A) (A) (A) (A) (A) (A) (A) (A) (A)
                 (A) (A) (A) (A) (A) (A) (A) (A) (A) (A) (A) (A)
                 (A) (A) (A) (A) (A) (A) (A) (A) (A) (A) (A) (A)
                 (A) (A) (A) (A) (A) (A) (A) (A) (A) (A) (A) (A)
                 (A) (A) (A) (A) (A) (A) (A) (A) (A) (A) (A) (A)
                 (A) (A) (A) (A) (A) (A) (A) (A) (A) (A) (A) (A)
                 (A) (A) (A)
       Virtual   (A) (A) (A) (A) (A) (A) (A) (A) (A) (A) (A) (A)
                 (A) (A) (A) (A) (A) (A) (A) (A) (A) (A) (A) (A)
                 (A) (A) (A) (A) (A) (A) (A) (A) (A) (A) (A) (A)
                 (A) (A) (A) (A) (A) (A) (A) (A) (A) (A) (A) (A)
                 (A) (A) (A) (A) (A) (A) (A) (A) (A) (A) (A) (A)
                 (A) (A) (A) (A) (A) (A) (A) (A) (A) (A) (A) (A)
                 (A) (A) (A) (A) (A) (A) (A) (A) (A) (A) (A) (A)
                 (A) (A) (A) (A) (A) (A) (A) (A) (A) (A) (A) (A)
                 (A) (A) (A) (A) (A) (A) (A) (A) (A) (A) (A) (A)
                 (A) (A) (A) (A) (A) (A) (A) (A) (A) (A) (A) (A)
                 (A) (A) (A) (A) (A) (A) (A) (A) (A) (A) (A) (A)
                 (A) (A) (A) (A) (A) (A) (A) (A) (A) (A) (A) (A)
                 (A) (A) (A) (A) (A) (A) (A) (A) (A) (A) (A) (A)
                 (A) (A) (A) (A) (A) (A) (A) (A) (A) (A) (A) (A)
                 (A) (A) (A) (A) (A) (A) (A) (A) (A) (A) (A) (A)
                 (A) (A) (A) (A) (A) (A) (A) (A) (A) (A) (A) (A)
                 (A) (A) (A) (A) (A) (A) (A) (A) (A) (A) (A) (A)
                 (A) (A) (A) (A) (A) (A) (A) (A) (A) (A) (A) (A)
                 (A) (A) (A) (A) (A) (A) (A) (A) (A) (A) (A) (A)
                 (A) (A) (A) (A) (A) (A) (A) (A) (A) (A) (A) (A)
                 (A) (A) (A) (A) (A) (A) (A) (A) (A) (A) (A) (A)
                 (A) (A) (A) (A) (A) (A) (A) (A) (A) (A) (A) (A)
                 (A) (A) (A) (A) (A) (A) (A) (A) (A) (A) (A) (A)
                 (A) (A) (A) (A) (A) (A) (A) (A) (A) (A) (A) (A)
                 (A) (A) (A) (A) (A) (A) (A) (A) (A) (A) (A) (A)
                 (A) (A) (A) (A) (A) (A) (A) (A) (A) (A) (A) (A)
                 (A) (A) (A) (A) (A) (A) (A) (A) (A) (A) (A) (A)
                 (A) (A) (A) (A) (A) (A) (A) (A) (A) (A) (A) (A)
                 (A) (A) (A) (A) (A) (A) (A) (A) (A) (A) (A) (A)
                 (A) (A) (A) (A) (A) (A) (A) (A) (A) (A) (A) (A)
                 (A) (A) (A) (A) (A) (A) (A) (A) (A) (A) (A) (A)
                 (A) (A) (A) (A) (A) (A) (A) (A) (A) (A) (A) (A)
                 (A) (A) (A) (A) (A) (A) (A) (A) (A) (A) (A) (A)
                 (A) (A) (A) (A) (A) (A) (A) (A) (A) (A) (A) (A)
                 (A) (A) (A) (A) (A) (A) (A) (A) (A) (A) (A) (A)
                 (A) (A) (A) (A) (A) (A) (A) (A) (A) (A) (A) (A)
                 (A) (A) (A) (A) (A) (A) (A) (A) (A) (A) (A) (A)
                 (A) (A) (A) (A) (A) (A) (A) (A) (A) (A) (A) (A)
                 (A) (A) (A) (A) (A) (A) (A) (A) (A) (A) (A) (A)
                 (A) (A) (A) (A) (A) (A) (A) (A) (A) (A) (A) (A)
                 (A) (A) (A) (A) (A) (A) (A) (A) (A) (A) (A) (A)
                 (A) (A) (A) (A) (A) (A) (A) (A) (A) (A) (A) (A)
                 (A) (A) (A) (A) (A) (A) (A) (A) (A) (A) (A) (A)
                 (A) (A) (A) (A) (A) (A) (A) (A) (A) (A) (A) (A)
                 (A) (A) (A) (A) (A) (A) (A) (A) (A) (A) (A) (A)
                 (A) (A) (A) (A) (A) (A) (A) (A) (A) (A) (A) (A)
                 (A) (A) (A) (A) (A) (A) (A) (A) (A) (A) (A) (A)
                 (A) (A) (A) (A) (A) (A) (A) (A) (A) (A) (A) (A)
                 (A) (A) (A) (A) (A) (A) (A) (A) (A) (A) (A) (A)
                 (A) (A) (A) (A) (A) (A) (A) (A) (A) (A) (A) (A)
                 (A) (A) (A) (A) (A) (A) (A) (A) (A) (A) (A) (A)
                 (A) (A) (A) (A) (A) (A) (A) (A) (A) (A) (A) (A)
                 (A) (A) (A) (A) (A) (A) (A) (A) (A) (A) (A) (A)
                 (A) (A) (A) (A) (A) (A) (A) (A) (A)
 Beta  Orbitals:
       Occupied  (A) (A) (A) (A) (A) (A) (A) (A) (A) (A) (A) (A)
                 (A) (A) (A) (A) (A) (A) (A) (A) (A) (A) (A) (A)
                 (A) (A) (A) (A) (A) (A) (A) (A) (A) (A) (A) (A)
                 (A) (A) (A) (A) (A) (A) (A) (A) (A) (A) (A) (A)
                 (A) (A) (A) (A) (A) (A) (A) (A) (A) (A) (A) (A)
                 (A) (A) (A) (A) (A) (A) (A) (A) (A) (A) (A) (A)
                 (A) (A) (A) (A) (A) (A) (A) (A) (A) (A) (A) (A)
                 (A) (A) (A) (A) (A) (A) (A) (A) (A) (A) (A) (A)
                 (A) (A)
       Virtual   (A) (A) (A) (A) (A) (A) (A) (A) (A) (A) (A) (A)
                 (A) (A) (A) (A) (A) (A) (A) (A) (A) (A) (A) (A)
                 (A) (A) (A) (A) (A) (A) (A) (A) (A) (A) (A) (A)
                 (A) (A) (A) (A) (A) (A) (A) (A) (A) (A) (A) (A)
                 (A) (A) (A) (A) (A) (A) (A) (A) (A) (A) (A) (A)
                 (A) (A) (A) (A) (A) (A) (A) (A) (A) (A) (A) (A)
                 (A) (A) (A) (A) (A) (A) (A) (A) (A) (A) (A) (A)
                 (A) (A) (A) (A) (A) (A) (A) (A) (A) (A) (A) (A)
                 (A) (A) (A) (A) (A) (A) (A) (A) (A) (A) (A) (A)
                 (A) (A) (A) (A) (A) (A) (A) (A) (A) (A) (A) (A)
                 (A) (A) (A) (A) (A) (A) (A) (A) (A) (A) (A) (A)
                 (A) (A) (A) (A) (A) (A) (A) (A) (A) (A) (A) (A)
                 (A) (A) (A) (A) (A) (A) (A) (A) (A) (A) (A) (A)
                 (A) (A) (A) (A) (A) (A) (A) (A) (A) (A) (A) (A)
                 (A) (A) (A) (A) (A) (A) (A) (A) (A) (A) (A) (A)
                 (A) (A) (A) (A) (A) (A) (A) (A) (A) (A) (A) (A)
                 (A) (A) (A) (A) (A) (A) (A) (A) (A) (A) (A) (A)
                 (A) (A) (A) (A) (A) (A) (A) (A) (A) (A) (A) (A)
                 (A) (A) (A) (A) (A) (A) (A) (A) (A) (A) (A) (A)
                 (A) (A) (A) (A) (A) (A) (A) (A) (A) (A) (A) (A)
                 (A) (A) (A) (A) (A) (A) (A) (A) (A) (A) (A) (A)
                 (A) (A) (A) (A) (A) (A) (A) (A) (A) (A) (A) (A)
                 (A) (A) (A) (A) (A) (A) (A) (A) (A) (A) (A) (A)
                 (A) (A) (A) (A) (A) (A) (A) (A) (A) (A) (A) (A)
                 (A) (A) (A) (A) (A) (A) (A) (A) (A) (A) (A) (A)
                 (A) (A) (A) (A) (A) (A) (A) (A) (A) (A) (A) (A)
                 (A) (A) (A) (A) (A) (A) (A) (A) (A) (A) (A) (A)
                 (A) (A) (A) (A) (A) (A) (A) (A) (A) (A) (A) (A)
                 (A) (A) (A) (A) (A) (A) (A) (A) (A) (A) (A) (A)
                 (A) (A) (A) (A) (A) (A) (A) (A) (A) (A) (A) (A)
                 (A) (A) (A) (A) (A) (A) (A) (A) (A) (A) (A) (A)
                 (A) (A) (A) (A) (A) (A) (A) (A) (A) (A) (A) (A)
                 (A) (A) (A) (A) (A) (A) (A) (A) (A) (A) (A) (A)
                 (A) (A) (A) (A) (A) (A) (A) (A) (A) (A) (A) (A)
                 (A) (A) (A) (A) (A) (A) (A) (A) (A) (A) (A) (A)
                 (A) (A) (A) (A) (A) (A) (A) (A) (A) (A) (A) (A)
                 (A) (A) (A) (A) (A) (A) (A) (A) (A) (A) (A) (A)
                 (A) (A) (A) (A) (A) (A) (A) (A) (A) (A) (A) (A)
                 (A) (A) (A) (A) (A) (A) (A) (A) (A) (A) (A) (A)
                 (A) (A) (A) (A) (A) (A) (A) (A) (A) (A) (A) (A)
                 (A) (A) (A) (A) (A) (A) (A) (A) (A) (A) (A) (A)
                 (A) (A) (A) (A) (A) (A) (A) (A) (A) (A) (A) (A)
                 (A) (A) (A) (A) (A) (A) (A) (A) (A) (A) (A) (A)
                 (A) (A) (A) (A) (A) (A) (A) (A) (A) (A) (A) (A)
                 (A) (A) (A) (A) (A) (A) (A) (A) (A) (A) (A) (A)
                 (A) (A) (A) (A) (A) (A) (A) (A) (A) (A) (A) (A)
                 (A) (A) (A) (A) (A) (A) (A) (A) (A) (A) (A) (A)
                 (A) (A) (A) (A) (A) (A) (A) (A) (A) (A) (A) (A)
                 (A) (A) (A) (A) (A) (A) (A) (A) (A) (A) (A) (A)
                 (A) (A) (A) (A) (A) (A) (A) (A) (A) (A) (A) (A)
                 (A) (A) (A) (A) (A) (A) (A) (A) (A) (A) (A) (A)
                 (A) (A) (A) (A) (A) (A) (A) (A) (A) (A) (A) (A)
                 (A) (A) (A) (A) (A) (A) (A) (A) (A) (A) (A) (A)
                 (A) (A) (A) (A) (A) (A) (A) (A) (A) (A)
 The electronic state is 2-A.
 Alpha  occ. eigenvalues --  -10.20222 -10.20175 -10.20162 -10.20157 -10.20140
 Alpha  occ. eigenvalues --  -10.20134 -10.20057 -10.20007 -10.20001 -10.19677
 Alpha  occ. eigenvalues --  -10.19513 -10.19486 -10.19340 -10.19307 -10.19295
 Alpha  occ. eigenvalues --  -10.19290 -10.19251 -10.19195 -10.19140 -10.19121
 Alpha  occ. eigenvalues --  -10.18933 -10.18801 -10.18522 -10.18346 -10.18107
 Alpha  occ. eigenvalues --  -10.18083 -10.18023 -10.17147 -10.16887 -10.16704
 Alpha  occ. eigenvalues --   -0.91601  -0.88492  -0.86539  -0.84605  -0.84087
 Alpha  occ. eigenvalues --   -0.81824  -0.80272  -0.79730  -0.78511  -0.76139
 Alpha  occ. eigenvalues --   -0.75434  -0.74499  -0.71912  -0.70299  -0.69650
 Alpha  occ. eigenvalues --   -0.66582  -0.66108  -0.63755  -0.62791  -0.61536
 Alpha  occ. eigenvalues --   -0.60328  -0.59948  -0.58167  -0.56100  -0.55291
 Alpha  occ. eigenvalues --   -0.53424  -0.52532  -0.51134  -0.50724  -0.49639
 Alpha  occ. eigenvalues --   -0.49325  -0.47696  -0.46719  -0.46130  -0.46073
 Alpha  occ. eigenvalues --   -0.44692  -0.44018  -0.43919  -0.43606  -0.42610
 Alpha  occ. eigenvalues --   -0.42351  -0.41993  -0.41717  -0.40480  -0.40066
 Alpha  occ. eigenvalues --   -0.39920  -0.39577  -0.39111  -0.38574  -0.38101
 Alpha  occ. eigenvalues --   -0.37027  -0.36816  -0.35767  -0.34908  -0.34609
 Alpha  occ. eigenvalues --   -0.33985  -0.33398  -0.33116  -0.32850  -0.31760
 Alpha  occ. eigenvalues --   -0.31313  -0.29956  -0.28327  -0.26458  -0.23752
 Alpha  occ. eigenvalues --   -0.22824  -0.21870  -0.19403  -0.17792
 Alpha virt. eigenvalues --   -0.09690  -0.07595  -0.04740  -0.03053  -0.01322
 Alpha virt. eigenvalues --   -0.00192   0.00536   0.00695   0.00896   0.01377
 Alpha virt. eigenvalues --    0.01667   0.01794   0.02327   0.02464   0.02881
 Alpha virt. eigenvalues --    0.02929   0.03156   0.03960   0.04329   0.04626
 Alpha virt. eigenvalues --    0.04806   0.05018   0.05355   0.05946   0.06552
 Alpha virt. eigenvalues --    0.06760   0.06974   0.07393   0.07608   0.07928
 Alpha virt. eigenvalues --    0.08455   0.08731   0.09032   0.09114   0.09695
 Alpha virt. eigenvalues --    0.09821   0.10291   0.10479   0.11134   0.11338
 Alpha virt. eigenvalues --    0.11624   0.11873   0.12190   0.12418   0.12742
 Alpha virt. eigenvalues --    0.13119   0.13416   0.14082   0.14124   0.14227
 Alpha virt. eigenvalues --    0.14676   0.14865   0.15233   0.15681   0.15884
 Alpha virt. eigenvalues --    0.16004   0.16177   0.16307   0.16606   0.16666
 Alpha virt. eigenvalues --    0.16857   0.16950   0.17148   0.17579   0.17682
 Alpha virt. eigenvalues --    0.17855   0.18064   0.18141   0.18321   0.18498
 Alpha virt. eigenvalues --    0.18598   0.18860   0.18886   0.19034   0.19597
 Alpha virt. eigenvalues --    0.19647   0.19793   0.20086   0.20241   0.20388
 Alpha virt. eigenvalues --    0.20876   0.21267   0.21384   0.21477   0.21896
 Alpha virt. eigenvalues --    0.21965   0.22162   0.22254   0.22452   0.22811
 Alpha virt. eigenvalues --    0.23060   0.23327   0.23493   0.23577   0.23907
 Alpha virt. eigenvalues --    0.24162   0.24237   0.24507   0.24746   0.24923
 Alpha virt. eigenvalues --    0.25088   0.25251   0.25495   0.25665   0.26032
 Alpha virt. eigenvalues --    0.26490   0.26740   0.26946   0.27369   0.27594
 Alpha virt. eigenvalues --    0.27625   0.27733   0.28056   0.28346   0.28651
 Alpha virt. eigenvalues --    0.28866   0.29344   0.29564   0.29885   0.30128
 Alpha virt. eigenvalues --    0.30430   0.30721   0.31046   0.31335   0.31386
 Alpha virt. eigenvalues --    0.31731   0.31804   0.32049   0.32865   0.33053
 Alpha virt. eigenvalues --    0.33309   0.33389   0.33587   0.34195   0.34317
 Alpha virt. eigenvalues --    0.34911   0.35179   0.35638   0.36037   0.36589
 Alpha virt. eigenvalues --    0.36791   0.37094   0.37372   0.37738   0.38042
 Alpha virt. eigenvalues --    0.38953   0.39079   0.39435   0.39882   0.40552
 Alpha virt. eigenvalues --    0.41410   0.41635   0.41871   0.42529   0.42857
 Alpha virt. eigenvalues --    0.43231   0.44236   0.44680   0.44792   0.45662
 Alpha virt. eigenvalues --    0.46443   0.46699   0.47933   0.48181   0.48534
 Alpha virt. eigenvalues --    0.49164   0.50193   0.50844   0.51412   0.51879
 Alpha virt. eigenvalues --    0.52237   0.52923   0.53403   0.54244   0.54350
 Alpha virt. eigenvalues --    0.54734   0.55305   0.55818   0.56012   0.56924
 Alpha virt. eigenvalues --    0.57071   0.57418   0.57811   0.58079   0.58755
 Alpha virt. eigenvalues --    0.58832   0.59484   0.59634   0.59785   0.60334
 Alpha virt. eigenvalues --    0.60470   0.60828   0.61343   0.61473   0.61701
 Alpha virt. eigenvalues --    0.62631   0.62767   0.63067   0.63722   0.64035
 Alpha virt. eigenvalues --    0.64291   0.64903   0.65185   0.65762   0.66187
 Alpha virt. eigenvalues --    0.66794   0.67416   0.67900   0.68136   0.68420
 Alpha virt. eigenvalues --    0.68936   0.69377   0.69613   0.69877   0.70092
 Alpha virt. eigenvalues --    0.70787   0.70888   0.71099   0.71184   0.71817
 Alpha virt. eigenvalues --    0.72210   0.72598   0.72814   0.73049   0.73137
 Alpha virt. eigenvalues --    0.73598   0.73874   0.74582   0.74931   0.75145
 Alpha virt. eigenvalues --    0.76021   0.76184   0.76651   0.76918   0.77171
 Alpha virt. eigenvalues --    0.77694   0.77893   0.79220   0.79621   0.79825
 Alpha virt. eigenvalues --    0.80195   0.80463   0.81620   0.82304   0.82771
 Alpha virt. eigenvalues --    0.83221   0.83921   0.84634   0.84786   0.85169
 Alpha virt. eigenvalues --    0.86277   0.87267   0.87456   0.88018   0.88602
 Alpha virt. eigenvalues --    0.88643   0.89183   0.89428   0.90143   0.90548
 Alpha virt. eigenvalues --    0.91497   0.92152   0.92663   0.93406   0.93553
 Alpha virt. eigenvalues --    0.93761   0.94090   0.94451   0.94772   0.95076
 Alpha virt. eigenvalues --    0.95843   0.96078   0.96421   0.96969   0.97378
 Alpha virt. eigenvalues --    0.97508   0.98802   0.99171   0.99862   1.00090
 Alpha virt. eigenvalues --    1.00841   1.01191   1.01409   1.02025   1.02634
 Alpha virt. eigenvalues --    1.03016   1.03086   1.04259   1.05169   1.05396
 Alpha virt. eigenvalues --    1.06247   1.06268   1.06603   1.06754   1.08081
 Alpha virt. eigenvalues --    1.09366   1.10406   1.10862   1.11170   1.11517
 Alpha virt. eigenvalues --    1.12781   1.13708   1.14350   1.15105   1.15847
 Alpha virt. eigenvalues --    1.15965   1.16866   1.18493   1.19796   1.20255
 Alpha virt. eigenvalues --    1.20572   1.21513   1.22545   1.23639   1.24354
 Alpha virt. eigenvalues --    1.25902   1.27573   1.28905   1.30231   1.31310
 Alpha virt. eigenvalues --    1.32574   1.33441   1.34031   1.34855   1.36099
 Alpha virt. eigenvalues --    1.39034   1.40050   1.40709   1.40927   1.41409
 Alpha virt. eigenvalues --    1.43852   1.44357   1.44865   1.45750   1.46211
 Alpha virt. eigenvalues --    1.46473   1.46939   1.48140   1.48386   1.48779
 Alpha virt. eigenvalues --    1.49286   1.49981   1.50900   1.51312   1.51571
 Alpha virt. eigenvalues --    1.52038   1.52361   1.52839   1.53899   1.54708
 Alpha virt. eigenvalues --    1.55718   1.56175   1.57110   1.57476   1.57832
 Alpha virt. eigenvalues --    1.58707   1.59393   1.59851   1.60426   1.61219
 Alpha virt. eigenvalues --    1.61834   1.62539   1.63499   1.63646   1.64913
 Alpha virt. eigenvalues --    1.65184   1.65453   1.66885   1.67033   1.67392
 Alpha virt. eigenvalues --    1.68239   1.69411   1.69779   1.70648   1.71883
 Alpha virt. eigenvalues --    1.72354   1.72712   1.73436   1.74140   1.74809
 Alpha virt. eigenvalues --    1.75892   1.76444   1.76735   1.77445   1.77840
 Alpha virt. eigenvalues --    1.78066   1.78860   1.80268   1.80596   1.81507
 Alpha virt. eigenvalues --    1.82251   1.82498   1.83470   1.84010   1.84584
 Alpha virt. eigenvalues --    1.84908   1.85376   1.85684   1.86003   1.86950
 Alpha virt. eigenvalues --    1.87567   1.88345   1.88887   1.89470   1.89846
 Alpha virt. eigenvalues --    1.90356   1.91035   1.91345   1.92624   1.92813
 Alpha virt. eigenvalues --    1.92991   1.93632   1.93958   1.94929   1.96198
 Alpha virt. eigenvalues --    1.96526   1.97481   1.98820   1.99786   2.00172
 Alpha virt. eigenvalues --    2.00822   2.01931   2.02334   2.02844   2.03398
 Alpha virt. eigenvalues --    2.03984   2.04495   2.04945   2.05915   2.07021
 Alpha virt. eigenvalues --    2.07684   2.08930   2.09810   2.11059   2.11517
 Alpha virt. eigenvalues --    2.11982   2.12918   2.13732   2.14600   2.15207
 Alpha virt. eigenvalues --    2.16052   2.16434   2.17358   2.18572   2.19874
 Alpha virt. eigenvalues --    2.20414   2.21860   2.21868   2.22786   2.23292
 Alpha virt. eigenvalues --    2.23818   2.24211   2.25094   2.26605   2.27600
 Alpha virt. eigenvalues --    2.28304   2.29790   2.31197   2.32230   2.32782
 Alpha virt. eigenvalues --    2.34664   2.35557   2.37081   2.38202   2.38486
 Alpha virt. eigenvalues --    2.39036   2.40844   2.42406   2.43133   2.43999
 Alpha virt. eigenvalues --    2.45365   2.46635   2.48500   2.48936   2.50556
 Alpha virt. eigenvalues --    2.52233   2.53013   2.54196   2.55180   2.55721
 Alpha virt. eigenvalues --    2.56488   2.57032   2.58848   2.59686   2.60895
 Alpha virt. eigenvalues --    2.61640   2.64452   2.65146   2.66354   2.66792
 Alpha virt. eigenvalues --    2.67512   2.68877   2.69536   2.70330   2.71263
 Alpha virt. eigenvalues --    2.72032   2.72314   2.72488   2.72982   2.73437
 Alpha virt. eigenvalues --    2.73806   2.74368   2.74870   2.75282   2.75597
 Alpha virt. eigenvalues --    2.75994   2.76337   2.76732   2.77413   2.77583
 Alpha virt. eigenvalues --    2.78030   2.78339   2.79104   2.79432   2.79831
 Alpha virt. eigenvalues --    2.80535   2.81063   2.82138   2.82887   2.84078
 Alpha virt. eigenvalues --    2.84388   2.84920   2.86311   2.87623   2.88147
 Alpha virt. eigenvalues --    2.88220   2.89560   2.90096   2.91433   2.92042
 Alpha virt. eigenvalues --    2.93019   2.95330   2.96191   2.98363   2.99615
 Alpha virt. eigenvalues --    3.01281   3.02122   3.03926   3.03969   3.04926
 Alpha virt. eigenvalues --    3.07049   3.08350   3.09205   3.09754   3.10254
 Alpha virt. eigenvalues --    3.11700   3.13669   3.14202   3.15290   3.16537
 Alpha virt. eigenvalues --    3.17758   3.17982   3.18750   3.20910   3.21012
 Alpha virt. eigenvalues --    3.23266   3.25587   3.26612   3.28379   3.30319
 Alpha virt. eigenvalues --    3.31837   3.34080   3.34897   3.35578   3.35976
 Alpha virt. eigenvalues --    3.36941   3.38335   3.40002   3.40196   3.43391
 Alpha virt. eigenvalues --    3.44224   3.45862   3.46558   3.47981   3.49378
 Alpha virt. eigenvalues --    3.50161   3.53139   3.54385   3.55830   3.63403
 Alpha virt. eigenvalues --    3.64632   3.65127   3.67156   3.71075   3.74872
 Alpha virt. eigenvalues --    3.77012   3.79859   3.85004   3.86850   3.92306
 Alpha virt. eigenvalues --    3.96795   4.00525   4.05116   4.05601   4.06843
 Alpha virt. eigenvalues --    4.07594   4.08300   4.09261   4.11312   4.15852
 Alpha virt. eigenvalues --    4.18948   4.24571   4.27466   4.31506   4.33547
 Alpha virt. eigenvalues --    4.41720   4.53746   4.63600   4.65906   4.68637
 Alpha virt. eigenvalues --    4.68770   4.73520   4.75181   4.76249   4.82081
 Alpha virt. eigenvalues --   23.43990  23.60679  23.71474  23.75071  23.76542
 Alpha virt. eigenvalues --   23.77760  23.78427  23.81558  23.83966  23.85694
 Alpha virt. eigenvalues --   23.86784  23.88500  23.89419  23.91282  23.92032
[...]
 2,0.00000014,-0.00000784,0.00000361,0.00001547,-0.00000099,0.00000951,
 0.00001746,-0.00000385,-0.00000173,0.00000660,0.00002499,0.00000218,-0
 .00008190,-0.00001603,-0.00010799,0.00012203,0.00065453,-0.00012582,0.
 10645936,-0.00107872,0.00019358,-0.00074252,0.00010331,0.00003518,0.00
 004662,0.00009185,-0.00009844,0.00001628,0.00025902,-0.00025810,0.0001
 0909,-0.00004906,-0.00002521,0.00007073,0.00001942,0.00003628,0.000024
 79,0.00002707,0.00007306,-0.00004313,0.00013613,-0.00003679,0.00000034
 ,-0.00009751,-0.00010906,0.00002198,0.00004165,0.00004533,0.00000201,-
 0.00000303,-0.00005861,0.00001314,0.00003641,0.00001530,0.00000077,0.0
 0324895,-0.00282160,-0.00191370,0.00059275,0.00015166,-0.00012968,-0.0
 0008119,-0.00001055,-0.00000584,-0.00007689,-0.00021948,-0.00003197,-0
 .00008766,-0.00001374,0.00007021,0.00003044,-0.00004954,-0.00000044,-0
 .00023112,0.00004744,-0.00044082,0.00003646,0.00031872,-0.00001211,0.0
 0013998,0.00003601,0.00003606,-0.00010678,0.00005669,-0.00001176,-0.00
 061849,-0.00004604,0.00033275,0.00177653,0.00057631,0.00076127,-0.0006
 4256,0.00008059,-0.00004304,0.00023650,-0.00021035,0.00004147,0.000763
 04,-0.00135496,0.00138490,0.01126360,0.00407206,0.02634579,-0.02638610
 ,-0.05520392,-0.04595259,-0.01023348,-0.00933225,-0.02017902,-0.000065
 53,-0.00004667,-0.00024509,-0.00002364,-0.00003233,-0.00001040,-0.0000
 0934,-0.00000207,0.00000075,0.00000538,-0.00000964,0.00000577,0.000006
 42,-0.00001119,-0.00000544,0.00000506,-0.00000398,-0.00000243,0.000005
 75,-0.00000041,-0.00000445,0.00000843,0.00000620,-0.00000782,-0.000008
 39,0.00000274,-0.00000477,-0.00002261,0.00000128,0.00001068,0.00005876
 ,0.00002452,-0.00002274,-0.00087566,-0.00096874,-0.00174266,0.00012126
 ,-0.00124326,-0.00045601,0.02816742,0.06919561,-0.00063816,-0.00012072
 ,-0.00045277,-0.00005983,0.00005277,0.00001286,0.00002497,-0.00009166,
 -0.00000532,0.00016772,-0.00015675,0.00004522,-0.00002496,-0.00006682,
 0.00002920,0.00004164,0.00006855,-0.00003499,-0.00000586,-0.00000585,-
 0.00001813,0.00004322,-0.00000392,-0.00000234,-0.00003340,-0.00005049,
 0.00001968,0.00001619,0.00001300,-0.00000058,-0.00000808,-0.00001106,0
 .00000353,0.00000176,0.00000129,0.00000479,0.00243977,-0.00151415,0.00
 059070,0.00054843,0.00011237,0.00007931,-0.00013374,-0.00002864,0.0000
 9954,0.00003616,-0.00004095,-0.00004424,-0.00000046,0.00009630,0.00000
 708,0.00000501,-0.00007373,0.00001561,-0.00004402,-0.00009125,-0.00012
 888,0.00020029,0.00002790,-0.00001553,-0.00002476,0.00006336,0.0000552
 8,-0.00000597,-0.00005432,0.00000706,-0.00025106,-0.00006349,-0.000146
 57,0.00042391,-0.00057529,-0.00034657,-0.00002355,-0.00000683,0.000065
 59,0.00004351,-0.00014772,-0.00003519,-0.00254017,0.00189737,0.0016831
 4,-0.00681053,0.00374487,-0.01887805,-0.09736305,-0.05309310,-0.220314
 01,-0.00669222,-0.00609822,-0.01412763,0.00003039,0.00022490,0.0001071
 9,-0.00001718,-0.00003024,0.00001136,-0.00000824,-0.00000504,-0.000002
 51,-0.00000056,-0.00000542,0.00000418,0.00000286,-0.00000935,-0.000003
 30,0.00000517,-0.00000425,-0.00000071,0.00000477,-0.00000238,-0.000002
 86,0.00000452,-0.00000457,-0.00001219,0.00000851,0.00000373,-0.0000144
 2,0.00001802,-0.00000107,-0.00000634,-0.00002282,-0.00001157,0.0000397
 7,0.00053771,0.00055227,0.00080554,-0.00011067,0.00052539,-0.00113169,
 0.10765796,0.05315710,0.24308004,0.00077005,0.00186897,0.00112620,-0.0
 0013430,0.00036721,0.00044458,0.00008877,0.00015611,-0.00015603,-0.000
 17039,-0.00041154,0.00007211,-0.00007191,-0.00002450,-0.00004823,0.000
 04279,0.00018319,-0.00003962,0.00001388,-0.00018652,0.00003030,-0.0000
 8762,0.00005410,0.00001280,0.00005898,0.00003681,-0.00002181,0.0000610
 6,-0.00003466,0.00003760,0.00000533,0.00001519,0.00000557,-0.00000816,
 -0.00003893,0.00002013,-0.00585763,0.00688011,-0.01527917,0.00107840,0
 .00093982,-0.00039954,-0.00020172,-0.00050179,0.00033222,0.00004173,-0
 .00033822,0.00037815,-0.00033931,0.00040670,-0.00017696,-0.00001765,-0
 .00020868,0.00001555,0.00075495,-0.00018824,0.00033817,0.00007812,-0.0
 0060274,-0.00044141,0.00013017,0.00000605,0.00005231,-0.00000043,0.000
 03267,-0.00000450,0.00413190,-0.01967478,0.02127427,-0.00439704,-0.000
 30993,0.00145095,0.00031343,-0.00105137,-0.00105327,-0.00037226,0.0000
 6258,0.00012286,0.00026967,0.00043335,0.00023591,-0.00194527,0.0010885
 1,0.00298030,-0.00557434,0.01490182,-0.01208836,-0.06527480,0.04717695
 ,-0.04990944,-0.00116808,-0.00160221,-0.00188267,-0.00001950,-0.000026
 49,0.00000965,-0.00000462,-0.00000442,-0.00001057,-0.00000451,-0.00000
 389,-0.00000310,-0.00000098,-0.00000226,-0.00000109,0.00000042,-0.0000
 0744,-0.00000051,0.00000333,-0.00000665,0.00001382,0.00001118,0.000014
 33,-0.00000124,0.00001625,-0.00000543,0.00000870,-0.00000247,0.0000495
 1,0.00010180,-0.00029168,-0.00021564,0.00006103,0.00006867,-0.00007087
 ,-0.00012373,-0.00000029,0.00077101,-0.00050837,0.00129270,-0.00061443
 ,-0.00011716,0.07687352,-0.00152133,-0.00002499,-0.00342781,0.00014011
 ,-0.00017308,0.00001093,0.00001010,-0.00037862,0.00000884,0.00002843,0
 .00040303,-0.00049267,0.00016696,0.00004530,0.00010510,-0.00024211,0.0
 0022794,0.00012235,0.00006497,-0.00012230,-0.00002582,-0.00012687,0.00
 003418,-0.00000378,0.00014175,-0.00001038,0.00003125,-0.00021745,-0.00
 008124,-0.00000388,0.00009867,0.00003724,-0.00001207,-0.00010087,0.000
 07157,-0.00002262,-0.00609045,0.00652613,-0.01483687,0.00130931,0.0008
 0098,-0.00030007,-0.00006392,-0.00038835,0.00029491,0.00021879,0.00092
 930,-0.00007930,0.00013740,-0.00010147,0.00005059,0.00010786,0.0002263
 4,-0.00002281,0.00096867,-0.00038290,-0.00118915,-0.00015786,0.0000063
 4,-0.00018678,0.00006087,-0.00001258,0.00000456,-0.00005185,0.00003537
 ,-0.00002661,-0.00029126,-0.00993657,0.00959858,-0.00110791,0.00065533
 ,0.00042174,-0.00041911,-0.00058450,-0.00003874,0.00030881,-0.00015686
 ,0.00009692,-0.00030961,0.00054892,-0.00002572,0.00356718,-0.00144407,
 -0.00299551,0.00757762,-0.01891370,0.01352535,0.04687623,-0.14821302,0
 .12217892,-0.00159960,-0.00146596,-0.00259025,0.00000902,-0.00001710,-
 0.00002243,0.00001029,0.00000677,0.00000185,0.00000308,0.00000130,0.00
 000094,0.00000244,0.00000162,-0.00000251,-0.00000199,0.00001049,-0.000
 00174,-0.00000466,0.00000730,-0.00000367,-0.00000627,0.00000853,0.0000
 0753,-0.00001298,-0.00000229,0.00001294,-0.00002996,0.00000747,0.00002
 901,-0.00016837,-0.00011353,-0.00006252,-0.00000255,0.00001490,0.00008
 323,0.00010036,-0.00082028,0.00084937,-0.00067411,0.00029769,0.0002744
 5,-0.04898750,0.17223393,-0.00130991,0.00101552,-0.00061124,-0.0004821
 6,-0.00017341,0.00004759,-0.00009465,-0.00057489,0.00023928,0.00017551
 ,-0.00037830,-0.00000393,0.00007597,0.00012546,-0.00013157,-0.00019716
 ,0.00070344,0.00001558,0.00012366,-0.00039728,0.00001818,-0.00020929,0
 .00013592,0.00001020,0.00025245,-0.00015979,0.00002521,-0.00027180,-0.
 00022516,-0.00002170,0.00014361,0.00015266,-0.00002655,-0.00024351,0.0
 0002271,-0.00001264,-0.00908791,0.00666429,-0.01973251,0.00148764,0.00
 046843,-0.00033530,-0.00044509,-0.00072708,0.00020552,0.00075650,0.000
 06756,-0.00022544,0.00002571,0.00003621,-0.00001792,0.00006709,0.00010
 352,0.00000204,-0.00053654,0.00066988,0.00105545,0.00025771,0.00038583
 ,0.00014027,-0.00007552,0.00003813,-0.00002104,0.00002318,-0.00000082,
 -0.00000532,-0.00245150,0.00935954,-0.00937801,0.00217564,0.00011347,-
 0.00080126,-0.00045420,0.00046927,0.00035366,0.00027809,-0.00021731,-0
 .00007086,0.00006406,-0.00034755,-0.00013936,0.00259051,-0.00180407,-0
 .00112266,0.00448028,-0.01361931,0.00894769,-0.04866968,0.12188190,-0.
 17697431,-0.00227397,-0.00232521,-0.00200556,-0.00000391,-0.00006495,-
 0.00000839,0.00000957,0.00000695,-0.00001300,0.00000235,-0.00000050,-0
 .00000420,0.00000101,0.00000502,0.00000648,-0.00000019,0.00000718,-0.0
 0000584,-0.00000235,0.00000696,-0.00000033,-0.00001087,-0.00000853,0.0
 0000386,-0.00000545,-0.00000679,-0.00000606,0.00000480,-0.00003450,-0.
 00003658,0.00015812,0.00007304,-0.00002108,-0.00007487,0.00003442,0.00
 005020,0.00025965,-0.00062882,0.00073965,0.00023725,-0.00026886,0.0017
 9217,0.05343545,-0.12115586,0.19798627,-0.00509040,-0.00340212,0.00108
 430,0.00007370,0.00134827,0.00034888,-0.00068996,-0.00000215,-0.000106
 80,0.00004951,-0.00023384,-0.00013918,0.00019309,0.00009470,-0.0000556
 9,-0.00067160,-0.00254094,0.00157897,0.00061997,-0.00038601,-0.0000562
 3,-0.00019149,-0.00012166,-0.00002274,0.00012465,0.00001088,-0.0000081
 8,0.00002964,0.00001234,-0.00007409,0.00002575,0.00008112,-0.00001468,
 -0.00010498,0.00003881,-0.00001275,-0.01419590,0.02275017,0.00167060,-
 0.15666276,0.13615093,0.01829090,0.00936514,-0.01351606,-0.00094125,0.
 00015310,0.00019613,-0.00000754,-0.00002923,-0.00000247,-0.00000972,0.
 00001253,0.00004476,-0.00000909,0.00001620,0.00011099,0.00006366,0.000
 08322,-0.00006238,-0.00002443,-0.00005357,-0.00001283,-0.00000441,0.00
 006002,0.00000423,0.00000421,0.00023633,-0.00022580,-0.00022851,-0.000
 20538,-0.00000923,0.00002175,0.00005880,-0.00009147,0.00003309,-0.0000
 0520,-0.00001880,-0.00001029,-0.00018043,0.00017528,-0.00004041,0.0004
 4890,-0.00036071,0.00028092,-0.00057835,-0.00026064,0.00004521,0.00042
 733,0.00100496,0.00060863,0.00066754,-0.00017293,0.00047761,0.00100841
 ,-0.00007523,-0.00118838,-0.00000164,0.00001743,0.00001374,0.00004578,
 -0.00004609,0.00000780,-0.00000353,0.00000838,0.00000015,-0.00000239,0
 .00003020,0.00001574,-0.00000970,0.00000154,0.00000218,-0.00001418,-0.
 00000483,0.00000183,0.00000138,-0.00000655,0.00000185,0.00000772,-0.00
 000531,0.00000413,-0.00001358,-0.00001256,0.00001267,0.00004259,-0.000
 00529,-0.00003733,0.00000177,-0.00011652,-0.00004190,0.00043680,0.0001
 2948,-0.00009360,0.00001028,-0.00001575,-0.00001055,0.16424251,-0.0017
 4950,-0.00005228,-0.00002620,-0.00024489,0.00053602,-0.00011415,-0.000
 10907,-0.00008276,-0.00000186,-0.00054191,0.00031882,0.00021844,0.0000
 7983,0.00007381,-0.00002495,-0.00387780,-0.00310060,0.00061308,0.00129
 795,-0.00046406,-0.00033219,-0.00027807,-0.00034148,0.00012982,-0.0000
 4364,-0.00001389,-0.00000753,-0.00000017,0.00003102,0.00000504,0.00001
 688,-0.00000267,0.00000382,-0.00001520,0.00004573,-0.00001551,-0.00495
 837,0.00661127,0.00086204,0.13171360,-0.22729747,-0.01703841,0.0192804
 1,-0.02144524,-0.00289200,0.00007734,0.00000469,-0.00000182,0.00000961
 ,0.00001316,0.00002985,0.00001931,-0.00000121,0.00000202,0.00004625,-0
 .00001594,-0.00000171,0.00000486,-0.00000018,-0.00000731,0.00000478,0.
 00001967,-0.00000015,-0.00003387,-0.00000955,-0.00000068,0.00002255,0.
 00006857,0.00016934,0.00001216,0.00001877,-0.00000924,0.00000333,-0.00
 000442,-0.00001529,-0.00000495,0.00000475,-0.00000139,-0.00000005,-0.0
 0005602,0.00010805,0.00002029,0.00022158,-0.00009756,-0.00011802,-0.00
 031239,-0.00112572,0.00034448,0.00010493,-0.00035769,0.00077686,0.0004
 1508,-0.00011539,-0.00027249,0.00080727,-0.00002559,-0.00005077,-0.000
 02118,0.00000554,0.00010538,-0.00009630,0.00003467,-0.00000031,-0.0000
 0923,0.00000374,0.00000935,0.00000358,-0.00000270,0.00000665,-0.000000
 24,-0.00000166,0.00000324,-0.00000341,-0.00000499,0.00000243,0.0000043
 8,-0.00000082,0.00000426,0.00000127,0.00000048,0.00000057,0.00000488,0
 .00000180,-0.00002160,-0.00001295,-0.00000753,0.00004411,-0.00010464,-
 0.00001254,-0.00026161,-0.00001468,0.00015383,-0.00000265,-0.00002324,
 0.00001169,-0.14017168,0.24482618,0.00114968,0.00111245,0.00104391,-0.
 00030872,-0.00047916,0.00060163,-0.00004970,0.00001715,0.00018414,-0.0
 0011237,0.00076441,-0.00046707,0.00026342,-0.00038288,-0.00054141,0.00
 093480,0.00086036,0.01003867,0.00024515,-0.00080790,0.00030816,-0.0005
 6046,0.00000042,-0.00064733,0.00021275,0.00008109,0.00011159,0.0001495
 9,-0.00018260,-0.00018297,0.00005016,0.00018468,-0.00006839,-0.0001874
 3,-0.00001624,0.00001788,0.00369911,-0.00452537,0.00057382,0.01729610,
 -0.01641173,-0.03676195,0.00034356,0.00035471,0.00573510,0.00003028,0.
 00008499,0.00001740,-0.00003444,0.00007937,-0.00002029,0.00001250,-0.0
 0009178,0.00000299,0.00003656,-0.00002361,-0.00005339,0.00006272,-0.00
 003223,-0.00000392,-0.00004879,0.00006118,-0.00000675,-0.00000749,-0.0
 0005374,-0.00000261,-0.00009352,-0.00014075,0.00018990,-0.00000501,0.0
 0003905,0.00002425,0.00002469,0.00001541,-0.00001848,0.00000762,0.0000
 1673,-0.00000776,0.00007443,0.00007102,-0.00017562,-0.00006022,-0.0002
 3520,0.00012786,-0.00058221,-0.00022031,-0.00011735,0.00099668,0.00032
 129,-0.00001538,-0.00085753,-0.00021143,0.00068352,-0.00151458,0.00012
 013,-0.00682780,0.00002750,0.00001429,0.00017251,-0.00000384,-0.000003
 12,-0.00002048,-0.00000858,0.00000811,0.00000087,-0.00000786,0.0000078
 9,0.00008140,-0.00000403,-0.00000308,0.00000626,0.00000309,-0.00000233
 ,0.00000087,0.00000640,0.00000108,0.00000248,0.00000561,0.00000266,0.0
 0000269,0.00000549,0.00000813,0.00000409,0.00003030,0.00002809,-0.0000
 2516,-0.00002148,0.00002239,0.00004281,0.00016397,0.00012445,-0.000015
 84,-0.00008764,-0.00003318,-0.00002025,-0.02034539,0.02042387,0.027035
 08,-0.00014277,-0.00001901,-0.00002453,0.00006658,-0.00001399,0.000026
 82,0.00010070,-0.00000483,0.00001124,0.00001874,-0.00018103,-0.0000517
 0,-0.00012143,0.00007528,0.00003858,0.00003775,0.00018016,0.00017743,0
 .00009003,-0.00006810,-0.00001471,-0.00003087,0.00004209,-0.00000795,0
 .00005147,-0.00000069,-0.00000317,-0.00007402,-0.00000403,0.00000450,0
 .00004548,-0.00004267,0.00001006,0.00000214,0.00004064,-0.00001434,-0.
 00013563,-0.00088850,-0.00045491,-0.00035762,-0.00046812,-0.00103460,0
 .00013029,0.00000967,-0.00026262,-0.00007042,0.00000083,-0.00004555,0.
 00007659,-0.00001183,0.00002080,0.00001521,0.00005745,-0.00000370,-0.0
 0022323,-0.00090516,0.00038848,-0.00014863,0.00016732,-0.00002637,-0.0
 0000983,-0.00006317,0.00000014,-0.00003849,-0.00000813,0.00000919,-0.0
 0077848,0.00323048,0.00067161,0.00031137,0.00032246,-0.00020169,-0.000
 01791,0.00000870,-0.00002448,-0.00005525,-0.00002683,0.00003921,0.0002
 8465,0.00061039,-0.00095376,0.00633314,0.00302038,-0.00181916,-0.25579
 003,-0.08654160,0.06159581,-0.01462346,-0.00544472,0.00444420,0.000044
 68,-0.00007898,-0.00002362,0.00000161,0.00000275,-0.00008905,0.0000091
 7,0.00000885,0.00000440,0.00000514,-0.00000208,0.00000251,0.00000504,0
 .00000218,0.00000244,-0.00000242,0.00000564,-0.00000229,-0.00000206,0.
 00000895,-0.00000341,-0.00000597,0.00001126,-0.00000008,-0.00003574,0.
 00001155,-0.00001604,-0.00001096,-0.00000642,0.00000571,-0.00002986,-0
 .00003438,0.00000783,0.00005475,0.00007979,-0.00028601,0.00080382,-0.0
 0047451,0.00040873,-0.01458981,-0.00599887,0.00276759,-0.00017063,0.00
 029542,-0.00017474,0.00026163,-0.00114985,-0.00093087,0.27871555,0.000
 06433,0.00007373,0.00028341,0.00016083,-0.00007912,0.00000332,0.000046
 00,0.00014219,-0.00002163,-0.00003736,0.00001922,-0.00002689,-0.000072
 36,-0.00000348,-0.00000086,-0.00005983,0.00001347,0.00003816,-0.000019
 47,-0.00006262,0.00003230,-0.00008743,0.00001414,0.00000053,0.00006566
 ,0.00005320,0.00000302,-0.00000841,-0.00005104,0.00000314,0.00000900,0
 .00004730,-0.00000435,-0.00002239,-0.00002697,-0.00000042,-0.00011554,
 0.00133051,-0.00014749,-0.00053372,-0.00014472,-0.00074393,0.00001546,
 -0.00047373,0.00008424,-0.00014582,0.00004923,-0.00000574,-0.00005988,
 -0.00012813,-0.00000778,0.00000181,0.00007330,-0.00000590,0.00083916,0
 .00113065,-0.00037936,0.00009877,-0.00016444,0.00016613,0.00016817,0.0
 0002244,0.00001302,0.00003140,0.00010143,-0.00002657,0.00186533,-0.004
 27037,-0.00191216,0.00068544,-0.00053113,-0.00068197,-0.00031446,0.000
 10054,0.00006806,0.00018197,-0.00007986,-0.00003759,0.00171306,-0.0045
 6723,0.00270088,-0.02651123,-0.00991240,0.00582835,-0.08540623,-0.0839
 7247,0.02583833,0.02119812,0.00944977,-0.00657980,0.00000524,-0.000129
 66,-0.00010838,-0.00003868,-0.00000834,-0.00009098,0.00000287,-0.00000
 495,-0.00000396,-0.00000212,0.00000727,-0.00000396,-0.00000214,0.00000
 690,-0.00000058,-0.00000394,-0.00000015,0.00000012,-0.00000094,-0.0000
 0497,0.00000006,0.00000195,-0.00000126,0.00000296,0.00004257,-0.000025
 53,0.00000432,-0.00001435,0.00000726,-0.00002066,0.00007028,0.00005069
 ,-0.00000335,-0.00055376,0.00019656,0.00154952,0.00032159,0.00108627,-
 0.00027231,-0.00717021,-0.00308462,0.00139941,-0.00032323,0.00022906,0
 .00055999,-0.00033077,-0.00064939,-0.00096877,0.09424527,0.09417144,0.
 00003774,-0.00005656,0.00017612,0.00005729,0.00002760,-0.00001395,-0.0
 0004950,0.00010981,-0.00001242,-0.00009008,0.00009228,0.00004506,-0.00
 000731,-0.00005557,-0.00003271,0.00004692,0.00001293,-0.00014079,-0.00
 010595,-0.00002783,0.00003629,-0.00007938,0.00002184,-0.00000142,0.000
 03766,0.00007786,0.00001030,0.00000851,-0.00002928,0.00000114,-0.00002
 869,0.00005756,-0.00001001,-0.00001313,-0.00004569,0.00000010,0.000491
 64,0.00114266,0.00032154,0.00034789,-0.00092514,-0.00026790,-0.0002665
 7,0.00000682,0.00014113,-0.00004472,0.00010020,-0.00002076,-0.00002437
 ,-0.00004751,-0.00003188,-0.00001200,0.00003276,-0.00000336,0.00053221
 ,0.00084730,-0.00011122,0.00019284,-0.00025247,0.00005466,0.00003368,0
 .00003683,-0.00002857,0.00006987,0.00001795,0.00000402,0.00134755,-0.0
 0295074,-0.00065564,0.00011754,-0.00026829,0.00042112,0.00000852,-0.00
 002277,-0.00000368,0.00005934,-0.00002723,-0.00000900,-0.00199788,0.00
 320854,-0.00023691,0.01819547,0.00765066,-0.00711859,0.05772779,0.0241
 5289,-0.06142763,0.01379584,0.00530161,-0.00564870,0.00006375,-0.00005
 185,-0.00006877,0.00001471,-0.00001193,0.00005394,0.00000703,-0.000008
 25,-0.00000035,-0.00000829,0.00001701,-0.00000225,-0.00000481,0.000009
 27,-0.00000119,-0.00000475,0.00000035,0.00000220,-0.00000381,-0.000005
 07,0.00000276,-0.00000094,-0.00000573,0.00000434,0.00003487,-0.0000194
 1,0.00000367,0.00001238,0.00000551,0.00000020,-0.00001149,0.00000752,-
 0.00001337,0.00061537,0.00016024,-0.00085095,-0.00056303,-0.00078169,0
 .00065715,-0.02508014,-0.01029966,0.00718183,-0.00020599,-0.00014695,0
 .00011359,-0.00108569,-0.00053451,-0.00100966,-0.06416790,-0.02652388,
 0.06849054\\0.00000412,-0.00002846,-0.00000997,-0.00002747,-0.00000054
 ,-0.00000319,-0.00003840,0.00001933,0.00000525,-0.00002117,0.00003094,
 -0.00000355,0.00002622,-0.00002365,0.00003185,-0.00002190,0.00003701,0
 .00000303,0.00002657,-0.00002370,-0.00000258,-0.00002881,0.00002280,-0
 .00000379,0.00001783,-0.00001581,0.00000722,0.00003120,-0.00003298,-0.
 00000137,0.00000770,0.00001323,0.00000413,-0.00000523,0.00000383,-0.00
 001283,0.00005367,0.00004226,0.00002749,-0.00001875,0.00000400,-0.0000
 0769,0.00000605,-0.00003131,-0.00000163,0.00003159,0.00001033,0.000001
 25,-0.00001996,-0.00003396,0.00000210,-0.00000885,0.00001135,-0.000008
 82,-0.00000632,-0.00000472,-0.00000146,0.00000653,-0.00001099,-0.00000
 151,0.00000209,0.00000289,0.00000400,0.00001032,0.00001505,0.00000056,
 0.00001958,0.00001521,-0.00000043,0.00000049,0.00001409,0.00000442,0.0
 0000240,-0.00001138,-0.00000400,-0.00000627,0.00000984,0.00000355,0.00
 001100,-0.00001206,0.00000172,-0.00002362,0.00002223,0.00000726,-0.000
 01981,0.00000637,0.00001082,-0.00004567,-0.00006055,-0.00004301,-0.000
 00676,-0.00000062,-0.00000011,-0.00000004,0.00000387,-0.00000168,-0.00
 000306,-0.00000035,0.00000111,-0.00000680,0.00000181,-0.00000026,-0.00
 000518,-0.00000147,-0.00000079,-0.00000279,0.00000099,0.00001018,0.000
 00089,-0.00000336,0.00000548,0.00000301,-0.00000445,0.00000176,-0.0000
 0037,-0.00000242,-0.00000009,0.00000162,-0.00000156,-0.00000554,0.0000
 0580,0.00000212,-0.00000030,0.00000725,0.00000291,-0.00000543,0.000003
 93,-0.00000571,-0.00001203,0.00001964,0.00000084,-0.00000657,0.0000011
 2,0.00000919,0.00000490,0.00000775,0.00000919,0.00000411,0.00000887,-0
 .00000161,-0.00000355\\\@


 THE DIFFERENCE BETWEEN A NOOSE AND A HALO IS ONLY 12 INCHES.
 Job cpu time:       2 days 15 hours 12 minutes 13.7 seconds.
 Elapsed time:       0 days  3 hours 10 minutes  8.8 seconds.
 File lengths (MBytes):  RWF=   4624 Int=      0 D2E=      0 Chk=     65 Scr=      1
 Normal termination of Gaussian 16 at Tue Jun 25 22:48:24 2019.
