 Entering Gaussian System, Link 0=/share/apps/gaussian16/g16/g16
 Initial command:
 /share/apps/gaussian16/g16/l1.exe "/home/amen01//scratch/607/Gau-20787.inp" -scrdir="/home/amen01//scratch/607/"
 Entering Link 1 = /share/apps/gaussian16/g16/l1.exe PID=     20788.
  
 Copyright (c) 1988-2017, Gaussian, Inc.  All Rights Reserved.
  
 This is part of the Gaussian(R) 16 program.  It is based on
 the Gaussian(R) 09 system (copyright 2009, Gaussian, Inc.),
 the Gaussian(R) 03 system (copyright 2003, Gaussian, Inc.),
 the Gaussian(R) 98 system (copyright 1998, Gaussian, Inc.),
 the Gaussian(R) 94 system (copyright 1995, Gaussian, Inc.),
 the Gaussian 92(TM) system (copyright 1992, Gaussian, Inc.),
 the Gaussian 90(TM) system (copyright 1990, Gaussian, Inc.),
 the Gaussian 88(TM) system (copyright 1988, Gaussian, Inc.),
 the Gaussian 86(TM) system (copyright 1986, Carnegie Mellon
 University), and the Gaussian 82(TM) system (copyright 1983,
 Carnegie Mellon University). Gaussian is a federally registered
 trademark of Gaussian, Inc.
  
 This software contains proprietary and confidential information,
 including trade secrets, belonging to Gaussian, Inc.
  
 This software is provided under written license and may be
 used, copied, transmitted, or stored only in accord with that
 written license.
  
 The following legend is applicable only to US Government
 contracts under FAR:
  
                    RESTRICTED RIGHTS LEGEND
  
 Use, reproduction and disclosure by the US Government is
 subject to restrictions as set forth in subparagraphs (a)
 and (c) of the Commercial Computer Software - Restricted
 Rights clause in FAR 52.227-19.
  
 Gaussian, Inc.
 340 Quinnipiac St., Bldg. 40, Wallingford CT 06492
  
  
 ---------------------------------------------------------------
 Warning -- This program may not be used in any manner that
 competes with the business of Gaussian, Inc. or will provide
 assistance to any competitor of Gaussian, Inc.  The licensee
 of this program is prohibited from giving any competitor of
 Gaussian, Inc. access to this program.  By using this program,
 the user acknowledges that Gaussian, Inc. is engaged in the
 business of creating and licensing software in the field of
 computational chemistry and represents and warrants to the
 licensee that it is not a competitor of Gaussian, Inc. and that
 it will not use this program in any manner prohibited above.
 ---------------------------------------------------------------
  

 Cite this work as:
 Gaussian 16, Revision B.01,
 M. J. Frisch, G. W. Trucks, H. B. Schlegel, G. E. Scuseria, 
 M. A. Robb, J. R. Cheeseman, G. Scalmani, V. Barone, 
 G. A. Petersson, H. Nakatsuji, X. Li, M. Caricato, A. V. Marenich, 
 J. Bloino, B. G. Janesko, R. Gomperts, B. Mennucci, H. P. Hratchian, 
 J. V. Ortiz, A. F. Izmaylov, J. L. Sonnenberg, D. Williams-Young, 
 F. Ding, F. Lipparini, F. Egidi, J. Goings, B. Peng, A. Petrone, 
 T. Henderson, D. Ranasinghe, V. G. Zakrzewski, J. Gao, N. Rega, 
 G. Zheng, W. Liang, M. Hada, M. Ehara, K. Toyota, R. Fukuda, 
 J. Hasegawa, M. Ishida, T. Nakajima, Y. Honda, O. Kitao, H. Nakai, 
 T. Vreven, K. Throssell, J. A. Montgomery, Jr., J. E. Peralta, 
 F. Ogliaro, M. J. Bearpark, J. J. Heyd, E. N. Brothers, K. N. Kudin, 
 V. N. Staroverov, T. A. Keith, R. Kobayashi, J. Normand, 
 K. Raghavachari, A. P. Rendell, J. C. Burant, S. S. Iyengar, 
 J. Tomasi, M. Cossi, J. M. Millam, M. Klene, C. Adamo, R. Cammi, 
 J. W. Ochterski, R. L. Martin, K. Morokuma, O. Farkas, 
 J. B. Foresman, and D. J. Fox, Gaussian, Inc., Wallingford CT, 2016.
 
 ******************************************
 Gaussian 16:  ES64L-G16RevB.01 20-Dec-2017
                24-Jun-2019 
 ******************************************
 %nprocshared=20
 Will use up to   20 processors via shared memory.
 %mem=100GB
 %chk=7-memb2-carb-2a.chk
 -------------------------------------------
 # opt freq b3lyp/6-311+g(d,p) int=grid=fine
 -------------------------------------------
 1/18=20,19=15,26=3,38=1/1,3;
 2/9=110,12=2,17=6,18=5,40=1/2;
 3/5=4,6=6,7=111,11=2,25=1,30=1,71=1,74=-5,75=-4/1,2,3;
 4//1;
 5/5=2,38=5/2;
 6/7=2,8=2,9=2,10=2,28=1/1;
 7//1,2,3,16;
 1/18=20,19=15,26=3/3(2);
 2/9=110/2;
 99//99;
 2/9=110/2;
 3/5=4,6=6,7=111,11=2,25=1,30=1,71=1,74=-5,75=-4/1,2,3;
 4/5=5,16=3,69=1/1;
 5/5=2,38=5/2;
 7//1,2,3,16;
 1/18=20,19=15,26=3/3(-5);
 2/9=110/2;
 6/7=2,8=2,9=2,10=2,19=2,28=1/1;
 99/9=1/99;
 ---------------
 7-memb2-carb-2a
 ---------------
 Symbolic Z-matrix:
 Charge =  0 Multiplicity = 1
 C                    -4.03967  -0.1273    0.05742 
 C                    -2.61265  -0.30573   0.16963 
 C                    -2.41312  -1.68305   0.20284 
 C                    -4.58603  -1.40443  -0.02457 
 C                    -3.59945  -2.32059   0.0844 
 C                    -5.911    -1.76058  -0.18274 
 C                    -6.17617  -3.16068  -0.23256 
 C                    -5.12238  -4.11406  -0.1146 
 C                    -3.77327  -3.69527   0.04625 
 C                    -1.21776  -2.36257   0.26829 
 C                    -1.30901  -3.78634   0.26953 
 C                    -2.56994  -4.44278   0.16153 
 C                    -4.8568    0.97844   0.06571 
 C                    -6.27      0.68953  -0.11626 
 C                    -6.77445  -0.65718  -0.26968 
 C                    -1.53949   0.56364   0.11603 
 C                    -0.25294  -0.09479   0.15908 
 C                    -0.10173  -1.51114   0.27602 
 C                    -1.68232   1.99554  -0.06264 
 C                    -0.44579   2.67085  -0.29498 
 C                     0.79456   2.02479  -0.23025 
 C                     0.89379   0.66681   0.02205 
 C                    -2.93534   2.80805  -0.0279 
 C                    -2.79593   4.20323  -0.33751 
 C                    -1.5662    4.76846  -0.65224 
 C                    -0.40655   4.02249  -0.6029 
 C                    -3.86458   5.10741  -0.29886 
 C                    -5.11798   4.72571   0.12824 
 C                    -5.3245    3.40926   0.4925 
 C                    -4.30454   2.39886   0.39182 
 H                    -6.87116   1.16138   0.71108 
 H                    -7.84173  -0.81185  -0.41519 
 H                    -7.1981   -3.50974  -0.35932 
 H                    -5.35634  -5.17485  -0.15784 
 H                    -2.60603  -5.5292    0.14562 
 H                    -0.40184  -4.38335   0.32519 
 H                     0.89169  -1.95436   0.30297 
 H                     1.88067   0.21092   0.05121 
 H                     1.71863   2.58042  -0.38519 
 H                     0.53594   4.52617  -0.8097 
 H                    -1.47888   5.82668  -0.89342 
 H                    -3.71728   6.15504  -0.55827 
 H                    -5.92191   5.45203   0.20074 
 H                    -6.30661   3.16573   0.89176 
 H                    -6.75482   1.40052  -0.83428 
 H                    -4.12367   2.06901   1.46462 
 

 GradGradGradGradGradGradGradGradGradGradGradGradGradGradGradGradGradGrad
 Berny optimization.
 Initialization pass.
                           ----------------------------
                           !    Initial Parameters    !
                           ! (Angstroms and Degrees)  !
 --------------------------                            --------------------------
 ! Name  Definition              Value          Derivative Info.                !
 --------------------------------------------------------------------------------
 ! R1    R(1,2)                  1.4425         estimate D2E/DX2                !
 ! R2    R(1,4)                  1.3915         estimate D2E/DX2                !
 ! R3    R(1,13)                 1.3749         estimate D2E/DX2                !
 ! R4    R(2,3)                  1.3921         estimate D2E/DX2                !
 ! R5    R(2,16)                 1.3822         estimate D2E/DX2                !
 ! R6    R(3,5)                  1.352          estimate D2E/DX2                !
 ! R7    R(3,10)                 1.3766         estimate D2E/DX2                !
 ! R8    R(4,5)                  1.3508         estimate D2E/DX2                !
 ! R9    R(4,6)                  1.3811         estimate D2E/DX2                !
 ! R10   R(5,9)                  1.3862         estimate D2E/DX2                !
 ! R11   R(6,7)                  1.4259         estimate D2E/DX2                !
 ! R12   R(6,15)                 1.4038         estimate D2E/DX2                !
 ! R13   R(7,8)                  1.4259         estimate D2E/DX2                !
 ! R14   R(7,33)                 1.0873         estimate D2E/DX2                !
 ! R15   R(8,9)                  1.4217         estimate D2E/DX2                !
 ! R16   R(8,34)                 1.0871         estimate D2E/DX2                !
 ! R17   R(9,12)                 1.4213         estimate D2E/DX2                !
 ! R18   R(10,11)                1.4267         estimate D2E/DX2                !
 ! R19   R(10,18)                1.4038         estimate D2E/DX2                !
 ! R20   R(11,12)                1.4257         estimate D2E/DX2                !
 ! R21   R(11,36)                1.0874         estimate D2E/DX2                !
 ! R22   R(12,35)                1.0871         estimate D2E/DX2                !
 ! R23   R(13,14)                1.4539         estimate D2E/DX2                !
 ! R24   R(13,30)                1.5585         estimate D2E/DX2                !
 ! R25   R(14,15)                1.4462         estimate D2E/DX2                !
 ! R26   R(14,31)                1.1263         estimate D2E/DX2                !
 ! R27   R(14,45)                1.1208         estimate D2E/DX2                !
 ! R28   R(15,32)                1.0882         estimate D2E/DX2                !
 ! R29   R(16,17)                1.4459         estimate D2E/DX2                !
 ! R30   R(16,19)                1.4501         estimate D2E/DX2                !
 ! R31   R(17,18)                1.4292         estimate D2E/DX2                !
 ! R32   R(17,22)                1.3834         estimate D2E/DX2                !
 ! R33   R(18,37)                1.0881         estimate D2E/DX2                !
 ! R34   R(19,20)                1.4279         estimate D2E/DX2                !
 ! R35   R(19,23)                1.4938         estimate D2E/DX2                !
 ! R36   R(20,21)                1.4            estimate D2E/DX2                !
 ! R37   R(20,26)                1.3868         estimate D2E/DX2                !
 ! R38   R(21,22)                1.3848         estimate D2E/DX2                !
 ! R39   R(21,39)                1.0893         estimate D2E/DX2                !
 ! R40   R(22,38)                1.0875         estimate D2E/DX2                !
 ! R41   R(23,24)                1.4359         estimate D2E/DX2                !
 ! R42   R(23,30)                1.4894         estimate D2E/DX2                !
 ! R43   R(24,25)                1.3895         estimate D2E/DX2                !
 ! R44   R(24,27)                1.4004         estimate D2E/DX2                !
 ! R45   R(25,26)                1.3797         estimate D2E/DX2                !
 ! R46   R(25,41)                1.0889         estimate D2E/DX2                !
 ! R47   R(26,40)                1.0885         estimate D2E/DX2                !
 ! R48   R(27,28)                1.3781         estimate D2E/DX2                !
 ! R49   R(27,42)                1.0893         estimate D2E/DX2                !
 ! R50   R(28,29)                1.3814         estimate D2E/DX2                !
 ! R51   R(28,43)                1.0859         estimate D2E/DX2                !
 ! R52   R(29,30)                1.4392         estimate D2E/DX2                !
 ! R53   R(29,44)                1.0878         estimate D2E/DX2                !
 ! R54   R(30,46)                1.1368         estimate D2E/DX2                !
 ! A1    A(2,1,4)              106.2292         estimate D2E/DX2                !
 ! A2    A(2,1,13)             133.3881         estimate D2E/DX2                !
 ! A3    A(4,1,13)             120.3393         estimate D2E/DX2                !
 ! A4    A(1,2,3)              105.4282         estimate D2E/DX2                !
 ! A5    A(1,2,16)             133.4157         estimate D2E/DX2                !
 ! A6    A(3,2,16)             120.7944         estimate D2E/DX2                !
 ! A7    A(2,3,5)              109.7974         estimate D2E/DX2                !
 ! A8    A(2,3,10)             127.879          estimate D2E/DX2                !
 ! A9    A(5,3,10)             122.2325         estimate D2E/DX2                !
 ! A10   A(1,4,5)              109.3277         estimate D2E/DX2                !
 ! A11   A(1,4,6)              128.3243         estimate D2E/DX2                !
 ! A12   A(5,4,6)              122.3468         estimate D2E/DX2                !
 ! A13   A(3,5,4)              109.155          estimate D2E/DX2                !
 ! A14   A(3,5,9)              125.4576         estimate D2E/DX2                !
 ! A15   A(4,5,9)              125.3684         estimate D2E/DX2                !
 ! A16   A(4,6,7)              115.8257         estimate D2E/DX2                !
 ! A17   A(4,6,15)             113.2344         estimate D2E/DX2                !
 ! A18   A(7,6,15)             130.9399         estimate D2E/DX2                !
 ! A19   A(6,7,8)              121.077          estimate D2E/DX2                !
 ! A20   A(6,7,33)             119.6099         estimate D2E/DX2                !
 ! A21   A(8,7,33)             119.3128         estimate D2E/DX2                !
 ! A22   A(7,8,9)              120.9089         estimate D2E/DX2                !
 ! A23   A(7,8,34)             119.3443         estimate D2E/DX2                !
 ! A24   A(9,8,34)             119.7444         estimate D2E/DX2                !
 ! A25   A(5,9,8)              114.4707         estimate D2E/DX2                !
 ! A26   A(5,9,12)             114.4051         estimate D2E/DX2                !
 ! A27   A(8,9,12)             131.1208         estimate D2E/DX2                !
 ! A28   A(3,10,11)            115.9207         estimate D2E/DX2                !
 ! A29   A(3,10,18)            113.0313         estimate D2E/DX2                !
 ! A30   A(11,10,18)           131.0063         estimate D2E/DX2                !
 ! A31   A(10,11,12)           121.0646         estimate D2E/DX2                !
 ! A32   A(10,11,36)           119.642          estimate D2E/DX2                !
 ! A33   A(12,11,36)           119.2704         estimate D2E/DX2                !
 ! A34   A(9,12,11)            120.8502         estimate D2E/DX2                !
 ! A35   A(9,12,35)            119.7554         estimate D2E/DX2                !
 ! A36   A(11,12,35)           119.3808         estimate D2E/DX2                !
 ! A37   A(1,13,14)            114.6527         estimate D2E/DX2                !
 ! A38   A(1,13,30)            121.576          estimate D2E/DX2                !
 ! A39   A(14,13,30)           123.4868         estimate D2E/DX2                !
 ! A40   A(13,14,15)           122.5043         estimate D2E/DX2                !
 ! A41   A(13,14,31)           110.0983         estimate D2E/DX2                !
 ! A42   A(13,14,45)           111.9999         estimate D2E/DX2                !
 ! A43   A(15,14,31)           106.3713         estimate D2E/DX2                !
 ! A44   A(15,14,45)           111.8312         estimate D2E/DX2                !
 ! A45   A(31,14,45)            88.507          estimate D2E/DX2                !
 ! A46   A(6,15,14)            120.7178         estimate D2E/DX2                !
 ! A47   A(6,15,32)            119.9885         estimate D2E/DX2                !
 ! A48   A(14,15,32)           119.2505         estimate D2E/DX2                !
 ! A49   A(2,16,17)            113.7839         estimate D2E/DX2                !
 ! A50   A(2,16,19)            123.3273         estimate D2E/DX2                !
 ! A51   A(17,16,19)           122.7512         estimate D2E/DX2                !
 ! A52   A(16,17,18)           123.2208         estimate D2E/DX2                !
 ! A53   A(16,17,22)           118.942          estimate D2E/DX2                !
 ! A54   A(18,17,22)           117.774          estimate D2E/DX2                !
 ! A55   A(10,18,17)           121.0994         estimate D2E/DX2                !
 ! A56   A(10,18,37)           118.6142         estimate D2E/DX2                !
 ! A57   A(17,18,37)           120.1507         estimate D2E/DX2                !
 ! A58   A(16,19,20)           113.6879         estimate D2E/DX2                !
 ! A59   A(16,19,23)           128.0878         estimate D2E/DX2                !
 ! A60   A(20,19,23)           118.2241         estimate D2E/DX2                !
 ! A61   A(19,20,21)           122.781          estimate D2E/DX2                !
 ! A62   A(19,20,26)           121.4365         estimate D2E/DX2                !
 ! A63   A(21,20,26)           115.7824         estimate D2E/DX2                !
 ! A64   A(20,21,22)           121.6308         estimate D2E/DX2                !
 ! A65   A(20,21,39)           120.6367         estimate D2E/DX2                !
 ! A66   A(22,21,39)           117.7312         estimate D2E/DX2                !
 ! A67   A(17,22,21)           119.9022         estimate D2E/DX2                !
 ! A68   A(17,22,38)           121.2512         estimate D2E/DX2                !
 ! A69   A(21,22,38)           118.7519         estimate D2E/DX2                !
 ! A70   A(19,23,24)           116.2342         estimate D2E/DX2                !
 ! A71   A(19,23,30)           128.9203         estimate D2E/DX2                !
 ! A72   A(24,23,30)           114.6428         estimate D2E/DX2                !
 ! A73   A(23,24,25)           122.0058         estimate D2E/DX2                !
 ! A74   A(23,24,27)           123.1831         estimate D2E/DX2                !
 ! A75   A(25,24,27)           114.7693         estimate D2E/DX2                !
 ! A76   A(24,25,26)           121.0509         estimate D2E/DX2                !
 ! A77   A(24,25,41)           121.096          estimate D2E/DX2                !
 ! A78   A(26,25,41)           117.7725         estimate D2E/DX2                !
 ! A79   A(20,26,25)           120.7371         estimate D2E/DX2                !
 ! A80   A(20,26,40)           121.1774         estimate D2E/DX2                !
 ! A81   A(25,26,40)           118.0853         estimate D2E/DX2                !
 ! A82   A(24,27,28)           121.5868         estimate D2E/DX2                !
 ! A83   A(24,27,42)           120.745          estimate D2E/DX2                !
 ! A84   A(28,27,42)           117.5931         estimate D2E/DX2                !
 ! A85   A(27,28,29)           118.7925         estimate D2E/DX2                !
 ! A86   A(27,28,43)           120.5839         estimate D2E/DX2                !
 ! A87   A(29,28,43)           120.6061         estimate D2E/DX2                !
 ! A88   A(28,29,30)           122.9991         estimate D2E/DX2                !
 ! A89   A(28,29,44)           116.4299         estimate D2E/DX2                !
 ! A90   A(30,29,44)           120.554          estimate D2E/DX2                !
 ! A91   A(13,30,23)           121.1434         estimate D2E/DX2                !
 ! A92   A(13,30,29)           113.7882         estimate D2E/DX2                !
 ! A93   A(13,30,46)            89.3924         estimate D2E/DX2                !
 ! A94   A(23,30,29)           118.5765         estimate D2E/DX2                !
 ! A95   A(23,30,46)           101.5009         estimate D2E/DX2                !
 ! A96   A(29,30,46)           104.5031         estimate D2E/DX2                !
 ! D1    D(4,1,2,3)             -2.4146         estimate D2E/DX2                !
 ! D2    D(4,1,2,16)           170.456          estimate D2E/DX2                !
 ! D3    D(13,1,2,3)           175.1036         estimate D2E/DX2                !
 ! D4    D(13,1,2,16)          -12.0258         estimate D2E/DX2                !
 ! D5    D(2,1,4,5)              2.4364         estimate D2E/DX2                !
 ! D6    D(2,1,4,6)           -177.953          estimate D2E/DX2                !
 ! D7    D(13,1,4,5)          -175.474          estimate D2E/DX2                !
 ! D8    D(13,1,4,6)             4.1366         estimate D2E/DX2                !
 ! D9    D(2,1,13,14)          178.3975         estimate D2E/DX2                !
 ! D10   D(2,1,13,30)           -7.5257         estimate D2E/DX2                !
 ! D11   D(4,1,13,14)           -4.3638         estimate D2E/DX2                !
 ! D12   D(4,1,13,30)          169.713          estimate D2E/DX2                !
 ! D13   D(1,2,3,5)              1.587          estimate D2E/DX2                !
 ! D14   D(1,2,3,10)           178.138          estimate D2E/DX2                !
 ! D15   D(16,2,3,5)          -172.3888         estimate D2E/DX2                !
 ! D16   D(16,2,3,10)            4.1622         estimate D2E/DX2                !
 ! D17   D(1,2,16,17)         -174.5738         estimate D2E/DX2                !
 ! D18   D(1,2,16,19)            1.2621         estimate D2E/DX2                !
 ! D19   D(3,2,16,17)           -2.5796         estimate D2E/DX2                !
 ! D20   D(3,2,16,19)          173.2562         estimate D2E/DX2                !
 ! D21   D(2,3,5,4)             -0.1105         estimate D2E/DX2                !
 ! D22   D(2,3,5,9)            178.3714         estimate D2E/DX2                !
 ! D23   D(10,3,5,4)          -176.8925         estimate D2E/DX2                !
 ! D24   D(10,3,5,9)             1.5894         estimate D2E/DX2                !
 ! D25   D(2,3,10,11)         -179.1177         estimate D2E/DX2                !
 ! D26   D(2,3,10,18)           -1.2041         estimate D2E/DX2                !
 ! D27   D(5,3,10,11)           -2.9546         estimate D2E/DX2                !
 ! D28   D(5,3,10,18)          174.959          estimate D2E/DX2                !
 ! D29   D(1,4,5,3)             -1.5003         estimate D2E/DX2                !
 ! D30   D(1,4,5,9)           -179.9839         estimate D2E/DX2                !
 ! D31   D(6,4,5,3)            178.8613         estimate D2E/DX2                !
 ! D32   D(6,4,5,9)              0.3777         estimate D2E/DX2                !
 ! D33   D(1,4,6,7)           -179.9314         estimate D2E/DX2                !
 ! D34   D(1,4,6,15)             0.1622         estimate D2E/DX2                !
 ! D35   D(5,4,6,7)             -0.3663         estimate D2E/DX2                !
 ! D36   D(5,4,6,15)           179.7273         estimate D2E/DX2                !
 ! D37   D(3,5,9,8)           -178.6274         estimate D2E/DX2                !
 ! D38   D(3,5,9,12)             0.7834         estimate D2E/DX2                !
 ! D39   D(4,5,9,8)             -0.3861         estimate D2E/DX2                !
 ! D40   D(4,5,9,12)           179.0247         estimate D2E/DX2                !
 ! D41   D(4,6,7,8)              0.4225         estimate D2E/DX2                !
 ! D42   D(4,6,7,33)          -179.7743         estimate D2E/DX2                !
 ! D43   D(15,6,7,8)          -179.6913         estimate D2E/DX2                !
 ! D44   D(15,6,7,33)            0.1119         estimate D2E/DX2                !
 ! D45   D(4,6,15,14)           -3.5985         estimate D2E/DX2                !
 ! D46   D(4,6,15,32)          178.8105         estimate D2E/DX2                !
 ! D47   D(7,6,15,14)          176.5129         estimate D2E/DX2                !
 ! D48   D(7,6,15,32)           -1.078          estimate D2E/DX2                !
 ! D49   D(6,7,8,9)             -0.48           estimate D2E/DX2                !
 ! D50   D(6,7,8,34)          -179.9144         estimate D2E/DX2                !
 ! D51   D(33,7,8,9)           179.7162         estimate D2E/DX2                !
 ! D52   D(33,7,8,34)            0.2818         estimate D2E/DX2                !
 ! D53   D(7,8,9,5)              0.4287         estimate D2E/DX2                !
 ! D54   D(7,8,9,12)          -178.8591         estimate D2E/DX2                !
 ! D55   D(34,8,9,5)           179.8609         estimate D2E/DX2                !
 ! D56   D(34,8,9,12)            0.5731         estimate D2E/DX2                !
 ! D57   D(5,9,12,11)           -1.5678         estimate D2E/DX2                !
 ! D58   D(5,9,12,35)          179.7811         estimate D2E/DX2                !
 ! D59   D(8,9,12,11)          177.7204         estimate D2E/DX2                !
 ! D60   D(8,9,12,35)           -0.9307         estimate D2E/DX2                !
 ! D61   D(3,10,11,12)           2.0978         estimate D2E/DX2                !
 ! D62   D(3,10,11,36)        -179.6582         estimate D2E/DX2                !
 ! D63   D(18,10,11,12)       -175.3576         estimate D2E/DX2                !
 ! D64   D(18,10,11,36)          2.8865         estimate D2E/DX2                !
 ! D65   D(3,10,18,17)          -2.8475         estimate D2E/DX2                !
 ! D66   D(3,10,18,37)        -178.6173         estimate D2E/DX2                !
 ! D67   D(11,10,18,17)        174.6657         estimate D2E/DX2                !
 ! D68   D(11,10,18,37)         -1.1042         estimate D2E/DX2                !
 ! D69   D(10,11,12,9)           0.1484         estimate D2E/DX2                !
 ! D70   D(10,11,12,35)        178.8045         estimate D2E/DX2                !
 ! D71   D(36,11,12,9)        -178.1021         estimate D2E/DX2                !
 ! D72   D(36,11,12,35)          0.554          estimate D2E/DX2                !
 ! D73   D(1,13,14,15)           1.0436         estimate D2E/DX2                !
 ! D74   D(1,13,14,31)         127.1324         estimate D2E/DX2                !
 ! D75   D(1,13,14,45)        -136.0958         estimate D2E/DX2                !
 ! D76   D(30,13,14,15)       -172.9053         estimate D2E/DX2                !
 ! D77   D(30,13,14,31)        -46.8166         estimate D2E/DX2                !
 ! D78   D(30,13,14,45)         49.9552         estimate D2E/DX2                !
 ! D79   D(1,13,30,23)          34.9154         estimate D2E/DX2                !
 ! D80   D(1,13,30,29)        -173.7858         estimate D2E/DX2                !
 ! D81   D(1,13,30,46)         -68.1795         estimate D2E/DX2                !
 ! D82   D(14,13,30,23)       -151.5415         estimate D2E/DX2                !
 ! D83   D(14,13,30,29)         -0.2427         estimate D2E/DX2                !
 ! D84   D(14,13,30,46)        105.3636         estimate D2E/DX2                !
 ! D85   D(13,14,15,6)           3.1451         estimate D2E/DX2                !
 ! D86   D(13,14,15,32)       -179.2463         estimate D2E/DX2                !
 ! D87   D(31,14,15,6)        -124.5792         estimate D2E/DX2                !
 ! D88   D(31,14,15,32)         53.0294         estimate D2E/DX2                !
 ! D89   D(45,14,15,6)         140.3474         estimate D2E/DX2                !
 ! D90   D(45,14,15,32)        -42.044          estimate D2E/DX2                !
 ! D91   D(2,16,17,18)          -1.3103         estimate D2E/DX2                !
 ! D92   D(2,16,17,22)         175.7301         estimate D2E/DX2                !
 ! D93   D(19,16,17,18)       -177.1734         estimate D2E/DX2                !
 ! D94   D(19,16,17,22)         -0.1329         estimate D2E/DX2                !
 ! D95   D(2,16,19,20)        -170.8454         estimate D2E/DX2                !
 ! D96   D(2,16,19,23)           9.2999         estimate D2E/DX2                !
 ! D97   D(17,16,19,20)          4.6231         estimate D2E/DX2                !
 ! D98   D(17,16,19,23)       -175.2316         estimate D2E/DX2                !
 ! D99   D(16,17,18,10)          4.2434         estimate D2E/DX2                !
 ! D100  D(16,17,18,37)        179.9488         estimate D2E/DX2                !
 ! D101  D(22,17,18,10)       -172.8294         estimate D2E/DX2                !
 ! D102  D(22,17,18,37)          2.8759         estimate D2E/DX2                !
 ! D103  D(16,17,22,21)         -3.7373         estimate D2E/DX2                !
 ! D104  D(16,17,22,38)        179.8452         estimate D2E/DX2                !
 ! D105  D(18,17,22,21)        173.4646         estimate D2E/DX2                !
 ! D106  D(18,17,22,38)         -2.9529         estimate D2E/DX2                !
 ! D107  D(16,19,20,21)         -5.6484         estimate D2E/DX2                !
 ! D108  D(16,19,20,26)        174.2931         estimate D2E/DX2                !
 ! D109  D(23,19,20,21)        174.2217         estimate D2E/DX2                !
 ! D110  D(23,19,20,26)         -5.8367         estimate D2E/DX2                !
 ! D111  D(16,19,23,24)       -175.478          estimate D2E/DX2                !
 ! D112  D(16,19,23,30)         10.0231         estimate D2E/DX2                !
 ! D113  D(20,19,23,24)          4.6731         estimate D2E/DX2                !
 ! D114  D(20,19,23,30)       -169.8259         estimate D2E/DX2                !
 ! D115  D(19,20,21,22)          2.2151         estimate D2E/DX2                !
 ! D116  D(19,20,21,39)       -178.2048         estimate D2E/DX2                !
 ! D117  D(26,20,21,22)       -177.7296         estimate D2E/DX2                !
 ! D118  D(26,20,21,39)          1.8506         estimate D2E/DX2                !
 ! D119  D(19,20,26,25)          2.0888         estimate D2E/DX2                !
 ! D120  D(19,20,26,40)       -178.0708         estimate D2E/DX2                !
 ! D121  D(21,20,26,25)       -177.9657         estimate D2E/DX2                !
 ! D122  D(21,20,26,40)          1.8747         estimate D2E/DX2                !
 ! D123  D(20,21,22,17)          2.8242         estimate D2E/DX2                !
 ! D124  D(20,21,22,38)        179.3309         estimate D2E/DX2                !
 ! D125  D(39,21,22,17)       -176.7677         estimate D2E/DX2                !
 ! D126  D(39,21,22,38)         -0.261          estimate D2E/DX2                !
 ! D127  D(19,23,24,25)          0.0091         estimate D2E/DX2                !
 ! D128  D(19,23,24,27)       -177.5164         estimate D2E/DX2                !
 ! D129  D(30,23,24,25)        175.3023         estimate D2E/DX2                !
 ! D130  D(30,23,24,27)         -2.2232         estimate D2E/DX2                !
 ! D131  D(19,23,30,13)        -37.5015         estimate D2E/DX2                !
 ! D132  D(19,23,30,29)        172.5249         estimate D2E/DX2                !
 ! D133  D(19,23,30,46)         58.8315         estimate D2E/DX2                !
 ! D134  D(24,23,30,13)        147.9271         estimate D2E/DX2                !
 ! D135  D(24,23,30,29)         -2.0465         estimate D2E/DX2                !
 ! D136  D(24,23,30,46)       -115.7399         estimate D2E/DX2                !
 ! D137  D(23,24,25,26)         -3.8919         estimate D2E/DX2                !
 ! D138  D(23,24,25,41)        179.446          estimate D2E/DX2                !
 ! D139  D(27,24,25,26)        173.8274         estimate D2E/DX2                !
 ! D140  D(27,24,25,41)         -2.8347         estimate D2E/DX2                !
 ! D141  D(23,24,27,28)          4.2941         estimate D2E/DX2                !
 ! D142  D(23,24,27,42)       -178.934          estimate D2E/DX2                !
 ! D143  D(25,24,27,28)       -173.3951         estimate D2E/DX2                !
 ! D144  D(25,24,27,42)          3.3769         estimate D2E/DX2                !
 ! D145  D(24,25,26,20)          2.9027         estimate D2E/DX2                !
 ! D146  D(24,25,26,40)       -176.9425         estimate D2E/DX2                !
 ! D147  D(41,25,26,20)        179.6724         estimate D2E/DX2                !
 ! D148  D(41,25,26,40)         -0.1728         estimate D2E/DX2                !
 ! D149  D(24,27,28,29)         -1.6839         estimate D2E/DX2                !
 ! D150  D(24,27,28,43)        176.8016         estimate D2E/DX2                !
 ! D151  D(42,27,28,29)       -178.5536         estimate D2E/DX2                !
 ! D152  D(42,27,28,43)         -0.0681         estimate D2E/DX2                !
 ! D153  D(27,28,29,30)         -2.8097         estimate D2E/DX2                !
 ! D154  D(27,28,29,44)        175.6958         estimate D2E/DX2                !
 ! D155  D(43,28,29,30)        178.7052         estimate D2E/DX2                !
 ! D156  D(43,28,29,44)         -2.7893         estimate D2E/DX2                !
 ! D157  D(28,29,30,13)       -147.4172         estimate D2E/DX2                !
 ! D158  D(28,29,30,23)          4.6754         estimate D2E/DX2                !
 ! D159  D(28,29,30,46)        116.7252         estimate D2E/DX2                !
 ! D160  D(44,29,30,13)         34.1369         estimate D2E/DX2                !
 ! D161  D(44,29,30,23)       -173.7705         estimate D2E/DX2                !
 ! D162  D(44,29,30,46)        -61.7207         estimate D2E/DX2                !
 --------------------------------------------------------------------------------
 Trust Radius=3.00D-01 FncErr=1.00D-07 GrdErr=1.00D-06 EigMax=2.50D+02 EigMin=1.00D-04
 Number of steps in this run=    276 maximum allowed number of steps=    276.
 GradGradGradGradGradGradGradGradGradGradGradGradGradGradGradGradGradGrad

                          Input orientation:                          
 ---------------------------------------------------------------------
 Center     Atomic      Atomic             Coordinates (Angstroms)
 Number     Number       Type             X           Y           Z
 ---------------------------------------------------------------------
      1          6           0       -4.039670   -0.127300    0.057420
      2          6           0       -2.612650   -0.305730    0.169630
      3          6           0       -2.413120   -1.683050    0.202840
      4          6           0       -4.586030   -1.404430   -0.024570
      5          6           0       -3.599450   -2.320590    0.084400
      6          6           0       -5.911000   -1.760580   -0.182740
      7          6           0       -6.176170   -3.160680   -0.232560
      8          6           0       -5.122380   -4.114060   -0.114600
      9          6           0       -3.773270   -3.695270    0.046250
     10          6           0       -1.217760   -2.362570    0.268290
     11          6           0       -1.309010   -3.786340    0.269530
     12          6           0       -2.569940   -4.442780    0.161530
     13          6           0       -4.856800    0.978440    0.065710
     14          6           0       -6.270000    0.689530   -0.116260
     15          6           0       -6.774450   -0.657180   -0.269680
     16          6           0       -1.539490    0.563640    0.116030
     17          6           0       -0.252940   -0.094790    0.159080
     18          6           0       -0.101730   -1.511140    0.276020
     19          6           0       -1.682320    1.995540   -0.062640
     20          6           0       -0.445790    2.670850   -0.294980
     21          6           0        0.794560    2.024790   -0.230250
     22          6           0        0.893790    0.666810    0.022050
     23          6           0       -2.935340    2.808050   -0.027900
     24          6           0       -2.795930    4.203230   -0.337510
     25          6           0       -1.566200    4.768460   -0.652240
     26          6           0       -0.406550    4.022490   -0.602900
     27          6           0       -3.864580    5.107410   -0.298860
     28          6           0       -5.117980    4.725710    0.128240
     29          6           0       -5.324500    3.409260    0.492500
     30          6           0       -4.304540    2.398860    0.391820
     31          1           0       -6.871160    1.161380    0.711080
     32          1           0       -7.841730   -0.811850   -0.415190
     33          1           0       -7.198100   -3.509740   -0.359320
     34          1           0       -5.356340   -5.174850   -0.157840
     35          1           0       -2.606030   -5.529200    0.145620
     36          1           0       -0.401840   -4.383350    0.325190
     37          1           0        0.891690   -1.954360    0.302970
     38          1           0        1.880670    0.210920    0.051210
     39          1           0        1.718630    2.580420   -0.385190
     40          1           0        0.535940    4.526170   -0.809700
     41          1           0       -1.478880    5.826680   -0.893420
     42          1           0       -3.717280    6.155040   -0.558270
     43          1           0       -5.921910    5.452030    0.200740
     44          1           0       -6.306610    3.165730    0.891760
     45          1           0       -6.754820    1.400520   -0.834280
     46          1           0       -4.123670    2.069010    1.464620
 ---------------------------------------------------------------------
                    Distance matrix (angstroms):
                    1          2          3          4          5
     1  C    0.000000
     2  C    1.442503   0.000000
     3  C    2.255476   1.392094   0.000000
     4  C    1.391507   2.266955   2.202472   0.000000
     5  C    2.237195   2.245150   1.351985   1.350764   0.000000
     6  C    2.495427   3.622136   3.519921   1.381089   2.393374
     7  C    3.721574   4.583794   4.066142   2.378281   2.728681
     8  C    4.134744   4.569782   3.653857   2.763670   2.361239
     9  C    3.577919   3.584863   2.433836   2.431778   1.386151
    10  C    3.606116   2.487176   1.376560   3.514120   2.389147
    11  C    4.570565   3.718078   2.376412   4.061878   2.725585
    12  C    4.560078   4.137278   2.764491   3.651140   2.359985
    13  C    1.374929   2.587683   3.615786   2.399903   3.530563
    14  C    2.381543   3.801116   4.539437   2.688648   4.029010
    15  C    2.804780   4.199654   4.505206   2.325434   3.601795
    16  C    2.594558   1.382154   2.412132   3.629666   3.544463
    17  C    3.788234   2.369143   2.681578   4.530403   4.019812
    18  C    4.179733   2.787302   2.318929   4.495630   3.595271
    19  C    3.174581   2.493052   3.759863   4.471328   4.725038
    20  C    4.568348   3.710953   4.803609   5.815721   5.916416
    21  C    5.299436   4.147325   4.921875   6.383777   6.187783
    22  C    4.997088   3.641804   4.060810   5.858382   5.396077
    23  C    3.137372   3.136682   4.527244   4.524354   5.172678
    24  C    4.522870   4.541090   5.923412   5.894764   6.586644
    25  C    5.530835   5.245754   6.562806   6.900573   7.411570
    26  C    5.554848   4.919062   6.101535   6.874153   7.134540
    27  C    5.249741   5.575742   6.961953   6.557422   7.442605
    28  C    4.971868   5.620834   6.956582   6.155074   7.208204
    29  C    3.787788   4.610805   5.872960   4.897378   5.997793
    30  C    2.561926   3.197916   4.502796   3.836357   4.781722
    31  H    3.178884   4.536572   5.312552   3.513742   4.818810
    32  H    3.891996   5.285967   5.532699   3.332164   4.530213
    33  H    4.646531   5.618881   5.152558   3.371542   3.815920
    34  H    5.220892   5.598518   4.580972   3.850611   3.360378
    35  H    5.589600   5.223529   3.851410   4.578547   3.359436
    36  H    5.605307   4.640998   3.369249   5.148179   3.812829
    37  H    5.264670   3.875069   3.317439   5.514991   4.511345
    38  H    5.929996   4.524475   4.695396   6.665831   6.036668
    39  H    6.378532   5.234279   5.966097   7.467116   7.247233
    40  H    6.583531   5.849783   6.948137   7.875470   8.048539
    41  H    6.550696   6.326291   7.646609   7.918222   8.475315
    42  H    6.320665   6.594816   7.982216   7.627919   8.500777
    43  H    5.890016   6.641082   7.951162   6.989019   8.113013
    44  H    4.084016   5.120337   6.256560   4.968543   6.170920
    45  H    3.240587   4.590936   5.425346   3.636898   4.964574
    46  H    2.609798   3.098317   4.312311   3.807394   4.631242
                    6          7          8          9         10
     6  C    0.000000
     7  C    1.425860   0.000000
     8  C    2.483029   1.425946   0.000000
     9  C    2.892292   2.477388   1.421744   0.000000
    10  C    4.753138   5.047144   4.296554   2.890679   0.000000
    11  C    5.048422   4.932828   3.846654   2.476030   1.426692
    12  C    4.298302   3.847594   2.588292   1.421289   2.483357
    13  C    2.945385   4.354540   5.102607   4.797706   4.944289
    14  C    2.477164   3.853109   4.938776   5.048420   5.915093
    15  C    1.403779   2.574263   3.834502   4.282159   5.837343
    16  C    4.959976   5.957422   5.896708   4.809673   2.947779
    17  C    5.908074   6.681146   6.319880   5.036756   2.466907
    18  C    5.832692   6.314939   5.668748   4.278250   1.403751
    19  C    5.657260   6.841795   7.011699   6.063765   4.395276
    20  C    7.036952   8.176056   8.242453   7.191387   5.123332
    21  C    7.700378   8.687933   8.526959   7.325340   4.852515
    22  C    7.227678   8.043559   7.685681   6.388253   3.700868
    23  C    5.454439   6.794895   7.259908   6.557499   5.456475
    24  C    6.730130   8.103345   8.639408   7.967984   6.779922
    25  C    7.856595   9.181460   9.583039   8.774609   7.198637
    26  C    7.994961   9.220824   9.417056   8.445118   6.495077
    27  C    7.167329   8.585404   9.308680   8.809916   7.945308
    28  C    6.541983   7.965243   8.843106   8.528064   8.091665
    29  C    5.246635   6.664470   7.550481   7.285589   7.087285
    30  C    4.495751   5.899266   6.583574   6.126997   5.675798
    31  H    3.202916   4.478132   5.618741   5.798790   6.676467
    32  H    2.163756   2.885212   4.288334   5.007934   6.837314
    33  H    2.178845   1.087314   2.175708   3.453747   6.121630
    34  H    3.459119   2.175910   1.087144   2.176447   5.021788
    35  H    5.023260   4.301024   2.898681   2.176149   3.459752
    36  H    6.122725   5.928650   4.748624   3.452217   2.180026
    37  H    6.822760   7.190038   6.403726   4.985832   2.148864
    38  H    8.040626   8.738471   8.232597   6.872073   4.033639
    39  H    8.780462   9.762755   9.575422   8.350532   5.786413
    40  H    9.026591  10.221212  10.351489   9.321696   7.189733
    41  H    8.815626  10.162377  10.616024   9.839448   8.275359
    42  H    8.222559   9.640273  10.374274   9.869001   8.915183
    43  H    7.222805   8.627350   9.604622   9.397533   9.121489
    44  H    5.057627   6.426863   7.443823   7.362474   7.539709
    45  H    3.336029   4.636965   5.795981   5.969259   6.784950
    46  H    4.535869   5.868802   6.459235   5.946552   5.432718
                   11         12         13         14         15
    11  C    0.000000
    12  C    1.425665   0.000000
    13  C    5.944029   5.884602   0.000000
    14  C    6.692807   6.333105   1.453863   0.000000
    15  C    6.320872   5.674030   2.542660   1.446249   0.000000
    16  C    4.358785   5.111569   3.343522   4.737883   5.389247
    17  C    3.841227   4.926816   4.728220   6.074206   6.559742
    18  C    2.575675   3.834016   5.371492   6.560822   6.749239
    19  C    5.803433   6.503083   3.335909   4.770256   5.745396
    20  C    6.539046   7.438020   4.738286   6.154591   7.150410
    21  C    6.200324   7.300878   5.755025   7.190544   8.030220
    22  C    4.974346   6.174528   5.759193   7.165161   7.787166
    23  C    6.798485   7.262502   2.654853   3.951695   5.177359
    24  C    8.149396   8.663348   3.848252   4.946130   6.281465
    25  C    8.608159   9.301433   5.070281   6.249054   7.530590
    26  C    7.909070   8.770713   5.433047   6.762062   7.909519
    27  C    9.271073   9.648533   4.262136   5.033592   6.457452
    28  C    9.326479   9.516030   3.756881   4.204483   5.646037
    29  C    8.243211   8.327765   2.511927   2.943041   4.383972
    30  C    6.873489   7.061863   1.558503   2.653863   3.984648
    31  H    7.457373   7.085839   2.123115   1.126289   2.068430
    32  H    7.210608   6.427132   3.513717   2.194046   1.088202
    33  H    5.929025   4.749917   5.079970   4.307472   2.885241
    34  H    4.300173   2.898612   6.177580   5.935272   4.736337
    35  H    2.176046   1.087136   6.886344   7.222594   6.425323
    36  H    1.087417   2.175080   6.975872   7.769446   7.405969
    37  H    2.863625   4.265574   6.457766   7.645634   7.796173
    38  H    5.118575   6.440266   6.781062   8.166427   8.704463
    39  H    7.080317   8.247186   6.782767   8.213769   9.089984
    40  H    8.582913   9.541061   6.514167   7.843563   8.977780
    41  H    9.684599  10.380999   5.986293   7.067469   8.394793
    42  H   10.262361  10.684020   5.337138   6.048434   7.472343
    43  H   10.326232  10.447225   4.600620   4.785714   6.186321
    44  H    8.584547   8.507959   2.751099   2.673763   4.022743
    45  H    7.601234   7.255964   2.142572   1.120763   2.133843
    46  H    6.605730   6.820229   1.919315   3.001479   4.179299
                   16         17         18         19         20
    16  C    0.000000
    17  C    1.445889   0.000000
    18  C    2.529321   1.429191   0.000000
    19  C    1.450056   2.542000   3.861316   0.000000
    20  C    2.409449   2.809293   4.234791   1.427947   0.000000
    21  C    2.775366   2.396133   3.682723   2.482717   1.400018
    22  C    2.437279   1.383402   2.408117   2.899834   2.431288
    23  C    2.646977   3.956856   5.174661   1.493800   2.507591
    24  C    3.876978   5.018603   6.347374   2.487886   2.805914
    25  C    4.274513   5.102361   6.514577   2.837287   2.404770
    26  C    3.709994   4.190012   5.611281   2.455198   1.386826
    27  C    5.120940   6.349530   7.635099   3.808122   4.198210
    28  C    5.488949   6.848853   8.005180   4.392496   5.121613
    29  C    4.750325   6.173350   7.178755   3.946170   4.996717
    30  C    3.330104   4.763184   5.741526   2.691698   3.928820
    31  H    5.397970   6.758957   7.290873   5.312111   6.676529
    32  H    6.472434   7.644194   7.802203   6.778205   8.175792
    33  H    6.988437   7.756666   7.399765   7.798715   9.154099
    34  H    6.897363   7.207783   6.420431   8.057418   9.256744
    35  H    6.185554   5.921995   4.736384   7.584084   8.491265
    36  H    5.080424   4.294358   2.888265   6.517690   7.081545
    37  H    3.505126   2.188352   1.088142   4.728732   4.851697
    38  H    3.438911   2.158098   2.635515   3.986568   3.403457
    39  H    3.864449   3.367502   4.526784   3.465917   2.168186
    40  H    4.567935   4.786871   6.167214   3.447153   2.161236
    41  H    5.359315   6.137955   7.556966   3.925458   3.374117
    42  H    6.038311   7.181686   8.516957   4.657054   4.786601
    43  H    6.565755   7.931341   9.075566   5.476387   6.161866
    44  H    5.486170   6.914820   7.794407   4.864595   6.000206
    45  H    5.366854   6.745158   7.346709   5.165243   6.458207
    46  H    3.280674   4.622663   5.514186   2.880644   4.121311
                   21         22         23         24         25
    21  C    0.000000
    22  C    1.384779   0.000000
    23  C    3.816621   4.387441   0.000000
    24  C    4.201038   5.123435   1.435904   0.000000
    25  C    3.644035   4.830088   2.471346   1.389524   0.000000
    26  C    2.360580   3.652675   2.863611   2.410858   1.379744
    27  C    5.587024   6.516440   2.494787   1.400374   2.349961
    28  C    6.510116   7.254469   2.909591   2.425247   3.636773
    29  C    6.315221   6.812451   2.518006   2.777224   4.157243
    30  C    5.150507   5.491754   1.489399   2.462433   3.768763
    31  H    7.771412   7.811134   4.329930   5.192292   6.558374
    32  H    9.092097   8.870565   6.109528   7.114574   8.401091
    33  H    9.722669   9.114148   7.628593   8.880849  10.016621
    34  H    9.469616   8.556955   8.342950   9.722981  10.652653
    35  H    8.292651   7.117201   8.345555   9.746264  10.380734
    36  H    6.542488   5.222515   7.632793   8.938691   9.277216
    37  H    4.015892   2.636181   6.118511   7.205877   7.221493
    38  H    2.132834   1.087482   5.472229   6.161187   5.757337
    39  H    1.089328   2.123231   4.673212   4.797607   3.955874
    40  H    2.580610   3.964155   3.951320   3.380623   2.121907
    41  H    4.479140   5.752557   3.461579   2.163157   1.088863
    42  H    6.125623   7.191621   3.477796   2.169604   2.560972
    43  H    7.552661   8.329708   3.995311   3.408954   4.490774
    44  H    7.279235   7.671164   3.512716   3.861656   5.236809
    45  H    7.599191   7.731291   4.149677   4.875938   6.188533
    46  H    5.202262   5.405745   2.045953   3.092808   4.278876
                   26         27         28         29         30
    26  C    0.000000
    27  C    3.636958   0.000000
    28  C    4.819404   1.378086   0.000000
    29  C    5.075646   2.375149   1.381440   0.000000
    30  C    4.338199   2.829637   2.478990   1.439223   0.000000
    31  H    7.190527   5.062673   4.014697   2.737316   2.867198
    32  H    8.870625   7.132243   6.195055   4.997811   4.844754
    33  H   10.144899   9.239658   8.508070   7.218624   6.621817
    34  H   10.454165  10.390866   9.907560   8.608769   7.666126
    35  H    9.830197  10.720027  10.558095   9.349143   8.111701
    36  H    8.456921  10.121983  10.259422   9.218750   7.825208
    37  H    6.182941   8.535391   8.987213   8.212512   6.779323
    38  H    4.493028   7.556855   8.328887   7.895479   6.569621
    39  H    2.577470   6.129059   7.183670   7.145838   6.075795
    40  H    1.088461   4.468039   5.734663   6.106388   5.422116
    41  H    2.118819   2.561721   3.936873   4.749051   4.624516
    42  H    3.938362   1.089275   2.115713   3.350609   3.918729
    43  H    5.754009   2.144987   1.085864   2.148239   3.460382
    44  H    6.146442   3.339342   2.104600   1.087775   2.201435
    45  H    6.872321   4.730877   3.829175   2.800214   2.916141
    46  H    4.680567   3.522622   3.135701   2.045307   1.136844
                   31         32         33         34         35
    31  H    0.000000
    32  H    2.470653   0.000000
    33  H    4.803333   2.774165   0.000000
    34  H    6.572481   5.027839   2.491037   0.000000
    35  H    7.954555   7.069686   5.041854   2.789598   0.000000
    36  H    8.529070   8.285876   6.886283   5.040522   2.490717
    37  H    8.374738   8.837064   8.264535   7.044273   5.003827
    38  H    8.827986   9.787168   9.820179   9.023554   7.286176
    39  H    8.774963  10.144401  10.798092  10.500052   9.205997
    40  H    8.276455   9.941602  11.162171  11.368979  10.578047
    41  H    7.308634   9.207858  10.961910  11.688004  11.458887
    42  H    6.041097   8.097476  10.274418  11.454836  11.758053
    43  H    4.423935   6.580370   9.069490  10.647959  11.471073
    44  H    2.090163   4.459356   6.849953   8.459902   9.479073
    45  H    1.568075   2.500318   4.953053   6.756390   8.135950
    46  H    2.990036   5.065275   6.625808   7.524982   7.859757
                   36         37         38         39         40
    36  H    0.000000
    37  H    2.752037   0.000000
    38  H    5.137337   2.393721   0.000000
    39  H    7.314036   4.660646   2.414794   0.000000
    40  H    9.030335   6.584972   4.601179   2.316227   0.000000
    41  H   10.338749   8.221650   6.611782   4.584820   2.399549
    42  H   11.082884   9.367321   8.187861   6.508224   4.561394
    43  H   11.279245  10.064304   9.400630   8.183356   6.601669
    44  H    9.600829   8.853108   8.744654   8.147249   7.180965
    45  H    8.669364   8.427198   8.761902   8.566983   7.932558
    46  H    7.535467   6.533818   6.442230   6.149456   5.737781
                   41         42         43         44         45
    41  H    0.000000
    42  H    2.287046   0.000000
    43  H    4.591085   2.435305   0.000000
    44  H    5.794351   4.212267   2.419229   0.000000
    45  H    6.886939   5.648742   4.263770   2.509198   0.000000
    46  H    5.164819   4.577431   4.034338   2.509221   3.557354
                   46
    46  H    0.000000
 Stoichiometry    C30H16
 Framework group  C1[X(C30H16)]
 Deg. of freedom   132
 Full point group                 C1      NOp   1
 Largest Abelian subgroup         C1      NOp   1
 Largest concise Abelian subgroup C1      NOp   1
                         Standard orientation:                         
 ---------------------------------------------------------------------
 Center     Atomic      Atomic             Coordinates (Angstroms)
 Number     Number       Type             X           Y           Z
 ---------------------------------------------------------------------
      1          6           0        0.684944   -0.890199    0.056483
      2          6           0        0.560566    0.542719    0.166446
      3          6           0        1.864632    1.029719    0.153540
      4          6           0        2.045353   -1.153895   -0.070182
      5          6           0        2.734753    0.004898    0.010373
      6          6           0        2.668683   -2.374013   -0.243904
      7          6           0        4.090688   -2.336704   -0.341820
      8          6           0        4.802499   -1.104300   -0.253359
      9          6           0        4.112963    0.126148   -0.074772
     10          6           0        2.277193    2.342208    0.199177
     11          6           0        3.687177    2.554732    0.151960
     12          6           0        4.591918    1.461059    0.018385
     13          6           0       -0.221584   -1.923032    0.099998
     14          6           0        0.353969   -3.243731   -0.095472
     15          6           0        1.771051   -3.452049   -0.295768
     16          6           0       -0.517792    1.407036    0.145217
     17          6           0       -0.145909    2.804073    0.169427
     18          6           0        1.209337    3.252501    0.238751
     19          6           0       -1.892080    0.963223    0.014748
     20          6           0       -2.821538    2.027509   -0.191247
     21          6           0       -2.451217    3.376873   -0.145076
     22          6           0       -1.137408    3.762747    0.061366
     23          6           0       -2.418940   -0.433343    0.073590
     24          6           0       -3.821587   -0.594141   -0.188223
     25          6           0       -4.644862    0.486452   -0.480306
     26          6           0       -4.160373    1.778050   -0.453117
     27          6           0       -4.476924   -1.829932   -0.121870
     28          6           0       -3.824104   -2.972038    0.288669
     29          6           0       -2.482291   -2.893260    0.607585
     30          6           0       -1.714978   -1.682826    0.475509
     31          1           0        0.048367   -3.927466    0.745742
     32          1           0        2.143409   -4.462967   -0.449318
     33          1           0        4.643927   -3.262026   -0.483090
     34          1           0        5.886706   -1.108360   -0.333125
     35          1           0        5.660143    1.655928   -0.034400
     36          1           0        4.079896    3.568051    0.189827
     37          1           0        1.432604    4.317392    0.253365
     38          1           0       -0.900306    4.823941    0.077742
     39          1           0       -3.194958    4.161509   -0.278613
     40          1           0       -4.859024    2.591461   -0.640194
     41          1           0       -5.705055    0.346459   -0.685280
     42          1           0       -5.540099   -1.909146   -0.345259
     43          1           0       -4.360686   -3.911281    0.383546
     44          1           0       -2.022854   -3.799643    0.995712
     45          1           0       -0.261881   -3.871450   -0.790315
     46          1           0       -1.395029   -1.431306    1.537011
 ---------------------------------------------------------------------
 Rotational constants (GHZ):           0.2773839           0.1567432           0.1012834
 Standard basis: 6-311+G(d,p) (5D, 7F)
 There are   786 symmetry adapted cartesian basis functions of A   symmetry.
 There are   756 symmetry adapted basis functions of A   symmetry.
   756 basis functions,  1208 primitive gaussians,   786 cartesian basis functions
    98 alpha electrons       98 beta electrons
       nuclear repulsion energy      2636.0481672829 Hartrees.
 NAtoms=   46 NActive=   46 NUniq=   46 SFac= 1.00D+00 NAtFMM=   60 NAOKFM=F Big=F
 Integral buffers will be    131072 words long.
 Raffenetti 2 integral format.
 Two-electron integral symmetry is turned on.
 One-electron integrals computed using PRISM.
 NBasis=   756 RedAO= T EigKep=  1.11D-06  NBF=   756
 NBsUse=   732 1.00D-06 EigRej=  9.30D-07 NBFU=   732
 ExpMin= 4.38D-02 ExpMax= 4.56D+03 ExpMxC= 6.82D+02 IAcc=2 IRadAn=         4 AccDes= 0.00D+00
 Harris functional with IExCor=  402 and IRadAn=       4 diagonalized for initial guess.
 HarFok:  IExCor=  402 AccDes= 0.00D+00 IRadAn=         4 IDoV= 1 UseB2=F ITyADJ=14
 ICtDFT=  3500011 ScaDFX=  1.000000  1.000000  1.000000  1.000000
 FoFCou: FMM=F IPFlag=           0 FMFlag=      100000 FMFlg1=           0
         NFxFlg=           0 DoJE=T BraDBF=F KetDBF=T FulRan=T
         wScrn=  0.000000 ICntrl=       500 IOpCl=  0 I1Cent=   200000004 NGrid=           0
         NMat0=    1 NMatS0=      1 NMatT0=    0 NMatD0=    1 NMtDS0=    0 NMtDT0=    0
 Petite list used in FoFCou.
 Requested convergence on RMS density matrix=1.00D-08 within 128 cycles.
 Requested convergence on MAX density matrix=1.00D-06.
 Requested convergence on             energy=1.00D-06.
 No special actions if energy rises.
 EnCoef did     7 forward-backward iterations
 Restarting incremental Fock formation.
 SCF Done:  E(RB3LYP) =  -1152.97486607     A.U. after   21 cycles
            NFock= 21  Conv=0.48D-08     -V/T= 2.0037

 **********************************************************************

            Population analysis using the SCF Density.

 **********************************************************************

 Orbital symmetries:
       Occupied  (A) (A) (A) (A) (A) (A) (A) (A) (A) (A) (A) (A)
                 (A) (A) (A) (A) (A) (A) (A) (A) (A) (A) (A) (A)
                 (A) (A) (A) (A) (A) (A) (A) (A) (A) (A) (A) (A)
                 (A) (A) (A) (A) (A) (A) (A) (A) (A) (A) (A) (A)
                 (A) (A) (A) (A) (A) (A) (A) (A) (A) (A) (A) (A)
                 (A) (A) (A) (A) (A) (A) (A) (A) (A) (A) (A) (A)
                 (A) (A) (A) (A) (A) (A) (A) (A) (A) (A) (A) (A)
                 (A) (A) (A) (A) (A) (A) (A) (A) (A) (A) (A) (A)
                 (A) (A)
       Virtual   (A) (A) (A) (A) (A) (A) (A) (A) (A) (A) (A) (A)
                 (A) (A) (A) (A) (A) (A) (A) (A) (A) (A) (A) (A)
                 (A) (A) (A) (A) (A) (A) (A) (A) (A) (A) (A) (A)
                 (A) (A) (A) (A) (A) (A) (A) (A) (A) (A) (A) (A)
                 (A) (A) (A) (A) (A) (A) (A) (A) (A) (A) (A) (A)
                 (A) (A) (A) (A) (A) (A) (A) (A) (A) (A) (A) (A)
                 (A) (A) (A) (A) (A) (A) (A) (A) (A) (A) (A) (A)
                 (A) (A) (A) (A) (A) (A) (A) (A) (A) (A) (A) (A)
                 (A) (A) (A) (A) (A) (A) (A) (A) (A) (A) (A) (A)
                 (A) (A) (A) (A) (A) (A) (A) (A) (A) (A) (A) (A)
                 (A) (A) (A) (A) (A) (A) (A) (A) (A) (A) (A) (A)
                 (A) (A) (A) (A) (A) (A) (A) (A) (A) (A) (A) (A)
                 (A) (A) (A) (A) (A) (A) (A) (A) (A) (A) (A) (A)
                 (A) (A) (A) (A) (A) (A) (A) (A) (A) (A) (A) (A)
                 (A) (A) (A) (A) (A) (A) (A) (A) (A) (A) (A) (A)
                 (A) (A) (A) (A) (A) (A) (A) (A) (A) (A) (A) (A)
                 (A) (A) (A) (A) (A) (A) (A) (A) (A) (A) (A) (A)
                 (A) (A) (A) (A) (A) (A) (A) (A) (A) (A) (A) (A)
                 (A) (A) (A) (A) (A) (A) (A) (A) (A) (A) (A) (A)
                 (A) (A) (A) (A) (A) (A) (A) (A) (A) (A) (A) (A)
                 (A) (A) (A) (A) (A) (A) (A) (A) (A) (A) (A) (A)
                 (A) (A) (A) (A) (A) (A) (A) (A) (A) (A) (A) (A)
                 (A) (A) (A) (A) (A) (A) (A) (A) (A) (A) (A) (A)
                 (A) (A) (A) (A) (A) (A) (A) (A) (A) (A) (A) (A)
                 (A) (A) (A) (A) (A) (A) (A) (A) (A) (A) (A) (A)
                 (A) (A) (A) (A) (A) (A) (A) (A) (A) (A) (A) (A)
                 (A) (A) (A) (A) (A) (A) (A) (A) (A) (A) (A) (A)
                 (A) (A) (A) (A) (A) (A) (A) (A) (A) (A) (A) (A)
                 (A) (A) (A) (A) (A) (A) (A) (A) (A) (A) (A) (A)
                 (A) (A) (A) (A) (A) (A) (A) (A) (A) (A) (A) (A)
                 (A) (A) (A) (A) (A) (A) (A) (A) (A) (A) (A) (A)
                 (A) (A) (A) (A) (A) (A) (A) (A) (A) (A) (A) (A)
                 (A) (A) (A) (A) (A) (A) (A) (A) (A) (A) (A) (A)
                 (A) (A) (A) (A) (A) (A) (A) (A) (A) (A) (A) (A)
                 (A) (A) (A) (A) (A) (A) (A) (A) (A) (A) (A) (A)
                 (A) (A) (A) (A) (A) (A) (A) (A) (A) (A) (A) (A)
                 (A) (A) (A) (A) (A) (A) (A) (A) (A) (A) (A) (A)
                 (A) (A) (A) (A) (A) (A) (A) (A) (A) (A) (A) (A)
                 (A) (A) (A) (A) (A) (A) (A) (A) (A) (A) (A) (A)
                 (A) (A) (A) (A) (A) (A) (A) (A) (A) (A) (A) (A)
                 (A) (A) (A) (A) (A) (A) (A) (A) (A) (A) (A) (A)
                 (A) (A) (A) (A) (A) (A) (A) (A) (A) (A) (A) (A)
                 (A) (A) (A) (A) (A) (A) (A) (A) (A) (A) (A) (A)
                 (A) (A) (A) (A) (A) (A) (A) (A) (A) (A) (A) (A)
                 (A) (A) (A) (A) (A) (A) (A) (A) (A) (A) (A) (A)
                 (A) (A) (A) (A) (A) (A) (A) (A) (A) (A) (A) (A)
                 (A) (A) (A) (A) (A) (A) (A) (A) (A) (A) (A) (A)
                 (A) (A) (A) (A) (A) (A) (A) (A) (A) (A) (A) (A)
                 (A) (A) (A) (A) (A) (A) (A) (A) (A) (A) (A) (A)
                 (A) (A) (A) (A) (A) (A) (A) (A) (A) (A) (A) (A)
                 (A) (A) (A) (A) (A) (A) (A) (A) (A) (A) (A) (A)
                 (A) (A) (A) (A) (A) (A) (A) (A) (A) (A) (A) (A)
                 (A) (A) (A) (A) (A) (A) (A) (A) (A) (A)
 The electronic state is 1-A.
 Alpha  occ. eigenvalues --  -10.22309 -10.22270 -10.21843 -10.20807 -10.20544
 Alpha  occ. eigenvalues --  -10.20312 -10.19204 -10.19111 -10.19092 -10.19003
 Alpha  occ. eigenvalues --  -10.18985 -10.18910 -10.18796 -10.18562 -10.18496
 Alpha  occ. eigenvalues --  -10.18334 -10.18238 -10.18179 -10.18169 -10.18152
 Alpha  occ. eigenvalues --  -10.18026 -10.17841 -10.17497 -10.17484 -10.17238
 Alpha  occ. eigenvalues --  -10.17154 -10.16928 -10.16868 -10.16439 -10.15882
 Alpha  occ. eigenvalues --   -0.93889  -0.89674  -0.88558  -0.85963  -0.85291
 Alpha  occ. eigenvalues --   -0.83339  -0.81356  -0.80762  -0.78866  -0.76541
 Alpha  occ. eigenvalues --   -0.76160  -0.74942  -0.73708  -0.71605  -0.70969
 Alpha  occ. eigenvalues --   -0.67365  -0.66453  -0.64209  -0.63832  -0.62230
 Alpha  occ. eigenvalues --   -0.61636  -0.60566  -0.58902  -0.56714  -0.55297
 Alpha  occ. eigenvalues --   -0.53528  -0.52375  -0.51509  -0.50901  -0.50476
 Alpha  occ. eigenvalues --   -0.49718  -0.47894  -0.47255  -0.46748  -0.45560
 Alpha  occ. eigenvalues --   -0.45228  -0.44856  -0.44386  -0.44097  -0.43751
 Alpha  occ. eigenvalues --   -0.42877  -0.42638  -0.42425  -0.41260  -0.40989
 Alpha  occ. eigenvalues --   -0.40118  -0.39771  -0.39415  -0.38980  -0.38094
 Alpha  occ. eigenvalues --   -0.37117  -0.36200  -0.35732  -0.35545  -0.35150
 Alpha  occ. eigenvalues --   -0.34374  -0.33952  -0.33581  -0.32969  -0.32051
 Alpha  occ. eigenvalues --   -0.29542  -0.29283  -0.26679  -0.25504  -0.24853
 Alpha  occ. eigenvalues --   -0.21934  -0.20650  -0.14694
 Alpha virt. eigenvalues --   -0.11513  -0.08216  -0.05665  -0.04459  -0.01664
 Alpha virt. eigenvalues --   -0.00984  -0.00312   0.00520   0.00799   0.01480
 Alpha virt. eigenvalues --    0.01558   0.01597   0.01820   0.02782   0.02856
 Alpha virt. eigenvalues --    0.03212   0.03562   0.04157   0.04351   0.04624
 Alpha virt. eigenvalues --    0.04766   0.04918   0.05347   0.05589   0.06365
 Alpha virt. eigenvalues --    0.06893   0.06963   0.07342   0.07845   0.07993
 Alpha virt. eigenvalues --    0.08678   0.08798   0.08963   0.09303   0.09550
 Alpha virt. eigenvalues --    0.09764   0.10069   0.10772   0.11369   0.11500
 Alpha virt. eigenvalues --    0.11576   0.12065   0.12273   0.12679   0.12903
 Alpha virt. eigenvalues --    0.13219   0.13515   0.14090   0.14478   0.14699
 Alpha virt. eigenvalues --    0.14727   0.15416   0.15466   0.15596   0.16040
 Alpha virt. eigenvalues --    0.16380   0.16479   0.16715   0.16812   0.16932
 Alpha virt. eigenvalues --    0.17032   0.17225   0.17679   0.17924   0.18060
 Alpha virt. eigenvalues --    0.18196   0.18458   0.18595   0.18777   0.19108
 Alpha virt. eigenvalues --    0.19494   0.19586   0.19773   0.20071   0.20150
 Alpha virt. eigenvalues --    0.20300   0.20456   0.20600   0.21063   0.21313
 Alpha virt. eigenvalues --    0.21488   0.21725   0.21936   0.22466   0.22486
 Alpha virt. eigenvalues --    0.22741   0.22945   0.23137   0.23524   0.23763
 Alpha virt. eigenvalues --    0.23870   0.24090   0.24298   0.24462   0.24861
 Alpha virt. eigenvalues --    0.25149   0.25333   0.25561   0.25609   0.25836
 Alpha virt. eigenvalues --    0.26219   0.26650   0.27005   0.27084   0.27389
 Alpha virt. eigenvalues --    0.27793   0.27835   0.28273   0.28883   0.29167
 Alpha virt. eigenvalues --    0.29268   0.29474   0.29756   0.29808   0.30247
 Alpha virt. eigenvalues --    0.30481   0.30584   0.31304   0.31623   0.31729
 Alpha virt. eigenvalues --    0.32446   0.32785   0.33059   0.33253   0.33320
 Alpha virt. eigenvalues --    0.33713   0.34081   0.34257   0.34670   0.35175
 Alpha virt. eigenvalues --    0.35479   0.35675   0.36238   0.36512   0.36781
 Alpha virt. eigenvalues --    0.37663   0.38198   0.38470   0.38769   0.39630
 Alpha virt. eigenvalues --    0.39833   0.40630   0.40949   0.41610   0.42316
 Alpha virt. eigenvalues --    0.42700   0.43829   0.44019   0.44594   0.45594
 Alpha virt. eigenvalues --    0.45952   0.46663   0.47010   0.47144   0.47665
 Alpha virt. eigenvalues --    0.48251   0.49052   0.50113   0.50667   0.50950
 Alpha virt. eigenvalues --    0.51919   0.52462   0.52734   0.52956   0.53756
 Alpha virt. eigenvalues --    0.53942   0.54405   0.54828   0.55052   0.55318
 Alpha virt. eigenvalues --    0.55603   0.56317   0.56597   0.56740   0.56944
 Alpha virt. eigenvalues --    0.57437   0.57466   0.58056   0.58772   0.59256
 Alpha virt. eigenvalues --    0.59541   0.59934   0.60116   0.60487   0.60833
 Alpha virt. eigenvalues --    0.61316   0.61597   0.61984   0.62169   0.62658
 Alpha virt. eigenvalues --    0.63196   0.63607   0.63878   0.64380   0.64517
 Alpha virt. eigenvalues --    0.64757   0.65075   0.65686   0.66045   0.66206
 Alpha virt. eigenvalues --    0.66758   0.67026   0.67425   0.67714   0.68157
 Alpha virt. eigenvalues --    0.68482   0.68999   0.69806   0.70168   0.70480
 Alpha virt. eigenvalues --    0.70939   0.71136   0.71453   0.71791   0.72506
 Alpha virt. eigenvalues --    0.72862   0.73100   0.73240   0.73506   0.73962
 Alpha virt. eigenvalues --    0.73971   0.74366   0.74938   0.75362   0.75764
 Alpha virt. eigenvalues --    0.76317   0.76517   0.76741   0.77331   0.77820
 Alpha virt. eigenvalues --    0.78149   0.78522   0.79163   0.79554   0.80999
 Alpha virt. eigenvalues --    0.81224   0.82878   0.83245   0.83883   0.84287
 Alpha virt. eigenvalues --    0.85342   0.87007   0.87746   0.88368   0.88963
 Alpha virt. eigenvalues --    0.89110   0.89486   0.90071   0.90321   0.90463
 Alpha virt. eigenvalues --    0.91051   0.91668   0.92361   0.92799   0.93323
 Alpha virt. eigenvalues --    0.93893   0.94079   0.94216   0.94644   0.95178
 Alpha virt. eigenvalues --    0.95659   0.96290   0.96332   0.97377   0.97591
 Alpha virt. eigenvalues --    0.97768   0.98110   0.98238   0.99189   0.99415
 Alpha virt. eigenvalues --    1.00059   1.00548   1.00991   1.01114   1.01782
 Alpha virt. eigenvalues --    1.01994   1.02748   1.03195   1.03673   1.04565
 Alpha virt. eigenvalues --    1.05027   1.05644   1.06463   1.07089   1.07213
 Alpha virt. eigenvalues --    1.07465   1.08765   1.09423   1.09641   1.10209
 Alpha virt. eigenvalues --    1.10926   1.11144   1.13384   1.13440   1.14144
 Alpha virt. eigenvalues --    1.15019   1.15761   1.16453   1.17065   1.17530
 Alpha virt. eigenvalues --    1.18534   1.19503   1.20663   1.21077   1.21809
 Alpha virt. eigenvalues --    1.23544   1.25559   1.26743   1.28775   1.29265
 Alpha virt. eigenvalues --    1.30400   1.30717   1.32746   1.33838   1.35035
 Alpha virt. eigenvalues --    1.36599   1.36970   1.38663   1.39286   1.40892
 Alpha virt. eigenvalues --    1.42001   1.42820   1.43407   1.43925   1.44305
 Alpha virt. eigenvalues --    1.46149   1.47471   1.47774   1.48053   1.48528
 Alpha virt. eigenvalues --    1.48879   1.49357   1.49744   1.50094   1.50477
 Alpha virt. eigenvalues --    1.51268   1.51906   1.52343   1.53373   1.53539
 Alpha virt. eigenvalues --    1.54471   1.54748   1.55944   1.56904   1.57315
 Alpha virt. eigenvalues --    1.57804   1.57933   1.58682   1.59563   1.60329
 Alpha virt. eigenvalues --    1.60852   1.61116   1.61812   1.62546   1.63601
 Alpha virt. eigenvalues --    1.64075   1.65188   1.66637   1.67512   1.67646
 Alpha virt. eigenvalues --    1.68334   1.69510   1.69744   1.71529   1.72608
 Alpha virt. eigenvalues --    1.72761   1.73620   1.74230   1.74361   1.75002
 Alpha virt. eigenvalues --    1.75656   1.76021   1.76709   1.77939   1.78835
 Alpha virt. eigenvalues --    1.79238   1.80353   1.80573   1.81540   1.82246
 Alpha virt. eigenvalues --    1.82723   1.83435   1.83906   1.84858   1.85184
 Alpha virt. eigenvalues --    1.85629   1.86609   1.87057   1.87171   1.88073
 Alpha virt. eigenvalues --    1.88491   1.89012   1.89158   1.89769   1.89882
 Alpha virt. eigenvalues --    1.90753   1.91629   1.92227   1.93267   1.93368
 Alpha virt. eigenvalues --    1.94488   1.95000   1.95652   1.95800   1.96951
 Alpha virt. eigenvalues --    1.97771   1.97850   1.98556   1.98944   2.00362
 Alpha virt. eigenvalues --    2.00628   2.01790   2.02703   2.03710   2.04146
 Alpha virt. eigenvalues --    2.04879   2.05775   2.06159   2.06409   2.07570
 Alpha virt. eigenvalues --    2.08296   2.09429   2.10446   2.11395   2.12101
 Alpha virt. eigenvalues --    2.12645   2.12854   2.14010   2.15223   2.16180
 Alpha virt. eigenvalues --    2.16658   2.17171   2.18727   2.19003   2.19957
 Alpha virt. eigenvalues --    2.21699   2.22412   2.23160   2.23714   2.24588
 Alpha virt. eigenvalues --    2.25400   2.26618   2.27126   2.28883   2.29107
 Alpha virt. eigenvalues --    2.30243   2.30556   2.32663   2.34130   2.35620
 Alpha virt. eigenvalues --    2.36432   2.37661   2.38291   2.39825   2.40986
 Alpha virt. eigenvalues --    2.42208   2.43249   2.43480   2.44787   2.46384
 Alpha virt. eigenvalues --    2.47074   2.49627   2.49993   2.51071   2.52117
 Alpha virt. eigenvalues --    2.54900   2.56625   2.57906   2.58529   2.58787
 Alpha virt. eigenvalues --    2.59490   2.60004   2.62102   2.62260   2.64072
 Alpha virt. eigenvalues --    2.64442   2.65316   2.66449   2.67221   2.68293
 Alpha virt. eigenvalues --    2.69454   2.69915   2.70439   2.70942   2.71296
 Alpha virt. eigenvalues --    2.72513   2.72887   2.73471   2.73861   2.74114
 Alpha virt. eigenvalues --    2.74433   2.74829   2.75264   2.75994   2.77028
 Alpha virt. eigenvalues --    2.77285   2.77646   2.78013   2.78329   2.79449
 Alpha virt. eigenvalues --    2.79786   2.80328   2.81089   2.81730   2.82250
 Alpha virt. eigenvalues --    2.84077   2.84165   2.85553   2.86210   2.86555
 Alpha virt. eigenvalues --    2.87375   2.87626   2.88413   2.89758   2.90184
 Alpha virt. eigenvalues --    2.91044   2.91723   2.92623   2.93475   2.94579
 Alpha virt. eigenvalues --    2.96086   2.98153   2.99232   3.00827   3.01184
 Alpha virt. eigenvalues --    3.01839   3.03104   3.05563   3.05954   3.07744
 Alpha virt. eigenvalues --    3.08898   3.11111   3.12879   3.14017   3.15950
 Alpha virt. eigenvalues --    3.16588   3.18759   3.19890   3.20320   3.21516
 Alpha virt. eigenvalues --    3.22891   3.23648   3.24294   3.26349   3.30676
 Alpha virt. eigenvalues --    3.32414   3.34717   3.36060   3.37090   3.39543
 Alpha virt. eigenvalues --    3.39639   3.41190   3.42967   3.43404   3.44195
 Alpha virt. eigenvalues --    3.45737   3.46339   3.47403   3.48370   3.49104
 Alpha virt. eigenvalues --    3.49660   3.50054   3.52607   3.54321   3.55326
 Alpha virt. eigenvalues --    3.56632   3.57264   3.59999   3.60734   3.63254
 Alpha virt. eigenvalues --    3.65017   3.65778   3.69607   3.71686   3.74555
 Alpha virt. eigenvalues --    3.76268   3.82590   3.86953   3.89321   3.94619
 Alpha virt. eigenvalues --    3.97495   4.04988   4.07453   4.07895   4.10044
 Alpha virt. eigenvalues --    4.11325   4.12435   4.13500   4.14734   4.22826
 Alpha virt. eigenvalues --    4.27069   4.32239   4.36894   4.45567   4.54023
 Alpha virt. eigenvalues --    4.70238   4.77188   4.79118   4.80196   4.82014
 Alpha virt. eigenvalues --    4.83589   4.85562   4.90656   4.93090  23.39342
 Alpha virt. eigenvalues --   23.60627  23.72538  23.80205  23.83789  23.84846
 Alpha virt. eigenvalues --   23.88715  23.88792  23.90848  23.93124  23.94872
 Alpha virt. eigenvalues --   23.95779  23.97339  23.99597  24.00951  24.03182
 Alpha virt. eigenvalues --   24.04726  24.05612  24.07647  24.08713  24.08948
 Alpha virt. eigenvalues --   24.09318  24.10546  24.14561  24.15596  24.19092
 Alpha virt. eigenvalues --   24.20137  24.20661  24.24673  24.35132
          Condensed to atoms (all electrons):
               1          2          3          4          5          6
     1  C    8.050688  -0.313777   0.192414   0.463706  -0.384675  -0.116468
     2  C   -0.313777   8.326761  -0.200367   0.463418  -0.011535   0.060702
     3  C    0.192414  -0.200367   7.772669  -0.174972  -0.074591   0.548293
     4  C    0.463706   0.463418  -0.174972   7.250386   0.098724  -0.094841
     5  C   -0.384675  -0.011535  -0.074591   0.098724   7.191691  -0.248244
     6  C   -0.116468   0.060702   0.548293  -0.094841  -0.248244  10.229897
     7  C   -1.381178  -0.164435  -0.864296  -0.526280   1.269816  -2.939357
     8  C   -0.587085   0.159495  -0.934886   0.331707  -0.369104  -1.260062
     9  C    0.440002   0.370806  -0.206657   0.637428  -0.052400   0.123909
    10  C   -0.375458   0.528366  -0.029680   0.321860  -0.022122  -0.346407
    11  C   -0.036412  -0.583078   0.261399  -0.529351   0.192238   0.122565
    12  C    0.205165  -0.673747   1.263930  -0.961203  -0.604074   0.615246
    13  C   -0.036772   1.277099  -0.348388   0.598941   0.398318   0.120101
    14  C   -0.029771  -0.837029  -0.104384   0.158411  -0.566349  -0.852596
    15  C    0.994365  -0.744705   0.104446  -0.174944  -0.495310  -0.786394
    16  C    0.472745  -0.621376   0.562885   0.140192   0.081172  -0.083214
    17  C    0.011859   0.732650  -0.281033  -0.355286  -0.252338   0.115715
    18  C   -0.075836   0.084660   0.384302  -0.046568  -0.246057   0.028557
    19  C    0.130212  -0.010639  -0.078908  -0.207771  -0.210049   0.081280
    20  C   -0.207378   0.261888  -0.353585  -0.034650   0.146738  -0.010950
    21  C    0.120924  -0.782160  -0.228745  -0.093318   0.036193   0.027644
    22  C    0.391869  -1.031890  -1.216462  -0.165122   0.128734   0.032738
    23  C    0.112775   0.326885  -0.106091  -0.300665   0.091728   0.148894
    24  C   -0.296542  -0.230345   0.138391  -0.107840   0.009940   0.036116
    25  C   -0.058655   0.155825  -0.065157   0.017185   0.005584  -0.015523
    26  C   -0.024959   0.323002  -0.283717   0.075808   0.046519  -0.029731
    27  C   -0.033181   0.181777  -0.011552   0.105620  -0.000737  -0.057359
    28  C    0.063638  -0.174306   0.013738  -0.083100  -0.006386   0.042257
    29  C   -0.707420  -0.665864  -0.005319  -0.008781  -0.065066  -0.043863
    30  C   -1.250200   0.121952   0.170620  -0.905088  -0.009698   0.177134
    31  H    0.026051   0.003536   0.001262  -0.016633  -0.001044  -0.054623
    32  H   -0.002273  -0.002986   0.001786   0.022105  -0.012986  -0.059439
    33  H   -0.013449   0.002227  -0.000923   0.028131   0.003459  -0.085582
    34  H   -0.001350   0.001718  -0.018897   0.003554   0.033834  -0.026991
    35  H    0.003525  -0.000148   0.010540  -0.016535   0.027491   0.013654
    36  H    0.001015  -0.018033   0.021611  -0.004611   0.007558   0.002757
    37  H    0.000368   0.001494   0.027301   0.003657  -0.012916  -0.000506
    38  H    0.000266  -0.012172   0.003933  -0.000200   0.001346   0.000043
    39  H    0.000138  -0.001717  -0.000158   0.000012   0.000063  -0.000007
    40  H   -0.000134   0.001923   0.000112  -0.000071  -0.000008   0.000007
    41  H   -0.000448   0.000597  -0.000018   0.000039   0.000004   0.000002
    42  H    0.000225  -0.000232   0.000042  -0.000060   0.000009   0.000040
    43  H   -0.000205   0.000373  -0.000046  -0.000048  -0.000004  -0.000120
    44  H   -0.012489  -0.000100   0.000896  -0.009169   0.000371   0.007406
    45  H    0.012005  -0.022758  -0.001379   0.002432   0.002823  -0.005737
    46  H   -0.076512  -0.053671   0.005558   0.024484  -0.007409  -0.000749
               7          8          9         10         11         12
     1  C   -1.381178  -0.587085   0.440002  -0.375458  -0.036412   0.205165
     2  C   -0.164435   0.159495   0.370806   0.528366  -0.583078  -0.673747
     3  C   -0.864296  -0.934886  -0.206657  -0.029680   0.261399   1.263930
     4  C   -0.526280   0.331707   0.637428   0.321860  -0.529351  -0.961203
     5  C    1.269816  -0.369104  -0.052400  -0.022122   0.192238  -0.604074
     6  C   -2.939357  -1.260062   0.123909  -0.346407   0.122565   0.615246
     7  C   12.152075   1.722199  -1.135911   0.320322  -0.215390  -0.940075
     8  C    1.722199   9.043626  -0.960196   0.496434  -0.146993  -1.260637
     9  C   -1.135911  -0.960196  10.548890   1.420013  -2.125043  -2.205211
    10  C    0.320322   0.496434   1.420013   9.028015  -1.080776  -1.928287
    11  C   -0.215390  -0.146993  -2.125043  -1.080776   8.445930   2.159513
    12  C   -0.940075  -1.260637  -2.205211  -1.928287   2.159513  10.488155
    13  C    0.268212   0.087846  -0.328438   0.170871  -0.187111  -0.465894
    14  C   -0.833254   0.002172  -0.077450  -0.219268  -0.014577  -0.007824
    15  C   -0.471936  -0.472652   0.342052  -0.251035  -0.014229   0.171605
    16  C   -0.222540  -0.156227  -0.331295  -0.872487  -0.077762   0.284537
    17  C   -0.157086   0.147102  -0.114663  -0.610993  -0.051484  -0.087706
    18  C   -0.094772   0.084228  -0.470601   0.443728  -0.327860   0.166716
    19  C    0.001118   0.022682   0.035551  -0.366232  -0.067714  -0.053794
    20  C   -0.014064   0.000021  -0.060864  -0.205761   0.021577   0.020900
    21  C   -0.001106   0.004462  -0.010427   0.110440   0.011852  -0.028734
    22  C   -0.052739   0.057859  -0.080882  -0.702396   0.157889  -0.140968
    23  C    0.023390   0.010282  -0.036570  -0.060039  -0.044692  -0.002645
    24  C    0.022187  -0.009609   0.001682   0.071824   0.012276   0.004416
    25  C   -0.000140  -0.001383  -0.004290  -0.012855   0.003890  -0.000560
    26  C   -0.009181   0.001841  -0.003824   0.005706   0.014504   0.002893
    27  C    0.000112  -0.002946   0.004280   0.021436   0.002785   0.003047
    28  C   -0.000479   0.004690  -0.000304  -0.005342  -0.001167  -0.001256
    29  C   -0.018958  -0.015383   0.000071  -0.058806   0.010222  -0.004450
    30  C    0.303273  -0.054176  -0.046620   0.079471   0.031461  -0.091792
    31  H   -0.016442  -0.000323  -0.000710   0.000642  -0.000116   0.000256
[...]
 30449,-0.00037063,0.00119631,-0.00024002,-0.00051242,-0.00022523,-0.00
 005271,-0.01667102,0.02063582,-0.00106930,-0.21562993,0.13709783,0.005
 65706,0.00685200,-0.00467861,0.00051710,0.00141787,-0.00117617,0.00219
 204,-0.00001721,-0.00003799,-0.00000630,0.00000218,-0.00000511,-0.0000
 0250,0.00000882,0.00000309,-0.00000068,-0.00000077,0.00001075,-0.00000
 019,-0.00000206,0.00000949,-0.00000001,-0.00000576,0.00000046,-0.00000
 013,-0.00000832,0.00000401,0.00000184,-0.00000833,0.00000456,-0.000000
 11,0.00000246,-0.00000579,0.00000010,-0.00012546,0.00007070,-0.0000287
 5,-0.00001347,-0.00004423,0.00006518,0.00074744,-0.00059252,-0.0008268
 5,0.22629318,-0.00025247,-0.00040877,-0.00026050,-0.00006107,0.0000600
 6,0.00002322,-0.00004669,-0.00003525,-0.00001631,0.00014606,0.00010850
 ,-0.00005205,0.00004254,-0.00001998,0.00003892,-0.00008703,-0.00000073
 ,-0.00001550,-0.00000813,0.00003027,0.00000350,0.00004308,-0.00000408,
 0.00000239,0.00000465,-0.00006392,0.00000482,0.00004738,-0.00002104,0.
 00000369,0.00002163,0.00002214,0.00000308,-0.00004090,0.00001409,-0.00
 000645,0.00080293,0.00003948,0.00047916,0.00004176,-0.00012188,0.00006
 374,-0.00003772,-0.00004016,-0.00002865,-0.00005452,-0.00001564,-0.000
 00574,0.00005696,0.00001033,0.00000958,-0.00000631,-0.00003528,0.00000
 274,0.00000682,0.00008251,-0.00025390,0.00012386,-0.00012960,0.0000508
 6,-0.00007847,0.00013215,-0.00000549,-0.00003949,-0.00008824,0.0000147
 3,-0.00048425,-0.00014375,0.00014135,-0.00206280,0.00059445,0.00221143
 ,0.00002360,0.00029911,-0.00010645,-0.00020154,0.00002993,-0.00014273,
 -0.00834424,0.00932057,0.00045129,0.13693855,-0.17273265,0.00437452,0.
 02457230,-0.01657513,-0.00015748,-0.00235000,-0.00185175,0.00308374,0.
 00001039,0.00000706,0.00002073,-0.00001429,-0.00002625,0.00001188,-0.0
 0000738,-0.00000478,0.00000126,-0.00000087,-0.00000739,-0.00000028,0.0
 0000103,-0.00000772,-0.00000074,0.00000463,-0.00000186,0.00000069,0.00
 000350,-0.00000116,0.00000079,0.00000277,-0.00000400,-0.00000098,0.000
 00851,0.00000367,-0.00000194,-0.00003865,0.00002057,0.00000020,0.00000
 274,-0.00000299,0.00004232,0.00015716,0.00037798,-0.00107992,-0.148611
 94,0.18126421,0.00033732,0.00032602,0.00011854,0.00005571,-0.00006925,
 -0.00000074,0.00003019,0.00002312,0.00001233,-0.00014193,-0.00000138,-
 0.00001055,-0.00001313,0.00006783,-0.00002303,0.00004010,0.00000614,-0
 .00000519,0.00002127,0.00003685,-0.00000516,0.00002434,-0.00000591,-0.
 00000065,-0.00001853,0.00001618,0.00000060,-0.00003794,-0.00001040,-0.
 00000689,0.00001192,-0.00001856,0.00000108,0.00002879,0.00000864,0.000
 00914,-0.00143607,0.00077312,-0.00009534,-0.00011065,-0.00017733,0.000
 08698,0.00002270,0.00001492,-0.00000178,0.00005753,0.00008209,-0.00004
 693,-0.00006336,-0.00002718,0.00002692,0.00000946,0.00002576,-0.000006
 02,0.00018244,-0.00039416,-0.00051808,-0.00027585,0.00003530,0.0000652
 9,0.00011038,-0.00012743,0.00006890,0.00001005,0.00010636,-0.00003047,
 -0.00028320,0.00072743,-0.00034355,0.00285639,0.00201089,0.00467404,0.
 00025702,-0.00052614,0.00013260,0.00013336,0.00001664,-0.00040109,0.00
 668746,-0.00763466,0.00371421,0.00645767,0.00574535,-0.04246355,-0.008
 33443,0.00602756,0.00379951,0.00283791,0.00373532,0.00704984,0.0000209
 7,0.00003431,-0.00006057,0.00000539,0.00001478,0.00001115,-0.00000082,
 0.00000077,-0.00000044,0.00000126,-0.00000156,0.00000193,-0.00000024,0
 .00000056,0.00000057,-0.00000031,0.00000072,-0.00000017,0.00000171,-0.
 00000096,0.00000386,0.00000202,0.00000168,0.00000293,-0.00000421,-0.00
 000269,-0.00000115,0.00004504,-0.00001694,0.00003183,0.00000414,0.0000
 6100,0.00007660,-0.00098936,-0.00084172,-0.00247442,-0.00802082,-0.007
 47892,0.03093844,0.00004319,0.00021598,-0.00007987,0.00007697,0.000008
 43,0.00001300,0.00003148,-0.00005899,-0.00000262,-0.00020754,0.0000899
 0,-0.00000401,0.00007221,-0.00007612,0.00005783,0.00001790,-0.00038528
 ,0.00026596,0.00009495,-0.00000636,0.00006991,-0.00002899,-0.00004507,
 -0.00003896,-0.00008385,0.00012185,0.00000401,0.00001056,0.00011749,0.
 00000093,-0.00005944,-0.00012418,-0.00000560,0.00014357,0.00001135,0.0
 0000726,-0.00132810,-0.00065418,0.00010895,-0.00042174,-0.00299807,-0.
 00192923,0.00089323,0.00015065,-0.00029094,0.00006090,-0.00020116,-0.0
 0003830,0.00005623,0.00012956,-0.00001748,-0.00004996,-0.00006720,0.00
 000224,-0.00067373,-0.00086543,0.00070761,-0.00006646,0.00013218,0.000
 09118,-0.00015030,-0.00005212,-0.00003023,0.00000263,-0.00008885,0.000
 02141,0.00004568,0.00397047,-0.00131037,-0.00040675,0.00037524,-0.0002
 3806,0.00036377,-0.00011346,-0.00018344,-0.00019667,0.00024436,-0.0000
 1983,0.00275389,-0.00017448,0.00153177,-0.00094717,0.00108705,0.002635
 48,-0.28760408,-0.06572824,0.09709331,-0.01624308,-0.00606568,0.008230
 68,0.00045430,-0.00059807,-0.00042876,-0.00003385,-0.00000054,-0.00006
 190,-0.00000177,-0.00000157,0.00000318,0.00001072,-0.00000324,-0.00000
 827,0.00000260,0.00000345,-0.00000141,-0.00000296,0.00000237,0.0000006
 5,-0.00000452,0.00000773,0.00000135,-0.00000895,0.00000798,0.00000509,
 -0.00004257,0.00001279,-0.00003182,-0.00001925,-0.00000142,0.00001515,
 -0.00002117,-0.00003089,0.00001024,-0.00024399,0.00002878,-0.00016073,
 0.00056628,-0.00071710,-0.00145124,0.30296085,-0.00035631,0.00011460,0
 .00009283,0.00006535,0.00005868,-0.00001399,0.00010699,0.00007259,0.00
 002368,-0.00006208,-0.00027145,-0.00005471,-0.00018529,-0.00005727,-0.
 00000210,0.00024981,-0.00009488,0.00028859,0.00002027,0.00017719,0.000
 02693,0.00013462,-0.00000119,-0.00002362,-0.00002498,0.00003657,-0.000
 00154,-0.00011165,-0.00013024,0.00000017,0.00005849,-0.00001678,0.0000
 0746,0.00004489,0.00004557,0.00000058,0.00051936,0.00098785,-0.0001942
 0,-0.00031283,-0.00382649,-0.00273396,-0.00014287,0.00000688,0.0000058
 7,-0.00011824,0.00013292,-0.00003638,-0.00014761,-0.00018151,-0.000006
 47,0.00005672,0.00016680,-0.00001466,0.00091463,0.00090380,-0.00029846
 ,0.00001749,-0.00004969,0.00004242,0.00028371,0.00000026,0.00002662,-0
 .00001704,0.00018005,-0.00003739,0.00205055,-0.00365436,0.00108343,0.0
 0077902,-0.00062571,-0.00016171,-0.00054901,0.00014698,-0.00018470,0.0
 0021182,-0.00025521,0.00008271,0.00079621,-0.00470043,0.00346042,-0.02
 883296,-0.00397365,0.01202435,-0.06426461,-0.07289584,0.03369513,0.017
 91197,0.00714943,-0.00828580,-0.00122300,-0.00242345,0.00087608,0.0000
 3004,0.00007515,-0.00006463,-0.00000209,0.00000216,0.00000397,0.000001
 01,-0.00000283,-0.00000465,0.00000541,-0.00000204,0.00000057,0.0000005
 1,0.00000575,-0.00000122,0.00000496,-0.00000470,0.00000127,0.00000647,
 0.00000572,0.00000849,0.00003749,-0.00002801,-0.00001757,-0.00001544,0
 .00001660,0.00001397,0.00008420,0.00006053,-0.00001784,-0.00137933,-0.
 00040769,0.00025163,-0.00022411,0.00055208,-0.00163669,0.07388690,0.08
 334099,-0.00036576,0.00044267,-0.00030109,0.00014562,0.00003385,0.0000
 3034,0.00009974,0.00005384,0.00004089,-0.00007209,-0.00044033,-0.00014
 395,-0.00026763,0.00003809,0.00016891,0.00033759,0.00010934,0.00063862
 ,-0.00000184,0.00019069,0.00007705,0.00020697,0.00002670,-0.00004641,-
 0.00005952,-0.00009773,-0.00001128,-0.00006469,-0.00008337,-0.00001100
 ,0.00006335,-0.00007137,0.00001369,0.00003073,0.00008944,-0.00001980,0
 .00044700,0.00054524,0.00063864,0.00046857,0.00042098,-0.00254597,-0.0
 0064605,0.00028357,-0.00019564,-0.00010473,-0.00006219,-0.00010060,-0.
 00002836,-0.00006201,-0.00001104,-0.00001481,0.00010090,0.00000055,-0.
 00033432,-0.00014563,0.00002588,0.00007665,0.00017620,0.00013809,0.000
 01325,0.00005546,0.00014547,-0.00001204,0.00003767,0.00000504,0.000185
 04,0.00093190,0.00127087,-0.00030496,-0.00050030,-0.00041662,-0.000053
 75,-0.00004963,-0.00059545,0.00001918,-0.00013417,-0.00002404,0.000372
 88,0.00346757,0.00597078,0.00961506,0.00247622,0.00070519,0.09919635,0
 .03345409,-0.06469877,-0.00399088,0.00000942,0.00111463,0.00028131,0.0
 0177929,0.00208226,0.00002888,0.00004221,-0.00011619,-0.00000524,0.000
 00163,0.00001125,-0.00000092,-0.00000415,-0.00001658,0.00000630,-0.000
 00657,-0.00000110,0.00000247,0.00000933,-0.00000430,0.00000129,0.00000
 237,0.00000381,-0.00000205,0.00000188,-0.00000663,-0.00000739,-0.00001
 713,-0.00009107,-0.00000624,0.00001894,0.00006214,-0.00000687,-0.00001
 840,0.00007006,0.00055239,0.00021458,0.00034719,-0.00139418,-0.0014982
 6,-0.00431905,-0.10491723,-0.03863313,0.06040921,-0.00399600,-0.001740
 55,0.00014188,0.00002277,0.00072879,0.00173854,0.00040315,0.00002327,-
 0.00003247,-0.00056886,-0.00026178,-0.00053350,-0.00047973,-0.00067723
 ,0.00015091,0.00010872,-0.00063348,0.00003625,0.00038709,-0.00027395,-
 0.00057857,-0.00051522,0.00001982,-0.00006481,0.00015726,0.00065122,0.
 00006601,-0.00040495,0.00000202,-0.00034045,-0.00002395,-0.00030998,0.
 00000965,0.00034326,0.00003488,0.00004231,-0.01875721,0.01932479,-0.02
 428181,-0.06725999,0.04301876,-0.06122629,0.00467685,-0.00311232,0.007
 23506,-0.00008179,-0.00003817,-0.00005381,-0.00017676,-0.00001952,0.00
 006254,-0.00007131,0.00036747,-0.00000589,-0.00035006,0.00028438,0.000
 08220,-0.00005202,-0.00009018,-0.00001657,0.00007520,-0.00005935,0.000
 00926,0.00018443,0.00001103,-0.00000715,0.00052040,-0.00013444,-0.0002
 1828,-0.00027031,-0.00019738,0.00016787,0.00001545,-0.00008131,0.00002
 762,0.00010474,0.00007137,-0.00006354,0.00041107,-0.00005634,-0.000089
 71,-0.00050360,-0.00051308,0.00036452,0.00035383,0.00075263,0.00067766
 ,0.00019443,-0.00077277,0.00134102,0.00442521,-0.00603836,0.01016656,-
 0.00008245,0.00029717,-0.00045414,-0.00002135,-0.00006076,0.00001585,0
 .00000408,-0.00000253,0.00006758,0.00001172,0.00000499,-0.00002489,-0.
 00000498,0.00001694,0.00001136,0.00000893,-0.00000663,0.00002427,0.000
 00183,-0.00000385,-0.00004191,-0.00000022,-0.00000977,0.00000016,-0.00
 000029,-0.00000222,0.00000306,0.00001098,0.00001824,0.00004666,0.00000
 165,-0.00000070,-0.00003196,-0.00000277,-0.00002833,-0.00004420,-0.000
 08311,-0.00025728,-0.00034409,0.08098952,-0.00058687,0.00453657,0.0011
 0465,0.00026762,0.00001678,0.00050702,-0.00008435,0.00078337,-0.000056
 10,0.00159079,-0.00296893,0.00045688,-0.00183249,0.00206687,-0.0001954
 8,-0.00635412,0.00036357,0.00184250,0.00077823,-0.00210555,-0.00101661
 ,-0.00090708,0.00029327,-0.00028152,0.00098963,-0.00221780,0.00008295,
 0.00068558,-0.00010136,0.00002230,0.00054085,0.00044421,0.00005340,-0.
 00175443,0.00028486,-0.00018101,0.00806571,0.00157270,-0.00315000,0.04
 089777,-0.10834640,0.09538888,0.00934477,-0.02728426,0.01488434,0.0000
 6948,0.00023033,-0.00005594,0.00058347,0.00067583,-0.00011252,-0.00040
 911,-0.00045936,0.00008472,-0.00074381,0.00017081,0.00006996,0.0015332
 0,-0.00083762,0.00021262,-0.00111099,0.00119579,-0.00026972,-0.0002620
 7,-0.00102859,0.00025792,0.00067656,-0.00141679,0.00074508,-0.00285291
 ,0.00261987,0.00002556,0.00171396,-0.00005787,-0.00033697,-0.00081945,
 0.00100233,-0.00020217,0.00553175,0.00009815,-0.00167987,-0.00411821,-
 0.00573321,0.00301648,0.00318716,0.00662094,0.00114016,-0.00026046,-0.
 00019619,-0.00099986,-0.00136526,0.00318717,-0.00463464,-0.00048521,0.
 00045356,-0.00148459,-0.00000592,-0.00000450,0.00007202,0.00002801,-0.
 00004065,0.00009260,-0.00003946,-0.00000409,0.00000452,0.00000173,0.00
 003994,0.00002967,-0.00003694,-0.00000595,-0.00002461,-0.00002533,-0.0
 0003663,-0.00001680,0.00000469,0.00002804,-0.00002420,0.00001339,0.000
 01446,0.00000514,-0.00002347,-0.00001375,0.00003294,0.00007187,-0.0000
 7793,-0.00011972,-0.00008971,-0.00000937,0.00008488,-0.00116228,-0.001
 17550,-0.00229161,-0.05136985,0.12744564,0.00009189,-0.00116467,-0.000
 74592,0.00018165,-0.00008003,-0.00018501,0.00029073,-0.00008674,0.0000
 4160,-0.00068397,0.00010040,0.00004213,0.00014557,-0.00063309,-0.00010
 172,0.00144296,-0.00201039,-0.00122575,0.00021710,0.00049346,-0.000463
 40,0.00024601,-0.00018919,0.00005439,-0.00031940,0.00065702,-0.0000099
 7,-0.00030108,0.00003113,0.00004607,-0.00013361,-0.00033211,-0.0000190
 1,0.00064292,-0.00000340,0.00006792,-0.00229083,-0.00026174,0.00041863
 ,-0.05988203,0.09243703,-0.14906546,0.00402780,-0.00116392,0.00682965,
 0.00000869,-0.00003751,0.00005648,-0.00020584,-0.00012216,0.00002334,0
 .00004803,0.00018904,-0.00003047,0.00045822,-0.00009471,-0.00008828,-0
 .00058563,-0.00004241,0.00003260,0.00035771,-0.00032627,0.00006889,0.0
 0006509,0.00027999,-0.00008018,-0.00055650,0.00006693,-0.00015135,0.00
 039905,-0.00046285,-0.00003586,-0.00017955,0.00003180,0.00006278,0.000
 10186,0.00002883,-0.00001653,-0.00101554,-0.00031379,0.00045746,0.0011
 0918,0.00136989,-0.00076758,-0.00069638,-0.00112380,-0.00033006,-0.000
 47908,0.00037947,-0.00021887,-0.00893360,0.01500693,-0.02737101,0.0001
 1655,0.00073848,0.00048299,-0.00002445,-0.00001528,0.00002582,0.000019
 61,-0.00002934,0.00004324,0.00001762,-0.00000373,0.00000264,0.00000114
 ,-0.00000336,-0.00001805,0.00001634,-0.00000031,0.00000435,0.00000991,
 0.00001292,0.00000731,-0.00000223,-0.00001005,0.00000943,-0.00001019,-
 0.00000157,-0.00000500,0.00001365,0.00000924,0.00000465,0.00004785,0.0
 0006300,0.00006702,0.00001553,-0.00006864,0.00002061,0.00063060,-0.000
 07116,-0.00070670,0.06577627,-0.10351051,0.17239887,0.00026477,-0.0019
 3597,0.00107698,0.00044850,0.00004415,-0.00088198,0.00024270,-0.000317
 02,-0.00011509,0.00070426,0.00211267,0.00064831,0.00086734,-0.00094616
 ,-0.00018707,-0.00125421,0.00137012,-0.00001352,0.00028860,-0.00076040
 ,-0.00001285,-0.00096365,0.00015417,-0.00006691,0.00051704,0.00127988,
 0.00002734,-0.00044139,0.00025773,0.00003609,-0.00004128,-0.00033383,0
 .00000267,0.00050393,-0.00007672,0.00009566,-0.00242860,-0.00177658,-0
 .01134453,-0.00070221,0.00118122,0.00066289,0.00027386,-0.00218014,0.0
 0024132,-0.00000403,-0.00086162,0.00065681,-0.00025762,-0.00023741,0.0
 0002098,0.00013810,0.00024252,-0.00005340,-0.00070181,0.00024739,0.000
 45935,0.00005023,-0.00031078,-0.00111682,0.00030538,-0.00043936,0.0001
 2835,0.00030056,0.00026996,-0.00007835,-0.00349275,-0.00531646,0.02662
 008,-0.00070799,-0.00131909,0.00017690,-0.00093804,-0.00016759,-0.0005
 4523,-0.00009564,-0.00050593,0.00020756,-0.00108513,-0.00008354,-0.000
 16933,-0.00139765,0.00157587,-0.00000731,-0.00553045,0.00729643,-0.019
 33388,-0.03978392,0.00615085,-0.04052817,-0.00075353,-0.00041841,-0.00
 033010,-0.00002308,-0.00007925,0.00028198,-0.00000196,-0.00003068,-0.0
 0002572,-0.00002009,-0.00000647,-0.00000456,0.00001516,-0.00000971,0.0
 0000135,0.00000072,-0.00002155,-0.00002603,0.00002744,0.00000197,0.000
 01288,0.00000923,0.00001604,-0.00000010,0.00002060,0.00000308,0.000095
 26,0.00001486,0.00003612,0.00007942,-0.00004057,-0.00003426,-0.0000110
 0,-0.00002451,0.00003484,0.00005751,0.00028218,0.00051133,0.00097375,0
 .00026813,-0.00005215,0.00085500,0.00029434,0.00012354,-0.00019961,0.0
 5485217,-0.00032005,-0.00661811,-0.00033394,-0.00076842,-0.00012355,-0
 .00009837,-0.00098595,-0.00103047,0.00007500,0.00035783,0.00589620,0.0
 0164677,0.00303191,-0.00195417,-0.00048866,-0.00149095,0.00035321,-0.0
 0017819,0.00001887,-0.00060086,-0.00001699,-0.00115802,-0.00007215,-0.
 00015421,0.00005706,0.00242630,-0.00004380,0.00033576,0.00082356,0.000
 00890,-0.00071072,-0.00031947,-0.00010917,0.00123079,-0.00045961,0.000
 24453,-0.01033109,-0.00505424,-0.02489845,0.00045646,-0.00095495,-0.00
 024742,0.00043508,-0.00116949,0.00074669,0.00053155,0.00043934,0.00028
 906,0.00030778,0.00030885,-0.00002877,-0.00006668,-0.00071094,-0.00002
 749,0.00344283,0.00041260,-0.00037869,-0.00209447,-0.00199337,0.000254
 56,0.00014504,-0.00081198,0.00008238,0.00019688,0.00016413,-0.00007090
 ,-0.00567775,0.00000871,0.00840895,-0.00226795,-0.00036655,-0.00010057
 ,0.00108927,-0.00068382,-0.00002423,-0.00071657,0.00158634,-0.00035459
 ,-0.00056261,0.00079588,0.00042976,0.00400290,0.00063442,-0.00142532,0
 .01016279,-0.01185813,0.02208692,0.00594495,-0.02488443,0.02535918,-0.
 00035992,-0.00026198,-0.00058652,-0.00003080,-0.00010122,0.00058447,0.
 00003085,-0.00001930,-0.00002535,-0.00002048,0.00004352,-0.00000544,0.
 00000116,0.00003106,0.00000691,-0.00001953,-0.00005123,-0.00001428,-0.
 00000395,0.00000524,0.00001937,-0.00000664,-0.00001260,0.00001490,0.00
 002606,-0.00001459,0.00005586,0.00001671,0.00002216,0.00001564,-0.0000
 4005,-0.00001537,0.00005420,0.00003512,0.00004090,0.00013162,-0.000276
 11,-0.00061584,-0.00101233,-0.00038451,0.00053980,-0.00089809,0.001124
 34,-0.00002277,0.00026718,-0.00468878,0.04624897,-0.00168284,0.0016515
 0,0.00297061,0.00136662,-0.00037886,-0.00070383,-0.00014126,0.00065330
 ,-0.00005709,-0.00020424,-0.00082072,0.00126981,-0.00018717,0.00030092
 ,-0.00044261,-0.00000942,0.00022941,-0.00004284,0.00011703,-0.00007937
 ,0.00000625,-0.00005908,0.00002210,-0.00003401,0.00018029,-0.00031553,
 -0.00006314,0.00024863,-0.00042240,0.00009190,0.00025086,0.00038825,0.
 00003732,-0.00042871,0.00005762,0.00003832,-0.00612835,-0.00698236,-0.
 01825158,0.00074362,-0.00178531,-0.00068902,-0.00016302,0.00040128,-0.
 00039658,-0.00013186,-0.00140955,-0.00046248,-0.00022113,-0.00014443,0
 .00002916,-0.00000360,0.00004324,-0.00001705,-0.00218581,0.00178736,0.
 00159518,0.00104287,0.00086300,0.00013235,-0.00018342,0.00033292,-0.00
 009063,0.00002790,-0.00010316,0.00006806,0.00728511,0.00421266,-0.0138
 9167,0.00154236,-0.00069334,-0.00042891,-0.00010524,0.00036393,0.00015
 673,0.00023960,-0.00041968,0.00002706,0.00104065,-0.00011780,-0.000649
 00,-0.00253904,-0.00233572,0.00111206,-0.00495807,0.00689471,-0.002210
 42,-0.03608440,0.02581477,-0.24606028,-0.00033227,0.00026121,0.0008531
 9,-0.00000970,-0.00010058,0.00040002,-0.00000190,0.00000199,-0.0000170
 8,0.00000398,-0.00000170,-0.00000186,-0.00000742,-0.00000210,0.0000012
 3,0.00000850,0.00000805,-0.00002754,-0.00000015,0.00000116,0.00000481,
 -0.00000287,-0.00000147,0.00000578,-0.00000424,-0.00000571,-0.00004938
 ,-0.00000102,-0.00002570,-0.00002665,0.00007984,0.00005866,0.00000989,
 0.00000757,0.00001160,-0.00003212,0.00002620,0.00014029,-0.00003305,-0
 .00025748,0.00047942,0.00041273,0.00018898,0.00042724,0.00036734,0.041
 63311,-0.02926109,0.27508902\\-0.00000518,-0.00000587,0.00000517,0.000
 00381,-0.00000178,-0.00000096,0.00000347,0.00000127,0.00000093,0.00000
 237,0.00000467,0.00000102,-0.00000258,-0.00000439,-0.00000176,0.000001
 15,0.00001119,0.00000238,0.00000317,-0.00001075,0.00000029,-0.00000796
 ,0.00000048,-0.00000089,0.00000717,0.00000457,0.00000132,-0.00000328,0
 .00000176,-0.00000127,-0.00000016,-0.00000202,-0.00000094,0.00000175,-
 0.00000029,-0.00000006,0.00000739,0.00000295,0.00000409,-0.00000988,0.
 00001973,0.00000225,-0.00000164,-0.00001562,-0.00000186,0.00000179,-0.
 00000270,-0.00000133,-0.00000423,0.00000270,-0.00000185,0.00000306,0.0
 0000106,-0.00000056,0.00001129,0.00000471,-0.00000454,-0.00001288,-0.0
 0000811,0.00000208,0.00000385,0.00000058,-0.00000175,0.00000153,0.0000
 0136,-0.00000188,-0.00001049,0.00000043,0.00000599,-0.00000070,-0.0000
 0611,0.00000276,0.00000051,0.00000058,-0.00000138,0.00000090,0.0000039
 3,-0.00000104,-0.00000431,0.00000021,0.00000100,0.00000540,0.00000721,
 0.00000192,-0.00000284,-0.00000384,0.00000053,0.00000407,-0.00000431,-
 0.00001143,0.00000278,-0.00000325,0.00000142,-0.00000018,0.00000052,0.
 00000268,-0.00000024,0.00000134,0.00000169,0.00000189,-0.00000032,0.00
 000117,-0.00000021,0.00000037,-0.00000012,0.00000122,0.00000143,-0.000
 00070,0.00000005,0.00000013,-0.00000132,-0.00000062,-0.00000062,-0.000
 00179,-0.00000100,0.00000089,-0.00000232,-0.00000088,0.00000043,-0.000
 00137,-0.00000095,0.00000053,0.00000053,-0.00000007,0.00000036,0.00000
 161,-0.00000165,-0.00000158,0.00000052,-0.00000060,-0.00000014,-0.0000
 0392,0.00000306,-0.00000888,0.00000076,0.00000087,0.00000516,0.0000029
 2\\\@


 A HARD FALL SHOULD MEAN A HIGH BOUNCE 
 IF ONE IS MADE OF THE RIGHT MATERIAL.

                -- THE CHEMIST ANALYST, MARCH 1950
 Job cpu time:       0 days 23 hours 32 minutes 42.5 seconds.
 Elapsed time:       0 days  1 hours 10 minutes 50.1 seconds.
 File lengths (MBytes):  RWF=   2282 Int=      0 D2E=      0 Chk=     53 Scr=      1
 Normal termination of Gaussian 16 at Mon Jun 24 21:15:56 2019.
