 Entering Gaussian System, Link 0=/share/apps/gaussian16/g16/g16
 Initial command:
 /share/apps/gaussian16/g16/l1.exe "/home/amen01//scratch/608/Gau-38212.inp" -scrdir="/home/amen01//scratch/608/"
 Entering Link 1 = /share/apps/gaussian16/g16/l1.exe PID=     38213.
  
 Copyright (c) 1988-2017, Gaussian, Inc.  All Rights Reserved.
  
 This is part of the Gaussian(R) 16 program.  It is based on
 the Gaussian(R) 09 system (copyright 2009, Gaussian, Inc.),
 the Gaussian(R) 03 system (copyright 2003, Gaussian, Inc.),
 the Gaussian(R) 98 system (copyright 1998, Gaussian, Inc.),
 the Gaussian(R) 94 system (copyright 1995, Gaussian, Inc.),
 the Gaussian 92(TM) system (copyright 1992, Gaussian, Inc.),
 the Gaussian 90(TM) system (copyright 1990, Gaussian, Inc.),
 the Gaussian 88(TM) system (copyright 1988, Gaussian, Inc.),
 the Gaussian 86(TM) system (copyright 1986, Carnegie Mellon
 University), and the Gaussian 82(TM) system (copyright 1983,
 Carnegie Mellon University). Gaussian is a federally registered
 trademark of Gaussian, Inc.
  
 This software contains proprietary and confidential information,
 including trade secrets, belonging to Gaussian, Inc.
  
 This software is provided under written license and may be
 used, copied, transmitted, or stored only in accord with that
 written license.
  
 The following legend is applicable only to US Government
 contracts under FAR:
  
                    RESTRICTED RIGHTS LEGEND
  
 Use, reproduction and disclosure by the US Government is
 subject to restrictions as set forth in subparagraphs (a)
 and (c) of the Commercial Computer Software - Restricted
 Rights clause in FAR 52.227-19.
  
 Gaussian, Inc.
 340 Quinnipiac St., Bldg. 40, Wallingford CT 06492
  
  
 ---------------------------------------------------------------
 Warning -- This program may not be used in any manner that
 competes with the business of Gaussian, Inc. or will provide
 assistance to any competitor of Gaussian, Inc.  The licensee
 of this program is prohibited from giving any competitor of
 Gaussian, Inc. access to this program.  By using this program,
 the user acknowledges that Gaussian, Inc. is engaged in the
 business of creating and licensing software in the field of
 computational chemistry and represents and warrants to the
 licensee that it is not a competitor of Gaussian, Inc. and that
 it will not use this program in any manner prohibited above.
 ---------------------------------------------------------------
  

 Cite this work as:
 Gaussian 16, Revision B.01,
 M. J. Frisch, G. W. Trucks, H. B. Schlegel, G. E. Scuseria, 
 M. A. Robb, J. R. Cheeseman, G. Scalmani, V. Barone, 
 G. A. Petersson, H. Nakatsuji, X. Li, M. Caricato, A. V. Marenich, 
 J. Bloino, B. G. Janesko, R. Gomperts, B. Mennucci, H. P. Hratchian, 
 J. V. Ortiz, A. F. Izmaylov, J. L. Sonnenberg, D. Williams-Young, 
 F. Ding, F. Lipparini, F. Egidi, J. Goings, B. Peng, A. Petrone, 
 T. Henderson, D. Ranasinghe, V. G. Zakrzewski, J. Gao, N. Rega, 
 G. Zheng, W. Liang, M. Hada, M. Ehara, K. Toyota, R. Fukuda, 
 J. Hasegawa, M. Ishida, T. Nakajima, Y. Honda, O. Kitao, H. Nakai, 
 T. Vreven, K. Throssell, J. A. Montgomery, Jr., J. E. Peralta, 
 F. Ogliaro, M. J. Bearpark, J. J. Heyd, E. N. Brothers, K. N. Kudin, 
 V. N. Staroverov, T. A. Keith, R. Kobayashi, J. Normand, 
 K. Raghavachari, A. P. Rendell, J. C. Burant, S. S. Iyengar, 
 J. Tomasi, M. Cossi, J. M. Millam, M. Klene, C. Adamo, R. Cammi, 
 J. W. Ochterski, R. L. Martin, K. Morokuma, O. Farkas, 
 J. B. Foresman, and D. J. Fox, Gaussian, Inc., Wallingford CT, 2016.
 
 ******************************************
 Gaussian 16:  ES64L-G16RevB.01 20-Dec-2017
                24-Jun-2019 
 ******************************************
 %nprocshared=20
 Will use up to   20 processors via shared memory.
 %mem=100GB
 %chk=7-memb2-carb-2b.chk
 -------------------------------------------
 # opt freq b3lyp/6-311+g(d,p) int=grid=fine
 -------------------------------------------
 1/18=20,19=15,26=3,38=1/1,3;
 2/9=110,12=2,17=6,18=5,40=1/2;
 3/5=4,6=6,7=111,11=2,25=1,30=1,71=1,74=-5,75=-4/1,2,3;
 4//1;
 5/5=2,38=5/2;
 6/7=2,8=2,9=2,10=2,28=1/1;
 7//1,2,3,16;
 1/18=20,19=15,26=3/3(2);
 2/9=110/2;
 99//99;
 2/9=110/2;
 3/5=4,6=6,7=111,11=2,25=1,30=1,71=1,74=-5,75=-4/1,2,3;
 4/5=5,16=3,69=1/1;
 5/5=2,38=5/2;
 7//1,2,3,16;
 1/18=20,19=15,26=3/3(-5);
 2/9=110/2;
 6/7=2,8=2,9=2,10=2,19=2,28=1/1;
 99/9=1/99;
 ---------------
 7-memb2-carb-2b
 ---------------
 Symbolic Z-matrix:
 Charge =  0 Multiplicity = 1
 C                    -4.02772  -0.10186  -0.07897 
 C                    -2.59753  -0.28419  -0.03345 
 C                    -2.40097  -1.65352   0.12542 
 C                    -4.5826   -1.37044   0.08611 
 C                    -3.59428  -2.28135   0.21603 
 C                    -5.91602  -1.72925   0.05965 
 C                    -6.19091  -3.11685   0.23883 
 C                    -5.13463  -4.06226   0.39088 
 C                    -3.77517  -3.64805   0.36123 
 C                    -1.207    -2.33708   0.15839 
 C                    -1.30191  -3.75057   0.32931 
 C                    -2.56879  -4.39567   0.4346 
 C                    -4.82671   0.9876   -0.39159 
 C                    -6.24594   0.65889  -0.3897 
 C                    -6.77738  -0.64758  -0.17309 
 C                    -1.52736   0.58021  -0.14494 
 C                    -0.24382  -0.0866   -0.16052 
 C                    -0.09272  -1.49997  -0.00835 
 C                    -1.6662    2.02334  -0.1953 
 C                    -0.41703   2.70992  -0.31016 
 C                     0.81284   2.04837  -0.40466 
 C                     0.9025    0.67033  -0.31817 
 C                    -2.91748   2.83963  -0.0668 
 C                    -2.72688   4.25797   0.05416 
 C                    -1.47802   4.85104  -0.08552 
 C                    -0.34559   4.09313  -0.29389 
 C                    -3.76365   5.15631   0.32998 
 C                    -5.06259   4.72917   0.48618 
 C                    -5.36416   3.38533   0.26522 
 C                    -4.32855   2.42036  -0.02753 
 H                    -4.60235   1.19278  -1.48481 
 H                    -6.98137   1.4284   -0.62111 
 H                    -7.85188  -0.80309  -0.22005 
 H                    -7.22084  -3.46556   0.23697 
 H                    -5.37517  -5.11616   0.50646 
 H                    -2.6094   -5.47571   0.55192 
 H                    -0.39509  -4.34942   0.36839 
 H                     0.89912  -1.94748  -0.01487 
 H                     1.88493   0.20581  -0.35688 
 H                     1.74075   2.6101   -0.50589 
 H                     0.60674   4.6116   -0.38883 
 H                    -1.35859   5.93182  -0.0243 
 H                    -3.56414   6.22034   0.45092 
 H                    -5.84968   5.43887   0.72897 
 H                    -6.15666   3.35639  -0.53419 
 H                    -6.11846   2.99685   0.99605 
 

 GradGradGradGradGradGradGradGradGradGradGradGradGradGradGradGradGradGrad
 Berny optimization.
 Initialization pass.
                           ----------------------------
                           !    Initial Parameters    !
                           ! (Angstroms and Degrees)  !
 --------------------------                            --------------------------
 ! Name  Definition              Value          Derivative Info.                !
 --------------------------------------------------------------------------------
 ! R1    R(1,2)                  1.4425         estimate D2E/DX2                !
 ! R2    R(1,4)                  1.3944         estimate D2E/DX2                !
 ! R3    R(1,13)                 1.3867         estimate D2E/DX2                !
 ! R4    R(2,3)                  1.3925         estimate D2E/DX2                !
 ! R5    R(2,16)                 1.3802         estimate D2E/DX2                !
 ! R6    R(3,5)                  1.3514         estimate D2E/DX2                !
 ! R7    R(3,10)                 1.3762         estimate D2E/DX2                !
 ! R8    R(4,5)                  1.3503         estimate D2E/DX2                !
 ! R9    R(4,6)                  1.3811         estimate D2E/DX2                !
 ! R10   R(5,9)                  1.3862         estimate D2E/DX2                !
 ! R11   R(6,7)                  1.4259         estimate D2E/DX2                !
 ! R12   R(6,15)                 1.4022         estimate D2E/DX2                !
 ! R13   R(7,8)                  1.4257         estimate D2E/DX2                !
 ! R14   R(7,34)                 1.0874         estimate D2E/DX2                !
 ! R15   R(8,9)                  1.4215         estimate D2E/DX2                !
 ! R16   R(8,35)                 1.0872         estimate D2E/DX2                !
 ! R17   R(9,12)                 1.4212         estimate D2E/DX2                !
 ! R18   R(10,11)                1.4269         estimate D2E/DX2                !
 ! R19   R(10,18)                1.4036         estimate D2E/DX2                !
 ! R20   R(11,12)                1.4256         estimate D2E/DX2                !
 ! R21   R(11,37)                1.0874         estimate D2E/DX2                !
 ! R22   R(12,36)                1.0872         estimate D2E/DX2                !
 ! R23   R(13,14)                1.4568         estimate D2E/DX2                !
 ! R24   R(13,30)                1.56           estimate D2E/DX2                !
 ! R25   R(13,31)                1.1347         estimate D2E/DX2                !
 ! R26   R(14,15)                1.427          estimate D2E/DX2                !
 ! R27   R(14,32)                1.0893         estimate D2E/DX2                !
 ! R28   R(15,33)                1.0867         estimate D2E/DX2                !
 ! R29   R(16,17)                1.4465         estimate D2E/DX2                !
 ! R30   R(16,19)                1.4507         estimate D2E/DX2                !
 ! R31   R(17,18)                1.4295         estimate D2E/DX2                !
 ! R32   R(17,22)                1.3827         estimate D2E/DX2                !
 ! R33   R(18,38)                1.0881         estimate D2E/DX2                !
 ! R34   R(19,20)                1.43           estimate D2E/DX2                !
 ! R35   R(19,23)                1.4995         estimate D2E/DX2                !
 ! R36   R(20,21)                1.3997         estimate D2E/DX2                !
 ! R37   R(20,26)                1.3851         estimate D2E/DX2                !
 ! R38   R(21,22)                1.3837         estimate D2E/DX2                !
 ! R39   R(21,40)                1.0894         estimate D2E/DX2                !
 ! R40   R(22,39)                1.0874         estimate D2E/DX2                !
 ! R41   R(23,24)                1.4362         estimate D2E/DX2                !
 ! R42   R(23,30)                1.4726         estimate D2E/DX2                !
 ! R43   R(24,25)                1.3896         estimate D2E/DX2                !
 ! R44   R(24,27)                1.3993         estimate D2E/DX2                !
 ! R45   R(25,26)                1.3785         estimate D2E/DX2                !
 ! R46   R(25,42)                1.0891         estimate D2E/DX2                !
 ! R47   R(26,41)                1.0885         estimate D2E/DX2                !
 ! R48   R(27,28)                1.3763         estimate D2E/DX2                !
 ! R49   R(27,43)                1.0893         estimate D2E/DX2                !
 ! R50   R(28,29)                1.3949         estimate D2E/DX2                !
 ! R51   R(28,44)                1.0873         estimate D2E/DX2                !
 ! R52   R(29,30)                1.4455         estimate D2E/DX2                !
 ! R53   R(29,45)                1.126          estimate D2E/DX2                !
 ! R54   R(29,46)                1.1198         estimate D2E/DX2                !
 ! A1    A(2,1,4)              106.0101         estimate D2E/DX2                !
 ! A2    A(2,1,13)             132.662          estimate D2E/DX2                !
 ! A3    A(4,1,13)             120.8065         estimate D2E/DX2                !
 ! A4    A(1,2,3)              105.5369         estimate D2E/DX2                !
 ! A5    A(1,2,16)             133.3983         estimate D2E/DX2                !
 ! A6    A(3,2,16)             121.0414         estimate D2E/DX2                !
 ! A7    A(2,3,5)              109.8681         estimate D2E/DX2                !
 ! A8    A(2,3,10)             127.8544         estimate D2E/DX2                !
 ! A9    A(5,3,10)             122.2572         estimate D2E/DX2                !
 ! A10   A(1,4,5)              109.5022         estimate D2E/DX2                !
 ! A11   A(1,4,6)              128.1899         estimate D2E/DX2                !
 ! A12   A(5,4,6)              122.2235         estimate D2E/DX2                !
 ! A13   A(3,5,4)              109.0524         estimate D2E/DX2                !
 ! A14   A(3,5,9)              125.4689         estimate D2E/DX2                !
 ! A15   A(4,5,9)              125.4253         estimate D2E/DX2                !
 ! A16   A(4,6,7)              115.884          estimate D2E/DX2                !
 ! A17   A(4,6,15)             113.3193         estimate D2E/DX2                !
 ! A18   A(7,6,15)             130.779          estimate D2E/DX2                !
 ! A19   A(6,7,8)              121.0568         estimate D2E/DX2                !
 ! A20   A(6,7,34)             119.6352         estimate D2E/DX2                !
 ! A21   A(8,7,34)             119.2929         estimate D2E/DX2                !
 ! A22   A(7,8,9)              120.871          estimate D2E/DX2                !
 ! A23   A(7,8,35)             119.3565         estimate D2E/DX2                !
 ! A24   A(9,8,35)             119.7555         estimate D2E/DX2                !
 ! A25   A(5,9,8)              114.4733         estimate D2E/DX2                !
 ! A26   A(5,9,12)             114.4116         estimate D2E/DX2                !
 ! A27   A(8,9,12)             131.1074         estimate D2E/DX2                !
 ! A28   A(3,10,11)            115.9243         estimate D2E/DX2                !
 ! A29   A(3,10,18)            112.9337         estimate D2E/DX2                !
 ! A30   A(11,10,18)           131.132          estimate D2E/DX2                !
 ! A31   A(10,11,12)           121.0785         estimate D2E/DX2                !
 ! A32   A(10,11,37)           119.6272         estimate D2E/DX2                !
 ! A33   A(12,11,37)           119.2903         estimate D2E/DX2                !
 ! A34   A(9,12,11)            120.8315         estimate D2E/DX2                !
 ! A35   A(9,12,36)            119.7678         estimate D2E/DX2                !
 ! A36   A(11,12,36)           119.3886         estimate D2E/DX2                !
 ! A37   A(1,13,14)            112.5659         estimate D2E/DX2                !
 ! A38   A(1,13,30)            119.0098         estimate D2E/DX2                !
 ! A39   A(1,13,31)            104.2013         estimate D2E/DX2                !
 ! A40   A(14,13,30)           121.2008         estimate D2E/DX2                !
 ! A41   A(14,13,31)           103.5725         estimate D2E/DX2                !
 ! A42   A(30,13,31)            89.7494         estimate D2E/DX2                !
 ! A43   A(13,14,15)           124.7228         estimate D2E/DX2                !
 ! A44   A(13,14,32)           119.8718         estimate D2E/DX2                !
 ! A45   A(15,14,32)           115.3146         estimate D2E/DX2                !
 ! A46   A(6,15,14)            120.1785         estimate D2E/DX2                !
 ! A47   A(6,15,33)            120.2768         estimate D2E/DX2                !
 ! A48   A(14,15,33)           119.5184         estimate D2E/DX2                !
 ! A49   A(2,16,17)            113.5902         estimate D2E/DX2                !
 ! A50   A(2,16,19)            123.4794         estimate D2E/DX2                !
 ! A51   A(17,16,19)           122.8976         estimate D2E/DX2                !
 ! A52   A(16,17,18)           123.258          estimate D2E/DX2                !
 ! A53   A(16,17,22)           118.9812         estimate D2E/DX2                !
 ! A54   A(18,17,22)           117.7584         estimate D2E/DX2                !
 ! A55   A(10,18,17)           121.2235         estimate D2E/DX2                !
 ! A56   A(10,18,38)           118.6227         estimate D2E/DX2                !
 ! A57   A(17,18,38)           120.1531         estimate D2E/DX2                !
 ! A58   A(16,19,20)           113.3785         estimate D2E/DX2                !
 ! A59   A(16,19,23)           128.2016         estimate D2E/DX2                !
 ! A60   A(20,19,23)           118.3229         estimate D2E/DX2                !
 ! A61   A(19,20,21)           123.0957         estimate D2E/DX2                !
 ! A62   A(19,20,26)           121.5707         estimate D2E/DX2                !
 ! A63   A(21,20,26)           115.3059         estimate D2E/DX2                !
 ! A64   A(20,21,22)           121.5629         estimate D2E/DX2                !
 ! A65   A(20,21,40)           120.7291         estimate D2E/DX2                !
 ! A66   A(22,21,40)           117.6553         estimate D2E/DX2                !
 ! A67   A(17,22,21)           119.9083         estimate D2E/DX2                !
 ! A68   A(17,22,39)           121.28           estimate D2E/DX2                !
 ! A69   A(21,22,39)           118.8008         estimate D2E/DX2                !
 ! A70   A(19,23,24)           115.7266         estimate D2E/DX2                !
 ! A71   A(19,23,30)           130.3084         estimate D2E/DX2                !
 ! A72   A(24,23,30)           113.9604         estimate D2E/DX2                !
 ! A73   A(23,24,25)           122.1613         estimate D2E/DX2                !
 ! A74   A(23,24,27)           123.5244         estimate D2E/DX2                !
 ! A75   A(25,24,27)           114.3124         estimate D2E/DX2                !
 ! A76   A(24,25,26)           121.255          estimate D2E/DX2                !
 ! A77   A(24,25,42)           121.0948         estimate D2E/DX2                !
 ! A78   A(26,25,42)           117.6475         estimate D2E/DX2                !
 ! A79   A(20,26,25)           120.5604         estimate D2E/DX2                !
 ! A80   A(20,26,41)           121.3165         estimate D2E/DX2                !
 ! A81   A(25,26,41)           118.0372         estimate D2E/DX2                !
 ! A82   A(24,27,28)           121.4949         estimate D2E/DX2                !
 ! A83   A(24,27,43)           120.8829         estimate D2E/DX2                !
 ! A84   A(28,27,43)           117.6082         estimate D2E/DX2                !
 ! A85   A(27,28,29)           119.0178         estimate D2E/DX2                !
 ! A86   A(27,28,44)           120.3983         estimate D2E/DX2                !
 ! A87   A(29,28,44)           120.5123         estimate D2E/DX2                !
 ! A88   A(28,29,30)           121.3555         estimate D2E/DX2                !
 ! A89   A(28,29,45)           106.8209         estimate D2E/DX2                !
 ! A90   A(28,29,46)           112.115          estimate D2E/DX2                !
 ! A91   A(30,29,45)           110.078          estimate D2E/DX2                !
 ! A92   A(30,29,46)           112.5309         estimate D2E/DX2                !
 ! A93   A(45,29,46)            88.8734         estimate D2E/DX2                !
 ! A94   A(13,30,23)           124.1446         estimate D2E/DX2                !
 ! A95   A(13,30,29)           115.5704         estimate D2E/DX2                !
 ! A96   A(23,30,29)           120.1233         estimate D2E/DX2                !
 ! D1    D(4,1,2,3)              1.3034         estimate D2E/DX2                !
 ! D2    D(4,1,2,16)           179.4909         estimate D2E/DX2                !
 ! D3    D(13,1,2,3)          -170.1799         estimate D2E/DX2                !
 ! D4    D(13,1,2,16)            8.0076         estimate D2E/DX2                !
 ! D5    D(2,1,4,5)             -0.3849         estimate D2E/DX2                !
 ! D6    D(2,1,4,6)           -177.0613         estimate D2E/DX2                !
 ! D7    D(13,1,4,5)           172.3305         estimate D2E/DX2                !
 ! D8    D(13,1,4,6)            -4.3459         estimate D2E/DX2                !
 ! D9    D(2,1,13,14)          175.8601         estimate D2E/DX2                !
 ! D10   D(2,1,13,30)          -33.4581         estimate D2E/DX2                !
 ! D11   D(2,1,13,31)           64.3105         estimate D2E/DX2                !
 ! D12   D(4,1,13,14)            5.4003         estimate D2E/DX2                !
 ! D13   D(4,1,13,30)          156.0821         estimate D2E/DX2                !
 ! D14   D(4,1,13,31)         -106.1493         estimate D2E/DX2                !
 ! D15   D(1,2,3,5)             -1.7936         estimate D2E/DX2                !
 ! D16   D(1,2,3,10)           176.5744         estimate D2E/DX2                !
 ! D17   D(16,2,3,5)           179.7434         estimate D2E/DX2                !
 ! D18   D(16,2,3,10)           -1.8886         estimate D2E/DX2                !
 ! D19   D(1,2,16,17)         -174.4481         estimate D2E/DX2                !
 ! D20   D(1,2,16,19)            7.5827         estimate D2E/DX2                !
 ! D21   D(3,2,16,17)            3.5136         estimate D2E/DX2                !
 ! D22   D(3,2,16,19)         -174.4556         estimate D2E/DX2                !
 ! D23   D(2,3,5,4)              1.6098         estimate D2E/DX2                !
 ! D24   D(2,3,5,9)            179.0634         estimate D2E/DX2                !
 ! D25   D(10,3,5,4)          -176.8664         estimate D2E/DX2                !
 ! D26   D(10,3,5,9)             0.5871         estimate D2E/DX2                !
 ! D27   D(2,3,10,11)         -179.7491         estimate D2E/DX2                !
 ! D28   D(2,3,10,18)           -0.7658         estimate D2E/DX2                !
 ! D29   D(5,3,10,11)           -1.5642         estimate D2E/DX2                !
 ! D30   D(5,3,10,18)          177.4191         estimate D2E/DX2                !
 ! D31   D(1,4,5,3)             -0.7314         estimate D2E/DX2                !
 ! D32   D(1,4,5,9)           -178.1863         estimate D2E/DX2                !
 ! D33   D(6,4,5,3)            176.181          estimate D2E/DX2                !
 ! D34   D(6,4,5,9)             -1.2739         estimate D2E/DX2                !
 ! D35   D(1,4,6,7)            179.0296         estimate D2E/DX2                !
 ! D36   D(1,4,6,15)             0.3951         estimate D2E/DX2                !
 ! D37   D(5,4,6,7)              2.7334         estimate D2E/DX2                !
 ! D38   D(5,4,6,15)          -175.9011         estimate D2E/DX2                !
 ! D39   D(3,5,9,8)           -178.13           estimate D2E/DX2                !
 ! D40   D(3,5,9,12)             0.971          estimate D2E/DX2                !
 ! D41   D(4,5,9,8)             -1.0842         estimate D2E/DX2                !
 ! D42   D(4,5,9,12)           178.0169         estimate D2E/DX2                !
 ! D43   D(4,6,7,8)             -1.9363         estimate D2E/DX2                !
 ! D44   D(4,6,7,34)           179.4894         estimate D2E/DX2                !
 ! D45   D(15,6,7,8)           176.4076         estimate D2E/DX2                !
 ! D46   D(15,6,7,34)           -2.1666         estimate D2E/DX2                !
 ! D47   D(4,6,15,14)            1.6531         estimate D2E/DX2                !
 ! D48   D(4,6,15,33)          179.7776         estimate D2E/DX2                !
 ! D49   D(7,6,15,14)         -176.7244         estimate D2E/DX2                !
 ! D50   D(7,6,15,33)            1.4001         estimate D2E/DX2                !
 ! D51   D(6,7,8,9)             -0.3233         estimate D2E/DX2                !
 ! D52   D(6,7,8,35)          -178.8169         estimate D2E/DX2                !
 ! D53   D(34,7,8,9)           178.2557         estimate D2E/DX2                !
 ! D54   D(34,7,8,35)           -0.2379         estimate D2E/DX2                !
 ! D55   D(7,8,9,5)              1.7975         estimate D2E/DX2                !
 ! D56   D(7,8,9,12)          -177.1161         estimate D2E/DX2                !
 ! D57   D(35,8,9,5)          -179.7149         estimate D2E/DX2                !
 ! D58   D(35,8,9,12)            1.3716         estimate D2E/DX2                !
 ! D59   D(5,9,12,11)           -1.4557         estimate D2E/DX2                !
 ! D60   D(5,9,12,36)          179.8158         estimate D2E/DX2                !
 ! D61   D(8,9,12,11)          177.4584         estimate D2E/DX2                !
 ! D62   D(8,9,12,36)           -1.2701         estimate D2E/DX2                !
 ! D63   D(3,10,11,12)           1.0128         estimate D2E/DX2                !
 ! D64   D(3,10,11,37)        -179.7222         estimate D2E/DX2                !
 ! D65   D(18,10,11,12)       -177.744          estimate D2E/DX2                !
 ! D66   D(18,10,11,37)          1.5209         estimate D2E/DX2                !
 ! D67   D(3,10,18,17)           1.3768         estimate D2E/DX2                !
 ! D68   D(3,10,18,38)        -178.9431         estimate D2E/DX2                !
 ! D69   D(11,10,18,17)       -179.8372         estimate D2E/DX2                !
 ! D70   D(11,10,18,38)         -0.1571         estimate D2E/DX2                !
 ! D71   D(10,11,12,9)           0.5121         estimate D2E/DX2                !
 ! D72   D(10,11,12,36)        179.2454         estimate D2E/DX2                !
 ! D73   D(37,11,12,9)        -178.7552         estimate D2E/DX2                !
 ! D74   D(37,11,12,36)         -0.022          estimate D2E/DX2                !
 ! D75   D(1,13,14,15)          -3.5715         estimate D2E/DX2                !
 ! D76   D(1,13,14,32)        -179.9368         estimate D2E/DX2                !
 ! D77   D(30,13,14,15)       -153.5293         estimate D2E/DX2                !
 ! D78   D(30,13,14,32)         30.1055         estimate D2E/DX2                !
 ! D79   D(31,13,14,15)        108.3678         estimate D2E/DX2                !
 ! D80   D(31,13,14,32)        -67.9974         estimate D2E/DX2                !
 ! D81   D(1,13,30,23)          34.7625         estimate D2E/DX2                !
 ! D82   D(1,13,30,29)        -149.8704         estimate D2E/DX2                !
 ! D83   D(14,13,30,23)       -177.1507         estimate D2E/DX2                !
 ! D84   D(14,13,30,29)         -1.7836         estimate D2E/DX2                !
 ! D85   D(31,13,30,23)        -71.3845         estimate D2E/DX2                !
 ! D86   D(31,13,30,29)        103.9827         estimate D2E/DX2                !
 ! D87   D(13,14,15,6)           0.0067         estimate D2E/DX2                !
 ! D88   D(13,14,15,33)       -178.1321         estimate D2E/DX2                !
 ! D89   D(32,14,15,6)         176.5202         estimate D2E/DX2                !
 ! D90   D(32,14,15,33)         -1.6185         estimate D2E/DX2                !
 ! D91   D(2,16,17,18)          -2.9353         estimate D2E/DX2                !
 ! D92   D(2,16,17,22)         177.6419         estimate D2E/DX2                !
 ! D93   D(19,16,17,18)        175.0473         estimate D2E/DX2                !
 ! D94   D(19,16,17,22)         -4.3756         estimate D2E/DX2                !
 ! D95   D(2,16,19,20)         179.9199         estimate D2E/DX2                !
 ! D96   D(2,16,19,23)           3.6025         estimate D2E/DX2                !
 ! D97   D(17,16,19,20)          2.1366         estimate D2E/DX2                !
 ! D98   D(17,16,19,23)       -174.1808         estimate D2E/DX2                !
 ! D99   D(16,17,18,10)          0.48           estimate D2E/DX2                !
 ! D100  D(16,17,18,38)       -179.1953         estimate D2E/DX2                !
 ! D101  D(22,17,18,10)        179.9094         estimate D2E/DX2                !
 ! D102  D(22,17,18,38)          0.2342         estimate D2E/DX2                !
 ! D103  D(16,17,22,21)          2.5568         estimate D2E/DX2                !
 ! D104  D(16,17,22,39)       -178.6596         estimate D2E/DX2                !
 ! D105  D(18,17,22,21)       -176.8978         estimate D2E/DX2                !
 ! D106  D(18,17,22,39)          1.8858         estimate D2E/DX2                !
 ! D107  D(16,19,20,21)          1.8015         estimate D2E/DX2                !
 ! D108  D(16,19,20,26)       -176.1899         estimate D2E/DX2                !
 ! D109  D(23,19,20,21)        178.5145         estimate D2E/DX2                !
 ! D110  D(23,19,20,26)          0.523          estimate D2E/DX2                !
 ! D111  D(16,19,23,24)        170.5647         estimate D2E/DX2                !
 ! D112  D(16,19,23,30)         -8.6021         estimate D2E/DX2                !
 ! D113  D(20,19,23,24)         -5.5951         estimate D2E/DX2                !
 ! D114  D(20,19,23,30)        175.2381         estimate D2E/DX2                !
 ! D115  D(19,20,21,22)         -3.6293         estimate D2E/DX2                !
 ! D116  D(19,20,21,40)        179.0739         estimate D2E/DX2                !
 ! D117  D(26,20,21,22)        174.4778         estimate D2E/DX2                !
 ! D118  D(26,20,21,40)         -2.819          estimate D2E/DX2                !
 ! D119  D(19,20,26,25)          3.8821         estimate D2E/DX2                !
 ! D120  D(19,20,26,41)       -179.5532         estimate D2E/DX2                !
 ! D121  D(21,20,26,25)       -174.2567         estimate D2E/DX2                !
 ! D122  D(21,20,26,41)          2.3081         estimate D2E/DX2                !
 ! D123  D(20,21,22,17)          1.2736         estimate D2E/DX2                !
 ! D124  D(20,21,22,39)       -177.5401         estimate D2E/DX2                !
 ! D125  D(40,21,22,17)        178.6504         estimate D2E/DX2                !
 ! D126  D(40,21,22,39)         -0.1633         estimate D2E/DX2                !
 ! D127  D(19,23,24,25)          6.7845         estimate D2E/DX2                !
 ! D128  D(19,23,24,27)       -172.6925         estimate D2E/DX2                !
 ! D129  D(30,23,24,25)       -173.9108         estimate D2E/DX2                !
 ! D130  D(30,23,24,27)          6.6122         estimate D2E/DX2                !
 ! D131  D(19,23,30,13)        -12.317          estimate D2E/DX2                !
 ! D132  D(19,23,30,29)        172.5151         estimate D2E/DX2                !
 ! D133  D(24,23,30,13)        168.5044         estimate D2E/DX2                !
 ! D134  D(24,23,30,29)         -6.6635         estimate D2E/DX2                !
 ! D135  D(23,24,25,26)         -2.7271         estimate D2E/DX2                !
 ! D136  D(23,24,25,42)        177.8798         estimate D2E/DX2                !
 ! D137  D(27,24,25,26)        176.7945         estimate D2E/DX2                !
 ! D138  D(27,24,25,42)         -2.5986         estimate D2E/DX2                !
 ! D139  D(23,24,27,28)         -1.0069         estimate D2E/DX2                !
 ! D140  D(23,24,27,43)        177.6015         estimate D2E/DX2                !
 ! D141  D(25,24,27,28)        179.4789         estimate D2E/DX2                !
 ! D142  D(25,24,27,43)         -1.9127         estimate D2E/DX2                !
 ! D143  D(24,25,26,20)         -2.8888         estimate D2E/DX2                !
 ! D144  D(24,25,26,41)       -179.564          estimate D2E/DX2                !
 ! D145  D(42,25,26,20)        176.5245         estimate D2E/DX2                !
 ! D146  D(42,25,26,41)         -0.1506         estimate D2E/DX2                !
 ! D147  D(24,27,28,29)         -4.8601         estimate D2E/DX2                !
 ! D148  D(24,27,28,44)        178.202          estimate D2E/DX2                !
 ! D149  D(43,27,28,29)        176.4877         estimate D2E/DX2                !
 ! D150  D(43,27,28,44)         -0.4503         estimate D2E/DX2                !
 ! D151  D(27,28,29,30)          4.5459         estimate D2E/DX2                !
 ! D152  D(27,28,29,45)       -122.6249         estimate D2E/DX2                !
 ! D153  D(27,28,29,46)        141.5969         estimate D2E/DX2                !
 ! D154  D(44,28,29,30)       -178.5197         estimate D2E/DX2                !
 ! D155  D(44,28,29,45)         54.3095         estimate D2E/DX2                !
 ! D156  D(44,28,29,46)        -41.4688         estimate D2E/DX2                !
 ! D157  D(28,29,30,13)       -174.1245         estimate D2E/DX2                !
 ! D158  D(28,29,30,23)          1.443          estimate D2E/DX2                !
 ! D159  D(45,29,30,13)        -48.426          estimate D2E/DX2                !
 ! D160  D(45,29,30,23)        127.1414         estimate D2E/DX2                !
 ! D161  D(46,29,30,13)         48.9839         estimate D2E/DX2                !
 ! D162  D(46,29,30,23)       -135.4486         estimate D2E/DX2                !
 --------------------------------------------------------------------------------
 Trust Radius=3.00D-01 FncErr=1.00D-07 GrdErr=1.00D-06 EigMax=2.50D+02 EigMin=1.00D-04
 Number of steps in this run=    276 maximum allowed number of steps=    276.
 GradGradGradGradGradGradGradGradGradGradGradGradGradGradGradGradGradGrad

                          Input orientation:                          
 ---------------------------------------------------------------------
 Center     Atomic      Atomic             Coordinates (Angstroms)
 Number     Number       Type             X           Y           Z
 ---------------------------------------------------------------------
      1          6           0       -4.027720   -0.101860   -0.078970
      2          6           0       -2.597530   -0.284190   -0.033450
      3          6           0       -2.400970   -1.653520    0.125420
      4          6           0       -4.582600   -1.370440    0.086110
      5          6           0       -3.594280   -2.281350    0.216030
      6          6           0       -5.916020   -1.729250    0.059650
      7          6           0       -6.190910   -3.116850    0.238830
      8          6           0       -5.134630   -4.062260    0.390880
      9          6           0       -3.775170   -3.648050    0.361230
     10          6           0       -1.207000   -2.337080    0.158390
     11          6           0       -1.301910   -3.750570    0.329310
     12          6           0       -2.568790   -4.395670    0.434600
     13          6           0       -4.826710    0.987600   -0.391590
     14          6           0       -6.245940    0.658890   -0.389700
     15          6           0       -6.777380   -0.647580   -0.173090
     16          6           0       -1.527360    0.580210   -0.144940
     17          6           0       -0.243820   -0.086600   -0.160520
     18          6           0       -0.092720   -1.499970   -0.008350
     19          6           0       -1.666200    2.023340   -0.195300
     20          6           0       -0.417030    2.709920   -0.310160
     21          6           0        0.812840    2.048370   -0.404660
     22          6           0        0.902500    0.670330   -0.318170
     23          6           0       -2.917480    2.839630   -0.066800
     24          6           0       -2.726880    4.257970    0.054160
     25          6           0       -1.478020    4.851040   -0.085520
     26          6           0       -0.345590    4.093130   -0.293890
     27          6           0       -3.763650    5.156310    0.329980
     28          6           0       -5.062590    4.729170    0.486180
     29          6           0       -5.364160    3.385330    0.265220
     30          6           0       -4.328550    2.420360   -0.027530
     31          1           0       -4.602350    1.192780   -1.484810
     32          1           0       -6.981370    1.428400   -0.621110
     33          1           0       -7.851880   -0.803090   -0.220050
     34          1           0       -7.220840   -3.465560    0.236970
     35          1           0       -5.375170   -5.116160    0.506460
     36          1           0       -2.609400   -5.475710    0.551920
     37          1           0       -0.395090   -4.349420    0.368390
     38          1           0        0.899120   -1.947480   -0.014870
     39          1           0        1.884930    0.205810   -0.356880
     40          1           0        1.740750    2.610100   -0.505890
     41          1           0        0.606740    4.611600   -0.388830
     42          1           0       -1.358590    5.931820   -0.024300
     43          1           0       -3.564140    6.220340    0.450920
     44          1           0       -5.849680    5.438870    0.728970
     45          1           0       -6.156660    3.356390   -0.534190
     46          1           0       -6.118460    2.996850    0.996050
 ---------------------------------------------------------------------
                    Distance matrix (angstroms):
                    1          2          3          4          5
     1  C    0.000000
     2  C    1.442484   0.000000
     3  C    2.257374   1.392458   0.000000
     4  C    1.394431   2.265996   2.200270   0.000000
     5  C    2.241667   2.245974   1.351432   1.350338   0.000000
     6  C    2.496656   3.620669   3.516481   1.381106   2.391599
     7  C    3.724319   4.583719   4.064215   2.379061   2.727832
     8  C    4.138934   4.570639   3.653135   2.764691   2.361121
     9  C    3.582321   3.585828   2.433553   2.432106   1.386244
    10  C    3.606800   2.486912   1.376192   3.512021   2.388626
    11  C    4.572725   3.718335   2.376368   4.060430   2.725142
    12  C    4.563884   4.138135   2.764623   3.650876   2.360032
    13  C    1.386737   2.591324   3.623124   2.418293   3.546001
    14  C    2.365543   3.785130   4.516235   2.666697   4.005399
    15  C    2.804871   4.197940   4.500443   2.325246   3.598992
    16  C    2.592561   1.380174   2.413677   3.632205   3.548378
    17  C    3.784809   2.365405   2.681473   4.531455   4.022971
    18  C    4.176592   2.784389   2.317216   4.492741   3.594694
    19  C    3.179117   2.493645   3.763250   4.483561   4.734664
    20  C    4.582209   3.714276   4.813040   5.844514   5.940082
    21  C    5.306655   4.148404   4.930877   6.406238   6.209222
    22  C    4.996055   3.639009   4.063246   5.866388   5.405443
    23  C    3.144065   3.140339   4.526823   4.529977   5.173247
    24  C    4.551706   4.544846   5.920896   5.926527   6.598582
    25  C    5.570658   5.256101   6.573099   6.955191   7.445836
    26  C    5.585894   4.929502   6.117548   6.924395   7.172726
    27  C    5.280656   5.575927   6.947843   6.582448   7.440461
    28  C    4.972846   5.610732   6.924818   6.131532   7.167727
    29  C    3.750338   4.605304   5.847226   4.822890   5.936847
    30  C    2.540618   3.211083   4.509485   3.801003   4.764929
    31  H    1.995665   2.882220   3.942124   3.006373   3.997329
    32  H    3.370409   4.743033   5.570961   3.753367   5.092684
    33  H    3.890479   5.283206   5.527658   3.332238   4.527977
    34  H    4.648689   5.618651   5.150445   3.372328   3.815066
    35  H    5.225089   5.599529   4.580495   3.851659   3.360367
    36  H    5.593560   5.224431   3.851556   4.578618   3.359575
    37  H    5.606951   4.640939   3.369045   5.146770   3.812472
    38  H    5.261575   3.872136   3.316125   5.512933   4.511699
    39  H    5.927168   4.520747   4.696665   6.671563   6.044496
    40  H    6.388445   5.236486   5.977529   7.495326   7.273926
    41  H    6.617472   5.861945   6.968680   7.933449   8.094886
    42  H    6.597919   6.338283   7.658091   7.983072   8.515411
    43  H    6.361282   6.593774   7.965964   7.667483   8.504988
    44  H    5.888293   6.626551   7.909480   6.955966   8.059264
    45  H    4.086454   5.115855   6.295990   5.020494   6.238007
    46  H    3.889584   4.921589   6.016949   4.718059   5.902483
                    6          7          8          9         10
     6  C    0.000000
     7  C    1.425869   0.000000
     8  C    2.482583   1.425709   0.000000
     9  C    2.890672   2.476480   1.421471   0.000000
    10  C    4.749113   5.045183   4.296112   2.890551   0.000000
    11  C    5.044647   4.930731   3.845866   2.475590   1.426946
    12  C    4.295851   3.846227   2.587781   1.421151   2.483658
    13  C    2.961670   4.370924   5.119391   4.812663   4.945531
    14  C    2.452341   3.828092   4.912593   5.021786   5.887882
    15  C    1.402184   2.571171   3.831022   4.278035   5.830388
    16  C    4.963446   5.963575   5.903561   4.815292   2.950461
    17  C    5.909368   6.686537   6.326922   5.042478   2.468619
    18  C    5.828209   6.313741   5.669706   4.279168   1.403629
    19  C    5.675201   6.861707   7.029092   6.076359   4.398775
    20  C    7.076855   8.221334   8.283093   7.221610   5.129893
    21  C    7.730689   8.726173   8.564174   7.354293   4.860962
    22  C    7.238297   8.060363   7.703707   6.402389   3.704270
    23  C    5.466434   6.803558   7.263698   6.558112   5.456627
    24  C    6.783616   8.149943   8.668152   7.981125   6.768721
    25  C    7.938333   9.263034   9.645967   8.815385   7.197362
    26  C    8.065655   9.297062   9.482310   8.492177   6.503398
    27  C    7.219190   8.622359   9.320157   8.804423   7.919394
    28  C    6.528511   7.930594   8.792242   8.476490   8.056358
    29  C    5.148372   6.554583   7.452186   7.211279   7.073851
    30  C    4.443751   5.848079   6.545930   6.105978   5.693143
    31  H    3.556592   4.905850   5.605085   5.246496   5.166084
    32  H    3.401347   4.692933   5.880639   6.084000   6.937565
    33  H    2.164153   2.884940   4.287059   5.005122   6.830137
    34  H    2.179167   1.087363   2.175319   3.452736   6.119307
    35  H    3.458803   2.175844   1.087163   2.176336   5.021761
    36  H    5.021158   4.299937   2.898372   2.176172   3.460143
    37  H    6.118928   5.926849   4.748285   3.452088   2.180094
    38  H    6.819040   7.190293   6.406486   4.988224   2.148848
    39  H    8.048154   8.752950   8.249230   6.885104   4.036313
    40  H    8.819066   9.811411   9.622652   8.386997   5.796990
    41  H    9.107904  10.311690  10.431065   9.380061   7.202309
    42  H    8.914550  10.261529  10.691702   9.887487   8.272307
    43  H    8.299422   9.701960  10.402015   9.871054   8.880941
    44  H    7.199607   8.576539   9.533996   9.327965   9.074439
    45  H    5.125845   6.519323   7.545639   7.452211   7.575909
    46  H    4.822224   6.160841   7.152984   7.074511   7.298967
                   11         12         13         14         15
    11  C    0.000000
    12  C    1.425561   0.000000
    13  C    5.949300   5.895794   0.000000
    14  C    6.663614   6.304719   1.456800   0.000000
    15  C    6.313614   5.668306   2.554735   1.426959   0.000000
    16  C    4.362499   5.116622   3.333544   4.725579   5.391750
    17  C    3.845018   4.932316   4.712768   6.052580   6.557611
    18  C    2.577083   3.835649   5.361487   6.532092   6.740800
    19  C    5.809127   6.512690   3.331683   4.782628   5.767016
    20  C    6.552089   7.461511   4.734796   6.179745   7.193445
    21  C    6.215994   7.325669   5.738460   7.194251   8.058115
    22  C    4.982270   6.187154   5.738458   7.148807   7.793490
    23  C    6.796889   7.261030   2.679676   3.992310   5.202957
    24  C    8.138978   8.663441   3.911943   5.053135   6.365737
    25  C    8.613408   9.325339   5.121872   6.356076   7.637127
    26  C    7.926320   8.805285   5.452916   6.827687   7.991048
    27  C    9.240816   9.626991   4.362213   5.187147   6.559023
    28  C    9.277570   9.459620   3.850385   4.328356   5.681952
    29  C    8.211398   8.269628   2.543494   2.939376   4.295773
    30  C    6.882460   7.054685   1.559969   2.628750   3.928131
    31  H    6.214551   6.249022   1.134710   2.045897   3.136605
    32  H    7.744759   7.382762   2.211231   1.089290   2.133548
    33  H    7.203578   6.422323   3.519609   2.178350   1.086710
    34  H    5.926507   4.748235   5.094858   4.284184   2.881981
    35  H    4.299729   2.898282   6.193802   5.908684   4.732461
    36  H    2.176050   1.087152   6.897902   7.193357   6.419388
    37  H    1.087415   2.175200   6.978582   7.738883   7.398003
    38  H    2.866030   4.268730   6.445288   7.614824   7.787389
    39  H    5.126378   6.452572   6.757108   8.143550   8.706186
    40  H    7.100244   8.278736   6.765878   8.222405   9.125885
    41  H    8.607239   9.586081   6.531138   7.910951   9.068117
    42  H    9.689011  10.408277   6.050460   7.198854   8.524900
    43  H   10.225044  10.662582   5.448438   6.231245   7.608063
    44  H   10.260982  10.371551   4.702757   4.925104   6.222476
    45  H    8.650035   8.596848   2.720343   2.702842   4.067857
    46  H    8.316933   8.219777   2.762471   2.720774   3.883675
                   16         17         18         19         20
    16  C    0.000000
    17  C    1.446497   0.000000
    18  C    2.530612   1.429546   0.000000
    19  C    1.450668   2.544842   3.863224   0.000000
    20  C    2.407446   2.805872   4.233136   1.430039   0.000000
    21  C    2.774794   2.394626   3.683452   2.487991   1.399700
    22  C    2.437694   1.382695   2.407624   2.905848   2.429228
    23  C    2.653963   3.964853   5.178302   1.499514   2.515611
    24  C    3.873552   5.008689   6.332186   2.486130   2.804389
    25  C    4.271528   5.090104   6.500795   2.836080   2.400116
    26  C    3.709363   4.183095   5.606090   2.457186   1.385149
    27  C    5.115392   6.333869   7.608959   3.806667   4.194576
    28  C    5.487261   6.843275   7.984131   4.395611   5.127646
    29  C    4.770531   6.201083   7.192293   3.967619   5.026066
    30  C    3.353595   4.794534   5.771621   2.697013   3.932393
    31  H    3.409700   4.731526   5.455969   3.312649   4.604174
    32  H    5.540071   6.921123   7.510281   5.365287   6.695487
    33  H    6.474466   7.641955   7.793268   6.800879   8.223524
    34  H    6.994986   7.762356   7.398231   7.821055   9.204767
    35  H    6.904969   7.216099   6.422316   8.075976   9.300406
    36  H    6.191170   5.928410   4.738575   7.594980   8.517876
    37  H    5.083974   4.298170   2.890108   6.522694   7.091910
    38  H    3.506272   2.188698   1.088143   4.730839   4.848796
    39  H    3.439305   2.157693   2.634817   3.992499   3.401730
    40  H    3.864102   3.366005   4.527895   3.471032   2.168937
    41  H    4.567928   4.780027   6.163221   3.450043   2.161176
    42  H    5.355629   6.122307   7.538845   3.924294   3.368811
    43  H    6.026159   7.153732   8.477315   4.651299   4.775625
    44  H    6.561459   7.921343   9.046200   5.479199   6.167710
    45  H    5.411941   6.852407   7.786662   4.696392   5.780265
    46  H    5.312269   6.734739   7.585496   4.710590   5.856178
                   21         22         23         24         25
    21  C    0.000000
    22  C    1.383660   0.000000
    23  C    3.828254   4.400147   0.000000
    24  C    4.197912   5.116853   1.436192   0.000000
    25  C    3.633848   4.816569   2.473493   1.389566   0.000000
    26  C    2.352716   3.643333   2.870096   2.412230   1.378493
    27  C    5.580614   6.505157   2.498088   1.399280   2.343061
    28  C    6.519276   7.259715   2.911640   2.421613   3.631919
    29  C    6.355433   6.854385   2.528689   2.785910   4.168142
    30  C    5.168607   5.523673   1.472565   2.439022   3.746610
    31  H    5.587758   5.651316   2.749846   3.909118   5.010221
    32  H    7.821824   7.926024   4.337514   5.153944   6.502936
    33  H    9.123721   8.878050   6.135242   7.207992   8.521348
    34  H    9.764995   9.132493   7.639804   8.937674  10.111865
    35  H    9.510631   8.577448   8.346464   9.751530  10.718362
    36  H    8.320971   7.131922   8.344016   9.747107  10.408079
    37  H    6.556555   5.230009   7.631139   8.923180   9.275087
    38  H    4.015744   2.635324   6.122545   7.187507   7.202476
    39  H    2.132296   1.087403   5.484915   6.152865   5.741187
    40  H    1.089406   2.121464   4.684505   4.794669   3.944490
    41  H    2.571551   3.952983   3.957740   3.381467   2.120272
    42  H    4.465531   5.734297   3.463175   2.163365   1.089081
    43  H    6.106988   7.165541   3.480719   2.170097   2.552381
    44  H    7.561070   8.332311   3.998387   3.406138   4.485571
    45  H    7.092364   7.556012   3.313274   3.594773   4.932034
    46  H    7.134741   7.512240   3.376484   3.739037   5.112876
                   26         27         28         29         30
    26  C    0.000000
    27  C    3.633552   0.000000
    28  C    4.823188   1.376260   0.000000
    29  C    5.098983   2.387927   1.394874   0.000000
    30  C    4.328173   2.816442   2.476553   1.445461   0.000000
    31  H    5.286807   4.439195   4.074638   2.906929   1.924989
    32  H    7.158312   5.015537   3.975285   2.688963   2.893748
    33  H    8.962299   7.247800   6.235768   4.895620   4.779283
    34  H   10.231553   9.289642   8.477839   7.098081   6.563487
    35  H   10.523700  10.399605   9.850312   8.504919   7.627561
    36  H    9.869292  10.696794  10.495811   9.283799   8.101800
    37  H    8.468631  10.085017  10.208831   9.193947   7.839565
    38  H    6.173826   8.504362   8.964970   8.230795   6.812248
    39  H    4.482236   7.542260   8.333041   7.940130   6.604547
    40  H    2.568489   6.122114   7.194449   7.188556   6.091078
    41  H    1.088466   4.462478   5.737662   6.130511   5.411946
    42  H    2.116513   2.551714   3.927668   4.755315   4.599024
    43  H    3.929227   1.089307   2.114281   3.363308   3.905520
    44  H    5.757800   2.142558   1.087259   2.160514   3.463745
    45  H    5.862513   3.116568   2.030436   1.126033   2.115382
    46  H    6.015962   3.263747   2.091832   1.119820   2.140989
                   31         32         33         34         35
    31  H    0.000000
    32  H    2.541895   0.000000
    33  H    4.017780   2.428618   0.000000
    34  H    5.614370   4.974384   2.774135   0.000000
    35  H    6.660715   6.832464   5.026379   2.490703   0.000000
    36  H    7.251819   8.255717   7.064907   5.040365   2.789413
    37  H    7.200789   8.817108   8.278070   6.883992   5.040650
    38  H    6.502932   8.594546   8.827895   8.264487   7.048335
    39  H    6.658163   8.954095   9.789896   9.835988   9.043106
    40  H    6.572823   8.802560  10.185780  10.852446  10.552548
    41  H    6.326462   8.232019  10.044681  11.265130  11.454873
    42  H    5.925670   7.228598   9.357358  11.079034  11.767433
    43  H    5.486464   5.982424   8.256118  10.355380  11.480381
    44  H    4.948326   4.380332   6.623557   9.022805  10.568033
    45  H    2.828563   2.098773   4.502636   6.947386   8.571918
    46  H    3.421684   2.412438   4.350079   6.599560   8.161685
                   36         37         38         39         40
    36  H    0.000000
    37  H    2.491060   0.000000
    38  H    5.007931   2.755210   0.000000
    39  H    7.300999   5.145350   2.392791   0.000000
    40  H    9.242461   7.332196   4.660577   2.413214   0.000000
    41  H   10.629317   9.048587   6.576235   4.587568   2.303407
    42  H   11.490357  10.333752   8.196384   6.589250   4.568551
    43  H   11.735387  11.034923   9.319385   8.155947   6.487771
    44  H   11.386783  11.211297  10.032834   9.401499   8.193988
    45  H    9.579597   9.663842   8.842215   8.638563   7.932644
    46  H    9.181232   9.333735   8.643772   8.583390   8.010779
                   41         42         43         44         45
    41  H    0.000000
    42  H    2.395493   0.000000
    43  H    4.548567   2.274539   0.000000
    44  H    6.604484   4.580426   2.431399   0.000000
    45  H    6.880426   5.469397   3.986704   2.454900   0.000000
    46  H    7.053625   5.684323   4.148808   2.471242   1.572375
                   46
    46  H    0.000000
 Stoichiometry    C30H16
 Framework group  C1[X(C30H16)]
 Deg. of freedom   132
 Full point group                 C1      NOp   1
 Largest Abelian subgroup         C1      NOp   1
 Largest concise Abelian subgroup C1      NOp   1
                         Standard orientation:                         
 ---------------------------------------------------------------------
 Center     Atomic      Atomic             Coordinates (Angstroms)
 Number     Number       Type             X           Y           Z
 ---------------------------------------------------------------------
      1          6           0       -0.700597   -0.882812    0.140070
      2          6           0       -0.558640    0.549881    0.050644
      3          6           0       -1.853609    1.045818   -0.076012
      4          6           0       -2.066396   -1.141564    0.030163
      5          6           0       -2.736145    0.022836   -0.107756
      6          6           0       -2.714276   -2.358493    0.112561
      7          6           0       -4.133611   -2.318113   -0.017675
      8          6           0       -4.822480   -1.080348   -0.179058
      9          6           0       -4.112820    0.150966   -0.207866
     10          6           0       -2.252357    2.361845   -0.130583
     11          6           0       -3.656201    2.583563   -0.258015
     12          6           0       -4.572593    1.492431   -0.301408
     13          6           0        0.191996   -1.898150    0.448945
     14          6           0       -0.446840   -3.206203    0.505115
     15          6           0       -1.846095   -3.434977    0.343998
     16          6           0        0.527364    1.400155    0.100771
     17          6           0        0.166755    2.800948    0.091151
     18          6           0       -1.181072    3.262726   -0.026001
     19          6           0        1.903326    0.940847    0.114951
     20          6           0        2.856475    2.005636    0.167337
     21          6           0        2.491727    3.355113    0.238253
     22          6           0        1.166831    3.750868    0.187824
     23          6           0        2.412755   -0.465299    0.006418
     24          6           0        3.832491   -0.602826   -0.161164
     25          6           0        4.695385    0.483422   -0.081322
     26          6           0        4.218945    1.762821    0.109429
     27          6           0        4.464780   -1.822563   -0.426563
     28          6           0        3.751644   -2.995450   -0.525892
     29          6           0        2.383077   -2.980085   -0.256708
     30          6           0        1.686240   -1.745993    0.027532
     31          1           0        0.480822   -1.696321    1.527560
     32          1           0        0.145579   -4.089685    0.739745
     33          1           0       -2.237136   -4.445048    0.432221
     34          1           0       -4.704381   -3.242429    0.029438
     35          1           0       -5.906889   -1.080051   -0.256394
     36          1           0       -5.637628    1.693281   -0.386608
     37          1           0       -4.037147    3.600676   -0.311228
     38          1           0       -1.393938    4.329741   -0.040869
     39          1           0        0.936425    4.813427    0.205919
     40          1           0        3.250678    4.134827    0.291594
     41          1           0        4.941029    2.575902    0.156874
     42          1           0        5.772528    0.354330   -0.177213
     43          1           0        5.541481   -1.871507   -0.584390
     44          1           0        4.257459   -3.928596   -0.761522
     45          1           0        2.205207   -3.723694    0.569947
     46          1           0        1.809569   -3.646849   -0.949898
 ---------------------------------------------------------------------
 Rotational constants (GHZ):           0.2776632           0.1561774           0.1009522
 Standard basis: 6-311+G(d,p) (5D, 7F)
 There are   786 symmetry adapted cartesian basis functions of A   symmetry.
 There are   756 symmetry adapted basis functions of A   symmetry.
   756 basis functions,  1208 primitive gaussians,   786 cartesian basis functions
    98 alpha electrons       98 beta electrons
       nuclear repulsion energy      2634.7090578257 Hartrees.
 NAtoms=   46 NActive=   46 NUniq=   46 SFac= 1.00D+00 NAtFMM=   60 NAOKFM=F Big=F
 Integral buffers will be    131072 words long.
 Raffenetti 2 integral format.
 Two-electron integral symmetry is turned on.
 One-electron integrals computed using PRISM.
 NBasis=   756 RedAO= T EigKep=  1.12D-06  NBF=   756
 NBsUse=   732 1.00D-06 EigRej=  9.32D-07 NBFU=   732
 ExpMin= 4.38D-02 ExpMax= 4.56D+03 ExpMxC= 6.82D+02 IAcc=2 IRadAn=         4 AccDes= 0.00D+00
 Harris functional with IExCor=  402 and IRadAn=       4 diagonalized for initial guess.
 HarFok:  IExCor=  402 AccDes= 0.00D+00 IRadAn=         4 IDoV= 1 UseB2=F ITyADJ=14
 ICtDFT=  3500011 ScaDFX=  1.000000  1.000000  1.000000  1.000000
 FoFCou: FMM=F IPFlag=           0 FMFlag=      100000 FMFlg1=           0
         NFxFlg=           0 DoJE=T BraDBF=F KetDBF=T FulRan=T
         wScrn=  0.000000 ICntrl=       500 IOpCl=  0 I1Cent=   200000004 NGrid=           0
         NMat0=    1 NMatS0=      1 NMatT0=    0 NMatD0=    1 NMtDS0=    0 NMtDT0=    0
 Petite list used in FoFCou.
 Requested convergence on RMS density matrix=1.00D-08 within 128 cycles.
 Requested convergence on MAX density matrix=1.00D-06.
 Requested convergence on             energy=1.00D-06.
 No special actions if energy rises.
 EnCoef did     1 forward-backward iterations
 Restarting incremental Fock formation.
 SCF Done:  E(RB3LYP) =  -1152.96208902     A.U. after   23 cycles
            NFock= 23  Conv=0.67D-08     -V/T= 2.0036

 **********************************************************************

            Population analysis using the SCF Density.

 **********************************************************************

 Orbital symmetries:
       Occupied  (A) (A) (A) (A) (A) (A) (A) (A) (A) (A) (A) (A)
                 (A) (A) (A) (A) (A) (A) (A) (A) (A) (A) (A) (A)
                 (A) (A) (A) (A) (A) (A) (A) (A) (A) (A) (A) (A)
                 (A) (A) (A) (A) (A) (A) (A) (A) (A) (A) (A) (A)
                 (A) (A) (A) (A) (A) (A) (A) (A) (A) (A) (A) (A)
                 (A) (A) (A) (A) (A) (A) (A) (A) (A) (A) (A) (A)
                 (A) (A) (A) (A) (A) (A) (A) (A) (A) (A) (A) (A)
                 (A) (A) (A) (A) (A) (A) (A) (A) (A) (A) (A) (A)
                 (A) (A)
       Virtual   (A) (A) (A) (A) (A) (A) (A) (A) (A) (A) (A) (A)
                 (A) (A) (A) (A) (A) (A) (A) (A) (A) (A) (A) (A)
                 (A) (A) (A) (A) (A) (A) (A) (A) (A) (A) (A) (A)
                 (A) (A) (A) (A) (A) (A) (A) (A) (A) (A) (A) (A)
                 (A) (A) (A) (A) (A) (A) (A) (A) (A) (A) (A) (A)
                 (A) (A) (A) (A) (A) (A) (A) (A) (A) (A) (A) (A)
                 (A) (A) (A) (A) (A) (A) (A) (A) (A) (A) (A) (A)
                 (A) (A) (A) (A) (A) (A) (A) (A) (A) (A) (A) (A)
                 (A) (A) (A) (A) (A) (A) (A) (A) (A) (A) (A) (A)
                 (A) (A) (A) (A) (A) (A) (A) (A) (A) (A) (A) (A)
                 (A) (A) (A) (A) (A) (A) (A) (A) (A) (A) (A) (A)
                 (A) (A) (A) (A) (A) (A) (A) (A) (A) (A) (A) (A)
                 (A) (A) (A) (A) (A) (A) (A) (A) (A) (A) (A) (A)
                 (A) (A) (A) (A) (A) (A) (A) (A) (A) (A) (A) (A)
                 (A) (A) (A) (A) (A) (A) (A) (A) (A) (A) (A) (A)
                 (A) (A) (A) (A) (A) (A) (A) (A) (A) (A) (A) (A)
                 (A) (A) (A) (A) (A) (A) (A) (A) (A) (A) (A) (A)
                 (A) (A) (A) (A) (A) (A) (A) (A) (A) (A) (A) (A)
                 (A) (A) (A) (A) (A) (A) (A) (A) (A) (A) (A) (A)
                 (A) (A) (A) (A) (A) (A) (A) (A) (A) (A) (A) (A)
                 (A) (A) (A) (A) (A) (A) (A) (A) (A) (A) (A) (A)
                 (A) (A) (A) (A) (A) (A) (A) (A) (A) (A) (A) (A)
                 (A) (A) (A) (A) (A) (A) (A) (A) (A) (A) (A) (A)
                 (A) (A) (A) (A) (A) (A) (A) (A) (A) (A) (A) (A)
                 (A) (A) (A) (A) (A) (A) (A) (A) (A) (A) (A) (A)
                 (A) (A) (A) (A) (A) (A) (A) (A) (A) (A) (A) (A)
                 (A) (A) (A) (A) (A) (A) (A) (A) (A) (A) (A) (A)
                 (A) (A) (A) (A) (A) (A) (A) (A) (A) (A) (A) (A)
                 (A) (A) (A) (A) (A) (A) (A) (A) (A) (A) (A) (A)
                 (A) (A) (A) (A) (A) (A) (A) (A) (A) (A) (A) (A)
                 (A) (A) (A) (A) (A) (A) (A) (A) (A) (A) (A) (A)
                 (A) (A) (A) (A) (A) (A) (A) (A) (A) (A) (A) (A)
                 (A) (A) (A) (A) (A) (A) (A) (A) (A) (A) (A) (A)
                 (A) (A) (A) (A) (A) (A) (A) (A) (A) (A) (A) (A)
                 (A) (A) (A) (A) (A) (A) (A) (A) (A) (A) (A) (A)
                 (A) (A) (A) (A) (A) (A) (A) (A) (A) (A) (A) (A)
                 (A) (A) (A) (A) (A) (A) (A) (A) (A) (A) (A) (A)
                 (A) (A) (A) (A) (A) (A) (A) (A) (A) (A) (A) (A)
                 (A) (A) (A) (A) (A) (A) (A) (A) (A) (A) (A) (A)
                 (A) (A) (A) (A) (A) (A) (A) (A) (A) (A) (A) (A)
                 (A) (A) (A) (A) (A) (A) (A) (A) (A) (A) (A) (A)
                 (A) (A) (A) (A) (A) (A) (A) (A) (A) (A) (A) (A)
                 (A) (A) (A) (A) (A) (A) (A) (A) (A) (A) (A) (A)
                 (A) (A) (A) (A) (A) (A) (A) (A) (A) (A) (A) (A)
                 (A) (A) (A) (A) (A) (A) (A) (A) (A) (A) (A) (A)
                 (A) (A) (A) (A) (A) (A) (A) (A) (A) (A) (A) (A)
                 (A) (A) (A) (A) (A) (A) (A) (A) (A) (A) (A) (A)
                 (A) (A) (A) (A) (A) (A) (A) (A) (A) (A) (A) (A)
                 (A) (A) (A) (A) (A) (A) (A) (A) (A) (A) (A) (A)
                 (A) (A) (A) (A) (A) (A) (A) (A) (A) (A) (A) (A)
                 (A) (A) (A) (A) (A) (A) (A) (A) (A) (A) (A) (A)
                 (A) (A) (A) (A) (A) (A) (A) (A) (A) (A) (A) (A)
                 (A) (A) (A) (A) (A) (A) (A) (A) (A) (A)
 The electronic state is 1-A.
 Alpha  occ. eigenvalues --  -10.23844 -10.22210 -10.20750 -10.20557 -10.20388
 Alpha  occ. eigenvalues --  -10.20280 -10.19914 -10.19619 -10.19154 -10.19087
 Alpha  occ. eigenvalues --  -10.18974 -10.18683 -10.18555 -10.18411 -10.18365
 Alpha  occ. eigenvalues --  -10.18363 -10.18327 -10.18119 -10.18117 -10.17935
 Alpha  occ. eigenvalues --  -10.17640 -10.17628 -10.17438 -10.17345 -10.16953
 Alpha  occ. eigenvalues --  -10.16742 -10.15697 -10.15068 -10.14214 -10.13500
 Alpha  occ. eigenvalues --   -0.92289  -0.90135  -0.88180  -0.85800  -0.85169
 Alpha  occ. eigenvalues --   -0.82716  -0.81165  -0.80409  -0.79024  -0.76959
 Alpha  occ. eigenvalues --   -0.75618  -0.75013  -0.72512  -0.71412  -0.70257
 Alpha  occ. eigenvalues --   -0.67022  -0.66347  -0.64631  -0.63239  -0.62205
 Alpha  occ. eigenvalues --   -0.60800  -0.59740  -0.58253  -0.56545  -0.55672
 Alpha  occ. eigenvalues --   -0.53469  -0.52197  -0.51275  -0.51089  -0.50394
 Alpha  occ. eigenvalues --   -0.49791  -0.47796  -0.47176  -0.46971  -0.45218
 Alpha  occ. eigenvalues --   -0.45129  -0.44670  -0.44362  -0.43983  -0.43194
 Alpha  occ. eigenvalues --   -0.42588  -0.41668  -0.41554  -0.41328  -0.40871
 Alpha  occ. eigenvalues --   -0.40245  -0.39643  -0.39071  -0.38887  -0.38658
 Alpha  occ. eigenvalues --   -0.37209  -0.36451  -0.35366  -0.34955  -0.34673
 Alpha  occ. eigenvalues --   -0.34198  -0.32886  -0.32626  -0.32083  -0.31518
 Alpha  occ. eigenvalues --   -0.30136  -0.28850  -0.25849  -0.25548  -0.23331
 Alpha  occ. eigenvalues --   -0.21924  -0.19676  -0.15091
 Alpha virt. eigenvalues --   -0.12433  -0.07211  -0.05224  -0.03852  -0.01481
 Alpha virt. eigenvalues --   -0.00947  -0.00202   0.00259   0.00908   0.01341
 Alpha virt. eigenvalues --    0.01620   0.01717   0.02104   0.02612   0.02854
 Alpha virt. eigenvalues --    0.03013   0.03393   0.04062   0.04437   0.04643
 Alpha virt. eigenvalues --    0.04840   0.05093   0.05382   0.05554   0.06421
 Alpha virt. eigenvalues --    0.06730   0.06905   0.07226   0.07692   0.08495
 Alpha virt. eigenvalues --    0.08642   0.08744   0.09057   0.09310   0.09753
 Alpha virt. eigenvalues --    0.10183   0.10338   0.10672   0.11179   0.11733
 Alpha virt. eigenvalues --    0.11916   0.12055   0.12443   0.12723   0.12845
 Alpha virt. eigenvalues --    0.13168   0.13910   0.14080   0.14294   0.14664
 Alpha virt. eigenvalues --    0.14927   0.15191   0.15587   0.15878   0.16107
 Alpha virt. eigenvalues --    0.16213   0.16619   0.16673   0.16785   0.17039
 Alpha virt. eigenvalues --    0.17278   0.17403   0.17563   0.18114   0.18211
 Alpha virt. eigenvalues --    0.18301   0.18380   0.18777   0.18895   0.19310
 Alpha virt. eigenvalues --    0.19355   0.19688   0.19938   0.20070   0.20161
 Alpha virt. eigenvalues --    0.20466   0.21001   0.21240   0.21349   0.21505
 Alpha virt. eigenvalues --    0.21911   0.22033   0.22206   0.22347   0.22452
 Alpha virt. eigenvalues --    0.22926   0.23099   0.23351   0.23697   0.23932
 Alpha virt. eigenvalues --    0.24296   0.24386   0.24768   0.24811   0.25105
 Alpha virt. eigenvalues --    0.25312   0.25457   0.25765   0.25827   0.26357
 Alpha virt. eigenvalues --    0.26417   0.26499   0.26728   0.27165   0.27554
 Alpha virt. eigenvalues --    0.28014   0.28135   0.28662   0.28772   0.29011
 Alpha virt. eigenvalues --    0.29340   0.29597   0.29711   0.30244   0.30471
 Alpha virt. eigenvalues --    0.30912   0.31093   0.31177   0.31451   0.31802
 Alpha virt. eigenvalues --    0.32155   0.32551   0.33036   0.33358   0.33641
 Alpha virt. eigenvalues --    0.33948   0.34519   0.35007   0.35099   0.35319
 Alpha virt. eigenvalues --    0.35879   0.36181   0.36855   0.37084   0.37310
 Alpha virt. eigenvalues --    0.37686   0.38252   0.39372   0.39679   0.40222
 Alpha virt. eigenvalues --    0.40246   0.41028   0.41306   0.41854   0.42785
 Alpha virt. eigenvalues --    0.43209   0.44002   0.44521   0.45396   0.45877
 Alpha virt. eigenvalues --    0.46203   0.46518   0.47154   0.47280   0.47769
 Alpha virt. eigenvalues --    0.48537   0.49277   0.49728   0.50158   0.50924
 Alpha virt. eigenvalues --    0.51546   0.52244   0.52898   0.53192   0.53964
 Alpha virt. eigenvalues --    0.54435   0.54878   0.55123   0.55569   0.55676
 Alpha virt. eigenvalues --    0.55809   0.56501   0.56704   0.57004   0.57314
 Alpha virt. eigenvalues --    0.57791   0.57931   0.58497   0.58801   0.59079
 Alpha virt. eigenvalues --    0.59484   0.59995   0.60336   0.60608   0.60978
 Alpha virt. eigenvalues --    0.61308   0.61477   0.61713   0.62434   0.62638
 Alpha virt. eigenvalues --    0.63172   0.63425   0.63874   0.64072   0.64507
 Alpha virt. eigenvalues --    0.65083   0.65433   0.65890   0.66255   0.66723
 Alpha virt. eigenvalues --    0.67116   0.67461   0.67785   0.68211   0.68978
 Alpha virt. eigenvalues --    0.69055   0.69412   0.69738   0.70174   0.70344
 Alpha virt. eigenvalues --    0.70381   0.71236   0.71677   0.71965   0.72194
 Alpha virt. eigenvalues --    0.72610   0.73082   0.73528   0.73976   0.74394
 Alpha virt. eigenvalues --    0.74720   0.75001   0.75293   0.75661   0.76230
 Alpha virt. eigenvalues --    0.76543   0.76998   0.77219   0.77692   0.78097
 Alpha virt. eigenvalues --    0.78585   0.79384   0.79675   0.80592   0.81532
 Alpha virt. eigenvalues --    0.82122   0.83107   0.83747   0.84209   0.85217
 Alpha virt. eigenvalues --    0.85811   0.87139   0.87887   0.88383   0.88521
 Alpha virt. eigenvalues --    0.89194   0.89866   0.90672   0.90754   0.91629
 Alpha virt. eigenvalues --    0.91669   0.91839   0.92561   0.93150   0.94109
 Alpha virt. eigenvalues --    0.94155   0.94279   0.94782   0.95659   0.95716
 Alpha virt. eigenvalues --    0.96381   0.96825   0.97121   0.97471   0.98136
 Alpha virt. eigenvalues --    0.98523   0.98903   0.99071   0.99563   0.99705
 Alpha virt. eigenvalues --    1.00234   1.00698   1.00763   1.01494   1.01683
 Alpha virt. eigenvalues --    1.02586   1.03707   1.03725   1.04512   1.04834
 Alpha virt. eigenvalues --    1.05537   1.05837   1.06688   1.07020   1.07425
 Alpha virt. eigenvalues --    1.08083   1.08495   1.09030   1.09487   1.10682
 Alpha virt. eigenvalues --    1.11434   1.13263   1.13876   1.14226   1.15004
 Alpha virt. eigenvalues --    1.15754   1.16062   1.16940   1.17439   1.18274
 Alpha virt. eigenvalues --    1.19066   1.20060   1.20280   1.21763   1.22393
 Alpha virt. eigenvalues --    1.23429   1.23992   1.25944   1.27403   1.29591
 Alpha virt. eigenvalues --    1.31560   1.32554   1.33178   1.34208   1.35486
 Alpha virt. eigenvalues --    1.37464   1.37977   1.38983   1.40300   1.42039
 Alpha virt. eigenvalues --    1.42425   1.43738   1.43876   1.44798   1.45152
 Alpha virt. eigenvalues --    1.46660   1.47354   1.47791   1.48602   1.48713
 Alpha virt. eigenvalues --    1.49319   1.49789   1.50235   1.50468   1.50627
 Alpha virt. eigenvalues --    1.51084   1.51783   1.52408   1.52552   1.52913
 Alpha virt. eigenvalues --    1.54281   1.55193   1.55924   1.56290   1.57804
 Alpha virt. eigenvalues --    1.58565   1.58721   1.59321   1.60077   1.60311
 Alpha virt. eigenvalues --    1.60698   1.61083   1.61718   1.62366   1.64953
 Alpha virt. eigenvalues --    1.65310   1.65688   1.66756   1.67544   1.68607
 Alpha virt. eigenvalues --    1.69292   1.70677   1.71121   1.71517   1.72586
 Alpha virt. eigenvalues --    1.72687   1.73374   1.74357   1.74562   1.75369
 Alpha virt. eigenvalues --    1.75895   1.76850   1.77509   1.78246   1.78753
 Alpha virt. eigenvalues --    1.79449   1.80744   1.81032   1.81681   1.82666
 Alpha virt. eigenvalues --    1.83206   1.83705   1.84174   1.85185   1.85355
 Alpha virt. eigenvalues --    1.85960   1.86505   1.86920   1.87671   1.88265
 Alpha virt. eigenvalues --    1.88915   1.89316   1.89936   1.90357   1.90495
 Alpha virt. eigenvalues --    1.91064   1.91732   1.91776   1.92455   1.92860
 Alpha virt. eigenvalues --    1.93440   1.94375   1.95080   1.95530   1.97378
 Alpha virt. eigenvalues --    1.97963   1.98599   1.99287   1.99994   2.01409
 Alpha virt. eigenvalues --    2.01577   2.02030   2.02369   2.03170   2.04526
 Alpha virt. eigenvalues --    2.04850   2.05823   2.06443   2.07635   2.08128
 Alpha virt. eigenvalues --    2.09308   2.09878   2.10562   2.11414   2.12099
 Alpha virt. eigenvalues --    2.13311   2.13502   2.14263   2.15102   2.16279
 Alpha virt. eigenvalues --    2.16946   2.17581   2.18483   2.18692   2.19772
 Alpha virt. eigenvalues --    2.20711   2.21343   2.22802   2.23208   2.24969
 Alpha virt. eigenvalues --    2.25615   2.26513   2.27259   2.28710   2.30649
 Alpha virt. eigenvalues --    2.31141   2.32070   2.33772   2.35039   2.35661
 Alpha virt. eigenvalues --    2.36526   2.37664   2.38424   2.39692   2.41900
 Alpha virt. eigenvalues --    2.43541   2.43984   2.45261   2.45592   2.47223
 Alpha virt. eigenvalues --    2.47477   2.48663   2.50027   2.51456   2.53490
 Alpha virt. eigenvalues --    2.54815   2.56423   2.57474   2.58690   2.59457
 Alpha virt. eigenvalues --    2.60661   2.61000   2.61912   2.62498   2.64050
 Alpha virt. eigenvalues --    2.65163   2.66024   2.66645   2.66700   2.67892
 Alpha virt. eigenvalues --    2.68804   2.69658   2.70215   2.70673   2.72069
 Alpha virt. eigenvalues --    2.72380   2.73793   2.74032   2.74300   2.74498
 Alpha virt. eigenvalues --    2.74570   2.75009   2.75788   2.76197   2.76729
 Alpha virt. eigenvalues --    2.77838   2.78251   2.78335   2.78619   2.79492
 Alpha virt. eigenvalues --    2.79574   2.80929   2.81214   2.82509   2.83203
 Alpha virt. eigenvalues --    2.84118   2.85071   2.85581   2.85898   2.86287
 Alpha virt. eigenvalues --    2.87475   2.87906   2.88399   2.89829   2.90353
 Alpha virt. eigenvalues --    2.90924   2.91588   2.92298   2.93920   2.95084
 Alpha virt. eigenvalues --    2.96206   2.99005   3.00397   3.01008   3.02261
 Alpha virt. eigenvalues --    3.03154   3.03961   3.04653   3.05489   3.07224
 Alpha virt. eigenvalues --    3.09311   3.10961   3.12292   3.14015   3.16763
 Alpha virt. eigenvalues --    3.18109   3.19066   3.20244   3.21620   3.23319
 Alpha virt. eigenvalues --    3.23862   3.24027   3.25801   3.28108   3.29677
 Alpha virt. eigenvalues --    3.32715   3.34219   3.35299   3.37579   3.39761
 Alpha virt. eigenvalues --    3.40253   3.41466   3.43348   3.44078   3.44377
 Alpha virt. eigenvalues --    3.45712   3.47238   3.48536   3.49119   3.49375
 Alpha virt. eigenvalues --    3.49982   3.51013   3.52085   3.54760   3.55940
 Alpha virt. eigenvalues --    3.56857   3.58049   3.61489   3.62574   3.63128
 Alpha virt. eigenvalues --    3.66443   3.67167   3.69175   3.72573   3.75006
 Alpha virt. eigenvalues --    3.79253   3.83273   3.88272   3.90142   3.94817
 Alpha virt. eigenvalues --    3.97491   4.05843   4.07158   4.08369   4.08951
 Alpha virt. eigenvalues --    4.10920   4.11634   4.13214   4.18609   4.23504
 Alpha virt. eigenvalues --    4.27007   4.32102   4.36751   4.48007   4.56433
 Alpha virt. eigenvalues --    4.73484   4.77627   4.79362   4.80011   4.81645
 Alpha virt. eigenvalues --    4.83847   4.87582   4.92246   4.96041  23.41257
 Alpha virt. eigenvalues --   23.59804  23.71591  23.81214  23.83584  23.86299
 Alpha virt. eigenvalues --   23.87307  23.88760  23.89434  23.93146  23.94398
 Alpha virt. eigenvalues --   23.96560  23.98848  24.00946  24.01148  24.03452
 Alpha virt. eigenvalues --   24.05044  24.05424  24.06343  24.08705  24.09817
 Alpha virt. eigenvalues --   24.10107  24.11918  24.16397  24.16826  24.17903
 Alpha virt. eigenvalues --   24.19315  24.20510  24.26437  24.37370
          Condensed to atoms (all electrons):
               1          2          3          4          5          6
     1  C   13.407936   0.058281   0.265191   0.792628  -0.447435  -1.177645
     2  C    0.058281   8.661871  -0.144215   1.161941  -0.289370  -0.280035
     3  C    0.265191  -0.144215   7.616541   0.019394  -0.026338   0.364675
     4  C    0.792628   1.161941   0.019394   8.236591  -0.636292  -0.887711
     5  C   -0.447435  -0.289370  -0.026338  -0.636292   7.334444   0.098406
     6  C   -1.177645  -0.280035   0.364675  -0.887711   0.098406  10.740765
     7  C   -2.132368  -0.321507  -1.204724  -0.833590   0.976091  -2.121776
     8  C   -0.806799  -0.017522  -0.756541   0.828709  -0.972417  -1.655881
     9  C    0.600890   0.456479  -0.272527   0.390423   0.128468   0.326444
    10  C   -0.710451   0.232607   0.174024   0.601565  -0.247618  -0.517157
    11  C   -0.157536  -1.478727   0.133209  -1.264225   1.052448   0.059825
    12  C   -0.094664  -0.453761   0.808413  -0.842179  -0.071514   0.388289
    13  C   -1.760087   0.335237  -0.735811  -0.251832   0.018211   0.474726
    14  C    0.234911  -0.303563   0.506143   0.981128  -0.506083  -1.449590
    15  C    1.558838  -0.285915  -0.047285  -0.964289  -0.476683  -0.156108
    16  C    0.639049   0.217088   0.666661   0.479361   0.029604  -0.216290
    17  C   -0.614549   0.107800   0.270065  -0.304182  -0.177664   0.035888
    18  C   -0.157632   0.182516   0.402584   0.020507  -0.252576   0.013285
    19  C   -0.021547  -0.013529  -0.032316  -0.212923  -0.180766   0.169480
    20  C   -1.243460   0.501476  -0.144862   0.085910   0.172411  -0.078391
    21  C    0.297615  -0.662478  -0.150905  -0.051156   0.058939   0.044014
    22  C    0.581406  -0.555103  -0.702188  -0.047880   0.248297   0.044593
    23  C   -0.443378   0.422732  -0.158368  -0.072430   0.096419   0.125141
    24  C   -1.377029  -0.325705   0.148635  -0.135792   0.004409   0.134394
    25  C   -0.118315   0.055798  -0.055207  -0.018787   0.000421   0.004735
    26  C   -0.022345   0.221939  -0.163354   0.042503   0.038091  -0.017089
    27  C    0.161373   0.144450   0.019801   0.078629   0.000996  -0.053453
    28  C   -0.040076  -0.126288  -0.022195  -0.004756  -0.028704  -0.087885
    29  C    0.703851  -0.571461  -0.180193   0.061309  -0.105149  -0.243865
    30  C   -2.753035  -0.772922  -0.789824  -1.416028   0.061666   1.771896
    31  H    0.233327   0.019918   0.010902   0.063851  -0.018097  -0.101540
    32  H    0.121562  -0.009966   0.002029  -0.009479   0.005274   0.009591
    33  H    0.000090  -0.000200   0.004058   0.042729  -0.011551  -0.059157
    34  H   -0.014116   0.001421  -0.000831   0.016571  -0.004539  -0.127173
    35  H   -0.001987   0.002306  -0.018005   0.000363   0.031047  -0.023547
    36  H    0.004089  -0.000957   0.011628  -0.015985   0.034533   0.013940
    37  H   -0.000416  -0.012631   0.030860  -0.001156   0.007096   0.002526
    38  H    0.000003   0.002358   0.029253   0.003842  -0.011739  -0.000420
    39  H    0.000602  -0.015001   0.003732  -0.000233   0.001185   0.000040
    40  H   -0.000110  -0.002310   0.001037   0.000057   0.000053  -0.000012
    41  H   -0.000206   0.001985  -0.000124  -0.000049   0.000015   0.000005
    42  H    0.000812  -0.000120   0.000033  -0.000008   0.000008   0.000011
    43  H   -0.002254  -0.000057   0.000044  -0.000145   0.000012   0.000076
    44  H    0.002120   0.000099  -0.000030   0.000070   0.000001  -0.000053
    45  H    0.061210   0.002022   0.001178   0.024319  -0.003052  -0.023274
    46  H   -0.049552  -0.018777  -0.000876  -0.039323   0.004042   0.030413
               7          8          9         10         11         12
     1  C   -2.132368  -0.806799   0.600890  -0.710451  -0.157536  -0.094664
     2  C   -0.321507  -0.017522   0.456479   0.232607  -1.478727  -0.453761
     3  C   -1.204724  -0.756541  -0.272527   0.174024   0.133209   0.808413
     4  C   -0.833590   0.828709   0.390423   0.601565  -1.264225  -0.842179
     5  C    0.976091  -0.972417   0.128468  -0.247618   1.052448  -0.071514
     6  C   -2.121776  -1.655881   0.326444  -0.517157   0.059825   0.388289
     7  C   12.244057   1.537543  -0.881062   0.363239  -0.088627  -0.700003
     8  C    1.537543   9.903701  -1.359350   0.337420  -0.657344  -1.171484
     9  C   -0.881062  -1.359350  10.001310   1.524605  -1.656139  -1.623674
    10  C    0.363239   0.337420   1.524605  10.231501  -2.226919  -1.763331
    11  C   -0.088627  -0.657344  -1.656139  -2.226919  11.670370   2.496294
    12  C   -0.700003  -1.171484  -1.623674  -1.763331   2.496294   9.077693
    13  C    1.688545   0.864252  -0.305315   0.266994  -0.534480  -0.542702
    14  C   -1.250982  -0.784011   0.424733  -0.006464   0.130414   0.009973
    15  C   -1.031347   0.470289  -0.512939  -0.199382  -0.151101   0.136033
    16  C   -0.337829  -0.100031  -0.495715  -1.370442  -0.678532   0.180143
    17  C   -0.094453   0.007694  -0.098249  -0.257783   0.173046   0.065050
    18  C   -0.058467  -0.007621  -0.398789   0.606791  -0.863077   0.158841
    19  C    0.028102  -0.021325   0.043775  -0.684874  -0.116133  -0.023624
    20  C   -0.019224  -0.005014  -0.038165   0.472863   0.201980   0.029926
    21  C   -0.001120   0.004310  -0.019117   0.021277  -0.048034  -0.021421
    22  C   -0.044871   0.022265  -0.179635  -0.655170   0.097727  -0.039249
    23  C    0.056776  -0.006202   0.005098  -0.104677  -0.034427   0.004719
    24  C    0.026606  -0.003243   0.025778   0.195548   0.037858  -0.005449
    25  C   -0.000759   0.001231  -0.000863  -0.026578  -0.001621  -0.001432
    26  C   -0.006158   0.002802  -0.007552   0.021685   0.005922   0.000231
    27  C   -0.001665  -0.002255   0.000111   0.022115   0.002812   0.001250
    28  C   -0.016368  -0.000121  -0.000765  -0.009231   0.000242   0.001189
    29  C   -0.155312   0.021965  -0.029538  -0.116209  -0.000751   0.006247
    30  C    0.588689   0.237288  -0.076671  -0.250235  -0.092844  -0.115574
    31  H   -0.038684  -0.005606  -0.000634  -0.006006   0.001645  -0.000045
[...]
 72,-0.00005176,-0.00000941,-0.00005520,-0.00004526,-0.00000370,0.00000
 405,0.00000749,0.00000262,-0.00000335,-0.00000014,0.00000052,0.0000001
 9,0.00000047,0.00000177,0.00000023,0.00000186,0.00000279,0.00000012,0.
 00000147,-0.00000068,0.00000230,0.00000090,-0.00000181,0.00001652,-0.0
 0000583,-0.00000209,-0.00000147,0.00000221,-0.00002538,0.00000622,0.00
 000259,-0.00002404,0.00000392,-0.00000092,-0.00031997,-0.00086696,0.00
 007950,0.05560401,0.00001925,-0.00006526,0.00004099,-0.00006438,0.0000
 5069,-0.00001126,-0.00000550,-0.00003319,0.00001475,0.00002478,0.00005
 306,-0.00006126,0.00001299,-0.00001537,-0.00000840,-0.00001871,0.00000
 394,-0.00000013,0.00000071,0.00000835,-0.00000186,0.00000219,-0.000007
 13,0.00000023,0.00000456,-0.00002430,0.00001582,-0.00000447,-0.0000102
 9,0.00000457,0.00000394,0.00002462,-0.00000455,-0.00002522,-0.00000135
 ,0.00000145,-0.00004922,0.00003741,0.00000055,0.00007941,-0.00005182,0
 .00000706,-0.00001725,-0.00001054,-0.00002305,0.00025102,-0.00001085,-
 0.00007760,-0.00005736,-0.00007405,0.00002433,0.00003115,0.00000851,-0
 .00000098,-0.00042435,-0.00059071,-0.00005507,-0.00009232,0.00028729,0
 .00001394,0.00003535,-0.00001590,0.00004957,0.00003620,0.00004251,-0.0
 0001285,0.00214888,0.00070698,-0.00005154,-0.00110706,-0.01060847,0.00
 162461,-0.00161694,0.00059621,-0.00002317,0.00047003,0.00005269,-0.000
 22680,0.02604598,-0.32400911,0.03282020,0.00353329,-0.01404576,0.00152
 974,-0.00192013,0.00155373,0.00178716,0.00013508,0.00073580,0.00008448
 ,0.00000644,-0.00004722,-0.00002558,-0.00003063,-0.00000443,-0.0000124
 7,-0.00001075,-0.00000636,0.00000541,-0.00000780,-0.00000422,-0.000000
 33,-0.00000184,-0.00000736,0.00000154,-0.00000126,-0.00000792,0.000000
 50,0.00000589,-0.00000583,0.00000073,0.00000751,-0.00001133,0.00000233
 ,0.00000811,-0.00000482,-0.00001036,0.00002421,-0.00000025,-0.00000182
 ,0.00005276,-0.00001455,0.00000810,0.00072905,0.00056455,0.00007923,-0
 .02761181,0.34502253,-0.00018632,0.00010070,0.00004364,0.00006445,-0.0
 0002219,0.00006347,-0.00001768,0.00004678,-0.00001239,-0.00003298,-0.0
 0006187,-0.00000188,-0.00001356,-0.00000442,0.00000454,0.00001604,-0.0
 0001343,0.00000609,-0.00001207,-0.00001560,-0.00000363,-0.00001104,0.0
 0001076,-0.00000468,0.00000625,0.00001572,-0.00000099,0.00000504,-0.00
 000531,-0.00000656,-0.00000979,0.00000792,-0.00000337,0.00000285,-0.00
 001336,0.00000055,-0.00001936,-0.00005662,-0.00012423,0.00006756,0.000
 05656,0.00001207,-0.00002313,-0.00004612,0.00006040,0.00003352,0.00005
 212,-0.00018292,0.00001237,-0.00003835,-0.00003775,-0.00000538,0.00000
 331,0.00000678,0.00034979,-0.00051800,0.00003032,-0.00020082,-0.000008
 28,0.00014146,0.00006575,-0.00006874,0.00001357,-0.00000771,0.00004865
 ,-0.00001400,0.00145501,-0.00020182,0.00165602,0.00207459,-0.00899547,
 0.00222433,-0.00082792,-0.00037440,-0.00067385,0.00005586,-0.00007598,
 -0.00019242,0.00200484,0.03170666,-0.04120641,-0.00054699,0.01469058,0
 .00227547,0.00671377,0.00162914,0.00853240,0.00032240,0.00054329,-0.00
 030968,-0.00000401,-0.00001731,-0.00000740,-0.00001659,-0.00000160,0.0
 0000209,-0.00000098,0.00000041,0.00000097,0.00000095,0.00000018,0.0000
 0280,-0.00000096,0.00000317,-0.00000040,-0.00000092,0.00000293,0.00000
 091,-0.00000162,0.00000106,0.00000123,-0.00000044,-0.00000003,0.000010
 93,-0.00000049,0.00000033,-0.00000009,0.00000461,-0.00000373,0.0000038
 4,-0.00000168,0.00000344,0.00000602,0.00003526,0.00016376,0.00023644,-
 0.00801532,-0.03700458,0.03338624,-0.00009537,-0.00024620,-0.00016882,
 0.00005146,0.00002788,0.00004071,0.00004436,0.00007387,-0.00000833,-0.
 00002741,-0.00006964,0.00003871,-0.00008773,-0.00004480,0.00003890,0.0
 0003403,0.00004674,-0.00000795,0.00002403,-0.00005219,0.00001145,-0.00
 006383,0.00001087,-0.00001007,0.00004500,0.00007306,-0.00002638,-0.000
 04435,-0.00002630,-0.00001597,0.00001240,-0.00002453,0.00000261,0.0000
 1855,0.00000621,-0.00000308,0.00025433,-0.00008323,-0.00002945,-0.0000
 1829,0.00001325,0.00004206,0.00001934,-0.00001096,0.00000638,0.0000269
 3,-0.00003695,-0.00001692,-0.00008930,0.00002661,0.00000833,0.00001744
 ,0.00004600,-0.00000733,-0.00010140,0.00009609,-0.00032577,-0.00001935
 ,-0.00001913,0.00010196,0.00010547,-0.00002374,0.00003314,0.00000112,0
 .00004141,-0.00000434,0.00025914,0.00004152,-0.00040685,0.00087142,-0.
 00299885,0.00493371,-0.00052648,0.00067882,0.00029385,-0.00019374,-0.0
 0025021,-0.00039110,-0.01661423,0.01280074,0.00785953,-0.24729255,0.10
 578502,0.07831519,0.00143923,-0.00262274,0.00103190,0.00047848,-0.0002
 3742,-0.00005161,-0.00001135,0.00000110,-0.00000616,0.00001884,0.00001
 848,0.00000867,0.00001064,0.00000330,-0.00000379,0.00000718,0.00000266
 ,0.00000353,0.00000126,0.00000804,0.00000135,0.00000243,0.00000744,0.,
 -0.00000548,0.00000589,-0.00000095,-0.00000382,0.00000422,0.00000919,-
 0.00000349,0.00000987,-0.00000318,-0.00001027,-0.00000851,-0.00000217,
 -0.00009211,0.00003856,-0.00000400,0.00002498,-0.00005766,0.00011968,-
 0.00029723,-0.00069839,-0.00288555,0.26086755,0.00133017,-0.00063498,-
 0.00076680,-0.00063900,-0.00008081,-0.00033672,0.00005423,-0.00014215,
 0.00012471,0.00026210,0.00046038,-0.00016605,0.00010580,-0.00005484,-0
 .00000992,-0.00009646,-0.00008992,0.00005327,0.00000486,0.00006198,-0.
 00001914,0.00002162,-0.00007418,0.00001744,-0.00002313,-0.00002290,-0.
 00000102,0.00000096,0.00000059,0.00003549,0.00003216,0.00000519,-0.000
 00465,-0.00002637,0.00001848,0.00000206,-0.00001238,0.00017332,0.00011
 962,0.00015167,0.00007974,0.00000681,-0.00004072,-0.00003079,0.0000250
 2,0.00009258,-0.00001951,-0.00001152,-0.00007901,0.00002619,0.00002347
 ,0.00007271,-0.00004355,0.00000439,0.00001327,0.00008235,-0.00019612,0
 .00002523,0.00001027,0.00005810,0.00007367,0.00007087,-0.00000172,-0.0
 0008854,-0.00000228,0.00000775,-0.00059647,-0.00019556,0.00000920,-0.0
 0145191,-0.00124546,0.00264677,-0.00051731,0.00057048,0.00005415,-0.00
 011544,-0.00011262,-0.00012338,-0.01655490,0.01037830,0.00686099,0.109
 69458,-0.11108813,-0.03555875,0.02248555,-0.00962708,-0.01022102,-0.00
 074277,-0.00452287,0.00295887,-0.00000941,-0.00011028,-0.00008405,-0.0
 0006493,-0.00002266,-0.00009171,-0.00002679,-0.00003017,-0.00001955,-0
 .00001318,-0.00001695,-0.00000683,-0.00000093,-0.00000692,0.00000451,0
 .00000292,-0.00001009,0.00000002,0.00000514,-0.00000799,-0.00000078,0.
 00000625,-0.00000178,-0.00000411,0.00001131,0.00000551,-0.00000137,0.0
 0000050,0.00000220,-0.00000060,-0.00007227,0.00002539,0.00001777,0.000
 02502,-0.00002304,0.00003211,-0.00027024,0.00090173,-0.00119710,-0.113
 09167,0.11475285,-0.00021228,0.00020926,0.00028725,0.00017370,-0.00005
 519,0.00003615,0.00008889,0.00017947,-0.00007260,-0.00007294,-0.000143
 27,-0.00002750,-0.00017167,-0.00011309,0.00006677,0.00004900,0.0001371
 6,-0.00001798,0.00003241,-0.00013050,0.00002299,-0.00014091,0.00004071
 ,-0.00002416,0.00010404,0.00012108,-0.00002697,-0.00005063,-0.00006874
 ,-0.00001270,0.00000434,0.00000012,-0.00000225,0.00001500,-0.00001996,
 0.00000127,0.00032579,-0.00005138,-0.00014667,0.00009450,0.00006265,0.
 00008388,-0.00000837,-0.00008836,0.00002829,0.00010054,-0.00000910,0.0
 0000249,-0.00015172,-0.00000694,0.00001995,0.00001485,0.00008502,-0.00
 001064,-0.00025753,-0.00003605,-0.00068198,-0.00013823,0.00006864,0.00
 017166,0.00010880,-0.00009049,0.00007372,0.00006488,0.00005091,-0.0000
 1518,-0.00027215,0.00086504,-0.00062471,0.00470517,0.00395964,0.008384
 73,0.00070973,-0.00115919,-0.00008976,0.00028119,0.00034409,-0.0006863
 2,0.01174806,-0.00739034,0.00242478,0.07789833,-0.03199852,-0.06543941
 ,-0.00434670,0.00072720,0.00557478,-0.00037973,0.00042159,0.00078098,-
 0.00001993,-0.00001210,-0.00003541,-0.00002534,-0.00002525,-0.00006358
 ,-0.00000184,-0.00000766,-0.00000051,0.00000181,-0.00000277,0.00000667
 ,-0.00000163,0.00000532,0.00000252,0.00000090,0.00000431,0.00000111,-0
 .00000273,0.00000060,-0.00000147,0.00000290,-0.00000305,0.00001687,0.0
 0000365,0.00000097,-0.00000488,-0.00000826,-0.00000410,-0.00000437,0.0
 0010467,-0.00005848,-0.00001717,0.00002783,0.00001378,0.00016133,-0.00
 280947,-0.00085044,-0.00571461,-0.08821445,0.03566457,0.05603926,-0.00
 034874,-0.00036660,-0.00038104,0.00005490,0.00015907,-0.00008442,0.000
 03145,-0.00000296,0.00003307,-0.00006713,0.00022986,0.00018035,-0.0001
 6201,0.00010078,0.00001715,0.00003998,0.00039542,-0.00015240,0.0000653
 3,-0.00003029,0.00001988,-0.00006444,-0.00001269,-0.00001008,0.0000344
 4,-0.00001434,-0.00002348,-0.00008681,-0.00002485,0.00000304,0.0000538
 1,0.00001544,-0.00001043,-0.00006373,0.00004735,-0.00000875,-0.0001818
 4,-0.00170067,-0.00139150,0.00083030,-0.00023432,-0.00087317,0.0001434
 5,-0.00055051,-0.00038492,0.00005910,0.00001901,-0.00007393,0.00007016
 ,-0.00002940,0.00003135,0.00005198,0.00010272,-0.00002005,-0.00031764,
 -0.00111188,0.00020496,-0.00012426,0.00020578,-0.00011824,-0.00001672,
 -0.00009613,0.00002992,0.00000821,-0.00000084,0.00000705,-0.00135378,0
 .00276822,0.00204944,0.00000475,0.00063445,0.00005008,-0.00009605,-0.0
 0006511,-0.00002394,-0.00001391,-0.00009937,0.00001592,0.00046587,0.00
 135784,-0.00109648,0.00651730,0.00248362,0.00107068,-0.25715781,-0.103
 26769,-0.00779553,-0.01818236,-0.00730718,0.00126035,0.00002081,0.0000
 2498,0.00007730,0.00000566,0.00004487,-0.00000050,-0.00002044,-0.00007
 665,-0.00013783,0.00000106,-0.00000578,-0.00000190,0.00000438,-0.00000
 085,0.00000457,0.00000372,-0.00000064,0.00000224,0.00000136,0.00000463
 ,-0.00000438,0.00000023,0.00000862,0.00000022,-0.00000447,0.00000685,-
 0.00000648,-0.00003514,0.00001483,-0.00000452,0.00000073,-0.00001046,0
 .00000831,-0.00003484,-0.00004081,-0.00000630,-0.00004175,0.00011342,-
 0.00041584,0.00087650,-0.00044203,0.00028796,0.28008212,0.00020866,0.0
 0056874,0.00032051,-0.00001867,-0.00005097,0.00011578,-0.00006003,0.00
 000993,-0.00005173,-0.00006449,0.00001304,0.00005270,0.00012971,-0.000
 04450,0.00003497,0.00000468,-0.00040300,-0.00014590,-0.00006244,-0.000
 02164,-0.00000403,-0.00000788,0.00001771,-0.00000404,0.00000114,0.0000
 1898,0.00000135,0.00005526,-0.00001894,0.00001195,-0.00001802,0.000041
 26,-0.00000500,0.00000439,-0.00003732,0.00000645,-0.00063816,0.0002905
 8,-0.00034672,0.00072054,-0.00023313,-0.00087645,-0.00038253,-0.000645
 42,-0.00025396,-0.00007310,0.00010629,-0.00000823,-0.00000488,-0.00000
 308,-0.00001294,-0.00001862,-0.00004538,0.00000740,0.00048644,0.000478
 65,-0.00007682,0.00001360,-0.00013813,0.00015015,0.00002857,0.00007741
 ,-0.00000993,-0.00005979,-0.00002531,0.00000129,0.00072371,-0.00145954
 ,-0.00218962,0.00012674,0.00013319,-0.00088694,0.00001605,0.00005311,0
 .00008098,0.00003475,0.00016218,-0.00003414,0.00290752,-0.00504544,-0.
 00035805,-0.03075705,-0.01642234,-0.00054617,-0.10325438,-0.09723655,-
 0.00620277,0.01348317,0.00617254,0.00122845,-0.00011176,0.00009274,0.0
 0002297,0.00002850,0.00003876,0.00021852,0.00000109,0.00001361,-0.0000
 1306,0.00000934,0.00000419,0.00000055,-0.00000322,0.00001122,-0.000006
 09,-0.00000418,0.00000761,-0.00000135,-0.00000448,-0.00000119,0.000000
 58,-0.00000324,-0.00000299,0.00000235,0.00000008,-0.00000088,0.0000000
 7,0.00001592,-0.00000844,0.00000948,-0.00001953,0.00000471,-0.00001777
 ,0.00005631,0.00003894,0.00002331,-0.00037615,-0.00046157,0.00185008,0
 .00052948,0.00136356,0.00021493,0.11173703,0.11023362,0.00012218,0.000
 30307,0.00050773,-0.00010979,-0.00014210,0.00003948,-0.00006377,0.0000
 6931,-0.00002352,-0.00016072,0.00004491,-0.00033062,0.00003849,0.00004
 281,0.00004207,-0.00006256,-0.00013392,0.00016258,-0.00013618,-0.00000
 418,-0.00010751,-0.00007169,-0.00000575,-0.00001655,-0.00000378,0.0000
 1025,-0.00000177,0.00004691,-0.00005531,0.00002448,-0.00000916,0.00014
 060,-0.00001778,-0.00008245,-0.00006575,0.00001647,0.00062712,0.000800
 39,0.00057600,0.00025066,0.00033123,-0.00091473,-0.00031936,-0.0013249
 7,0.00003376,-0.00006722,0.00019181,-0.00003649,-0.00000619,-0.0000478
 1,-0.00003181,0.00002109,-0.00002022,0.00000401,0.00084778,0.00098656,
 0.00015778,0.00016654,-0.00028020,0.00017692,0.00005744,0.00008187,-0.
 00004951,0.00001075,-0.00000038,-0.00000095,0.00181469,-0.00320313,-0.
 00269049,0.00024040,-0.00020835,0.00003849,-0.00007964,0.00000133,0.00
 004035,0.00009473,0.00004692,-0.00003611,-0.00077426,0.00041101,0.0006
 6014,0.00549157,0.00451686,-0.00149579,-0.01137179,-0.00798211,-0.0452
 9811,0.02141373,0.01100501,-0.00167670,-0.00016150,0.00010556,0.000083
 67,-0.00008744,-0.00006956,-0.00009321,-0.00001344,-0.00001357,-0.0000
 1732,0.00000553,-0.00000790,0.00002564,-0.00000773,0.00002177,0.000000
 90,-0.00000792,0.00001025,-0.00000226,-0.00000300,-0.00000640,-0.00000
 020,-0.00000167,-0.00000680,0.00000100,0.00000292,-0.00000540,0.000008
 18,0.00004092,-0.00001990,-0.00000285,0.00000095,0.00000947,-0.0000043
 9,0.00001517,0.00002854,-0.00000111,0.00018614,0.00025466,-0.00021896,
 -0.00024354,-0.00052099,0.00044128,0.00930791,0.00803245,0.05166760,0.
 00105764,-0.00120746,-0.00161468,-0.00002807,-0.00026429,-0.00010355,-
 0.00000783,-0.00003393,-0.00003644,-0.00001615,0.00036917,0.00001234,0
 .00020552,0.00004619,0.00002860,-0.00001507,-0.00008769,0.00002149,-0.
 00004660,0.00002430,-0.00002870,0.00002961,-0.00000737,0.00001929,-0.0
 0003839,0.00002330,0.00000899,0.00002682,0.00005045,0.00004912,-0.0000
 5168,0.00003485,0.00000158,0.00004094,-0.00006992,-0.00000133,-0.00197
 557,-0.00000890,0.00303572,-0.00031041,-0.00050753,-0.00028803,0.00032
 164,0.00030387,-0.00021590,0.00000116,0.00002305,0.00008889,-0.0000030
 0,0.00001835,-0.00003438,-0.00003195,-0.00005207,0.00000770,-0.0002008
 3,0.00024755,0.00031770,0.00006603,0.00011482,0.00003198,-0.00008127,-
 0.00007654,-0.00007364,0.00010024,0.00001075,-0.00000980,0.00104494,0.
 00026745,-0.00092815,0.00047679,-0.00042409,-0.00083267,-0.00029958,-0
 .00023154,0.00002646,0.00015417,-0.00013526,0.00003759,-0.00071423,-0.
 00053032,0.00059618,-0.00001346,0.00076794,-0.00074754,-0.07934151,0.0
 1402106,-0.08288929,0.00736051,-0.00137300,0.02028892,0.00026263,0.000
 80313,0.00066117,0.00002661,0.00003036,0.00012451,-0.00000676,0.000020
 00,0.00000190,-0.00000705,-0.00000013,-0.00000013,-0.00000153,-0.00000
 479,-0.00000688,-0.00000694,0.00000078,-0.00000093,-0.00000045,-0.0000
 1023,-0.00000370,0.00000199,-0.00000526,-0.00000469,0.00000049,-0.0000
 0926,0.00001166,0.00001575,0.00000101,0.00000461,0.00001679,-0.0000008
 0,-0.00000931,-0.00000562,0.00001505,-0.00000024,-0.00004050,-0.000016
 80,-0.00003178,0.00008568,0.00050356,0.00033757,-0.01105373,0.00461992
 ,-0.02695880,0.08300227,-0.00083868,0.00109424,0.00067742,0.00002293,0
 .00017967,0.00008146,0.00005836,-0.00002507,0.00005451,0.00002685,0.00
 002562,0.00021300,0.00000256,-0.00013933,0.00003289,-0.00018521,0.0001
 8768,-0.00020381,0.00006039,-0.00009043,0.00005993,-0.00008586,0.00001
 877,-0.00001177,0.00010431,0.00004196,-0.00003249,-0.00007485,-0.00006
 759,-0.00001791,0.00005073,-0.00001627,-0.00000089,-0.00000833,0.00002
 247,-0.00000550,0.00130183,-0.00021605,-0.00369771,0.00108767,0.000252
 43,-0.00010479,-0.00010398,0.00006224,0.00017480,-0.00001355,-0.000037
 98,-0.00002014,-0.00011369,-0.00006620,0.00001229,0.00005219,0.0000778
 9,-0.00001662,-0.00022322,0.00006582,-0.00019988,-0.00007147,0.0002585
 6,0.00006411,0.00014681,-0.00001469,-0.00000477,-0.00005478,0.00008694
 ,0.00000442,-0.00075476,-0.00031434,0.00022845,0.00131531,0.00046470,0
 .00098059,-0.00057091,0.00003914,0.00001577,0.00028295,-0.00009892,-0.
 00003580,0.00174110,-0.00219424,-0.00038999,0.00951146,-0.00989728,0.0
 3110421,0.01603021,-0.04924112,0.03938798,-0.00533079,0.00085359,-0.01
 282841,-0.00010552,-0.00082055,-0.00058926,-0.00000588,-0.00001606,-0.
 00001928,0.00000786,-0.00004244,0.00000218,0.00000561,0.00000408,-0.00
 000615,0.00000322,-0.00000247,0.00000040,0.00000349,-0.00000018,-0.000
 00290,-0.00000152,0.00000350,-0.00000216,0.00000104,0.00000289,0.00000
 992,0.00000335,0.00000903,-0.00000576,-0.00001249,-0.00000500,0.000000
 98,-0.00002564,-0.00000757,0.00001280,0.00005967,0.00003663,-0.0000245
 9,-0.00126230,-0.00050065,-0.00219323,0.00020600,-0.00077183,-0.000852
 09,-0.00498274,0.00235318,-0.01332191,-0.01725975,0.05844525,-0.000442
 58,-0.00002702,0.00169338,-0.00019059,0.00002204,0.00004235,0.00001429
 ,-0.00012611,0.00001711,0.00029277,-0.00034495,-0.00008059,-0.00002903
 ,-0.00012313,-0.00006047,-0.00016281,0.00003155,-0.00012410,0.00005398
 ,0.00004144,0.00004165,0.00004597,-0.00002971,0.00001475,0.00003682,-0
 .00012733,0.00005594,-0.00003264,-0.00008060,-0.00000293,0.00006692,-0
 .00000196,-0.00000686,-0.00006604,0.00004344,0.00000890,0.00278162,0.0
 0078642,-0.00204850,0.00105769,0.00045782,0.00028435,-0.00033938,0.000
 11200,0.00019470,0.00005060,-0.00002129,-0.00005737,-0.00005543,-0.000
 06347,0.00004145,0.00004114,0.00007104,0.00000113,-0.00025496,0.000016
 83,-0.00013756,0.00019191,0.00050239,-0.00001644,0.00009907,-0.0000422
 4,0.00004946,0.00001198,0.00007762,-0.00001504,-0.00025317,-0.00017507
 ,0.00001797,0.00190878,-0.00019862,-0.00043122,-0.00098531,-0.00017794
 ,0.00017620,0.00051584,-0.00052072,-0.00010043,-0.00278023,-0.00004779
 ,0.00209301,-0.00069141,0.00805508,-0.00336967,-0.08123069,0.03165833,
 -0.24657492,-0.00710029,-0.00040983,-0.02252643,-0.00003164,-0.0010885
 5,-0.00054339,-0.00003809,-0.00002530,-0.00009050,-0.00001036,-0.00005
 891,0.00000551,-0.00000285,-0.00000297,-0.00002172,0.00000391,-0.00001
 335,-0.00000371,0.00000600,-0.00001227,-0.00000726,0.00000508,-0.00000
 113,-0.00000248,0.00000497,-0.00000072,-0.00000234,0.00000505,0.000001
 28,-0.00001472,-0.00000018,0.00000080,-0.00000790,0.00000670,-0.000009
 03,-0.00000067,-0.00000276,0.00000879,0.00000637,0.00009149,0.00009217
 ,-0.00000635,-0.00006308,0.00061678,-0.00090790,-0.00163563,-0.0003355
 6,-0.00163980,0.08910660,-0.03853026,0.27405705\\0.00001410,-0.0000975
 9,0.00003770,0.00002256,-0.00001179,0.00001176,-0.00002552,0.00002419,
 0.00001698,0.00000632,0.00000765,-0.00002924,-0.00000978,-0.00000734,0
 .00001954,-0.00003643,-0.00000014,-0.00001322,0.00002302,-0.00000288,-
 0.00000010,-0.00001224,0.00000331,-0.00000207,0.00001498,-0.00001498,-
 0.00000035,0.00003551,-0.00001171,-0.00000842,0.00000285,0.00000542,0.
 00000258,-0.00000480,0.00000588,-0.00000307,-0.00000174,0.00008975,0.0
 0000795,-0.00001138,-0.00000503,-0.00000711,0.00000233,-0.00001082,0.0
 0001815,0.00000292,0.00000846,-0.00000369,-0.00000401,0.00002147,-0.00
 000891,-0.00001065,-0.00000282,0.00001620,-0.00002363,-0.00001214,0.00
 000690,-0.00001299,-0.00003971,0.00000470,0.00001201,0.00002143,0.0000
 0335,0.00000952,-0.00001245,0.00000728,0.00007446,0.00009754,-0.000013
 92,-0.00003153,-0.00005058,0.00000260,0.00003360,0.00001805,-0.0000039
 4,-0.00000494,0.00003070,0.00000478,-0.00000422,0.00001908,-0.00000326
 ,-0.00000322,-0.00001178,0.00000036,0.00002393,0.00004496,0.00003887,-
 0.00005119,-0.00006459,-0.00005677,-0.00000514,-0.00001116,-0.00001541
 ,0.00000139,-0.00000129,-0.00000579,0.00000042,0.00000495,-0.00001037,
 -0.00000336,-0.00000038,-0.00000188,0.00000051,-0.00000146,0.00000143,
 0.00000334,-0.00000141,0.00000097,0.00000009,-0.00000235,0.00000244,0.
 00000417,0.00000083,0.00000325,-0.00000129,0.00000062,0.00000017,-0.00
 000515,0.00000403,0.00000030,0.00000155,-0.00000285,0.00000198,-0.0000
 0557,-0.00000072,0.00000261,-0.00000224,-0.00000403,-0.00000687,-0.000
 00736,-0.00000702,-0.00000562,-0.00000783,-0.00000647,-0.00000452,-0.0
 0000337,-0.00001277,-0.00000831\\\@


 I think that all right-thinking people in this
 country are sick and tired of being told that
 ordinary, decent people are fed up in this country
 with being sick and tired.  I'm certainly not!
 But I'm sick and tired of being told that I am!
                               -- Monty Python
 Job cpu time:       1 days  1 hours  4 minutes  5.3 seconds.
 Elapsed time:       0 days  1 hours 15 minutes 25.3 seconds.
 File lengths (MBytes):  RWF=   2287 Int=      0 D2E=      0 Chk=     57 Scr=      1
 Normal termination of Gaussian 16 at Mon Jun 24 10:56:05 2019.
