 Entering Gaussian System, Link 0=/share/apps/gaussian16/g16/g16
 Initial command:
 /share/apps/gaussian16/g16/l1.exe "/home/amen01//scratch/625/Gau-47613.inp" -scrdir="/home/amen01//scratch/625/"
 Entering Link 1 = /share/apps/gaussian16/g16/l1.exe PID=     47614.
  
 Copyright (c) 1988-2017, Gaussian, Inc.  All Rights Reserved.
  
 This is part of the Gaussian(R) 16 program.  It is based on
 the Gaussian(R) 09 system (copyright 2009, Gaussian, Inc.),
 the Gaussian(R) 03 system (copyright 2003, Gaussian, Inc.),
 the Gaussian(R) 98 system (copyright 1998, Gaussian, Inc.),
 the Gaussian(R) 94 system (copyright 1995, Gaussian, Inc.),
 the Gaussian 92(TM) system (copyright 1992, Gaussian, Inc.),
 the Gaussian 90(TM) system (copyright 1990, Gaussian, Inc.),
 the Gaussian 88(TM) system (copyright 1988, Gaussian, Inc.),
 the Gaussian 86(TM) system (copyright 1986, Carnegie Mellon
 University), and the Gaussian 82(TM) system (copyright 1983,
 Carnegie Mellon University). Gaussian is a federally registered
 trademark of Gaussian, Inc.
  
 This software contains proprietary and confidential information,
 including trade secrets, belonging to Gaussian, Inc.
  
 This software is provided under written license and may be
 used, copied, transmitted, or stored only in accord with that
 written license.
  
 The following legend is applicable only to US Government
 contracts under FAR:
  
                    RESTRICTED RIGHTS LEGEND
  
 Use, reproduction and disclosure by the US Government is
 subject to restrictions as set forth in subparagraphs (a)
 and (c) of the Commercial Computer Software - Restricted
 Rights clause in FAR 52.227-19.
  
 Gaussian, Inc.
 340 Quinnipiac St., Bldg. 40, Wallingford CT 06492
  
  
 ---------------------------------------------------------------
 Warning -- This program may not be used in any manner that
 competes with the business of Gaussian, Inc. or will provide
 assistance to any competitor of Gaussian, Inc.  The licensee
 of this program is prohibited from giving any competitor of
 Gaussian, Inc. access to this program.  By using this program,
 the user acknowledges that Gaussian, Inc. is engaged in the
 business of creating and licensing software in the field of
 computational chemistry and represents and warrants to the
 licensee that it is not a competitor of Gaussian, Inc. and that
 it will not use this program in any manner prohibited above.
 ---------------------------------------------------------------
  

 Cite this work as:
 Gaussian 16, Revision B.01,
 M. J. Frisch, G. W. Trucks, H. B. Schlegel, G. E. Scuseria, 
 M. A. Robb, J. R. Cheeseman, G. Scalmani, V. Barone, 
 G. A. Petersson, H. Nakatsuji, X. Li, M. Caricato, A. V. Marenich, 
 J. Bloino, B. G. Janesko, R. Gomperts, B. Mennucci, H. P. Hratchian, 
 J. V. Ortiz, A. F. Izmaylov, J. L. Sonnenberg, D. Williams-Young, 
 F. Ding, F. Lipparini, F. Egidi, J. Goings, B. Peng, A. Petrone, 
 T. Henderson, D. Ranasinghe, V. G. Zakrzewski, J. Gao, N. Rega, 
 G. Zheng, W. Liang, M. Hada, M. Ehara, K. Toyota, R. Fukuda, 
 J. Hasegawa, M. Ishida, T. Nakajima, Y. Honda, O. Kitao, H. Nakai, 
 T. Vreven, K. Throssell, J. A. Montgomery, Jr., J. E. Peralta, 
 F. Ogliaro, M. J. Bearpark, J. J. Heyd, E. N. Brothers, K. N. Kudin, 
 V. N. Staroverov, T. A. Keith, R. Kobayashi, J. Normand, 
 K. Raghavachari, A. P. Rendell, J. C. Burant, S. S. Iyengar, 
 J. Tomasi, M. Cossi, J. M. Millam, M. Klene, C. Adamo, R. Cammi, 
 J. W. Ochterski, R. L. Martin, K. Morokuma, O. Farkas, 
 J. B. Foresman, and D. J. Fox, Gaussian, Inc., Wallingford CT, 2016.
 
 ******************************************
 Gaussian 16:  ES64L-G16RevB.01 20-Dec-2017
                25-Jun-2019 
 ******************************************
 %nprocshared=20
 Will use up to   20 processors via shared memory.
 %mem=100GB
 %chk=7-memb2-hadd-3a.chk
 -------------------------------------------
 # opt freq b3lyp/6-311+g(d,p) int=grid=fine
 -------------------------------------------
 1/18=20,19=15,26=3,38=1/1,3;
 2/9=110,12=2,17=6,18=5,40=1/2;
 3/5=4,6=6,7=111,11=2,25=1,30=1,71=1,74=-5,75=-4/1,2,3;
 4//1;
 5/5=2,38=5/2;
 6/7=2,8=2,9=2,10=2,28=1/1;
 7//1,2,3,16;
 1/18=20,19=15,26=3/3(2);
 2/9=110/2;
 99//99;
 2/9=110/2;
 3/5=4,6=6,7=111,11=2,25=1,30=1,71=1,74=-5,75=-4/1,2,3;
 4/5=5,16=3,69=1/1;
 5/5=2,38=5/2;
 7//1,2,3,16;
 1/18=20,19=15,26=3/3(-5);
 2/9=110/2;
 6/7=2,8=2,9=2,10=2,19=2,28=1/1;
 99/9=1/99;
 ---------------
 7-memb2-hadd-3a
 ---------------
 Symbolic Z-matrix:
 Charge =  0 Multiplicity = 1
 C                    -3.98912   0.31      0.25169 
 C                    -2.5627    0.11626   0.28917 
 C                    -2.42283  -1.32707   0.40144 
 C                    -4.6439   -0.97678   0.31803 
 C                    -3.71776  -1.93409   0.40586 
 C                    -6.02494  -1.31324   0.16705 
 C                    -6.38919  -2.74598   0.15433 
 C                    -5.43272  -3.71357   0.25822 
 C                    -4.01173  -3.3393    0.37148 
 C                    -1.30911  -2.06673   0.42068 
 C                    -1.54518  -3.52436   0.47721 
 C                    -2.91347  -4.1335    0.42157 
 C                    -4.7785    1.50105  -0.09271 
 C                    -6.3234    1.20198   0.17934 
 C                    -6.84262  -0.2488    0.07119 
 C                    -1.51385   0.94115   0.16626 
 C                    -0.17196   0.21197   0.14589 
 C                    -0.097    -1.26427   0.34085 
 C                    -1.62988   2.42607  -0.00865 
 C                    -0.31799   3.10127  -0.36548 
 C                     0.91469   2.32047  -0.37285 
 C                     0.95581   0.90429  -0.09715 
 C                    -2.76336   3.19238   0.16872 
 C                    -2.62066   4.68148  -0.00696 
 C                    -1.41871   5.22499  -0.59879 
 C                    -0.23925   4.41091  -0.67044 
 C                    -3.60346   5.51178   0.39729 
 C                    -4.78022   5.02678   1.08522 
 C                    -5.04343   3.71477   1.17333 
 C                    -4.15362   2.7456    0.52917 
 H                    -4.70143   1.63045  -1.18345 
 H                    -6.59555   1.51163   1.1946 
 H                    -7.91592  -0.38248  -0.02319 
 H                    -7.43779  -3.00825   0.06345 
 H                    -5.69402  -4.76569   0.24713 
 H                    -2.98118  -5.21507   0.39255 
 H                    -0.69044  -4.19106   0.48896 
 H                     0.86364  -1.76461   0.33254 
 H                     1.92763   0.4225   -0.13257 
 H                     1.85684   2.80972  -0.59869 
 H                     0.69485   4.89845  -0.9277 
 H                    -1.34773   6.27662  -0.84951 
 H                    -3.51829   6.58859   0.28491 
 H                    -5.42652   5.7574    1.56134 
 H                    -5.90211   3.3818    1.74181 
 H                    -6.91002   1.82361  -0.50916 
 

 GradGradGradGradGradGradGradGradGradGradGradGradGradGradGradGradGradGrad
 Berny optimization.
 Initialization pass.
                           ----------------------------
                           !    Initial Parameters    !
                           ! (Angstroms and Degrees)  !
 --------------------------                            --------------------------
 ! Name  Definition              Value          Derivative Info.                !
 --------------------------------------------------------------------------------
 ! R1    R(1,2)                  1.44           estimate D2E/DX2                !
 ! R2    R(1,4)                  1.4453         estimate D2E/DX2                !
 ! R3    R(1,13)                 1.4698         estimate D2E/DX2                !
 ! R4    R(2,3)                  1.4544         estimate D2E/DX2                !
 ! R5    R(2,16)                 1.34           estimate D2E/DX2                !
 ! R6    R(3,5)                  1.4302         estimate D2E/DX2                !
 ! R7    R(3,10)                 1.3371         estimate D2E/DX2                !
 ! R8    R(4,5)                  1.3349         estimate D2E/DX2                !
 ! R9    R(4,6)                  1.4294         estimate D2E/DX2                !
 ! R10   R(5,9)                  1.436          estimate D2E/DX2                !
 ! R11   R(6,7)                  1.4784         estimate D2E/DX2                !
 ! R12   R(6,15)                 1.3457         estimate D2E/DX2                !
 ! R13   R(7,8)                  1.3645         estimate D2E/DX2                !
 ! R14   R(7,34)                 1.0847         estimate D2E/DX2                !
 ! R15   R(8,9)                  1.4738         estimate D2E/DX2                !
 ! R16   R(8,35)                 1.0841         estimate D2E/DX2                !
 ! R17   R(9,12)                 1.3563         estimate D2E/DX2                !
 ! R18   R(10,11)                1.4777         estimate D2E/DX2                !
 ! R19   R(10,18)                1.4559         estimate D2E/DX2                !
 ! R20   R(11,12)                1.4988         estimate D2E/DX2                !
 ! R21   R(11,37)                1.0841         estimate D2E/DX2                !
 ! R22   R(12,36)                1.0841         estimate D2E/DX2                !
 ! R23   R(13,14)                1.5969         estimate D2E/DX2                !
 ! R24   R(13,30)                1.5252         estimate D2E/DX2                !
 ! R25   R(13,31)                1.1011         estimate D2E/DX2                !
 ! R26   R(14,15)                1.5447         estimate D2E/DX2                !
 ! R27   R(14,32)                1.0958         estimate D2E/DX2                !
 ! R28   R(14,46)                1.0975         estimate D2E/DX2                !
 ! R29   R(15,33)                1.0857         estimate D2E/DX2                !
 ! R30   R(16,17)                1.5273         estimate D2E/DX2                !
 ! R31   R(16,19)                1.4997         estimate D2E/DX2                !
 ! R32   R(17,18)                1.4909         estimate D2E/DX2                !
 ! R33   R(17,22)                1.3455         estimate D2E/DX2                !
 ! R34   R(18,38)                1.0832         estimate D2E/DX2                !
 ! R35   R(19,20)                1.518          estimate D2E/DX2                !
 ! R36   R(19,23)                1.3797         estimate D2E/DX2                !
 ! R37   R(20,21)                1.4592         estimate D2E/DX2                !
 ! R38   R(20,26)                1.347          estimate D2E/DX2                !
 ! R39   R(21,22)                1.4434         estimate D2E/DX2                !
 ! R40   R(21,40)                1.0854         estimate D2E/DX2                !
 ! R41   R(22,39)                1.0853         estimate D2E/DX2                !
 ! R42   R(23,24)                1.5062         estimate D2E/DX2                !
 ! R43   R(23,30)                1.5041         estimate D2E/DX2                !
 ! R44   R(24,25)                1.4458         estimate D2E/DX2                !
 ! R45   R(24,27)                1.3486         estimate D2E/DX2                !
 ! R46   R(25,26)                1.4349         estimate D2E/DX2                !
 ! R47   R(25,42)                1.0834         estimate D2E/DX2                !
 ! R48   R(26,41)                1.0846         estimate D2E/DX2                !
 ! R49   R(27,28)                1.4468         estimate D2E/DX2                !
 ! R50   R(27,43)                1.086          estimate D2E/DX2                !
 ! R51   R(28,29)                1.341          estimate D2E/DX2                !
 ! R52   R(28,44)                1.0854         estimate D2E/DX2                !
 ! R53   R(29,30)                1.4649         estimate D2E/DX2                !
 ! R54   R(29,45)                1.0823         estimate D2E/DX2                !
 ! A1    A(2,1,4)              109.1343         estimate D2E/DX2                !
 ! A2    A(2,1,13)             130.3249         estimate D2E/DX2                !
 ! A3    A(4,1,13)             119.2686         estimate D2E/DX2                !
 ! A4    A(1,2,3)              103.3433         estimate D2E/DX2                !
 ! A5    A(1,2,16)             133.6399         estimate D2E/DX2                !
 ! A6    A(3,2,16)             122.8671         estimate D2E/DX2                !
 ! A7    A(2,3,5)              109.5341         estimate D2E/DX2                !
 ! A8    A(2,3,10)             129.0628         estimate D2E/DX2                !
 ! A9    A(5,3,10)             121.2881         estimate D2E/DX2                !
 ! A10   A(1,4,5)              109.0984         estimate D2E/DX2                !
 ! A11   A(1,4,6)              129.9719         estimate D2E/DX2                !
 ! A12   A(5,4,6)              120.5614         estimate D2E/DX2                !
 ! A13   A(3,5,4)              108.8813         estimate D2E/DX2                !
 ! A14   A(3,5,9)              126.9136         estimate D2E/DX2                !
 ! A15   A(4,5,9)              123.9282         estimate D2E/DX2                !
 ! A16   A(4,6,7)              117.8442         estimate D2E/DX2                !
 ! A17   A(4,6,15)             114.1046         estimate D2E/DX2                !
 ! A18   A(7,6,15)             128.0443         estimate D2E/DX2                !
 ! A19   A(6,7,8)              120.9217         estimate D2E/DX2                !
 ! A20   A(6,7,34)             118.244          estimate D2E/DX2                !
 ! A21   A(8,7,34)             120.834          estimate D2E/DX2                !
 ! A22   A(7,8,9)              120.1071         estimate D2E/DX2                !
 ! A23   A(7,8,35)             121.2282         estimate D2E/DX2                !
 ! A24   A(9,8,35)             118.6603         estimate D2E/DX2                !
 ! A25   A(5,9,8)              116.5966         estimate D2E/DX2                !
 ! A26   A(5,9,12)             113.9762         estimate D2E/DX2                !
 ! A27   A(8,9,12)             129.4112         estimate D2E/DX2                !
 ! A28   A(3,10,11)            114.403          estimate D2E/DX2                !
 ! A29   A(3,10,18)            112.8165         estimate D2E/DX2                !
 ! A30   A(11,10,18)           132.7508         estimate D2E/DX2                !
 ! A31   A(10,11,12)           123.0469         estimate D2E/DX2                !
 ! A32   A(10,11,37)           118.7571         estimate D2E/DX2                !
 ! A33   A(12,11,37)           118.0511         estimate D2E/DX2                !
 ! A34   A(9,12,11)            120.1751         estimate D2E/DX2                !
 ! A35   A(9,12,36)            122.1855         estimate D2E/DX2                !
 ! A36   A(11,12,36)           117.613          estimate D2E/DX2                !
 ! A37   A(1,13,14)            109.1407         estimate D2E/DX2                !
 ! A38   A(1,13,30)            110.2225         estimate D2E/DX2                !
 ! A39   A(1,13,31)            106.8433         estimate D2E/DX2                !
 ! A40   A(14,13,30)           118.6674         estimate D2E/DX2                !
 ! A41   A(14,13,31)           104.9799         estimate D2E/DX2                !
 ! A42   A(30,13,31)           106.2208         estimate D2E/DX2                !
 ! A43   A(13,14,15)           119.2847         estimate D2E/DX2                !
 ! A44   A(13,14,32)           110.1936         estimate D2E/DX2                !
 ! A45   A(13,14,46)           107.7062         estimate D2E/DX2                !
 ! A46   A(15,14,32)           104.288          estimate D2E/DX2                !
 ! A47   A(15,14,46)           107.9614         estimate D2E/DX2                !
 ! A48   A(32,14,46)           106.7636         estimate D2E/DX2                !
 ! A49   A(6,15,14)            122.2551         estimate D2E/DX2                !
 ! A50   A(6,15,33)            120.6301         estimate D2E/DX2                !
 ! A51   A(14,15,33)           117.002          estimate D2E/DX2                !
 ! A52   A(2,16,17)            113.2666         estimate D2E/DX2                !
 ! A53   A(2,16,19)            124.0325         estimate D2E/DX2                !
 ! A54   A(17,16,19)           122.6249         estimate D2E/DX2                !
 ! A55   A(16,17,18)           121.0066         estimate D2E/DX2                !
 ! A56   A(16,17,22)           119.5497         estimate D2E/DX2                !
 ! A57   A(18,17,22)           119.4041         estimate D2E/DX2                !
 ! A58   A(10,18,17)           120.735          estimate D2E/DX2                !
 ! A59   A(10,18,38)           118.9606         estimate D2E/DX2                !
 ! A60   A(17,18,38)           120.0633         estimate D2E/DX2                !
 ! A61   A(16,19,20)           113.639          estimate D2E/DX2                !
 ! A62   A(16,19,23)           126.7651         estimate D2E/DX2                !
 ! A63   A(20,19,23)           119.5501         estimate D2E/DX2                !
 ! A64   A(19,20,21)           119.555          estimate D2E/DX2                !
 ! A65   A(19,20,26)           122.426          estimate D2E/DX2                !
 ! A66   A(21,20,26)           118.0171         estimate D2E/DX2                !
 ! A67   A(20,21,22)           123.2384         estimate D2E/DX2                !
 ! A68   A(20,21,40)           119.5481         estimate D2E/DX2                !
 ! A69   A(22,21,40)           117.213          estimate D2E/DX2                !
 ! A70   A(17,22,21)           121.0309         estimate D2E/DX2                !
 ! A71   A(17,22,39)           121.8737         estimate D2E/DX2                !
 ! A72   A(21,22,39)           117.0556         estimate D2E/DX2                !
 ! A73   A(19,23,24)           117.1483         estimate D2E/DX2                !
 ! A74   A(19,23,30)           128.6968         estimate D2E/DX2                !
 ! A75   A(24,23,30)           114.1538         estimate D2E/DX2                !
 ! A76   A(23,24,25)           119.8784         estimate D2E/DX2                !
 ! A77   A(23,24,27)           120.3101         estimate D2E/DX2                !
 ! A78   A(25,24,27)           119.8083         estimate D2E/DX2                !
 ! A79   A(24,25,26)           119.3735         estimate D2E/DX2                !
 ! A80   A(24,25,42)           120.9359         estimate D2E/DX2                !
 ! A81   A(26,25,42)           119.0306         estimate D2E/DX2                !
 ! A82   A(20,26,25)           119.4888         estimate D2E/DX2                !
 ! A83   A(20,26,41)           122.7573         estimate D2E/DX2                !
 ! A84   A(25,26,41)           117.6922         estimate D2E/DX2                !
 ! A85   A(24,27,28)           121.9296         estimate D2E/DX2                !
 ! A86   A(24,27,43)           121.4862         estimate D2E/DX2                !
 ! A87   A(28,27,43)           116.4473         estimate D2E/DX2                !
 ! A88   A(27,28,29)           121.2546         estimate D2E/DX2                !
 ! A89   A(27,28,44)           117.8536         estimate D2E/DX2                !
 ! A90   A(29,28,44)           120.8535         estimate D2E/DX2                !
 ! A91   A(28,29,30)           119.9438         estimate D2E/DX2                !
 ! A92   A(28,29,45)           119.4207         estimate D2E/DX2                !
 ! A93   A(30,29,45)           120.6199         estimate D2E/DX2                !
 ! A94   A(13,30,23)           121.5589         estimate D2E/DX2                !
 ! A95   A(13,30,29)           118.0533         estimate D2E/DX2                !
 ! A96   A(23,30,29)           118.0534         estimate D2E/DX2                !
 ! D1    D(4,1,2,3)             -0.8929         estimate D2E/DX2                !
 ! D2    D(4,1,2,16)           174.5835         estimate D2E/DX2                !
 ! D3    D(13,1,2,3)          -167.6172         estimate D2E/DX2                !
 ! D4    D(13,1,2,16)            7.8592         estimate D2E/DX2                !
 ! D5    D(2,1,4,5)              0.5892         estimate D2E/DX2                !
 ! D6    D(2,1,4,6)           -172.3292         estimate D2E/DX2                !
 ! D7    D(13,1,4,5)           169.0117         estimate D2E/DX2                !
 ! D8    D(13,1,4,6)            -3.9067         estimate D2E/DX2                !
 ! D9    D(2,1,13,14)         -174.1434         estimate D2E/DX2                !
 ! D10   D(2,1,13,30)          -42.1527         estimate D2E/DX2                !
 ! D11   D(2,1,13,31)           72.8433         estimate D2E/DX2                !
 ! D12   D(4,1,13,14)           20.2572         estimate D2E/DX2                !
 ! D13   D(4,1,13,30)          152.248          estimate D2E/DX2                !
 ! D14   D(4,1,13,31)          -92.756          estimate D2E/DX2                !
 ! D15   D(1,2,3,5)              0.9004         estimate D2E/DX2                !
 ! D16   D(1,2,3,10)           176.9788         estimate D2E/DX2                !
 ! D17   D(16,2,3,5)          -175.203          estimate D2E/DX2                !
 ! D18   D(16,2,3,10)            0.8753         estimate D2E/DX2                !
 ! D19   D(1,2,16,17)         -174.3136         estimate D2E/DX2                !
 ! D20   D(1,2,16,19)            2.5821         estimate D2E/DX2                !
 ! D21   D(3,2,16,17)            0.4442         estimate D2E/DX2                !
 ! D22   D(3,2,16,19)          177.3399         estimate D2E/DX2                !
 ! D23   D(2,3,5,4)             -0.5869         estimate D2E/DX2                !
 ! D24   D(2,3,5,9)            173.5159         estimate D2E/DX2                !
 ! D25   D(10,3,5,4)          -177.0242         estimate D2E/DX2                !
 ! D26   D(10,3,5,9)            -2.9214         estimate D2E/DX2                !
 ! D27   D(2,3,10,11)         -176.9995         estimate D2E/DX2                !
 ! D28   D(2,3,10,18)            1.2756         estimate D2E/DX2                !
 ! D29   D(5,3,10,11)           -1.3251         estimate D2E/DX2                !
 ! D30   D(5,3,10,18)          176.95           estimate D2E/DX2                !
 ! D31   D(1,4,5,3)              0.0013         estimate D2E/DX2                !
 ! D32   D(1,4,5,9)           -174.3169         estimate D2E/DX2                !
 ! D33   D(6,4,5,3)            173.7021         estimate D2E/DX2                !
 ! D34   D(6,4,5,9)             -0.6161         estimate D2E/DX2                !
 ! D35   D(1,4,6,7)            174.0704         estimate D2E/DX2                !
 ! D36   D(1,4,6,15)            -6.8105         estimate D2E/DX2                !
 ! D37   D(5,4,6,7)              1.8458         estimate D2E/DX2                !
 ! D38   D(5,4,6,15)          -179.0351         estimate D2E/DX2                !
 ! D39   D(3,5,9,8)           -174.5052         estimate D2E/DX2                !
 ! D40   D(3,5,9,12)             4.1804         estimate D2E/DX2                !
 ! D41   D(4,5,9,8)             -1.2336         estimate D2E/DX2                !
 ! D42   D(4,5,9,12)           177.452          estimate D2E/DX2                !
 ! D43   D(4,6,7,8)             -1.21           estimate D2E/DX2                !
 ! D44   D(4,6,7,34)           178.5931         estimate D2E/DX2                !
 ! D45   D(15,6,7,8)           179.8111         estimate D2E/DX2                !
 ! D46   D(15,6,7,34)           -0.3858         estimate D2E/DX2                !
 ! D47   D(4,6,15,14)           -2.5365         estimate D2E/DX2                !
 ! D48   D(4,6,15,33)         -178.5606         estimate D2E/DX2                !
 ! D49   D(7,6,15,14)          176.4743         estimate D2E/DX2                !
 ! D50   D(7,6,15,33)            0.4503         estimate D2E/DX2                !
 ! D51   D(6,7,8,9)             -0.6301         estimate D2E/DX2                !
 ! D52   D(6,7,8,35)          -179.8568         estimate D2E/DX2                !
 ! D53   D(34,7,8,9)           179.5719         estimate D2E/DX2                !
 ! D54   D(34,7,8,35)            0.3453         estimate D2E/DX2                !
 ! D55   D(7,8,9,5)              1.8252         estimate D2E/DX2                !
 ! D56   D(7,8,9,12)          -176.6203         estimate D2E/DX2                !
 ! D57   D(35,8,9,5)          -178.9284         estimate D2E/DX2                !
 ! D58   D(35,8,9,12)            2.6261         estimate D2E/DX2                !
 ! D59   D(5,9,12,11)           -1.2137         estimate D2E/DX2                !
 ! D60   D(5,9,12,36)         -179.2969         estimate D2E/DX2                !
 ! D61   D(8,9,12,11)          177.265          estimate D2E/DX2                !
 ! D62   D(8,9,12,36)           -0.8182         estimate D2E/DX2                !
 ! D63   D(3,10,11,12)           4.0587         estimate D2E/DX2                !
 ! D64   D(3,10,11,37)         179.5943         estimate D2E/DX2                !
 ! D65   D(18,10,11,12)       -173.7759         estimate D2E/DX2                !
 ! D66   D(18,10,11,37)          1.7597         estimate D2E/DX2                !
 ! D67   D(3,10,18,17)          -4.6552         estimate D2E/DX2                !
 ! D68   D(3,10,18,38)        -179.0182         estimate D2E/DX2                !
 ! D69   D(11,10,18,17)        173.2055         estimate D2E/DX2                !
 ! D70   D(11,10,18,38)         -1.1575         estimate D2E/DX2                !
 ! D71   D(10,11,12,9)          -2.7927         estimate D2E/DX2                !
 ! D72   D(10,11,12,36)        175.3765         estimate D2E/DX2                !
 ! D73   D(37,11,12,9)        -178.358          estimate D2E/DX2                !
 ! D74   D(37,11,12,36)         -0.1888         estimate D2E/DX2                !
 ! D75   D(1,13,14,15)         -28.4403         estimate D2E/DX2                !
 ! D76   D(1,13,14,32)          92.0745         estimate D2E/DX2                !
 ! D77   D(1,13,14,46)        -151.8204         estimate D2E/DX2                !
 ! D78   D(30,13,14,15)       -155.797          estimate D2E/DX2                !
 ! D79   D(30,13,14,32)        -35.2822         estimate D2E/DX2                !
 ! D80   D(30,13,14,46)         80.8229         estimate D2E/DX2                !
 ! D81   D(31,13,14,15)         85.7877         estimate D2E/DX2                !
 ! D82   D(31,13,14,32)       -153.6975         estimate D2E/DX2                !
 ! D83   D(31,13,14,46)        -37.5924         estimate D2E/DX2                !
 ! D84   D(1,13,30,23)          61.5862         estimate D2E/DX2                !
 ! D85   D(1,13,30,29)        -136.1036         estimate D2E/DX2                !
 ! D86   D(14,13,30,23)       -171.5688         estimate D2E/DX2                !
 ! D87   D(14,13,30,29)         -9.2585         estimate D2E/DX2                !
 ! D88   D(31,13,30,23)        -53.8026         estimate D2E/DX2                !
 ! D89   D(31,13,30,29)        108.5077         estimate D2E/DX2                !
 ! D90   D(13,14,15,6)          20.9978         estimate D2E/DX2                !
 ! D91   D(13,14,15,33)       -162.8418         estimate D2E/DX2                !
 ! D92   D(32,14,15,6)        -102.4538         estimate D2E/DX2                !
 ! D93   D(32,14,15,33)         73.7066         estimate D2E/DX2                !
 ! D94   D(46,14,15,6)         144.2529         estimate D2E/DX2                !
 ! D95   D(46,14,15,33)        -39.5867         estimate D2E/DX2                !
 ! D96   D(2,16,17,18)          -3.8408         estimate D2E/DX2                !
 ! D97   D(2,16,17,22)         173.8574         estimate D2E/DX2                !
 ! D98   D(19,16,17,18)        179.2137         estimate D2E/DX2                !
 ! D99   D(19,16,17,22)         -3.0881         estimate D2E/DX2                !
 ! D100  D(2,16,19,20)        -169.8971         estimate D2E/DX2                !
 ! D101  D(2,16,19,23)          12.596          estimate D2E/DX2                !
 ! D102  D(17,16,19,20)          6.7165         estimate D2E/DX2                !
 ! D103  D(17,16,19,23)       -170.7904         estimate D2E/DX2                !
 ! D104  D(16,17,18,10)          6.2559         estimate D2E/DX2                !
 ! D105  D(16,17,18,38)       -179.4431         estimate D2E/DX2                !
 ! D106  D(22,17,18,10)       -171.4456         estimate D2E/DX2                !
 ! D107  D(22,17,18,38)          2.8554         estimate D2E/DX2                !
 ! D108  D(16,17,22,21)         -1.591          estimate D2E/DX2                !
 ! D109  D(16,17,22,39)       -179.2293         estimate D2E/DX2                !
 ! D110  D(18,17,22,21)        176.1444         estimate D2E/DX2                !
 ! D111  D(18,17,22,39)         -1.4938         estimate D2E/DX2                !
 ! D112  D(16,19,20,21)         -6.0968         estimate D2E/DX2                !
 ! D113  D(16,19,20,26)        174.4138         estimate D2E/DX2                !
 ! D114  D(23,19,20,21)        171.6075         estimate D2E/DX2                !
 ! D115  D(23,19,20,26)         -7.8819         estimate D2E/DX2                !
 ! D116  D(16,19,23,24)        177.3552         estimate D2E/DX2                !
 ! D117  D(16,19,23,30)         -2.2282         estimate D2E/DX2                !
 ! D118  D(20,19,23,24)         -0.0194         estimate D2E/DX2                !
 ! D119  D(20,19,23,30)       -179.6027         estimate D2E/DX2                !
 ! D120  D(19,20,21,22)          2.1112         estimate D2E/DX2                !
 ! D121  D(19,20,21,40)       -178.162          estimate D2E/DX2                !
 ! D122  D(26,20,21,22)       -178.377          estimate D2E/DX2                !
 ! D123  D(26,20,21,40)          1.3498         estimate D2E/DX2                !
 ! D124  D(19,20,26,25)          3.0258         estimate D2E/DX2                !
 ! D125  D(19,20,26,41)       -179.8986         estimate D2E/DX2                !
 ! D126  D(21,20,26,25)       -176.471          estimate D2E/DX2                !
 ! D127  D(21,20,26,41)          0.6045         estimate D2E/DX2                !
 ! D128  D(20,21,22,17)          2.0759         estimate D2E/DX2                !
 ! D129  D(20,21,22,39)        179.8239         estimate D2E/DX2                !
 ! D130  D(40,21,22,17)       -177.6569         estimate D2E/DX2                !
 ! D131  D(40,21,22,39)          0.0911         estimate D2E/DX2                !
 ! D132  D(19,23,24,25)         12.2007         estimate D2E/DX2                !
 ! D133  D(19,23,24,27)       -167.1453         estimate D2E/DX2                !
 ! D134  D(30,23,24,25)       -168.1557         estimate D2E/DX2                !
 ! D135  D(30,23,24,27)         12.4983         estimate D2E/DX2                !
 ! D136  D(19,23,30,13)        -41.7356         estimate D2E/DX2                !
 ! D137  D(19,23,30,29)        155.9542         estimate D2E/DX2                !
 ! D138  D(24,23,30,13)        138.6708         estimate D2E/DX2                !
 ! D139  D(24,23,30,29)        -23.6395         estimate D2E/DX2                !
 ! D140  D(23,24,25,26)        -17.2711         estimate D2E/DX2                !
 ! D141  D(23,24,25,42)        172.1298         estimate D2E/DX2                !
 ! D142  D(27,24,25,26)        162.0783         estimate D2E/DX2                !
 ! D143  D(27,24,25,42)         -8.5209         estimate D2E/DX2                !
 ! D144  D(23,24,27,28)          4.0613         estimate D2E/DX2                !
 ! D145  D(23,24,27,43)        179.6573         estimate D2E/DX2                !
 ! D146  D(25,24,27,28)       -175.2852         estimate D2E/DX2                !
 ! D147  D(25,24,27,43)          0.3108         estimate D2E/DX2                !
 ! D148  D(24,25,26,20)          9.463          estimate D2E/DX2                !
 ! D149  D(24,25,26,41)       -167.7596         estimate D2E/DX2                !
 ! D150  D(42,25,26,20)       -179.7576         estimate D2E/DX2                !
 ! D151  D(42,25,26,41)          3.0198         estimate D2E/DX2                !
 ! D152  D(24,27,28,29)        -10.2183         estimate D2E/DX2                !
 ! D153  D(24,27,28,44)        167.5473         estimate D2E/DX2                !
 ! D154  D(43,27,28,29)        173.9759         estimate D2E/DX2                !
 ! D155  D(43,27,28,44)         -8.2585         estimate D2E/DX2                !
 ! D156  D(27,28,29,30)         -1.9654         estimate D2E/DX2                !
 ! D157  D(27,28,29,45)        176.6064         estimate D2E/DX2                !
 ! D158  D(44,28,29,30)       -179.6642         estimate D2E/DX2                !
 ! D159  D(44,28,29,45)         -1.0924         estimate D2E/DX2                !
 ! D160  D(28,29,30,13)       -143.8167         estimate D2E/DX2                !
 ! D161  D(28,29,30,23)         19.1221         estimate D2E/DX2                !
 ! D162  D(45,29,30,13)         37.6289         estimate D2E/DX2                !
 ! D163  D(45,29,30,23)       -159.4323         estimate D2E/DX2                !
 --------------------------------------------------------------------------------
 Trust Radius=3.00D-01 FncErr=1.00D-07 GrdErr=1.00D-06 EigMax=2.50D+02 EigMin=1.00D-04
 Number of steps in this run=    276 maximum allowed number of steps=    276.
 GradGradGradGradGradGradGradGradGradGradGradGradGradGradGradGradGradGrad

                          Input orientation:                          
 ---------------------------------------------------------------------
 Center     Atomic      Atomic             Coordinates (Angstroms)
 Number     Number       Type             X           Y           Z
 ---------------------------------------------------------------------
      1          6           0       -3.989120    0.310000    0.251690
      2          6           0       -2.562700    0.116260    0.289170
      3          6           0       -2.422830   -1.327070    0.401440
      4          6           0       -4.643900   -0.976780    0.318030
      5          6           0       -3.717760   -1.934090    0.405860
      6          6           0       -6.024940   -1.313240    0.167050
      7          6           0       -6.389190   -2.745980    0.154330
      8          6           0       -5.432720   -3.713570    0.258220
      9          6           0       -4.011730   -3.339300    0.371480
     10          6           0       -1.309110   -2.066730    0.420680
     11          6           0       -1.545180   -3.524360    0.477210
     12          6           0       -2.913470   -4.133500    0.421570
     13          6           0       -4.778500    1.501050   -0.092710
     14          6           0       -6.323400    1.201980    0.179340
     15          6           0       -6.842620   -0.248800    0.071190
     16          6           0       -1.513850    0.941150    0.166260
     17          6           0       -0.171960    0.211970    0.145890
     18          6           0       -0.097000   -1.264270    0.340850
     19          6           0       -1.629880    2.426070   -0.008650
     20          6           0       -0.317990    3.101270   -0.365480
     21          6           0        0.914690    2.320470   -0.372850
     22          6           0        0.955810    0.904290   -0.097150
     23          6           0       -2.763360    3.192380    0.168720
     24          6           0       -2.620660    4.681480   -0.006960
     25          6           0       -1.418710    5.224990   -0.598790
     26          6           0       -0.239250    4.410910   -0.670440
     27          6           0       -3.603460    5.511780    0.397290
     28          6           0       -4.780220    5.026780    1.085220
     29          6           0       -5.043430    3.714770    1.173330
     30          6           0       -4.153620    2.745600    0.529170
     31          1           0       -4.701430    1.630450   -1.183450
     32          1           0       -6.595550    1.511630    1.194600
     33          1           0       -7.915920   -0.382480   -0.023190
     34          1           0       -7.437790   -3.008250    0.063450
     35          1           0       -5.694020   -4.765690    0.247130
     36          1           0       -2.981180   -5.215070    0.392550
     37          1           0       -0.690440   -4.191060    0.488960
     38          1           0        0.863640   -1.764610    0.332540
     39          1           0        1.927630    0.422500   -0.132570
     40          1           0        1.856840    2.809720   -0.598690
     41          1           0        0.694850    4.898450   -0.927700
     42          1           0       -1.347730    6.276620   -0.849510
     43          1           0       -3.518290    6.588590    0.284910
     44          1           0       -5.426520    5.757400    1.561340
     45          1           0       -5.902110    3.381800    1.741810
     46          1           0       -6.910020    1.823610   -0.509160
 ---------------------------------------------------------------------
                    Distance matrix (angstroms):
                    1          2          3          4          5
     1  C    0.000000
     2  C    1.440005   0.000000
     3  C    2.270614   1.454431   0.000000
     4  C    1.445317   2.350949   2.250069   0.000000
     5  C    2.265689   2.356208   1.430153   1.334875   0.000000
     6  C    2.605117   3.747731   3.609754   1.429431   2.401159
     7  C    3.887008   4.780442   4.219761   2.490563   2.803386
     8  C    4.274709   4.785976   3.843869   2.848830   2.475769
     9  C    3.651336   3.747980   2.564093   2.446221   1.436042
    10  C    3.586064   2.520759   1.337101   3.509893   2.412345
    11  C    4.552584   3.784814   2.367297   4.014669   2.693354
    12  C    4.574994   4.266266   2.849067   3.601387   2.341908
    13  C    1.469807   2.640690   3.713708   2.515247   3.629591
    14  C    2.499945   3.915829   4.654016   2.754442   4.083578
    15  C    2.913297   4.300988   4.561390   2.329218   3.566084
    16  C    2.555897   1.340014   2.454868   3.674058   3.630652
    17  C    3.819884   2.396941   2.738680   4.630443   4.152813
    18  C    4.199390   2.826342   2.327466   4.556037   3.682769
    19  C    3.179865   2.508799   3.857850   4.557458   4.852016
    20  C    4.652879   3.791777   4.962732   5.984244   6.124398
    21  C    5.336609   4.170018   5.004309   6.499777   6.337765
    22  C    4.992715   3.626313   4.079555   5.921786   5.491054
    23  C    3.133287   3.085010   4.538232   4.576092   5.219943
    24  C    4.587965   4.575182   6.025662   6.017892   6.718617
    25  C    5.611368   5.310020   6.703597   7.050132   7.585999
    26  C    5.632878   4.976273   6.232284   7.028885   7.315564
    27  C    5.218089   5.496045   6.940013   6.571926   7.446752
    28  C    4.854753   5.446494   6.811479   6.053916   7.074183
    29  C    3.681501   4.459264   5.734414   4.785583   5.852865
    30  C    2.456868   3.082540   4.427029   3.760461   4.701561
    31  H    2.076199   3.005919   4.055961   3.009219   4.024855
    32  H    3.021005   4.362424   5.108709   3.281691   4.558154
    33  H    3.996854   5.385469   5.589866   3.343013   4.496235
    34  H    4.789524   5.794827   5.300040   3.463741   3.887118
    35  H    5.354375   5.800032   4.748537   3.932381   3.456697
    36  H    5.618023   5.348728   3.927897   4.553383   3.362671
    37  H    5.585439   4.700881   3.348324   5.098103   3.776968
    38  H    5.278241   3.908882   3.316184   5.563621   4.585120
    39  H    5.930282   4.520477   4.719392   6.733946   6.141160
    40  H    6.414592   5.251224   6.035633   7.578758   7.388438
    41  H    6.662162   5.912846   7.088275   8.035697   8.242155
    42  H    6.617412   6.381440   7.780541   8.052310   8.637636
    43  H    6.296307   6.542494   7.991951   7.648720   8.525872
    44  H    5.784070   6.453088   7.781853   6.892568   7.963292
    45  H    3.913559   4.891377   6.006283   4.754730   5.900410
    46  H    3.376620   4.738308   5.557954   3.696177   5.014788
                    6          7          8          9         10
     6  C    0.000000
     7  C    1.478372   0.000000
     8  C    2.473989   1.364499   0.000000
     9  C    2.863516   2.459979   1.473811   0.000000
    10  C    4.782377   5.132206   4.443268   2.987643   0.000000
    11  C    5.005347   4.916763   3.898298   2.475741   1.477704
    12  C    4.207124   3.751967   2.559227   1.356259   2.616393
    13  C    3.088902   4.548914   5.267202   4.922641   5.002928
    14  C    2.532896   3.948587   4.996215   5.099408   5.990477
    15  C    1.345668   2.539374   3.745321   4.201821   5.834959
    16  C    5.043036   6.112611   6.085427   4.960219   3.025556
    17  C    6.048478   6.885019   6.564913   5.235097   2.561463
    18  C    5.930689   6.466986   5.871610   4.430779   1.455859
    19  C    5.773202   7.030483   7.226894   6.249576   4.524651
    20  C    7.234692   8.445117   8.543507   7.461084   5.320582
    21  C    7.851994   8.904690   8.780518   7.540334   4.982218
    22  C    7.329264   8.205897   7.890769   6.550124   3.771601
    23  C    5.562240   6.957799   7.404434   6.652998   5.462286
    24  C    6.896091   8.330366   8.857475   8.149307   6.887770
    25  C    8.034446   9.423865   9.835883   9.000680   7.363458
    26  C    8.181778   9.472227   9.687193   8.682336   6.655446
    27  C    7.245514   8.718367   9.405988   8.860529   7.918232
    28  C    6.525965   7.991942   8.803602   8.431565   7.925156
    29  C    5.220809   6.677628   7.494612   7.174069   6.923682
    30  C    4.484100   5.941021   6.590174   6.088596   5.591201
    31  H    3.498691   4.877636   5.583166   5.252800   5.267847
    32  H    3.059632   4.387709   5.434307   5.557443   6.430401
    33  H    2.116202   2.819317   4.164329   4.913374   6.832544
    34  H    2.209058   1.084715   2.134413   3.455773   6.210861
    35  H    3.469198   2.138013   1.084139   2.209106   5.151887
    36  H    4.953746   4.215173   2.877950   2.140325   3.564920
    37  H    6.069791   5.888632   4.771840   3.430782   2.213638
    38  H    6.905335   7.321092   6.591519   5.123514   2.195424
    39  H    8.145301   8.904553   8.451896   7.048489   4.120538
    40  H    8.927912   9.971452   9.819638   8.555220   5.902721
    41  H    9.216244  10.478154  10.635808   9.576027   7.372090
    42  H    8.973052  10.384186  10.849797  10.052543   8.439571
    43  H    8.290724   9.766950  10.478562   9.940522   8.933839
    44  H    7.231604   8.672594   9.560200   9.282637   8.914661
    45  H    4.953621   6.348782   7.263996   7.115091   7.247587
    46  H    3.328732   4.646788   5.782011   5.985921   6.882553
                   11         12         13         14         15
    11  C    0.000000
    12  C    1.498788   0.000000
    13  C    6.002825   5.957430   0.000000
    14  C    6.727437   6.336690   1.596925   0.000000
    15  C    6.241556   5.536414   2.710983   1.544684   0.000000
    16  C    4.476433   5.270312   3.322423   4.816635   5.460843
    17  C    3.994455   5.145385   4.789454   6.230686   6.686972
    18  C    2.687718   4.021380   5.454485   6.698995   6.826953
    19  C    5.970833   6.697809   3.282763   4.854160   5.859519
    20  C    6.790810   7.726439   4.746710   6.322110   7.347411
    21  C    6.398093   7.545836   5.758675   7.344786   8.183775
    22  C    5.118377   6.373361   5.765280   7.290539   7.885015
    23  C    6.833281   7.331779   2.643810   4.078687   5.337752
    24  C    8.290168   8.830246   3.844315   5.084477   6.491434
    25  C    8.816172   9.531882   5.041035   6.391094   7.734989
    26  C    8.123488   9.019472   5.422716   6.930818   8.115874
    27  C    9.267941   9.669959   4.207942   5.100976   6.616856
    28  C    9.162814   9.372082   3.717297   4.222691   5.754433
    29  C    8.070151   8.166836   2.563904   2.990059   4.490176
    30  C    6.791101   6.990820   1.525160   2.685719   4.050543
    31  H    6.268315   6.244679   1.101089   2.161381   3.112940
    32  H    7.168130   6.784009   2.226870   1.095765   2.102905
    33  H    7.120965   6.268370   3.660044   2.255582   1.085703
    34  H    5.929622   4.675886   5.237365   4.356757   2.822915
    35  H    4.336670   2.856843   6.342373   6.001150   4.663961
    36  H    2.219857   1.084076   6.969369   7.238399   6.299034
    37  H    1.084070   2.224796   7.032119   7.804549   7.318829
    38  H    2.986647   4.459386   6.532926   7.776739   7.858271
    39  H    5.292442   6.670866   6.792425   8.293634   8.798264
    40  H    7.269929   8.485581   6.782062   8.372962   9.245750
    41  H    8.828093   9.819197   6.495929   8.009074   9.181798
    42  H    9.892340  10.603668   5.928659   7.181072   8.580362
    43  H   10.305431  10.740005   5.254882   6.074155   7.605705
    44  H   10.118854  10.268612   4.612193   4.844189   6.348254
    45  H    8.262996   8.194799   2.857479   2.714850   4.105702
    46  H    7.639059   7.233660   2.195644   1.097533   2.153191
                   16         17         18         19         20
    16  C    0.000000
    17  C    1.527346   0.000000
    18  C    2.627132   1.490944   0.000000
    19  C    1.499681   2.655495   4.011294   0.000000
    20  C    2.525658   2.937836   4.427830   1.517985   0.000000
    21  C    2.844463   2.428100   3.792525   2.572670   1.459179
    22  C    2.483941   1.345452   2.450083   3.001573   2.553681
    23  C    2.574746   3.949521   5.196233   1.379662   2.504697
    24  C    3.904498   5.098629   6.468522   2.463437   2.815651
    25  C    4.352659   5.219129   6.688822   2.868242   2.403374
    26  C    3.789974   4.278086   5.766334   2.512252   1.346981
    27  C    5.030955   6.318732   7.629764   3.685297   4.145683
    28  C    5.310935   6.730587   7.878067   4.229053   5.071845
    29  C    4.600554   6.087402   7.067604   3.835381   5.007405
    30  C    3.218094   4.734955   5.707073   2.600118   3.954612
    31  H    3.529521   4.929029   5.648333   3.383428   4.695416
    32  H    5.215995   6.637124   7.117982   5.190558   6.660973
    33  H    6.540213   7.768583   7.876902   6.884945   8.365537
    34  H    7.120491   7.947886   7.550206   7.954172   9.391580
    35  H    7.074488   7.435085   6.602678   8.264628   9.548091
    36  H    6.332717   6.115989   4.891829   7.770070   8.765198
    37  H    5.207852   4.446706   2.990018   6.701983   7.351657
    38  H    3.605724   2.239235   1.083161   4.888338   5.055717
    39  H    3.493148   2.128413   2.677395   4.084792   3.503265
    40  H    3.929154   3.379162   4.614935   3.557042   2.206643
    41  H    4.662116   4.885391   6.341558   3.515919   2.138175
    42  H    5.433841   6.257255   7.736039   3.951378   3.373055
    43  H    5.993783   7.202675   8.565965   4.580267   4.777691
    44  H    6.360149   7.769536   8.899282   5.289339   6.071634
    45  H    5.262695   6.740134   7.566238   4.714815   5.975095
    46  H    5.509408   6.959018   7.528264   5.337916   6.716243
                   21         22         23         24         25
    21  C    0.000000
    22  C    1.443353   0.000000
    23  C    3.818583   4.374731   0.000000
    24  C    4.266959   5.202541   1.506202   0.000000
    25  C    3.732565   4.955647   2.555124   1.445804   0.000000
    26  C    2.406258   3.748762   2.925771   2.486871   1.434917
    27  C    5.584913   6.500798   2.477424   1.348596   2.418172
    28  C    6.471637   7.162050   2.876234   2.444543   3.764960
    29  C    6.311413   6.745650   2.545752   2.863115   4.308105
    30  C    5.165476   5.467081   1.504114   2.526862   3.859974
    31  H    5.716118   5.806180   2.832685   3.875889   4.902937
    32  H    7.714585   7.685084   4.308484   5.224122   6.618532
    33  H    9.241638   8.964867   6.274179   7.326918   8.601673
    34  H    9.917133   9.262088   7.765899   9.074230  10.220280
    35  H    9.709433   8.745710   8.480908   9.937763  10.899887
    36  H    8.517512   7.292891   8.413249   9.911170  10.602779
    37  H    6.761596   5.386674   7.675594   9.093605   9.506607
    38  H    4.145848   2.704839   6.144405   7.335372   7.411545
    39  H    2.164734   1.085270   5.456042   6.232305   5.871905
    40  H    1.085364   2.166578   4.699106   4.888930   4.069737
    41  H    2.646161   4.087937   4.008993   3.447817   2.163780
    42  H    4.582234   5.893579   3.543069   2.207875   1.083432
    43  H    6.188765   7.243950   3.481043   2.127909   2.654914
    44  H    7.467565   8.187637   3.951093   3.389693   4.583903
    45  H    7.215745   7.520033   3.515998   3.938944   5.382995
    46  H    7.841654   7.930081   4.419032   5.178633   6.460024
                   26         27         28         29         30
    26  C    0.000000
    27  C    3.697279   0.000000
    28  C    4.907346   1.446802   0.000000
    29  C    5.192711   2.430020   1.341049   0.000000
    30  C    4.419798   2.823441   2.430144   1.464921   0.000000
    31  H    5.282536   4.332320   4.085111   3.164769   2.115827
    32  H    7.230958   5.058607   3.957735   2.695061   2.815759
    33  H    9.073411   7.315491   6.349904   5.144931   4.923910
    34  H   10.363470   9.349035   8.524576   7.222451   6.641495
    35  H   10.714777  10.489012   9.870658   8.555660   7.672800
    36  H   10.065169  10.744886  10.421700   9.198072   8.047704
    37  H    8.691471  10.131100  10.102000   9.050913   7.753224
    38  H    6.352903   8.538444   8.862430   8.100865   6.749337
    39  H    4.570786   7.534884   8.226643   7.819213   6.543416
    40  H    2.638665   6.173166   7.197324   7.181427   6.115702
    41  H    1.084629   4.539520   5.834784   6.224410   5.501354
    42  H    2.177537   2.688458   4.133675   4.930837   4.716130
    43  H    4.050566   1.086003   2.161530   3.372563   3.902804
    44  H    5.805312   2.176899   1.085449   2.114154   3.428788
    45  H    6.240673   3.410035   2.096594   1.082298   2.220915
    46  H    7.156766   5.035632   4.163940   3.145062   3.086411
                   31         32         33         34         35
    31  H    0.000000
    32  H    3.042520   0.000000
    33  H    3.966237   2.610372   0.000000
    34  H    5.528107   4.734784   2.670353   0.000000
    35  H    6.628906   6.412114   4.921630   2.482553   0.000000
    36  H    7.232163   7.678245   6.919424   4.983948   2.753650
    37  H    7.264639   8.239474   8.183834   6.863442   5.042271
    38  H    6.692881   8.192461   8.894802   8.398380   7.212259
    39  H    6.819672   8.694376   9.877015   9.975949   9.227732
    40  H    6.689060   8.737495  10.296999  10.985324  10.729293
    41  H    6.313879   8.314123  10.141584  11.385874  11.644462
    42  H    5.739836   7.377203   9.389757  11.141415  11.917444
    43  H    5.304626   6.006046   8.248024  10.368745  11.560921
    44  H    5.009126   4.419015   6.812193   9.117319  10.608210
    45  H    3.614693   2.068292   4.619574   6.782916   8.286070
    46  H    2.317293   1.760404   2.472819   4.894210   6.743108
                   36         37         38         39         40
    36  H    0.000000
    37  H    2.511052   0.000000
    38  H    5.166422   2.885705   0.000000
    39  H    7.493621   5.340929   2.476258   0.000000
    40  H    9.422646   7.528781   4.772644   2.433331   0.000000
    41  H   10.841566   9.302964   6.783293   4.710213   2.412729
    42  H   11.673466  10.573356   8.423110   6.746311   4.727745
    43  H   11.816364  11.146265   9.432896   8.237293   6.629678
    44  H   11.302250  11.070335   9.882140   9.241970   8.148735
    45  H    9.179243   9.277896   8.616667   8.577621   8.124440
    46  H    8.111219   8.709516   8.603114   8.955947   8.822600
                   41         42         43         44         45
    41  H    0.000000
    42  H    2.465279   0.000000
    43  H    4.698675   2.468920   0.000000
    44  H    6.663654   4.766373   2.441617   0.000000
    45  H    7.276427   5.986426   4.253076   2.429451   0.000000
    46  H    8.213639   7.133317   5.902492   4.686411   2.917311
                   46
    46  H    0.000000
 Stoichiometry    C30H16
 Framework group  C1[X(C30H16)]
 Deg. of freedom   132
 Full point group                 C1      NOp   1
 Largest Abelian subgroup         C1      NOp   1
 Largest concise Abelian subgroup C1      NOp   1
                         Standard orientation:                         
 ---------------------------------------------------------------------
 Center     Atomic      Atomic             Coordinates (Angstroms)
 Number     Number       Type             X           Y           Z
 ---------------------------------------------------------------------
      1          6           0        0.692231   -0.806459   -0.024819
      2          6           0        0.443918    0.604703    0.118620
      3          6           0        1.779487    1.172421    0.215171
      4          6           0        2.118845   -1.038104   -0.032269
      5          6           0        2.751539    0.128772    0.109115
      6          6           0        2.853296   -2.235955   -0.294960
      7          6           0        4.327155   -2.141665   -0.361545
      8          6           0        4.961054   -0.943926   -0.202007
      9          6           0        4.176922    0.282812    0.026835
     10          6           0        2.145155    2.455301    0.306527
     11          6           0        3.606502    2.674239    0.318373
     12          6           0        4.600457    1.565649    0.146770
     13          6           0       -0.214988   -1.897808   -0.407237
     14          6           0        0.550991   -3.291294   -0.260130
     15          6           0        2.085306   -3.332157   -0.434079
     16          6           0       -0.665392    1.355928    0.091593
     17          6           0       -0.380767    2.854906    0.161180
     18          6           0        1.009248    3.365495    0.334582
     19          6           0       -2.050349    0.802329   -0.064819
     20          6           0       -3.106803    1.865000   -0.307537
     21          6           0       -2.739279    3.275237   -0.234314
     22          6           0       -1.392831    3.729826    0.018062
     23          6           0       -2.427356   -0.520774    0.038786
     24          6           0       -3.895083   -0.829955   -0.098442
     25          6           0       -4.802316    0.184597   -0.586256
     26          6           0       -4.389538    1.558853   -0.581802
     27          6           0       -4.369615   -2.044952    0.244069
     28          6           0       -3.521818   -3.060022    0.830676
     29          6           0       -2.189505   -2.913632    0.874553
     30          6           0       -1.564279   -1.728129    0.283225
     31          1           0       -0.406022   -1.790571   -1.486313
     32          1           0        0.380504   -3.713253    0.736659
     33          1           0        2.535404   -4.303824   -0.613036
     34          1           0        4.892252   -3.050693   -0.537443
     35          1           0        6.041415   -0.868696   -0.252172
     36          1           0        5.649185    1.834923    0.093070
     37          1           0        3.981268    3.689371    0.383687
     38          1           0        1.192640    4.431524    0.391044
     39          1           0       -1.231600    4.802615    0.048693
     40          1           0       -3.500882    4.035019   -0.378219
     41          1           0       -5.148343    2.313640   -0.757679
     42          1           0       -5.834940   -0.053481   -0.811714
     43          1           0       -5.424886   -2.286630    0.158065
     44          1           0       -4.000994   -3.929831    1.268880
     45          1           0       -1.588082   -3.665241    1.369270
     46          1           0        0.109935   -3.992295   -0.980301
 ---------------------------------------------------------------------
 Rotational constants (GHZ):           0.2753451           0.1505460           0.0993364
 Standard basis: 6-311+G(d,p) (5D, 7F)
 There are   786 symmetry adapted cartesian basis functions of A   symmetry.
 There are   756 symmetry adapted basis functions of A   symmetry.
   756 basis functions,  1208 primitive gaussians,   786 cartesian basis functions
    98 alpha electrons       98 beta electrons
       nuclear repulsion energy      2601.3847218377 Hartrees.
 NAtoms=   46 NActive=   46 NUniq=   46 SFac= 1.00D+00 NAtFMM=   60 NAOKFM=F Big=F
 Integral buffers will be    131072 words long.
 Raffenetti 2 integral format.
 Two-electron integral symmetry is turned on.
 One-electron integrals computed using PRISM.
 NBasis=   756 RedAO= T EigKep=  1.04D-06  NBF=   756
 NBsUse=   736 1.00D-06 EigRej=  8.16D-07 NBFU=   736
 ExpMin= 4.38D-02 ExpMax= 4.56D+03 ExpMxC= 6.82D+02 IAcc=2 IRadAn=         4 AccDes= 0.00D+00
 Harris functional with IExCor=  402 and IRadAn=       4 diagonalized for initial guess.
 HarFok:  IExCor=  402 AccDes= 0.00D+00 IRadAn=         4 IDoV= 1 UseB2=F ITyADJ=14
 ICtDFT=  3500011 ScaDFX=  1.000000  1.000000  1.000000  1.000000
 FoFCou: FMM=F IPFlag=           0 FMFlag=      100000 FMFlg1=           0
         NFxFlg=           0 DoJE=T BraDBF=F KetDBF=T FulRan=T
         wScrn=  0.000000 ICntrl=       500 IOpCl=  0 I1Cent=   200000004 NGrid=           0
         NMat0=    1 NMatS0=      1 NMatT0=    0 NMatD0=    1 NMtDS0=    0 NMtDT0=    0
 Petite list used in FoFCou.
 Requested convergence on RMS density matrix=1.00D-08 within 128 cycles.
 Requested convergence on MAX density matrix=1.00D-06.
 Requested convergence on             energy=1.00D-06.
 No special actions if energy rises.
 SCF Done:  E(RB3LYP) =  -1152.97380723     A.U. after   19 cycles
            NFock= 19  Conv=0.40D-08     -V/T= 2.0051

 **********************************************************************

            Population analysis using the SCF Density.

 **********************************************************************

 Orbital symmetries:
       Occupied  (A) (A) (A) (A) (A) (A) (A) (A) (A) (A) (A) (A)
                 (A) (A) (A) (A) (A) (A) (A) (A) (A) (A) (A) (A)
                 (A) (A) (A) (A) (A) (A) (A) (A) (A) (A) (A) (A)
                 (A) (A) (A) (A) (A) (A) (A) (A) (A) (A) (A) (A)
                 (A) (A) (A) (A) (A) (A) (A) (A) (A) (A) (A) (A)
                 (A) (A) (A) (A) (A) (A) (A) (A) (A) (A) (A) (A)
                 (A) (A) (A) (A) (A) (A) (A) (A) (A) (A) (A) (A)
                 (A) (A) (A) (A) (A) (A) (A) (A) (A) (A) (A) (A)
                 (A) (A)
       Virtual   (A) (A) (A) (A) (A) (A) (A) (A) (A) (A) (A) (A)
                 (A) (A) (A) (A) (A) (A) (A) (A) (A) (A) (A) (A)
                 (A) (A) (A) (A) (A) (A) (A) (A) (A) (A) (A) (A)
                 (A) (A) (A) (A) (A) (A) (A) (A) (A) (A) (A) (A)
                 (A) (A) (A) (A) (A) (A) (A) (A) (A) (A) (A) (A)
                 (A) (A) (A) (A) (A) (A) (A) (A) (A) (A) (A) (A)
                 (A) (A) (A) (A) (A) (A) (A) (A) (A) (A) (A) (A)
                 (A) (A) (A) (A) (A) (A) (A) (A) (A) (A) (A) (A)
                 (A) (A) (A) (A) (A) (A) (A) (A) (A) (A) (A) (A)
                 (A) (A) (A) (A) (A) (A) (A) (A) (A) (A) (A) (A)
                 (A) (A) (A) (A) (A) (A) (A) (A) (A) (A) (A) (A)
                 (A) (A) (A) (A) (A) (A) (A) (A) (A) (A) (A) (A)
                 (A) (A) (A) (A) (A) (A) (A) (A) (A) (A) (A) (A)
                 (A) (A) (A) (A) (A) (A) (A) (A) (A) (A) (A) (A)
                 (A) (A) (A) (A) (A) (A) (A) (A) (A) (A) (A) (A)
                 (A) (A) (A) (A) (A) (A) (A) (A) (A) (A) (A) (A)
                 (A) (A) (A) (A) (A) (A) (A) (A) (A) (A) (A) (A)
                 (A) (A) (A) (A) (A) (A) (A) (A) (A) (A) (A) (A)
                 (A) (A) (A) (A) (A) (A) (A) (A) (A) (A) (A) (A)
                 (A) (A) (A) (A) (A) (A) (A) (A) (A) (A) (A) (A)
                 (A) (A) (A) (A) (A) (A) (A) (A) (A) (A) (A) (A)
                 (A) (A) (A) (A) (A) (A) (A) (A) (A) (A) (A) (A)
                 (A) (A) (A) (A) (A) (A) (A) (A) (A) (A) (A) (A)
                 (A) (A) (A) (A) (A) (A) (A) (A) (A) (A) (A) (A)
                 (A) (A) (A) (A) (A) (A) (A) (A) (A) (A) (A) (A)
                 (A) (A) (A) (A) (A) (A) (A) (A) (A) (A) (A) (A)
                 (A) (A) (A) (A) (A) (A) (A) (A) (A) (A) (A) (A)
                 (A) (A) (A) (A) (A) (A) (A) (A) (A) (A) (A) (A)
                 (A) (A) (A) (A) (A) (A) (A) (A) (A) (A) (A) (A)
                 (A) (A) (A) (A) (A) (A) (A) (A) (A) (A) (A) (A)
                 (A) (A) (A) (A) (A) (A) (A) (A) (A) (A) (A) (A)
                 (A) (A) (A) (A) (A) (A) (A) (A) (A) (A) (A) (A)
                 (A) (A) (A) (A) (A) (A) (A) (A) (A) (A) (A) (A)
                 (A) (A) (A) (A) (A) (A) (A) (A) (A) (A) (A) (A)
                 (A) (A) (A) (A) (A) (A) (A) (A) (A) (A) (A) (A)
                 (A) (A) (A) (A) (A) (A) (A) (A) (A) (A) (A) (A)
                 (A) (A) (A) (A) (A) (A) (A) (A) (A) (A) (A) (A)
                 (A) (A) (A) (A) (A) (A) (A) (A) (A) (A) (A) (A)
                 (A) (A) (A) (A) (A) (A) (A) (A) (A) (A) (A) (A)
                 (A) (A) (A) (A) (A) (A) (A) (A) (A) (A) (A) (A)
                 (A) (A) (A) (A) (A) (A) (A) (A) (A) (A) (A) (A)
                 (A) (A) (A) (A) (A) (A) (A) (A) (A) (A) (A) (A)
                 (A) (A) (A) (A) (A) (A) (A) (A) (A) (A) (A) (A)
                 (A) (A) (A) (A) (A) (A) (A) (A) (A) (A) (A) (A)
                 (A) (A) (A) (A) (A) (A) (A) (A) (A) (A) (A) (A)
                 (A) (A) (A) (A) (A) (A) (A) (A) (A) (A) (A) (A)
                 (A) (A) (A) (A) (A) (A) (A) (A) (A) (A) (A) (A)
                 (A) (A) (A) (A) (A) (A) (A) (A) (A) (A) (A) (A)
                 (A) (A) (A) (A) (A) (A) (A) (A) (A) (A) (A) (A)
                 (A) (A) (A) (A) (A) (A) (A) (A) (A) (A) (A) (A)
                 (A) (A) (A) (A) (A) (A) (A) (A) (A) (A) (A) (A)
                 (A) (A) (A) (A) (A) (A) (A) (A) (A) (A) (A) (A)
                 (A) (A) (A) (A) (A) (A) (A) (A) (A) (A) (A) (A)
                 (A) (A)
 The electronic state is 1-A.
 Alpha  occ. eigenvalues --  -10.21042 -10.20914 -10.20808 -10.20707 -10.20497
 Alpha  occ. eigenvalues --  -10.20416 -10.20260 -10.20160 -10.19758 -10.19687
 Alpha  occ. eigenvalues --  -10.19650 -10.19625 -10.19479 -10.19310 -10.19241
 Alpha  occ. eigenvalues --  -10.19149 -10.19121 -10.19011 -10.18817 -10.18627
 Alpha  occ. eigenvalues --  -10.18592 -10.18534 -10.18184 -10.17939 -10.17869
 Alpha  occ. eigenvalues --  -10.17556 -10.17382 -10.16188 -10.15825 -10.15606
 Alpha  occ. eigenvalues --   -0.91001  -0.88431  -0.86341  -0.84472  -0.84097
 Alpha  occ. eigenvalues --   -0.81865  -0.79950  -0.79774  -0.78622  -0.76285
 Alpha  occ. eigenvalues --   -0.75404  -0.74695  -0.71759  -0.70565  -0.69156
 Alpha  occ. eigenvalues --   -0.66716  -0.66013  -0.63465  -0.63341  -0.61312
 Alpha  occ. eigenvalues --   -0.60093  -0.59332  -0.57827  -0.56119  -0.55142
 Alpha  occ. eigenvalues --   -0.52923  -0.52037  -0.50767  -0.50677  -0.49819
 Alpha  occ. eigenvalues --   -0.49364  -0.47566  -0.46816  -0.46120  -0.45255
 Alpha  occ. eigenvalues --   -0.44652  -0.44282  -0.43631  -0.43538  -0.42149
 Alpha  occ. eigenvalues --   -0.41843  -0.41541  -0.40871  -0.40585  -0.40250
 Alpha  occ. eigenvalues --   -0.39812  -0.39485  -0.38521  -0.38033  -0.37594
 Alpha  occ. eigenvalues --   -0.37214  -0.35672  -0.35461  -0.35086  -0.34068
 Alpha  occ. eigenvalues --   -0.33589  -0.33458  -0.33136  -0.31780  -0.31347
 Alpha  occ. eigenvalues --   -0.30168  -0.28598  -0.27150  -0.25636  -0.23506
 Alpha  occ. eigenvalues --   -0.21532  -0.19625  -0.17441
 Alpha virt. eigenvalues --   -0.11496  -0.07406  -0.05773  -0.04154  -0.01114
 Alpha virt. eigenvalues --   -0.00584  -0.00006   0.00455   0.00663   0.01034
 Alpha virt. eigenvalues --    0.01445   0.01582   0.02264   0.02761   0.02822
 Alpha virt. eigenvalues --    0.03113   0.03419   0.03759   0.04342   0.04417
 Alpha virt. eigenvalues --    0.04607   0.05264   0.05503   0.05677   0.06440
 Alpha virt. eigenvalues --    0.06565   0.06968   0.07458   0.07655   0.08122
 Alpha virt. eigenvalues --    0.08152   0.08445   0.08798   0.09101   0.09462
 Alpha virt. eigenvalues --    0.09697   0.10150   0.10392   0.11045   0.11277
 Alpha virt. eigenvalues --    0.11611   0.11702   0.12237   0.12479   0.12854
 Alpha virt. eigenvalues --    0.12932   0.13373   0.13761   0.14349   0.14564
 Alpha virt. eigenvalues --    0.14670   0.14921   0.15279   0.15432   0.15761
 Alpha virt. eigenvalues --    0.16007   0.16134   0.16198   0.16424   0.16696
 Alpha virt. eigenvalues --    0.17007   0.17161   0.17191   0.17383   0.17740
 Alpha virt. eigenvalues --    0.17911   0.18011   0.18176   0.18404   0.18508
 Alpha virt. eigenvalues --    0.18831   0.19053   0.19131   0.19281   0.19488
 Alpha virt. eigenvalues --    0.19788   0.20132   0.20218   0.20379   0.20655
 Alpha virt. eigenvalues --    0.20895   0.21192   0.21495   0.21805   0.21994
 Alpha virt. eigenvalues --    0.22340   0.22481   0.22514   0.22555   0.22715
 Alpha virt. eigenvalues --    0.23346   0.23450   0.23712   0.23802   0.23924
 Alpha virt. eigenvalues --    0.24292   0.24571   0.24900   0.25228   0.25337
 Alpha virt. eigenvalues --    0.25476   0.25643   0.25995   0.26186   0.26538
 Alpha virt. eigenvalues --    0.26801   0.27286   0.27565   0.27695   0.27817
 Alpha virt. eigenvalues --    0.28265   0.28360   0.28920   0.29020   0.29443
 Alpha virt. eigenvalues --    0.29709   0.29818   0.30154   0.30442   0.30697
 Alpha virt. eigenvalues --    0.31018   0.31159   0.31298   0.31740   0.32120
 Alpha virt. eigenvalues --    0.32253   0.32725   0.32824   0.33058   0.33724
 Alpha virt. eigenvalues --    0.33921   0.34657   0.34984   0.35152   0.35961
 Alpha virt. eigenvalues --    0.36268   0.36737   0.37005   0.37040   0.37686
 Alpha virt. eigenvalues --    0.38218   0.38782   0.39268   0.39493   0.39744
 Alpha virt. eigenvalues --    0.40351   0.41056   0.41363   0.41905   0.42410
 Alpha virt. eigenvalues --    0.42858   0.43257   0.43874   0.44176   0.44499
 Alpha virt. eigenvalues --    0.44953   0.45893   0.46691   0.47210   0.47385
 Alpha virt. eigenvalues --    0.48487   0.48585   0.49181   0.50687   0.51147
 Alpha virt. eigenvalues --    0.51351   0.51993   0.52429   0.52736   0.53268
 Alpha virt. eigenvalues --    0.53727   0.54044   0.54376   0.54989   0.55342
 Alpha virt. eigenvalues --    0.55692   0.56087   0.56926   0.57215   0.57515
 Alpha virt. eigenvalues --    0.57637   0.57992   0.58282   0.58734   0.59239
 Alpha virt. eigenvalues --    0.59487   0.60047   0.60543   0.60609   0.61110
 Alpha virt. eigenvalues --    0.61360   0.61657   0.62014   0.62490   0.62566
 Alpha virt. eigenvalues --    0.63194   0.63750   0.64173   0.64626   0.65112
 Alpha virt. eigenvalues --    0.65613   0.65924   0.66379   0.66725   0.66949
 Alpha virt. eigenvalues --    0.67452   0.68216   0.68411   0.68433   0.69088
 Alpha virt. eigenvalues --    0.69281   0.69566   0.70266   0.70446   0.70924
 Alpha virt. eigenvalues --    0.71330   0.71510   0.71943   0.72187   0.72674
 Alpha virt. eigenvalues --    0.73093   0.73226   0.73261   0.73886   0.74666
 Alpha virt. eigenvalues --    0.74965   0.75382   0.75793   0.75948   0.76481
 Alpha virt. eigenvalues --    0.76736   0.76826   0.77687   0.77987   0.78686
 Alpha virt. eigenvalues --    0.79079   0.79774   0.80702   0.81483   0.81841
 Alpha virt. eigenvalues --    0.82441   0.82913   0.83337   0.83862   0.84601
 Alpha virt. eigenvalues --    0.85092   0.87405   0.87690   0.87993   0.88546
 Alpha virt. eigenvalues --    0.88876   0.89675   0.89834   0.90125   0.90502
 Alpha virt. eigenvalues --    0.91678   0.92407   0.92432   0.92769   0.93071
 Alpha virt. eigenvalues --    0.93459   0.93894   0.94552   0.95015   0.95426
 Alpha virt. eigenvalues --    0.96043   0.96135   0.96478   0.96752   0.97269
 Alpha virt. eigenvalues --    0.97650   0.97921   0.98942   0.99148   0.99283
 Alpha virt. eigenvalues --    0.99581   1.00439   1.00904   1.01436   1.01555
 Alpha virt. eigenvalues --    1.01743   1.02482   1.03573   1.03899   1.04424
 Alpha virt. eigenvalues --    1.04906   1.05487   1.06097   1.06746   1.07367
 Alpha virt. eigenvalues --    1.08446   1.08914   1.09504   1.10082   1.10818
 Alpha virt. eigenvalues --    1.11339   1.12327   1.13571   1.13708   1.14294
 Alpha virt. eigenvalues --    1.15740   1.16029   1.16426   1.17175   1.18050
 Alpha virt. eigenvalues --    1.19532   1.20101   1.21391   1.21730   1.23157
 Alpha virt. eigenvalues --    1.23869   1.26394   1.27099   1.27810   1.28380
 Alpha virt. eigenvalues --    1.30782   1.32253   1.32958   1.33946   1.35791
 Alpha virt. eigenvalues --    1.36502   1.37390   1.39267   1.40412   1.41371
 Alpha virt. eigenvalues --    1.41435   1.42403   1.43052   1.43951   1.44924
 Alpha virt. eigenvalues --    1.45793   1.46437   1.46752   1.47322   1.47434
 Alpha virt. eigenvalues --    1.47679   1.48347   1.48930   1.49761   1.50589
 Alpha virt. eigenvalues --    1.50889   1.51328   1.52241   1.52812   1.52857
 Alpha virt. eigenvalues --    1.53980   1.54765   1.55380   1.56276   1.57275
 Alpha virt. eigenvalues --    1.57772   1.57936   1.58896   1.59419   1.60153
 Alpha virt. eigenvalues --    1.60904   1.60998   1.61457   1.62434   1.62700
 Alpha virt. eigenvalues --    1.64322   1.64519   1.66014   1.66667   1.67212
 Alpha virt. eigenvalues --    1.68661   1.69239   1.70204   1.70353   1.71413
 Alpha virt. eigenvalues --    1.71655   1.72591   1.73073   1.73630   1.74221
 Alpha virt. eigenvalues --    1.75579   1.75853   1.76555   1.76765   1.77130
 Alpha virt. eigenvalues --    1.78374   1.78899   1.79428   1.79826   1.80353
 Alpha virt. eigenvalues --    1.81361   1.81657   1.82840   1.83361   1.84304
 Alpha virt. eigenvalues --    1.84855   1.85391   1.86214   1.86393   1.86920
 Alpha virt. eigenvalues --    1.87355   1.88269   1.88680   1.88833   1.89595
 Alpha virt. eigenvalues --    1.90386   1.91051   1.91578   1.91943   1.92309
 Alpha virt. eigenvalues --    1.93037   1.93146   1.93880   1.94833   1.95196
 Alpha virt. eigenvalues --    1.97532   1.98007   1.98564   1.99958   2.00320
 Alpha virt. eigenvalues --    2.00553   2.01503   2.02454   2.03128   2.03773
 Alpha virt. eigenvalues --    2.04463   2.04753   2.05439   2.05817   2.06415
 Alpha virt. eigenvalues --    2.07503   2.08119   2.08878   2.10029   2.10754
 Alpha virt. eigenvalues --    2.12189   2.13270   2.13664   2.14284   2.14537
 Alpha virt. eigenvalues --    2.15223   2.17021   2.17079   2.19109   2.19774
 Alpha virt. eigenvalues --    2.20050   2.21158   2.21724   2.22217   2.22937
 Alpha virt. eigenvalues --    2.23433   2.24468   2.25623   2.26656   2.28076
 Alpha virt. eigenvalues --    2.29229   2.29542   2.30705   2.33315   2.34349
 Alpha virt. eigenvalues --    2.35322   2.37079   2.37588   2.37707   2.39779
 Alpha virt. eigenvalues --    2.40876   2.42062   2.42667   2.44156   2.44491
 Alpha virt. eigenvalues --    2.44948   2.45876   2.47422   2.48498   2.50899
 Alpha virt. eigenvalues --    2.52968   2.53513   2.55268   2.56340   2.57090
 Alpha virt. eigenvalues --    2.58435   2.59305   2.59734   2.61356   2.62212
 Alpha virt. eigenvalues --    2.62858   2.64590   2.66117   2.66771   2.66904
 Alpha virt. eigenvalues --    2.67958   2.69186   2.69971   2.70779   2.70940
 Alpha virt. eigenvalues --    2.71739   2.72006   2.72500   2.73318   2.73539
 Alpha virt. eigenvalues --    2.73579   2.74303   2.74880   2.75619   2.75739
 Alpha virt. eigenvalues --    2.76278   2.76627   2.76834   2.77035   2.77594
 Alpha virt. eigenvalues --    2.77912   2.78288   2.79007   2.79669   2.81188
 Alpha virt. eigenvalues --    2.81734   2.82206   2.83305   2.83785   2.84509
 Alpha virt. eigenvalues --    2.85374   2.85740   2.87395   2.88006   2.88203
 Alpha virt. eigenvalues --    2.89596   2.90780   2.91710   2.92275   2.93837
 Alpha virt. eigenvalues --    2.94705   2.96450   2.97844   2.99212   3.00881
 Alpha virt. eigenvalues --    3.02978   3.03594   3.04512   3.05794   3.06834
 Alpha virt. eigenvalues --    3.07375   3.08424   3.09309   3.11860   3.12377
 Alpha virt. eigenvalues --    3.12894   3.14331   3.15278   3.16314   3.16740
 Alpha virt. eigenvalues --    3.18285   3.18710   3.20424   3.22036   3.24320
 Alpha virt. eigenvalues --    3.26944   3.28381   3.29758   3.32578   3.33823
 Alpha virt. eigenvalues --    3.35578   3.35711   3.36306   3.37431   3.39554
 Alpha virt. eigenvalues --    3.39776   3.41089   3.42519   3.46114   3.46706
 Alpha virt. eigenvalues --    3.48472   3.49388   3.49941   3.52787   3.53560
 Alpha virt. eigenvalues --    3.55255   3.58225   3.62929   3.64003   3.64560
 Alpha virt. eigenvalues --    3.67034   3.68226   3.70882   3.75744   3.77869
 Alpha virt. eigenvalues --    3.80817   3.85726   3.89591   3.94338   3.98017
 Alpha virt. eigenvalues --    4.02118   4.03114   4.05125   4.06763   4.07458
 Alpha virt. eigenvalues --    4.09308   4.10320   4.12545   4.18684   4.24333
 Alpha virt. eigenvalues --    4.29173   4.33094   4.40102   4.43370   4.58785
 Alpha virt. eigenvalues --    4.64767   4.68749   4.70345   4.73242   4.73624
 Alpha virt. eigenvalues --    4.78421   4.82402   4.83849  23.42720  23.58704
 Alpha virt. eigenvalues --   23.67853  23.71860  23.74513  23.75919  23.79065
 Alpha virt. eigenvalues --   23.81418  23.82894  23.83577  23.85147  23.87259
 Alpha virt. eigenvalues --   23.88198  23.90203  23.92275  23.95402  23.95822
 Alpha virt. eigenvalues --   23.97556  23.98217  24.06741  24.15588  24.17489
 Alpha virt. eigenvalues --   24.19585  24.20310  24.20604  24.21817  24.24446
 Alpha virt. eigenvalues --   24.25635  24.26189  24.29231
          Condensed to atoms (all electrons):
               1          2          3          4          5          6
     1  C   14.494368  -0.650597   0.171169  -0.106982  -0.964289   0.724957
     2  C   -0.650597   8.370278   0.305829   0.030170   0.401438  -0.104136
     3  C    0.171169   0.305829   8.842918   0.623664   0.350344   0.427733
     4  C   -0.106982   0.030170   0.623664   7.675900   0.500407   1.000040
     5  C   -0.964289   0.401438   0.350344   0.500407   8.100130  -0.585582
     6  C    0.724957  -0.104136   0.427733   1.000040  -0.585582  11.654247
     7  C   -1.749033   0.128576  -0.635779  -0.405501   2.116530  -3.535128
     8  C    0.106106  -0.257440  -0.307852   0.030950  -0.896980  -0.915932
     9  C   -0.572308   0.222314  -0.299645   0.337927   1.144213   0.025013
    10  C   -0.683854   0.390942   0.904214  -0.062838   0.404528  -0.331893
    11  C   -0.059341  -0.801235  -1.023732  -0.710860   0.211432  -0.171814
    12  C    0.824361  -0.397477   0.785379  -0.922211  -1.911467   0.544180
    13  C   -4.370683  -0.165449  -1.786505  -1.185901  -0.921877   0.056733
    14  C   -0.707698   0.247460   0.009203   0.483548  -0.010500  -0.745655
    15  C    0.033357  -0.153397  -0.206122  -1.531645  -0.675103  -2.053065
    16  C    0.667862   0.754144  -0.055071  -0.314722  -0.322194  -0.143399
    17  C   -0.459044   0.220987   0.533235  -0.174072   0.046782   0.055326
    18  C    0.267407   0.464409  -0.613759  -0.489611  -0.616300  -0.122256
    19  C    0.572932   0.488870   0.465534   0.144209  -0.069604   0.027788
    20  C   -0.524562   0.233548  -0.463814  -0.044832   0.003484  -0.091259
    21  C    0.335924  -0.611504  -0.397711   0.022301   0.083751   0.034315
    22  C    0.442363  -0.935940  -1.061709  -0.053762   0.194191   0.068234
    23  C   -0.812608   0.692847  -0.174707  -0.016757  -0.113227  -0.175139
    24  C   -0.118576  -1.263030   0.395227   0.443927  -0.040089   0.036091
    25  C   -0.007690  -0.061663  -0.074946   0.026983  -0.010414   0.003753
    26  C   -0.465570   0.236270  -0.370075  -0.020015   0.004358  -0.022286
    27  C   -0.867877  -0.122996  -0.068706   0.065326  -0.012900  -0.029693
    28  C    0.855771  -0.015822   0.055922  -0.032375   0.028179   0.092935
    29  C   -0.304989  -1.085333  -0.154853   0.223021  -0.126405  -0.108559
    30  C   -0.134514  -0.202376  -0.389380   0.265522  -0.447108   0.027902
    31  H    0.007229   0.022795   0.022655  -0.031626   0.006046  -0.015216
    32  H    0.054270   0.005903   0.003430  -0.020187   0.009637   0.017754
    33  H   -0.001877   0.001379   0.002418   0.020089  -0.005482  -0.053166
    34  H   -0.004848   0.000904   0.001621   0.014654  -0.009676  -0.084955
    35  H   -0.004037   0.001447  -0.012242  -0.006857   0.023023  -0.019364
    36  H    0.004696  -0.000479  -0.003483  -0.013521   0.021524   0.010474
    37  H    0.007384  -0.010007   0.027476  -0.003795  -0.008592   0.002413
    38  H    0.001562  -0.014677   0.021124   0.005421  -0.002850  -0.000042
    39  H   -0.000497  -0.011031   0.005411  -0.000697   0.000966  -0.000036
    40  H   -0.000523  -0.001874   0.000530   0.000007   0.000056  -0.000010
    41  H   -0.000290   0.002172  -0.000103  -0.000033   0.000019  -0.000006
    42  H    0.000027   0.000365  -0.000035   0.000055   0.000013  -0.000005
    43  H    0.001463  -0.000064   0.000116  -0.000032   0.000018   0.000030
    44  H    0.005005  -0.000016   0.000008  -0.000007   0.000034   0.000044
    45  H    0.040007   0.006014   0.001862  -0.005562   0.001564   0.008870
    46  H    0.135317   0.001776   0.005578   0.018946   0.004230  -0.050498
               7          8          9         10         11         12
     1  C   -1.749033   0.106106  -0.572308  -0.683854  -0.059341   0.824361
     2  C    0.128576  -0.257440   0.222314   0.390942  -0.801235  -0.397477
     3  C   -0.635779  -0.307852  -0.299645   0.904214  -1.023732   0.785379
     4  C   -0.405501   0.030950   0.337927  -0.062838  -0.710860  -0.922211
     5  C    2.116530  -0.896980   1.144213   0.404528   0.211432  -1.911467
     6  C   -3.535128  -0.915932   0.025013  -0.331893  -0.171814   0.544180
     7  C   12.637804   0.713002  -0.250504   0.021611  -0.051112  -1.815644
     8  C    0.713002   8.505049  -1.457374  -0.133556   0.043434   0.426409
     9  C   -0.250504  -1.457374  10.981478   1.008918  -0.867537  -3.396095
    10  C    0.021611  -0.133556   1.008918   9.725763  -1.155174  -1.001568
    11  C   -0.051112   0.043434  -0.867537  -1.155174   9.590991   1.290140
    12  C   -1.815644   0.426409  -3.396095  -1.001568   1.290140  10.850551
    13  C   -0.800486   0.446362   0.188000   0.401958   0.058329   0.163014
    14  C   -0.717559  -0.241204  -0.239516   0.047782   0.056334  -0.136006
    15  C    0.686755  -0.072755  -0.061387  -0.193550  -0.213609   0.147896
    16  C   -0.306522   0.034133  -0.403461  -0.475174  -0.688842   0.381163
    17  C   -0.043895  -0.115290   0.025291  -1.117529   0.254708  -0.378915
    18  C   -0.177476   0.051729  -0.581740   0.762000   0.007142   0.574159
    19  C    0.020659  -0.056721   0.058131  -0.566377  -0.062340  -0.102829
    20  C   -0.023779  -0.000906  -0.023612  -0.145294   0.074996   0.025871
    21  C   -0.003185  -0.001071  -0.039236  -0.085246  -0.023791  -0.004884
    22  C   -0.031361   0.005072  -0.193269  -0.775383   0.233579  -0.007833
    23  C   -0.011925  -0.034944   0.055305  -0.247595  -0.029006  -0.028652
    24  C    0.054036  -0.018188   0.030868  -0.148329   0.011780  -0.020878
    25  C    0.002802  -0.000080  -0.004227  -0.055323  -0.004948  -0.001051
    26  C   -0.006321   0.001542  -0.004096  -0.040136   0.003893   0.004604
    27  C   -0.001405  -0.000761   0.012221  -0.027565  -0.001010   0.001150
    28  C    0.015600   0.000650  -0.005010   0.003487   0.000433  -0.000890
    29  C    0.079878  -0.009290   0.069165  -0.115983  -0.013729   0.000676
    30  C    0.033442   0.015493   0.031298  -0.297192  -0.066004  -0.008264
[...]
 -0.00006896,-0.00000958,-0.00001108,0.00000158,-0.00000364,-0.00000176
 ,-0.00000158,0.00000146,-0.00000393,-0.00000116,-0.00000003,-0.0000029
 0,0.,0.00000253,-0.00000141,-0.00000034,0.00000265,0.00001048,0.000000
 98,0.00000072,-0.00000676,0.00000048,-0.00001374,0.00001119,0.00000711
 ,0.00002614,-0.00001531,0.00004441,-0.00058443,-0.00024221,0.00029507,
 0.07685403,-0.00000481,0.00002439,-0.00004824,0.00002634,0.00001325,-0
 .00000594,0.00000713,-0.00000555,0.00001983,-0.00002357,-0.00001022,0.
 00002892,-0.00000777,-0.00002577,-0.00001646,0.00000421,-0.00003089,0.
 00000158,0.00000514,0.00001143,-0.00000104,0.00001088,-0.00000310,0.00
 000544,-0.00000762,-0.00000520,0.00000468,-0.00000558,-0.00000046,0.00
 000269,-0.00000339,0.00000600,-0.00000063,-0.00000309,0.00000447,0.000
 00011,-0.00007455,-0.00002734,0.00015108,-0.00003272,-0.00006485,-0.00
 001242,0.00002030,0.00003813,-0.00000258,0.00033307,-0.00005738,-0.000
 11533,-0.00005197,-0.00010285,0.00005125,0.00003886,0.00001296,-0.0000
 0222,-0.00080613,-0.00072399,0.00014617,-0.00010102,0.00019674,-0.0000
 1940,0.00002740,0.00005163,-0.00000046,0.00005104,0.00002229,-0.000012
 68,0.00318694,0.00033924,-0.00149508,-0.00659860,-0.01770168,-0.001370
 90,-0.00245058,0.00039283,0.00150001,0.00048886,0.00031125,-0.00008344
 ,-0.06791281,-0.31293901,-0.02490092,0.00035773,-0.00530981,-0.0016203
 0,-0.00230341,0.00179266,-0.00025948,0.00035299,0.00041895,0.00014432,
 0.00002307,0.00002263,-0.00000143,-0.00000161,0.00000859,-0.00003102,-
 0.00000871,-0.00001291,-0.00000341,-0.00000654,-0.00000196,-0.00000121
 ,-0.00000060,-0.00000501,-0.00000144,-0.00000057,-0.00000479,-0.000001
 45,0.00000484,-0.00000333,-0.00000173,0.00000524,-0.00001372,-0.000004
 37,0.00000503,-0.00000143,-0.00000522,0.00002802,-0.00000632,-0.000011
 75,0.00004748,-0.00004312,-0.00004702,0.00082215,0.00100104,-0.0002515
 3,0.07458505,0.33230466,-0.00002134,0.00009619,0.00005803,0.00004042,0
 .00000625,0.00001995,-0.00001861,0.00001604,-0.00001687,-0.00000806,0.
 00003938,-0.00002762,0.00001364,-0.00000831,-0.00002373,-0.00002108,0.
 00004309,-0.00001668,-0.00000605,-0.00002468,-0.00000189,-0.00002075,0
 .00001400,-0.00000448,0.00002107,0.00001058,0.00000869,0.00000501,-0.0
 0000323,0.00000964,-0.00000034,0.00001419,-0.00000006,-0.00001080,-0.0
 0000748,0.00000140,-0.00013575,0.00026506,-0.00067303,0.00004493,0.000
 00629,0.00002354,-0.00003645,-0.00005222,-0.00002635,0.00020472,0.0000
 2964,0.00011259,-0.00002316,-0.00003806,0.00001686,0.00000788,-0.00001
 500,-0.00003812,-0.00007554,-0.00051148,0.00014624,-0.00007678,-0.0001
 2427,0.00007273,-0.00000726,0.00001737,0.00000256,-0.00000260,-0.00000
 917,-0.00002420,0.00124710,-0.00234589,0.00422589,-0.00346165,-0.00644
 450,0.00230764,-0.00129113,-0.00064853,-0.00305487,-0.00004960,0.00030
 551,0.00005626,0.00270420,-0.02479283,-0.03986606,0.00032060,0.0059968
 6,0.00494866,0.00319519,-0.00044906,0.00702717,0.00132377,-0.00026067,
 -0.00123042,-0.00000633,-0.00014584,-0.00004296,0.00001214,-0.00000496
 ,0.00001348,0.00000015,0.00000006,0.00000338,-0.00000012,-0.00000018,0
 .00000147,-0.00000197,0.00000034,0.00000123,-0.00000075,-0.00000011,0.
 00000057,0.00000049,-0.00000065,0.00000062,0.00000354,-0.00000671,0.00
 001065,0.00000139,0.00000015,0.00000075,0.00001256,-0.00000237,0.00000
 858,0.00005165,-0.00000717,0.00014970,0.00040771,0.00021476,0.00014226
 ,-0.00301632,0.02758531,0.02943392,-0.00002795,-0.00001963,-0.00002538
 ,-0.00004099,0.00001827,-0.00002335,-0.00000082,-0.00000793,0.00000725
 ,-0.00001955,-0.00002212,0.00003544,0.00000436,0.00001411,0.00001113,0
 .00003396,-0.00000336,0.00000842,-0.00000449,0.00000797,-0.00000584,0.
 00001163,-0.00000760,-0.00000044,-0.00003063,0.00002281,-0.00001104,0.
 00001166,0.00005223,-0.00001218,-0.00001680,-0.00004197,-0.00000066,0.
 00004247,-0.00000282,-0.00000338,0.00019142,-0.00026353,-0.00011909,0.
 00000440,0.00003860,-0.00000981,-0.00001911,0.00001178,0.00000626,-0.0
 0003532,0.00002841,0.00001388,0.00003424,0.00007786,-0.00001460,-0.000
 00743,-0.00004768,0.00000642,0.00018142,0.00005131,-0.00027281,0.00002
 328,-0.00027004,0.00000542,-0.00001152,0.00008779,0.00001269,-0.000039
 52,-0.00005513,0.00001694,-0.00042398,-0.00055338,-0.00018514,-0.00313
 778,-0.00368854,0.00275249,-0.00037847,0.00136261,0.00022583,-0.000561
 14,-0.00015026,0.00004330,-0.01505433,0.02163607,0.00880983,-0.1960017
 9,0.12342090,0.06543449,0.00840617,-0.00684664,-0.00275591,0.00098189,
 -0.00231011,0.00060650,0.00000119,0.00000556,-0.00000365,-0.00000437,0
 .00000474,0.00004589,0.00000444,0.00000385,0.00000119,0.00000290,0.000
 00062,0.00000114,0.00000136,0.00000606,0.00000154,0.00000141,0.0000043
 2,0.00000210,-0.00000351,0.00000189,0.00000323,-0.00000369,0.00000368,
 0.00000164,-0.00000347,0.00000704,-0.00000019,0.00000194,-0.00000490,0
 .00000170,-0.00011950,0.00009108,0.00005172,-0.00000190,-0.00006313,0.
 00001362,0.00060701,-0.00011184,-0.00144932,0.20470111,-0.00031661,-0.
 00017926,-0.00030897,0.00001185,-0.00000887,0.00004194,0.00007662,0.00
 001056,-0.00000282,0.00009448,-0.00007226,0.00013122,-0.00007927,-0.00
 005677,0.00000754,0.00001327,0.00002953,-0.00002949,0.00000942,0.00001
 287,0.00000388,0.00000696,0.00000660,0.00000337,0.00001749,0.00001537,
 0.00001558,-0.00000527,0.00000551,0.00000062,0.00000181,-0.00003521,-0
 .00000330,0.00002764,0.00000734,-0.00000862,0.00112665,-0.00048306,-0.
 00011530,0.00012971,0.00000789,0.00006732,-0.00005255,0.00001743,-0.00
 002942,-0.00003098,0.00004742,-0.00000252,0.00002933,-0.00000732,-0.00
 000576,-0.00000086,-0.00000572,0.00000216,0.00027494,0.00002334,0.0001
 3169,-0.00005999,-0.00021924,-0.00000864,-0.00002283,0.00005985,-0.000
 01526,-0.00002844,-0.00004299,0.00001566,-0.00092809,-0.00027198,0.000
 24487,-0.00293321,0.00041353,-0.00064566,-0.00001929,0.00034438,-0.000
 03581,-0.00014101,0.00015760,0.00016074,-0.00836695,0.01037064,0.00340
 869,0.12357148,-0.17105172,-0.05845413,0.02314264,-0.01408686,-0.00880
 664,-0.00303466,-0.00364281,-0.00184335,-0.00004895,-0.00021596,-0.000
 09580,-0.00002344,-0.00001717,0.00002628,-0.00001332,-0.00003136,-0.00
 001086,-0.00000529,-0.00000476,-0.00000347,-0.00000083,-0.00000796,-0.
 00000183,0.00000243,-0.00000631,-0.00000112,0.00000306,-0.00000230,0.0
 0000073,0.00000351,-0.00000263,-0.00000314,0.00000298,-0.00000259,-0.0
 0000111,0.00000762,0.00000111,-0.00000222,-0.00003832,0.00002421,0.000
 02159,-0.00001204,-0.00001720,-0.00002539,0.00073734,0.00056905,0.0007
 2996,-0.13306143,0.17751675,-0.00004217,-0.00003823,-0.00008122,0.0000
 2152,0.00002333,-0.00004762,0.00001914,-0.00002966,0.00000650,-0.00006
 034,-0.00006688,0.00010609,-0.00001778,0.00004444,-0.00000572,0.000043
 67,-0.00000770,0.00000398,0.00000046,0.00001960,-0.00000655,0.00001911
 ,0.00000044,0.,0.00000328,-0.00002252,-0.00000808,-0.00003681,-0.00000
 840,0.00000933,0.00001043,0.00001735,-0.00000335,-0.00001718,-0.000002
 81,0.00000187,0.00014515,-0.00000791,-0.00007644,0.00000900,-0.0000484
 9,-0.00007203,-0.00002495,0.00001432,-0.00000988,-0.00006760,0.0000161
 4,0.00003908,-0.00000270,-0.00000863,0.00002571,0.00000895,0.00001903,
 -0.00000403,-0.00025695,0.00007602,-0.00085582,0.00015403,0.00014863,0
 .00009625,0.00000515,0.00000105,0.00004390,0.00001193,0.00000842,-0.00
 000954,-0.00023914,0.00008875,-0.00058187,0.00270883,0.00045196,0.0078
 4656,-0.00012215,-0.00029159,0.00020101,0.00003404,-0.00006219,-0.0005
 7331,0.00383239,-0.00452478,0.00206416,0.06507111,-0.05778667,-0.06491
 005,0.00317441,-0.00257939,0.00153266,-0.00003813,-0.00150796,0.005410
 64,0.00004743,-0.00004397,0.00001244,0.00003204,0.00005926,0.00003357,
 -0.00000518,-0.00000766,0.00000269,-0.00000196,-0.00000098,0.00000040,
 -0.00000043,-0.00000302,0.00000079,-0.00000030,-0.00000188,0.00000087,
 0.00000135,-0.00000134,0.00000099,0.00000300,0.00000129,0.00000395,0.0
 0000086,-0.00000185,0.00000085,-0.00000075,0.00000218,-0.00000009,0.00
 002535,-0.00002522,-0.00001220,0.00004845,-0.00000030,0.00009902,-0.00
 133046,0.00082531,-0.00408337,-0.07246725,0.06449531,0.05655805,-0.000
 03451,0.00034106,0.00019451,-0.00008732,0.00011215,-0.00007711,0.00000
 459,-0.00013475,0.00002762,-0.00013234,0.00009670,-0.00025989,0.000123
 52,0.00001957,0.00002682,-0.00004892,-0.00051229,0.00015623,0.00002480
 ,0.00014388,0.00013762,0.00007589,-0.00013449,0.00000207,-0.00018752,0
 .00002430,-0.00003349,0.00003348,0.00011988,-0.00003087,-0.00006236,-0
 .00008745,0.00000248,0.00012087,0.00000233,0.00000604,-0.00147019,-0.0
 0123791,-0.00095821,-0.00044027,-0.00356901,-0.00120087,0.00078183,-0.
 00010652,-0.00034885,-0.00000058,-0.00021070,0.00008846,-0.00003557,0.
 00008488,-0.00001641,-0.00000007,-0.00008129,0.00001678,-0.00045327,-0
 .00071007,0.00013773,-0.00020057,0.00033981,-0.00011107,-0.00001375,-0
 .00004025,0.00001565,-0.00007252,-0.00000495,0.00002015,-0.00010081,0.
 00293780,0.00204167,0.00056216,0.00030854,-0.00032474,-0.00004579,-0.0
 0003768,-0.00009339,0.00002492,0.00000670,0.00001437,0.00142874,-0.001
 71841,0.00034652,-0.00370187,0.00023010,0.00142615,-0.31458746,-0.0742
 7782,0.03654008,-0.01778245,-0.00479275,0.00296776,-0.00004205,0.00005
 669,0.00006038,0.00033732,-0.00087963,-0.00082670,-0.00005791,-0.00004
 152,0.00001894,-0.00000597,-0.00000560,-0.00000610,0.00001949,-0.00000
 080,-0.00001752,0.00000041,0.00000095,0.00000372,0.00000054,0.00000008
 ,0.00000420,-0.00000138,0.00000521,0.00000086,0.00000039,0.00000748,-0
 .00000240,-0.00003384,0.00001735,0.00000622,-0.00001564,-0.00000731,0.
 00001188,0.00000263,-0.00001295,0.00001146,-0.00028683,0.00007820,0.00
 015293,0.00070908,-0.00004105,-0.00068539,0.33541549,-0.00017042,-0.00
 006915,-0.00022226,0.00019684,-0.00005624,0.00002038,-0.00005058,0.000
 21482,-0.00004963,-0.00008742,-0.00041657,0.00011661,-0.00018803,0.000
 06145,0.00001522,0.00027203,0.00031749,0.00014897,-0.00007314,-0.00018
 137,0.00002458,-0.00003853,0.00015022,-0.00002658,0.00015923,-0.000085
 90,0.00002127,-0.00005320,-0.00016417,0.00001956,0.00007003,0.00011059
 ,0.00000612,-0.00014102,-0.00000512,-0.00000201,0.00059374,-0.00024525
 ,0.00115710,-0.00016998,-0.00427863,-0.00235263,-0.00018911,-0.0004569
 8,-0.00011913,-0.00002648,0.00017570,-0.00006406,-0.00001700,-0.000111
 04,0.00001281,-0.00000443,0.00014329,-0.00002477,0.00056600,0.00073316
 ,-0.00003767,0.00025261,-0.00003191,0.00013619,0.00007843,-0.00001760,
 -0.00000921,0.00008628,0.00006848,-0.00003161,0.00225211,-0.00289326,-
 0.00264018,0.00061227,-0.00053593,-0.00015310,-0.00028731,-0.00000593,
 0.00027062,0.00015402,-0.00017283,-0.00010349,-0.00066551,-0.00528718,
 -0.00230654,-0.03097900,-0.00608381,0.00346887,-0.07540995,-0.07502399
 ,0.00402688,0.02045965,0.00920792,-0.00258251,-0.00021255,0.00027208,0
 .00023511,-0.00080262,-0.00272890,0.00051618,0.00007667,0.00015335,-0.
 00000979,0.00000942,0.00000505,0.00000918,-0.00001248,0.00001085,-0.00
 000440,-0.00000137,0.00000543,-0.00000246,-0.00000524,0.00000495,-0.00
 000334,-0.00000070,-0.00000359,0.00000703,-0.00000103,-0.00000362,0.00
 000117,0.00002789,-0.00002030,-0.00000927,-0.00000632,0.00000489,-0.00
 000721,0.00006616,0.00005667,-0.00001706,-0.00126677,-0.00043785,0.000
 49850,0.00058260,0.00082136,0.00080922,0.08488213,0.08793215,-0.000066
 02,0.00036720,0.00037323,0.00013187,0.00011533,0.00000371,-0.00002264,
 -0.00005303,0.00000655,0.00010764,0.00031934,-0.00016635,0.00011487,-0
 .00011175,-0.00009602,-0.00022465,0.00032656,-0.00006397,-0.00004955,-
 0.00012344,0.00000783,-0.00013545,0.00007007,-0.00001837,0.00010311,0.
 00012241,0.00003276,-0.00002375,0.00005514,0.00002023,-0.00003796,-0.0
 0000666,-0.00000458,0.00001534,-0.00003391,0.00000286,0.00007116,0.002
 29893,-0.00400508,0.00041902,-0.00073306,0.00121842,-0.00029975,-0.000
 46486,-0.00044232,-0.00001395,-0.00030942,0.00006981,-0.00013835,0.000
 02602,0.00001839,-0.00000720,-0.00002146,0.00000306,-0.00006801,0.0010
 9526,0.00052986,0.00020094,0.00000300,-0.00048565,0.00006695,-0.000052
 70,-0.00009386,0.00008408,0.00009949,-0.00003146,0.00377951,-0.0024233
 0,0.00577338,0.00056065,-0.00121245,-0.00135133,-0.00053760,0.00010085
 ,-0.00046290,0.00007850,-0.00033738,0.00018598,-0.00039954,-0.00224482
 ,0.00536593,-0.00460370,0.00004900,0.00459143,0.03618822,0.00055355,-0
 .04325382,0.00557317,0.00348737,0.00339184,0.00006361,-0.00108031,-0.0
 0028873,0.00037735,0.00065942,0.00006860,0.00001837,-0.00002164,0.0000
 0202,0.00000408,0.00000026,0.00000951,-0.00000855,0.00000836,0.0000004
 0,-0.00000168,0.00000280,0.00000205,-0.00000112,-0.00000251,0.00000486
 ,-0.00000089,-0.00000254,-0.00000118,0.00000315,-0.00000127,0.00001108
 ,0.00002447,-0.00001586,-0.00001837,0.00002107,0.00000273,0.00003090,0
 .00003734,0.00003046,0.00000465,-0.00033021,-0.00016826,0.00035643,-0.
 00074109,0.00098225,-0.00276880,-0.03955998,-0.00018836,0.03237296,-0.
 00586341,-0.00277248,0.00226799,-0.00050435,0.00142553,-0.00100443,-0.
 00098311,-0.00010529,-0.00000973,-0.00021503,-0.00026649,-0.00001848,0
 .00036967,0.00023457,0.00011379,-0.00018632,-0.00279464,-0.00053994,0.
 00051749,0.00026865,-0.00055467,0.00010746,-0.00041171,0.00010143,-0.0
 0030056,-0.00014250,-0.00013042,0.00025131,0.00010330,-0.00001524,-0.0
 0005995,0.00015277,0.00003467,-0.00007672,0.00000279,0.00001375,-0.016
 27641,0.01938955,-0.01854426,-0.12093161,0.08488480,-0.08128550,0.0054
 0940,-0.00651214,0.00745147,0.00026569,0.00029214,-0.00008747,-0.00005
 568,0.00005784,0.00006515,-0.00003182,-0.00010919,0.00000552,0.0000939
 9,-0.00001085,-0.00002039,0.00002624,-0.00003152,-0.00002234,-0.000050
 73,0.00001380,0.00001835,-0.00000549,-0.00000101,-0.00000473,-0.000205
 58,-0.00040116,0.00016608,-0.00011934,0.00010591,0.00011265,0.00001900
 ,-0.00009041,-0.00002554,0.00004518,0.00005588,-0.00000940,0.00017149,
 0.00001342,-0.00008199,0.00015193,-0.00033015,0.00001536,-0.00003851,0
 .00000532,0.00033072,0.00010544,0.00094707,0.00017410,0.00160578,0.000
 45004,0.00015915,0.00336343,-0.00441589,0.00357903,0.00075205,0.000121
 85,0.00035970,-0.00000733,-0.00000233,-0.00000788,0.00002791,-0.000019
 60,0.00010388,-0.00001288,0.00001614,-0.00000532,0.00000408,0.00002108
 ,0.00001065,-0.00001578,-0.00000205,-0.00000984,-0.00001028,-0.0000048
 9,0.00000422,-0.00000313,-0.00000349,-0.00000024,-0.00000049,-0.000006
 60,0.00000331,-0.00000918,-0.00000719,-0.00001093,0.00002302,0.0000074
 8,-0.00002932,-0.00000933,-0.00002654,-0.00001343,0.00023562,-0.000537
 92,-0.00077283,0.13242686,-0.00063964,0.00018811,0.00014897,-0.0004200
 3,0.00033298,-0.00011207,-0.00004504,-0.00020709,0.00003243,-0.0008178
 2,0.00017604,0.00011943,0.00015041,0.00010255,0.00011815,-0.00333069,-
 0.00476681,-0.00070166,0.00147131,-0.00021652,-0.00058351,-0.00007955,
 -0.00058169,0.00001690,-0.00028914,-0.00003470,-0.00011673,0.00004421,
 0.00009183,-0.00003437,-0.00004725,-0.00002894,0.00000883,0.00007755,0
 .00002423,0.00000683,-0.00178362,0.00223275,-0.00333427,0.08425588,-0.
 14432882,0.09572808,0.01674499,-0.02074446,0.01790068,0.00009181,0.000
 01845,-0.00000243,-0.00000360,0.00000320,-0.00001458,0.00003045,-0.000
 03950,0.00000419,-0.00002142,-0.00008199,0.00002886,0.00004813,0.00005
 945,-0.00004353,0.00000967,0.00002365,-0.00000753,-0.00003329,-0.00000
 876,0.00000504,0.00000956,-0.00005332,0.00021166,0.00006116,0.00005511
 ,-0.00003253,-0.00009136,0.00005088,-0.00000029,-0.00000082,-0.0000938
 6,0.00000401,0.00001731,-0.00001999,0.00004882,-0.00012173,0.00004473,
 -0.00000841,-0.00010849,-0.00040879,-0.00094514,-0.00004927,0.00037968
 ,0.00014158,0.00037153,0.00028272,-0.00037624,-0.00466998,0.00465033,-
 0.00445277,-0.00015494,0.00123482,-0.00049788,-0.00004813,-0.00004877,
 0.00000727,0.00008762,-0.00011188,0.00013556,-0.00000303,-0.00000741,0
 .00000195,0.00001026,-0.00000171,-0.00000076,0.00000708,-0.00000014,0.
 00000096,0.00000469,-0.00000204,0.00000097,0.00000492,0.00000623,-0.00
 000036,0.00000736,0.00000137,0.00000346,0.00000126,0.00000453,0.000002
 91,-0.00000368,-0.00000364,0.00001383,-0.00001014,0.00000999,-0.000042
 02,-0.00117061,-0.00113277,-0.00116681,-0.08956391,0.16294998,0.001617
 68,0.00015079,0.00041828,0.00032636,-0.00028750,0.00057606,-0.00000270
 ,0.00014035,-0.00007057,0.00053533,0.00002511,0.00012611,0.00003392,-0
 .00003323,0.00005927,-0.00114772,-0.00023983,0.00028519,0.00021019,-0.
 00069658,0.00011723,-0.00034858,0.00011903,-0.00009891,0.00033935,0.00
 001055,0.00006076,-0.00002712,-0.00019853,-0.00005611,0.00012160,0.000
 15383,-0.00000094,-0.00021932,0.00000419,-0.00000930,0.00465741,-0.005
 20022,0.00322755,-0.08165909,0.09675875,-0.13648945,0.00389524,-0.0072
 9703,0.00322507,-0.00004141,0.00006674,0.00001718,-0.00000432,-0.00007
 031,-0.00001247,0.00001265,0.00007711,-0.00000740,0.00001417,0.0000599
 8,0.00000497,0.00000285,0.00003889,0.00000794,0.00000197,-0.00005268,0
 .00000623,0.00006517,0.00002788,-0.00002413,-0.00001543,-0.00014578,-0
 .00021393,0.00002847,0.00001467,0.00002179,-0.00006265,-0.00006701,0.0
 0003058,0.00008479,-0.00002789,-0.00002626,-0.00003635,0.00014885,-0.0
 0003198,0.00051094,-0.00008148,-0.00002796,-0.00097327,0.00022957,0.00
 070481,-0.00010766,0.00015581,0.00017281,-0.00028923,-0.00058020,0.000
 88577,-0.01621653,0.01891590,-0.01858200,0.00042732,0.00066600,0.00024
 625,0.00000364,0.00001245,0.00002001,0.00000770,-0.00001893,-0.0000056
 7,-0.00000431,0.00000469,-0.00000689,-0.00000179,-0.00000356,0.0000062
 4,-0.00000011,-0.00000026,0.00000427,-0.00000004,-0.00000121,0.0000010
 6,0.00000113,-0.00000423,-0.00000013,0.00000315,-0.00000366,-0.0000006
 8,-0.00000344,0.00000082,0.00000038,0.00005188,0.00003065,-0.00003020,
 -0.00001889,-0.00003076,0.00000860,0.00011370,-0.00055427,-0.00090592,
 0.08811336,-0.10221749,0.14636649\\-0.00000145,-0.00000341,0.00001027,
 -0.00000668,-0.00001610,-0.00001929,-0.00000921,0.00000682,-0.00000565
 ,0.00000506,-0.00000221,-0.00001011,0.00000472,-0.00000938,-0.00001516
 ,0.00000045,0.00000494,-0.00000967,0.00000061,-0.00000196,0.00001056,-
 0.00000535,0.00000371,0.00000289,0.00001515,0.00000853,0.00000432,0.00
 000104,-0.00000652,0.00001152,0.00001344,0.00000987,-0.00001997,-0.000
 02195,0.00000103,0.00001740,-0.00000171,0.00000240,0.00000939,-0.00000
 665,-0.00000560,-0.00000068,0.00000261,-0.00000186,-0.00000771,-0.0000
 0282,0.00001300,0.00001830,-0.00000180,0.00000191,-0.00000732,0.000000
 61,-0.00000567,0.00000288,0.00007062,-0.00004169,0.00000909,-0.0000105
 3,-0.00002070,0.00000974,-0.00000405,-0.00000140,-0.00001070,0.0000028
 5,0.00000146,0.00000063,-0.00008133,0.00003631,0.00001406,-0.00003606,
 0.00002348,0.00001307,0.00002306,-0.00000358,-0.00000494,-0.00001067,0
 .00003019,0.00000257,0.00003757,-0.00002023,-0.00001540,-0.00001305,-0
 .00005013,-0.00000411,-0.00000865,0.00006189,0.00001328,0.00004499,-0.
 00001007,-0.00003068,-0.00000016,-0.00000193,-0.00000159,-0.00000373,0
 .00000425,0.00000203,0.00000241,-0.00000026,0.00000080,-0.00000139,0.0
 0000050,-0.00000227,0.00000195,-0.00000136,-0.00000112,-0.00000100,0.0
 0000011,0.00000132,0.00000231,-0.00000031,0.00000584,0.00000178,-0.000
 00039,0.00000718,-0.00000144,-0.00000054,-0.00000031,0.00000202,0.0000
 0067,0.00000515,0.00000068,-0.00000184,0.00000495,-0.00000198,0.000000
 58,-0.00000038,-0.00000694,0.00000177,-0.00000289,0.00000194,0.0000057
 4,-0.00000720,0.00000382,-0.00000266,0.00000279,-0.00000112,-0.0000093
 5,-0.00000290\\\@


 THE UNDERLYING PHYSICAL LAWS NECESSARY FOR THE 
 MATHEMATICAL THEORY OF A LARGE PART OF PHYSICS AND THE
 WHOLE OF CHEMISTRY ARE THUS COMPLETELY KNOWN, AND THE
 DIFFICULTY IS ONLY THAT THE EXACT APPLICATION OF THESE
 LAWS LEADS TO EQUATIONS MUCH TOO COMPLICATED 
 TO BE SOLUBLE.

                                        -- P. A. M. DIRAC, 1929
 Job cpu time:       1 days  1 hours  6 minutes 31.1 seconds.
 Elapsed time:       0 days  1 hours 15 minutes 32.2 seconds.
 File lengths (MBytes):  RWF=   2289 Int=      0 D2E=      0 Chk=     53 Scr=      1
 Normal termination of Gaussian 16 at Tue Jun 25 20:23:45 2019.
