 Entering Gaussian System, Link 0=/share/apps/gaussian16/g16/g16
 Initial command:
 /share/apps/gaussian16/g16/l1.exe "/home/amen01//scratch/626/Gau-16708.inp" -scrdir="/home/amen01//scratch/626/"
 Entering Link 1 = /share/apps/gaussian16/g16/l1.exe PID=     16709.
  
 Copyright (c) 1988-2017, Gaussian, Inc.  All Rights Reserved.
  
 This is part of the Gaussian(R) 16 program.  It is based on
 the Gaussian(R) 09 system (copyright 2009, Gaussian, Inc.),
 the Gaussian(R) 03 system (copyright 2003, Gaussian, Inc.),
 the Gaussian(R) 98 system (copyright 1998, Gaussian, Inc.),
 the Gaussian(R) 94 system (copyright 1995, Gaussian, Inc.),
 the Gaussian 92(TM) system (copyright 1992, Gaussian, Inc.),
 the Gaussian 90(TM) system (copyright 1990, Gaussian, Inc.),
 the Gaussian 88(TM) system (copyright 1988, Gaussian, Inc.),
 the Gaussian 86(TM) system (copyright 1986, Carnegie Mellon
 University), and the Gaussian 82(TM) system (copyright 1983,
 Carnegie Mellon University). Gaussian is a federally registered
 trademark of Gaussian, Inc.
  
 This software contains proprietary and confidential information,
 including trade secrets, belonging to Gaussian, Inc.
  
 This software is provided under written license and may be
 used, copied, transmitted, or stored only in accord with that
 written license.
  
 The following legend is applicable only to US Government
 contracts under FAR:
  
                    RESTRICTED RIGHTS LEGEND
  
 Use, reproduction and disclosure by the US Government is
 subject to restrictions as set forth in subparagraphs (a)
 and (c) of the Commercial Computer Software - Restricted
 Rights clause in FAR 52.227-19.
  
 Gaussian, Inc.
 340 Quinnipiac St., Bldg. 40, Wallingford CT 06492
  
  
 ---------------------------------------------------------------
 Warning -- This program may not be used in any manner that
 competes with the business of Gaussian, Inc. or will provide
 assistance to any competitor of Gaussian, Inc.  The licensee
 of this program is prohibited from giving any competitor of
 Gaussian, Inc. access to this program.  By using this program,
 the user acknowledges that Gaussian, Inc. is engaged in the
 business of creating and licensing software in the field of
 computational chemistry and represents and warrants to the
 licensee that it is not a competitor of Gaussian, Inc. and that
 it will not use this program in any manner prohibited above.
 ---------------------------------------------------------------
  

 Cite this work as:
 Gaussian 16, Revision B.01,
 M. J. Frisch, G. W. Trucks, H. B. Schlegel, G. E. Scuseria, 
 M. A. Robb, J. R. Cheeseman, G. Scalmani, V. Barone, 
 G. A. Petersson, H. Nakatsuji, X. Li, M. Caricato, A. V. Marenich, 
 J. Bloino, B. G. Janesko, R. Gomperts, B. Mennucci, H. P. Hratchian, 
 J. V. Ortiz, A. F. Izmaylov, J. L. Sonnenberg, D. Williams-Young, 
 F. Ding, F. Lipparini, F. Egidi, J. Goings, B. Peng, A. Petrone, 
 T. Henderson, D. Ranasinghe, V. G. Zakrzewski, J. Gao, N. Rega, 
 G. Zheng, W. Liang, M. Hada, M. Ehara, K. Toyota, R. Fukuda, 
 J. Hasegawa, M. Ishida, T. Nakajima, Y. Honda, O. Kitao, H. Nakai, 
 T. Vreven, K. Throssell, J. A. Montgomery, Jr., J. E. Peralta, 
 F. Ogliaro, M. J. Bearpark, J. J. Heyd, E. N. Brothers, K. N. Kudin, 
 V. N. Staroverov, T. A. Keith, R. Kobayashi, J. Normand, 
 K. Raghavachari, A. P. Rendell, J. C. Burant, S. S. Iyengar, 
 J. Tomasi, M. Cossi, J. M. Millam, M. Klene, C. Adamo, R. Cammi, 
 J. W. Ochterski, R. L. Martin, K. Morokuma, O. Farkas, 
 J. B. Foresman, and D. J. Fox, Gaussian, Inc., Wallingford CT, 2016.
 
 ******************************************
 Gaussian 16:  ES64L-G16RevB.01 20-Dec-2017
                25-Jun-2019 
 ******************************************
 %nprocshared=20
 Will use up to   20 processors via shared memory.
 %mem=100GB
 %chk=7-memb2-hadd-3b.chk
 -------------------------------------------
 # opt freq b3lyp/6-311+g(d,p) int=grid=fine
 -------------------------------------------
 1/18=20,19=15,26=3,38=1/1,3;
 2/9=110,12=2,17=6,18=5,40=1/2;
 3/5=4,6=6,7=111,11=2,25=1,30=1,71=1,74=-5,75=-4/1,2,3;
 4//1;
 5/5=2,38=5/2;
 6/7=2,8=2,9=2,10=2,28=1/1;
 7//1,2,3,16;
 1/18=20,19=15,26=3/3(2);
 2/9=110/2;
 99//99;
 2/9=110/2;
 3/5=4,6=6,7=111,11=2,25=1,30=1,71=1,74=-5,75=-4/1,2,3;
 4/5=5,16=3,69=1/1;
 5/5=2,38=5/2;
 7//1,2,3,16;
 1/18=20,19=15,26=3/3(-5);
 2/9=110/2;
 6/7=2,8=2,9=2,10=2,19=2,28=1/1;
 99/9=1/99;
 ---------------
 7-memb2-hadd-3b
 ---------------
 Symbolic Z-matrix:
 Charge =  0 Multiplicity = 1
 C                    -3.92257   0.32319   0.34119 
 C                    -2.49615   0.08749   0.43538 
 C                    -2.37504  -1.35842   0.36993 
 C                    -4.57796  -0.96044   0.16278 
 C                    -3.67127  -1.93671   0.19896 
 C                    -5.98324  -1.24611   0.11282 
 C                    -6.37543  -2.66742  -0.01302 
 C                    -5.43407  -3.65896  -0.00819 
 C                    -3.9991   -3.32909   0.11812 
 C                    -1.27073  -2.11182   0.39766 
 C                    -1.53401  -3.56485   0.29856 
 C                    -2.91555  -4.14469   0.16852 
 C                    -4.66651   1.41494   0.55523 
 C                    -6.12877   1.20035   0.39733 
 C                    -6.75995  -0.14358   0.22183 
 C                    -1.43063   0.90157   0.41682 
 C                    -0.10033   0.17084   0.34195 
 C                    -0.04501  -1.3176    0.47142 
 C                    -1.55866   2.37505   0.21679 
 C                    -0.308     3.03877  -0.28306 
 C                     0.94966   2.29531  -0.22798 
 C                     1.01543   0.87588   0.06889 
 C                    -2.70557   3.10927   0.41948 
 C                    -2.7415    4.50579  -0.09051 
 C                    -1.55731   5.04124  -0.74516 
 C                    -0.31859   4.30623  -0.73595 
 C                    -3.83766   5.28034  -0.01298 
 C                    -5.03017   4.89657   0.68839 
 C                    -4.92126   3.75732   1.64122 
 C                    -3.97571   2.62722   1.167 
 H                    -7.84253  -0.19414   0.20056 
 H                    -7.43109  -2.90128  -0.09774 
 H                    -5.71793  -4.70198  -0.09332 
 H                    -3.0028   -5.22395   0.11522 
 H                    -0.69241  -4.24814   0.29185 
 H                     0.91114  -1.826     0.44859 
 H                     1.98566   0.39815  -0.02074 
 H                     1.87653   2.79665  -0.48675 
 H                     0.57387   4.80824  -1.0923 
 H                    -1.5712    6.02609  -1.19774 
 H                    -3.84919   6.27706  -0.44844 
 H                    -5.85094   5.60012   0.76371 
 H                    -4.54222   4.16485   2.58959 
 H                    -3.58828   2.24121   2.12758 
 H                    -6.77508   2.06244   0.27041 
 H                    -5.92131   3.38218   1.87979 
 

 GradGradGradGradGradGradGradGradGradGradGradGradGradGradGradGradGradGrad
 Berny optimization.
 Initialization pass.
                           ----------------------------
                           !    Initial Parameters    !
                           ! (Angstroms and Degrees)  !
 --------------------------                            --------------------------
 ! Name  Definition              Value          Derivative Info.                !
 --------------------------------------------------------------------------------
 ! R1    R(1,2)                  1.4488         estimate D2E/DX2                !
 ! R2    R(1,4)                  1.4523         estimate D2E/DX2                !
 ! R3    R(1,13)                 1.3383         estimate D2E/DX2                !
 ! R4    R(2,3)                  1.4524         estimate D2E/DX2                !
 ! R5    R(2,16)                 1.341          estimate D2E/DX2                !
 ! R6    R(3,5)                  1.4296         estimate D2E/DX2                !
 ! R7    R(3,10)                 1.3371         estimate D2E/DX2                !
 ! R8    R(4,5)                  1.3329         estimate D2E/DX2                !
 ! R9    R(4,6)                  1.4349         estimate D2E/DX2                !
 ! R10   R(5,9)                  1.4327         estimate D2E/DX2                !
 ! R11   R(6,7)                  1.4798         estimate D2E/DX2                !
 ! R12   R(6,15)                 1.353          estimate D2E/DX2                !
 ! R13   R(7,8)                  1.3672         estimate D2E/DX2                !
 ! R14   R(7,32)                 1.0846         estimate D2E/DX2                !
 ! R15   R(8,9)                  1.4778         estimate D2E/DX2                !
 ! R16   R(8,33)                 1.0843         estimate D2E/DX2                !
 ! R17   R(9,12)                 1.3571         estimate D2E/DX2                !
 ! R18   R(10,11)                1.48           estimate D2E/DX2                !
 ! R19   R(10,18)                1.4624         estimate D2E/DX2                !
 ! R20   R(11,12)                1.5039         estimate D2E/DX2                !
 ! R21   R(11,35)                1.0841         estimate D2E/DX2                !
 ! R22   R(12,34)                1.0841         estimate D2E/DX2                !
 ! R23   R(13,14)                1.4863         estimate D2E/DX2                !
 ! R24   R(13,30)                1.5235         estimate D2E/DX2                !
 ! R25   R(14,15)                1.4951         estimate D2E/DX2                !
 ! R26   R(14,45)                1.0849         estimate D2E/DX2                !
 ! R27   R(15,31)                1.084          estimate D2E/DX2                !
 ! R28   R(16,17)                1.5196         estimate D2E/DX2                !
 ! R29   R(16,19)                1.4925         estimate D2E/DX2                !
 ! R30   R(17,18)                1.4951         estimate D2E/DX2                !
 ! R31   R(17,22)                1.3478         estimate D2E/DX2                !
 ! R32   R(18,36)                1.0832         estimate D2E/DX2                !
 ! R33   R(19,20)                1.5015         estimate D2E/DX2                !
 ! R34   R(19,23)                1.3768         estimate D2E/DX2                !
 ! R35   R(20,21)                1.462          estimate D2E/DX2                !
 ! R36   R(20,26)                1.346          estimate D2E/DX2                !
 ! R37   R(21,22)                1.4516         estimate D2E/DX2                !
 ! R38   R(21,38)                1.0851         estimate D2E/DX2                !
 ! R39   R(22,37)                1.0852         estimate D2E/DX2                !
 ! R40   R(23,24)                1.4872         estimate D2E/DX2                !
 ! R41   R(23,30)                1.5506         estimate D2E/DX2                !
 ! R42   R(24,25)                1.4552         estimate D2E/DX2                !
 ! R43   R(24,27)                1.3444         estimate D2E/DX2                !
 ! R44   R(25,26)                1.4404         estimate D2E/DX2                !
 ! R45   R(25,40)                1.084          estimate D2E/DX2                !
 ! R46   R(26,39)                1.0842         estimate D2E/DX2                !
 ! R47   R(27,28)                1.4357         estimate D2E/DX2                !
 ! R48   R(27,41)                1.0878         estimate D2E/DX2                !
 ! R49   R(28,29)                1.4892         estimate D2E/DX2                !
 ! R50   R(28,42)                1.0837         estimate D2E/DX2                !
 ! R51   R(29,30)                1.5479         estimate D2E/DX2                !
 ! R52   R(29,43)                1.0996         estimate D2E/DX2                !
 ! R53   R(29,46)                1.0944         estimate D2E/DX2                !
 ! R54   R(30,44)                1.1054         estimate D2E/DX2                !
 ! A1    A(2,1,4)              107.969          estimate D2E/DX2                !
 ! A2    A(2,1,13)             132.0345         estimate D2E/DX2                !
 ! A3    A(4,1,13)             119.3283         estimate D2E/DX2                !
 ! A4    A(1,2,3)              103.9524         estimate D2E/DX2                !
 ! A5    A(1,2,16)             133.0471         estimate D2E/DX2                !
 ! A6    A(3,2,16)             122.5096         estimate D2E/DX2                !
 ! A7    A(2,3,5)              109.4186         estimate D2E/DX2                !
 ! A8    A(2,3,10)             128.965          estimate D2E/DX2                !
 ! A9    A(5,3,10)             121.5595         estimate D2E/DX2                !
 ! A10   A(1,4,5)              109.6993         estimate D2E/DX2                !
 ! A11   A(1,4,6)              128.4786         estimate D2E/DX2                !
 ! A12   A(5,4,6)              121.4224         estimate D2E/DX2                !
 ! A13   A(3,5,4)              108.8896         estimate D2E/DX2                !
 ! A14   A(3,5,9)              127.3958         estimate D2E/DX2                !
 ! A15   A(4,5,9)              123.6866         estimate D2E/DX2                !
 ! A16   A(4,6,7)              116.9841         estimate D2E/DX2                !
 ! A17   A(4,6,15)             113.4012         estimate D2E/DX2                !
 ! A18   A(7,6,15)             129.5953         estimate D2E/DX2                !
 ! A19   A(6,7,8)              120.9158         estimate D2E/DX2                !
 ! A20   A(6,7,32)             118.1456         estimate D2E/DX2                !
 ! A21   A(8,7,32)             120.9349         estimate D2E/DX2                !
 ! A22   A(7,8,9)              120.4628         estimate D2E/DX2                !
 ! A23   A(7,8,33)             121.1366         estimate D2E/DX2                !
 ! A24   A(9,8,33)             118.4004         estimate D2E/DX2                !
 ! A25   A(5,9,8)              116.3551         estimate D2E/DX2                !
 ! A26   A(5,9,12)             113.532          estimate D2E/DX2                !
 ! A27   A(8,9,12)             130.1127         estimate D2E/DX2                !
 ! A28   A(3,10,11)            113.8832         estimate D2E/DX2                !
 ! A29   A(3,10,18)            112.7843         estimate D2E/DX2                !
 ! A30   A(11,10,18)           133.2883         estimate D2E/DX2                !
 ! A31   A(10,11,12)           123.2113         estimate D2E/DX2                !
 ! A32   A(10,11,35)           118.7585         estimate D2E/DX2                !
 ! A33   A(12,11,35)           118.0089         estimate D2E/DX2                !
 ! A34   A(9,12,11)            120.3276         estimate D2E/DX2                !
 ! A35   A(9,12,34)            122.1548         estimate D2E/DX2                !
 ! A36   A(11,12,34)           117.5174         estimate D2E/DX2                !
 ! A37   A(1,13,14)            114.3367         estimate D2E/DX2                !
 ! A38   A(1,13,30)            117.4694         estimate D2E/DX2                !
 ! A39   A(14,13,30)           127.1298         estimate D2E/DX2                !
 ! A40   A(13,14,15)           123.8882         estimate D2E/DX2                !
 ! A41   A(13,14,45)           118.9328         estimate D2E/DX2                !
 ! A42   A(15,14,45)           116.6825         estimate D2E/DX2                !
 ! A43   A(6,15,14)            119.9718         estimate D2E/DX2                !
 ! A44   A(6,15,31)            122.2573         estimate D2E/DX2                !
 ! A45   A(14,15,31)           117.7655         estimate D2E/DX2                !
 ! A46   A(2,16,17)            113.8491         estimate D2E/DX2                !
 ! A47   A(2,16,19)            122.2091         estimate D2E/DX2                !
 ! A48   A(17,16,19)           122.9035         estimate D2E/DX2                !
 ! A49   A(16,17,18)           120.4542         estimate D2E/DX2                !
 ! A50   A(16,17,22)           118.8907         estimate D2E/DX2                !
 ! A51   A(18,17,22)           120.5103         estimate D2E/DX2                !
 ! A52   A(10,18,17)           120.3512         estimate D2E/DX2                !
 ! A53   A(10,18,36)           118.9408         estimate D2E/DX2                !
 ! A54   A(17,18,36)           119.8759         estimate D2E/DX2                !
 ! A55   A(16,19,20)           114.1777         estimate D2E/DX2                !
 ! A56   A(16,19,23)           125.3251         estimate D2E/DX2                !
 ! A57   A(20,19,23)           120.4735         estimate D2E/DX2                !
 ! A58   A(19,20,21)           118.6324         estimate D2E/DX2                !
 ! A59   A(19,20,26)           121.4467         estimate D2E/DX2                !
 ! A60   A(21,20,26)           119.8873         estimate D2E/DX2                !
 ! A61   A(20,21,22)           122.9507         estimate D2E/DX2                !
 ! A62   A(20,21,38)           119.3976         estimate D2E/DX2                !
 ! A63   A(22,21,38)           117.5066         estimate D2E/DX2                !
 ! A64   A(17,22,21)           121.0259         estimate D2E/DX2                !
 ! A65   A(17,22,37)           121.7758         estimate D2E/DX2                !
 ! A66   A(21,22,37)           117.006          estimate D2E/DX2                !
 ! A67   A(19,23,24)           118.0615         estimate D2E/DX2                !
 ! A68   A(19,23,30)           125.9824         estimate D2E/DX2                !
 ! A69   A(24,23,30)           115.9417         estimate D2E/DX2                !
 ! A70   A(23,24,25)           118.6949         estimate D2E/DX2                !
 ! A71   A(23,24,27)           122.7466         estimate D2E/DX2                !
 ! A72   A(25,24,27)           118.5189         estimate D2E/DX2                !
 ! A73   A(24,25,26)           120.6098         estimate D2E/DX2                !
 ! A74   A(24,25,40)           120.7787         estimate D2E/DX2                !
 ! A75   A(26,25,40)           118.5104         estimate D2E/DX2                !
 ! A76   A(20,26,25)           119.3031         estimate D2E/DX2                !
 ! A77   A(20,26,39)           122.6922         estimate D2E/DX2                !
 ! A78   A(25,26,39)           118.0033         estimate D2E/DX2                !
 ! A79   A(24,27,28)           123.4625         estimate D2E/DX2                !
 ! A80   A(24,27,41)           120.8944         estimate D2E/DX2                !
 ! A81   A(28,27,41)           115.5752         estimate D2E/DX2                !
 ! A82   A(27,28,29)           117.1497         estimate D2E/DX2                !
 ! A83   A(27,28,42)           119.3088         estimate D2E/DX2                !
 ! A84   A(29,28,42)           120.5041         estimate D2E/DX2                !
 ! A85   A(28,29,30)           114.0276         estimate D2E/DX2                !
 ! A86   A(28,29,43)           107.0686         estimate D2E/DX2                !
 ! A87   A(28,29,46)           109.5653         estimate D2E/DX2                !
 ! A88   A(30,29,43)           108.9191         estimate D2E/DX2                !
 ! A89   A(30,29,46)           112.0064         estimate D2E/DX2                !
 ! A90   A(43,29,46)           104.715          estimate D2E/DX2                !
 ! A91   A(13,30,23)           115.1632         estimate D2E/DX2                !
 ! A92   A(13,30,29)           115.2756         estimate D2E/DX2                !
 ! A93   A(13,30,44)           103.2975         estimate D2E/DX2                !
 ! A94   A(23,30,29)           114.9031         estimate D2E/DX2                !
 ! A95   A(23,30,44)           103.91           estimate D2E/DX2                !
 ! A96   A(29,30,44)           101.7023         estimate D2E/DX2                !
 ! D1    D(4,1,2,3)             -2.6212         estimate D2E/DX2                !
 ! D2    D(4,1,2,16)           169.2042         estimate D2E/DX2                !
 ! D3    D(13,1,2,3)           167.6629         estimate D2E/DX2                !
 ! D4    D(13,1,2,16)          -20.5117         estimate D2E/DX2                !
 ! D5    D(2,1,4,5)              2.562          estimate D2E/DX2                !
 ! D6    D(2,1,4,6)            175.2833         estimate D2E/DX2                !
 ! D7    D(13,1,4,5)          -169.1717         estimate D2E/DX2                !
 ! D8    D(13,1,4,6)             3.5496         estimate D2E/DX2                !
 ! D9    D(2,1,13,14)         -177.4587         estimate D2E/DX2                !
 ! D10   D(2,1,13,30)           -8.4025         estimate D2E/DX2                !
 ! D11   D(4,1,13,14)           -8.0691         estimate D2E/DX2                !
 ! D12   D(4,1,13,30)          160.987          estimate D2E/DX2                !
 ! D13   D(1,2,3,5)              1.886          estimate D2E/DX2                !
 ! D14   D(1,2,3,10)           179.1337         estimate D2E/DX2                !
 ! D15   D(16,2,3,5)          -171.036          estimate D2E/DX2                !
 ! D16   D(16,2,3,10)            6.2117         estimate D2E/DX2                !
 ! D17   D(1,2,16,17)         -171.4144         estimate D2E/DX2                !
 ! D18   D(1,2,16,19)           -2.7609         estimate D2E/DX2                !
 ! D19   D(3,2,16,17)           -0.8324         estimate D2E/DX2                !
 ! D20   D(3,2,16,19)          167.8211         estimate D2E/DX2                !
 ! D21   D(2,3,5,4)             -0.3814         estimate D2E/DX2                !
 ! D22   D(2,3,5,9)           -178.4983         estimate D2E/DX2                !
 ! D23   D(10,3,5,4)          -177.8701         estimate D2E/DX2                !
 ! D24   D(10,3,5,9)             4.013          estimate D2E/DX2                !
 ! D25   D(2,3,10,11)         -179.5583         estimate D2E/DX2                !
 ! D26   D(2,3,10,18)           -1.6497         estimate D2E/DX2                !
 ! D27   D(5,3,10,11)           -2.6048         estimate D2E/DX2                !
 ! D28   D(5,3,10,18)          175.3038         estimate D2E/DX2                !
 ! D29   D(1,4,5,3)             -1.3349         estimate D2E/DX2                !
 ! D30   D(1,4,5,9)            176.8671         estimate D2E/DX2                !
 ! D31   D(6,4,5,3)           -174.6605         estimate D2E/DX2                !
 ! D32   D(6,4,5,9)              3.5416         estimate D2E/DX2                !
 ! D33   D(1,4,6,7)           -177.0281         estimate D2E/DX2                !
 ! D34   D(1,4,6,15)             1.5238         estimate D2E/DX2                !
 ! D35   D(5,4,6,7)             -5.0632         estimate D2E/DX2                !
 ! D36   D(5,4,6,15)           173.4886         estimate D2E/DX2                !
 ! D37   D(3,5,9,8)            177.6975         estimate D2E/DX2                !
 ! D38   D(3,5,9,12)            -2.438          estimate D2E/DX2                !
 ! D39   D(4,5,9,8)             -0.1612         estimate D2E/DX2                !
 ! D40   D(4,5,9,12)           179.7034         estimate D2E/DX2                !
 ! D41   D(4,6,7,8)              3.4101         estimate D2E/DX2                !
 ! D42   D(4,6,7,32)          -177.2779         estimate D2E/DX2                !
 ! D43   D(15,6,7,8)          -174.8652         estimate D2E/DX2                !
 ! D44   D(15,6,7,32)            4.4469         estimate D2E/DX2                !
 ! D45   D(4,6,15,14)           -0.9365         estimate D2E/DX2                !
 ! D46   D(4,6,15,31)          179.9281         estimate D2E/DX2                !
 ! D47   D(7,6,15,14)          177.3888         estimate D2E/DX2                !
 ! D48   D(7,6,15,31)           -1.7466         estimate D2E/DX2                !
 ! D49   D(6,7,8,9)             -0.2393         estimate D2E/DX2                !
 ! D50   D(6,7,8,33)           179.5752         estimate D2E/DX2                !
 ! D51   D(32,7,8,9)          -179.5321         estimate D2E/DX2                !
 ! D52   D(32,7,8,33)            0.2824         estimate D2E/DX2                !
 ! D53   D(7,8,9,5)             -1.4701         estimate D2E/DX2                !
 ! D54   D(7,8,9,12)           178.6923         estimate D2E/DX2                !
 ! D55   D(33,8,9,5)           178.7103         estimate D2E/DX2                !
 ! D56   D(33,8,9,12)           -1.1273         estimate D2E/DX2                !
 ! D57   D(5,9,12,11)            0.0424         estimate D2E/DX2                !
 ! D58   D(5,9,12,34)         -179.7869         estimate D2E/DX2                !
 ! D59   D(8,9,12,11)          179.8837         estimate D2E/DX2                !
 ! D60   D(8,9,12,34)            0.0544         estimate D2E/DX2                !
 ! D61   D(3,10,11,12)           0.4132         estimate D2E/DX2                !
 ! D62   D(3,10,11,35)         178.6987         estimate D2E/DX2                !
 ! D63   D(18,10,11,12)       -176.9375         estimate D2E/DX2                !
 ! D64   D(18,10,11,35)          1.348          estimate D2E/DX2                !
 ! D65   D(3,10,18,17)          -7.3975         estimate D2E/DX2                !
 ! D66   D(3,10,18,36)        -176.9419         estimate D2E/DX2                !
 ! D67   D(11,10,18,17)        169.9751         estimate D2E/DX2                !
 ! D68   D(11,10,18,36)          0.4307         estimate D2E/DX2                !
 ! D69   D(10,11,12,9)           0.9126         estimate D2E/DX2                !
 ! D70   D(10,11,12,34)       -179.2503         estimate D2E/DX2                !
 ! D71   D(35,11,12,9)        -177.385          estimate D2E/DX2                !
 ! D72   D(35,11,12,34)          2.4521         estimate D2E/DX2                !
 ! D73   D(1,13,14,15)           8.9542         estimate D2E/DX2                !
 ! D74   D(1,13,14,45)        -162.6835         estimate D2E/DX2                !
 ! D75   D(30,13,14,15)       -158.8487         estimate D2E/DX2                !
 ! D76   D(30,13,14,45)         29.5136         estimate D2E/DX2                !
 ! D77   D(1,13,30,23)          53.7412         estimate D2E/DX2                !
 ! D78   D(1,13,30,29)        -168.8407         estimate D2E/DX2                !
 ! D79   D(1,13,30,44)         -58.8374         estimate D2E/DX2                !
 ! D80   D(14,13,30,23)       -138.7895         estimate D2E/DX2                !
 ! D81   D(14,13,30,29)         -1.3714         estimate D2E/DX2                !
 ! D82   D(14,13,30,44)        108.632          estimate D2E/DX2                !
 ! D83   D(13,14,15,6)          -4.2961         estimate D2E/DX2                !
 ! D84   D(13,14,15,31)        174.8776         estimate D2E/DX2                !
 ! D85   D(45,14,15,6)         167.5142         estimate D2E/DX2                !
 ! D86   D(45,14,15,31)        -13.3121         estimate D2E/DX2                !
 ! D87   D(2,16,17,18)          -7.8269         estimate D2E/DX2                !
 ! D88   D(2,16,17,22)         167.8209         estimate D2E/DX2                !
 ! D89   D(19,16,17,18)       -176.3911         estimate D2E/DX2                !
 ! D90   D(19,16,17,22)         -0.7433         estimate D2E/DX2                !
 ! D91   D(2,16,19,20)        -158.1517         estimate D2E/DX2                !
 ! D92   D(2,16,19,23)          20.0756         estimate D2E/DX2                !
 ! D93   D(17,16,19,20)          9.4725         estimate D2E/DX2                !
 ! D94   D(17,16,19,23)       -172.3002         estimate D2E/DX2                !
 ! D95   D(16,17,18,10)         12.5179         estimate D2E/DX2                !
 ! D96   D(16,17,18,36)       -178.0354         estimate D2E/DX2                !
 ! D97   D(22,17,18,10)       -163.0589         estimate D2E/DX2                !
 ! D98   D(22,17,18,36)          6.3877         estimate D2E/DX2                !
 ! D99   D(16,17,22,21)         -3.5993         estimate D2E/DX2                !
 ! D100  D(16,17,22,37)       -178.4079         estimate D2E/DX2                !
 ! D101  D(18,17,22,21)        172.0459         estimate D2E/DX2                !
 ! D102  D(18,17,22,37)         -2.7627         estimate D2E/DX2                !
 ! D103  D(16,19,20,21)        -13.9384         estimate D2E/DX2                !
 ! D104  D(16,19,20,26)        168.1698         estimate D2E/DX2                !
 ! D105  D(23,19,20,21)        167.7397         estimate D2E/DX2                !
 ! D106  D(23,19,20,26)        -10.1521         estimate D2E/DX2                !
 ! D107  D(16,19,23,24)       -167.5774         estimate D2E/DX2                !
 ! D108  D(16,19,23,30)         13.8627         estimate D2E/DX2                !
 ! D109  D(20,19,23,24)         10.5461         estimate D2E/DX2                !
 ! D110  D(20,19,23,30)       -168.0137         estimate D2E/DX2                !
 ! D111  D(19,20,21,22)         10.9099         estimate D2E/DX2                !
 ! D112  D(19,20,21,38)       -173.5809         estimate D2E/DX2                !
 ! D113  D(26,20,21,22)       -171.1646         estimate D2E/DX2                !
 ! D114  D(26,20,21,38)          4.3446         estimate D2E/DX2                !
 ! D115  D(19,20,26,25)         -0.1821         estimate D2E/DX2                !
 ! D116  D(19,20,26,39)        179.3893         estimate D2E/DX2                !
 ! D117  D(21,20,26,25)       -178.0478         estimate D2E/DX2                !
 ! D118  D(21,20,26,39)          1.5236         estimate D2E/DX2                !
 ! D119  D(20,21,22,17)         -1.5154         estimate D2E/DX2                !
 ! D120  D(20,21,22,37)        173.5318         estimate D2E/DX2                !
 ! D121  D(38,21,22,17)       -177.1044         estimate D2E/DX2                !
 ! D122  D(38,21,22,37)         -2.0572         estimate D2E/DX2                !
 ! D123  D(19,23,24,25)         -1.6008         estimate D2E/DX2                !
 ! D124  D(19,23,24,27)        176.0732         estimate D2E/DX2                !
 ! D125  D(30,23,24,25)        177.1033         estimate D2E/DX2                !
 ! D126  D(30,23,24,27)         -5.2227         estimate D2E/DX2                !
 ! D127  D(19,23,30,13)        -60.9569         estimate D2E/DX2                !
 ! D128  D(19,23,30,29)        161.4651         estimate D2E/DX2                !
 ! D129  D(19,23,30,44)         51.262          estimate D2E/DX2                !
 ! D130  D(24,23,30,13)        120.4563         estimate D2E/DX2                !
 ! D131  D(24,23,30,29)        -17.1217         estimate D2E/DX2                !
 ! D132  D(24,23,30,44)       -127.3248         estimate D2E/DX2                !
 ! D133  D(23,24,25,26)         -8.5147         estimate D2E/DX2                !
 ! D134  D(23,24,25,40)        175.1937         estimate D2E/DX2                !
 ! D135  D(27,24,25,26)        173.7116         estimate D2E/DX2                !
 ! D136  D(27,24,25,40)         -2.5799         estimate D2E/DX2                !
 ! D137  D(23,24,27,28)          6.7966         estimate D2E/DX2                !
 ! D138  D(23,24,27,41)       -176.3357         estimate D2E/DX2                !
 ! D139  D(25,24,27,28)       -175.5255         estimate D2E/DX2                !
 ! D140  D(25,24,27,41)          1.3422         estimate D2E/DX2                !
 ! D141  D(24,25,26,20)          9.2954         estimate D2E/DX2                !
 ! D142  D(24,25,26,39)       -170.2961         estimate D2E/DX2                !
 ! D143  D(40,25,26,20)       -174.3303         estimate D2E/DX2                !
 ! D144  D(40,25,26,39)          6.0781         estimate D2E/DX2                !
 ! D145  D(24,27,28,29)         15.5713         estimate D2E/DX2                !
 ! D146  D(24,27,28,42)        175.975          estimate D2E/DX2                !
 ! D147  D(41,27,28,29)       -161.449          estimate D2E/DX2                !
 ! D148  D(41,27,28,42)         -1.0453         estimate D2E/DX2                !
 ! D149  D(27,28,29,30)        -37.1609         estimate D2E/DX2                !
 ! D150  D(27,28,29,43)         83.385          estimate D2E/DX2                !
 ! D151  D(27,28,29,46)       -163.5908         estimate D2E/DX2                !
 ! D152  D(42,28,29,30)        162.6818         estimate D2E/DX2                !
 ! D153  D(42,28,29,43)        -76.7723         estimate D2E/DX2                !
 ! D154  D(42,28,29,46)         36.2519         estimate D2E/DX2                !
 ! D155  D(28,29,30,13)       -100.0971         estimate D2E/DX2                !
 ! D156  D(28,29,30,23)         37.4325         estimate D2E/DX2                !
 ! D157  D(28,29,30,44)        148.9525         estimate D2E/DX2                !
 ! D158  D(43,29,30,13)        140.397          estimate D2E/DX2                !
 ! D159  D(43,29,30,23)        -82.0735         estimate D2E/DX2                !
 ! D160  D(43,29,30,44)         29.4466         estimate D2E/DX2                !
 ! D161  D(46,29,30,13)         25.0473         estimate D2E/DX2                !
 ! D162  D(46,29,30,23)        162.5768         estimate D2E/DX2                !
 ! D163  D(46,29,30,44)        -85.9031         estimate D2E/DX2                !
 --------------------------------------------------------------------------------
 Trust Radius=3.00D-01 FncErr=1.00D-07 GrdErr=1.00D-06 EigMax=2.50D+02 EigMin=1.00D-04
 Number of steps in this run=    276 maximum allowed number of steps=    276.
 GradGradGradGradGradGradGradGradGradGradGradGradGradGradGradGradGradGrad

                          Input orientation:                          
 ---------------------------------------------------------------------
 Center     Atomic      Atomic             Coordinates (Angstroms)
 Number     Number       Type             X           Y           Z
 ---------------------------------------------------------------------
      1          6           0       -3.922570    0.323190    0.341190
      2          6           0       -2.496150    0.087490    0.435380
      3          6           0       -2.375040   -1.358420    0.369930
      4          6           0       -4.577960   -0.960440    0.162780
      5          6           0       -3.671270   -1.936710    0.198960
      6          6           0       -5.983240   -1.246110    0.112820
      7          6           0       -6.375430   -2.667420   -0.013020
      8          6           0       -5.434070   -3.658960   -0.008190
      9          6           0       -3.999100   -3.329090    0.118120
     10          6           0       -1.270730   -2.111820    0.397660
     11          6           0       -1.534010   -3.564850    0.298560
     12          6           0       -2.915550   -4.144690    0.168520
     13          6           0       -4.666510    1.414940    0.555230
     14          6           0       -6.128770    1.200350    0.397330
     15          6           0       -6.759950   -0.143580    0.221830
     16          6           0       -1.430630    0.901570    0.416820
     17          6           0       -0.100330    0.170840    0.341950
     18          6           0       -0.045010   -1.317600    0.471420
     19          6           0       -1.558660    2.375050    0.216790
     20          6           0       -0.308000    3.038770   -0.283060
     21          6           0        0.949660    2.295310   -0.227980
     22          6           0        1.015430    0.875880    0.068890
     23          6           0       -2.705570    3.109270    0.419480
     24          6           0       -2.741500    4.505790   -0.090510
     25          6           0       -1.557310    5.041240   -0.745160
     26          6           0       -0.318590    4.306230   -0.735950
     27          6           0       -3.837660    5.280340   -0.012980
     28          6           0       -5.030170    4.896570    0.688390
     29          6           0       -4.921260    3.757320    1.641220
     30          6           0       -3.975710    2.627220    1.167000
     31          1           0       -7.842530   -0.194140    0.200560
     32          1           0       -7.431090   -2.901280   -0.097740
     33          1           0       -5.717930   -4.701980   -0.093320
     34          1           0       -3.002800   -5.223950    0.115220
     35          1           0       -0.692410   -4.248140    0.291850
     36          1           0        0.911140   -1.826000    0.448590
     37          1           0        1.985660    0.398150   -0.020740
     38          1           0        1.876530    2.796650   -0.486750
     39          1           0        0.573870    4.808240   -1.092300
     40          1           0       -1.571200    6.026090   -1.197740
     41          1           0       -3.849190    6.277060   -0.448440
     42          1           0       -5.850940    5.600120    0.763710
     43          1           0       -4.542220    4.164850    2.589590
     44          1           0       -3.588280    2.241210    2.127580
     45          1           0       -6.775080    2.062440    0.270410
     46          1           0       -5.921310    3.382180    1.879790
 ---------------------------------------------------------------------
                    Distance matrix (angstroms):
                    1          2          3          4          5
     1  C    0.000000
     2  C    1.448827   0.000000
     3  C    2.285495   1.452449   0.000000
     4  C    1.452264   2.346572   2.248145   0.000000
     5  C    2.278273   2.352485   1.429637   1.332854   0.000000
     6  C    2.600234   3.747310   3.619092   1.434892   2.414447
     7  C    3.884036   4.779059   4.226494   2.485072   2.809155
     8  C    4.273666   4.781633   3.846183   2.836224   2.473160
     9  C    3.659886   3.746002   2.566032   2.438765   1.432735
    10  C    3.600655   2.517944   1.337117   3.509788   2.415106
    11  C    4.563320   3.779421   2.362363   4.008369   2.688613
    12  C    4.583215   4.261274   2.845350   3.592087   2.333927
    13  C    1.338349   2.546949   3.602318   2.409209   3.514397
    14  C    2.374843   3.799452   4.542966   2.670026   3.989963
    15  C    2.877993   4.275393   4.552494   2.330628   3.571524
    16  C    2.559298   1.341046   2.449829   3.665693   3.622674
    17  C    3.825275   2.399089   2.741117   4.621803   4.148955
    18  C    4.212437   2.825538   2.332596   4.557462   3.688806
    19  C    3.132679   2.481854   3.824752   4.499398   4.801532
    20  C    4.563900   3.743556   4.902482   5.867283   6.024892
    21  C    5.286950   4.145856   4.976029   6.427067   6.280547
    22  C    4.976290   3.617605   4.071610   5.887860   5.467425
    23  C    3.041293   3.029070   4.480174   4.487124   5.142287
    24  C    4.367543   4.456246   5.893662   5.772037   6.515679
    25  C    5.388377   5.178295   6.547347   6.780033   7.352005
    26  C    5.478459   4.889944   6.127007   6.832844   7.147644
    27  C    4.970511   5.382041   6.808745   6.286992   7.222078
    28  C    4.718382   5.441739   6.802649   5.897909   6.984258
    29  C    3.805353   4.561015   5.854076   4.955895   6.005378
    30  C    2.448130   3.028959   4.368385   3.773919   4.675387
    31  H    3.956450   5.358940   5.592645   3.353515   4.520615
    32  H    4.785350   5.794014   5.306861   3.460503   3.892900
    33  H    5.353919   5.796414   4.750674   3.919725   3.452675
    34  H    5.627415   5.345147   3.924447   4.545427   3.355564
    35  H    5.597627   4.698060   3.344820   5.091476   3.771597
    36  H    5.291059   3.907844   3.320210   5.564270   4.590540
    37  H    5.919780   4.515659   4.717400   6.705263   6.123781
    38  H    6.358699   5.225916   6.006193   7.496536   7.324819
    39  H    6.510648   5.834750   6.990127   7.835448   8.073594
    40  H    6.357697   6.228128   7.591754   7.726786   8.352679
    41  H    6.006452   6.397080   7.819425   7.299733   8.241165
    42  H    5.634104   6.461541   7.788339   6.709884   7.865984
    43  H    4.494176   5.044986   6.334830   5.670915   6.610802
    44  H    2.642298   2.948694   4.185525   3.884645   4.602334
    45  H    3.341678   4.715600   5.574275   3.738546   5.062800
    46  H    3.964804   4.967195   6.109746   4.859121   6.014853
                    6          7          8          9         10
     6  C    0.000000
     7  C    1.479787   0.000000
     8  C    2.477514   1.367236   0.000000
     9  C    2.876742   2.470212   1.477805   0.000000
    10  C    4.799827   5.151244   4.460018   3.000649   0.000000
    11  C    5.020628   4.933742   3.913237   2.482904   1.480011
    12  C    4.220852   3.766438   2.571012   1.357138   2.624976
    13  C    3.001781   4.461948   5.162466   4.810647   4.898386
    14  C    2.467244   3.897290   4.925439   5.012911   5.879713
    15  C    1.353046   2.563743   3.764142   4.216696   5.834074
    16  C    5.042936   6.113387   6.083305   4.958301   3.017690
    17  C    6.055483   6.896275   6.575618   5.244046   2.565829
    18  C    5.949477   6.490833   5.895249   4.450364   1.462401
    19  C    5.718437   6.977148   7.174866   6.205054   4.499736
    20  C    7.122167   8.333501   8.438705   7.371215   5.283825
    21  C    7.792490   8.850528   8.732333   7.499592   4.974370
    22  C    7.313423   8.196737   7.884590   6.544441   3.776370
    23  C    5.459533   6.857483   7.310031   6.573927   5.414704
    24  C    6.605647   8.041542   8.597666   7.937911   6.796634
    25  C    7.736650   9.119964   9.553317   8.761850   7.249444
    26  C    7.977290   9.264973   9.494315   8.519020   6.586578
    27  C    6.871236   8.343091   9.080729   8.611941   7.835929
    28  C    6.242767   7.714638   8.593338   8.309621   7.958357
    29  C    5.338363   6.791789   7.614771   7.306670   7.022793
    30  C    4.488224   5.931637   6.559264   6.048002   5.510653
    31  H    2.138060   2.883594   4.224835   4.960510   6.848715
    32  H    2.209116   1.084567   2.137800   3.465281   6.230466
    33  H    3.472164   2.139670   1.084304   2.209957   5.169872
    34  H    4.970537   4.234020   2.894045   2.140821   3.572841
    35  H    6.085813   5.906635   4.787536   3.436427   2.215742
    36  H    6.926867   7.349502   6.620429   5.145770   2.201101
    37  H    8.137862   8.905369   8.456518   7.051876   4.132685
    38  H    8.858859   9.908346   9.764671   8.509617   5.897500
    39  H    9.005729  10.263679  10.438588   9.412402   7.315037
    40  H    8.606309  10.003065  10.494617   9.754260   8.298263
    41  H    7.840106   9.304580  10.071254   9.624011   8.816896
    42  H    6.878374   8.320494   9.300547   9.142040   8.976989
    43  H    6.122860   7.537516   8.291915   7.909632   7.409709
    44  H    4.685776   6.036971   6.540677   5.935903   5.226139
    45  H    3.405635   4.755169   5.883056   6.066123   6.909306
    46  H    4.954502   6.355046   7.306129   7.199966   7.349057
                   11         12         13         14         15
    11  C    0.000000
    12  C    1.503921   0.000000
    13  C    5.888696   5.841651   0.000000
    14  C    6.620325   6.240720   1.486333   0.000000
    15  C    6.246713   5.548976   2.631089   1.495104   0.000000
    16  C    4.469181   5.266059   3.279272   4.707671   5.434336
    17  C    4.001587   5.155516   4.737433   6.115967   6.668120
    18  C    2.701321   4.040320   5.369549   6.584656   6.821366
    19  C    5.940514   6.659616   3.270334   4.722120   5.779009
    20  C    6.741601   7.655412   4.726115   6.141993   7.211791
    21  C    6.386496   7.521347   5.738452   7.189862   8.098679
    22  C    5.125668   6.377198   5.728137   7.159102   7.843419
    23  C    6.777245   7.261337   2.595085   3.919536   5.201740
    24  C    8.169739   8.656107   3.698107   4.757890   6.153222
    25  C    8.669180   9.330645   4.950575   6.079142   7.408434
    26  C    8.031274   8.887087   5.378765   6.684984   7.887285
    27  C    9.145559   9.471770   3.993892   4.697218   6.165535
    28  C    9.163554   9.299799   3.503103   3.866999   5.349105
    29  C    8.178653   8.284533   2.594420   3.089246   4.540096
    30  C    6.712512   6.926736   1.523512   2.695184   4.040133
    31  H    7.153231   6.315299   3.577993   2.218174   1.083969
    32  H    5.947515   4.691169   5.167110   4.331801   2.856127
    33  H    4.353369   2.869227   6.240418   5.936921   4.686591
    34  H    2.223414   1.084092   6.858309   7.150028   6.319628
    35  H    1.084076   2.228960   6.923389   7.697479   7.325801
    36  H    3.004142   4.483115   6.451763   7.663012   7.856690
    37  H    5.309934   6.685437   6.754034   8.164697   8.765729
    38  H    7.260660   8.460237   6.768029   8.210639   9.150728
    39  H    8.745644   9.691268   6.456812   7.756368   8.946082
    40  H    9.707030  10.349817   5.823792   6.826673   8.185544
    41  H   10.138109  10.481660   5.031459   5.628925   7.081413
    42  H   10.141446  10.194709   4.354546   4.423731   5.840379
    43  H    8.605022   8.806594   3.422875   4.013901   5.393253
    44  H    6.424615   6.713434   2.077880   3.245188   4.402113
    45  H    7.689993   7.309912   2.224061   1.084908   2.206607
    46  H    8.367193   8.283526   2.683098   2.645961   3.985365
                   16         17         18         19         20
    16  C    0.000000
    17  C    1.519628   0.000000
    18  C    2.616799   1.495084   0.000000
    19  C    1.492497   2.645928   3.998954   0.000000
    20  C    2.513514   2.942582   4.429036   1.501507   0.000000
    21  C    2.832677   2.437349   3.812040   2.548695   1.462011
    22  C    2.470815   1.347800   2.469396   2.982503   2.559967
    23  C    2.549396   3.927806   5.165119   1.376795   2.499375
    24  C    3.868613   5.094565   6.441948   2.456338   2.848007
    25  C    4.301525   5.198595   6.648456   2.834417   2.405036
    26  C    3.762608   4.279130   5.758477   2.484943   1.345985
    27  C    5.015192   6.340394   7.625723   3.699641   4.189997
    28  C    5.384279   6.837826   7.969618   4.316463   5.166626
    29  C    4.673217   6.147545   7.134498   3.904709   5.049885
    30  C    3.165134   4.661875   5.612115   2.609333   3.965368
    31  H    6.508441   7.752088   7.882693   6.788816   8.213083
    32  H    7.122637   7.960609   7.575366   7.900887   9.276688
    33  H    7.073963   7.449246   6.629855   8.214624   9.445769
    34  H    6.331246   6.130212   4.912736   7.735674   8.700179
    35  H    5.203854   4.458750   3.006566   6.680020   7.319655
    36  H    3.595071   2.240940   1.083150   4.878777   5.068294
    37  H    3.480794   2.129453   2.703635   4.065312   3.507501
    38  H    3.917279   3.389631   4.640847   3.531748   2.207325
    39  H    4.643009   4.900724   6.352492   3.490246   2.136256
    40  H    5.374688   6.230414   7.684083   3.915501   3.369925
    41  H    5.957684   7.208647   8.543816   4.573264   4.801448
    42  H    6.460329   7.919879   9.035990   5.396653   6.195194
    43  H    5.005189   6.382350   7.400595   4.211317   5.239160
    44  H    3.062154   4.431783   5.287982   2.790769   4.148195
    45  H    5.471033   6.937979   7.533851   5.226054   6.563739
    46  H    5.334783   6.823596   7.655217   4.776253   6.025371
                   21         22         23         24         25
    21  C    0.000000
    22  C    1.451633   0.000000
    23  C    3.800321   4.353939   0.000000
    24  C    4.304623   5.226488   1.487161   0.000000
    25  C    3.753999   4.963053   2.531283   1.455190   0.000000
    26  C    2.431109   3.767583   2.909537   2.515335   1.440400
    27  C    5.645800   6.554270   2.486402   1.344435   2.406918
    28  C    6.585184   7.286907   2.944575   2.448960   3.759887
    29  C    6.332384   6.783746   2.611877   2.882785   4.319655
    30  C    5.129854   5.402270   1.550617   2.575584   3.915675
    31  H    9.147875   8.923325   6.111367   6.942231   8.234536
    32  H    9.861971   9.254102   7.663209   8.766812   9.899700
    33  H    9.666279   8.745111   8.387664   9.676889  10.614424
    34  H    8.501706   7.304536   8.344068   9.735422  10.402107
    35  H    6.766340   5.405739   7.628931   8.998681   9.387014
    36  H    4.176653   2.730422   6.118687   7.329664   7.394408
    37  H    2.171511   1.085175   5.436139   6.262876   5.885211
    38  H    1.085077   2.177059   4.681306   4.940078   4.110501
    39  H    2.683856   4.123929   3.990828   3.476599   2.171802
    40  H    4.605854   5.900819   3.522788   2.215146   1.083952
    41  H    6.239543   7.287311   3.477937   2.119549   2.620688
    42  H    7.625836   8.363507   4.026932   3.405270   4.585226
    43  H    6.449390   6.932440   3.032641   3.246809   4.560516
    44  H    5.113168   5.224603   2.109576   3.281049   4.496403
    45  H    7.744303   7.882930   4.204639   4.729692   6.093419
    46  H    7.268714   7.594686   3.542311   3.905864   5.356056
                   26         27         28         29         30
    26  C    0.000000
    27  C    3.722288   0.000000
    28  C    4.957442   1.435716   0.000000
    29  C    5.209300   2.496028   1.489173   0.000000
    30  C    4.451384   2.906967   2.547725   1.547926   0.000000
    31  H    8.817032   6.786348   5.836324   5.120875   4.883275
    32  H   10.146091   8.936377   8.196882   7.325311   6.641049
    33  H   10.522057  10.158178   9.654856   8.671970   7.638122
    34  H    9.937495  10.538194  10.337489   9.309800   7.980831
    35  H    8.623999  10.038797  10.129123   9.153762   7.669193
    36  H    6.365502   8.559452   8.974944   8.161661   6.650457
    37  H    4.592840   7.599138   8.364240   7.858224   6.474366
    38  H    2.675721   6.248611   7.313899   7.187565   6.083774
    39  H    1.084197   4.566115   5.880810   6.226798   5.528107
    40  H    2.177200   2.663952   4.098509   4.942663   4.788108
    41  H    4.053637   1.087754   2.143093   3.444576   3.993368
    42  H    5.876226   2.181468   1.083660   2.242820   3.537975
    43  H    5.377570   2.917892   2.094772   1.099617   2.170023
    44  H    4.811963   3.725654   3.346827   2.076529   1.105360
    45  H    6.908952   4.366191   3.354357   2.861536   2.993213
    46  H    6.251915   3.395171   2.122956   1.094416   2.205310
                   31         32         33         34         35
    31  H    0.000000
    32  H    2.754428   0.000000
    33  H    4.992085   2.485449   0.000000
    34  H    6.980635   5.004988   2.772701   0.000000
    35  H    8.219943   6.882995   5.060650   2.514221   0.000000
    36  H    8.907930   8.428968   7.246344   5.193855   2.909072
    37  H    9.848507   9.978344   9.239150   7.517395   5.371944
    38  H   10.192024  10.920143  10.679891   9.407457   7.538882
    39  H    9.875783  11.158191  11.446790  10.718932   9.248641
    40  H    8.942935  10.735280  11.554506  11.416512  10.418779
    41  H    7.631802   9.858749  11.142604  11.545879  11.013316
    42  H    6.152806   8.689809  10.338542  11.211286  11.127502
    43  H    5.966599   8.093053   9.338146   9.830661   9.533050
    44  H    5.267160   6.794442   7.594451   7.753773   7.339457
    45  H    2.497295   5.020398   6.856183   8.206440   8.764859
    46  H    4.393286   6.758101   8.323952   9.257261   9.385347
                   36         37         38         39         40
    36  H    0.000000
    37  H    2.514301   0.000000
    38  H    4.814118   2.445788   0.000000
    39  H    6.819181   4.752924   2.471863   0.000000
    40  H    8.398079   6.760939   4.777199   2.468927   0.000000
    41  H    9.440603   8.293973   6.700641   4.704832   2.411156
    42  H   10.048497   9.438652   8.314859   6.734243   4.727040
    43  H    8.379338   7.975906   7.248185   6.335980   5.160915
    44  H    6.293329   6.251476   6.083369   5.854978   5.426940
    45  H    8.615665   8.922174   8.715659   7.962629   6.704204
    46  H    8.709526   8.662368   8.170047   7.283840   5.948521
                   41         42         43         44         45
    41  H    0.000000
    42  H    2.436095   0.000000
    43  H    3.764485   2.665818   0.000000
    44  H    4.795001   4.273412   2.196325   0.000000
    45  H    5.180791   3.689520   3.845047   3.692795   0.000000
    46  H    4.253783   2.483917   1.737319   2.608877   2.249609
                   46
    46  H    0.000000
 Stoichiometry    C30H16
 Framework group  C1[X(C30H16)]
 Deg. of freedom   132
 Full point group                 C1      NOp   1
 Largest Abelian subgroup         C1      NOp   1
 Largest concise Abelian subgroup C1      NOp   1
                         Standard orientation:                         
 ---------------------------------------------------------------------
 Center     Atomic      Atomic             Coordinates (Angstroms)
 Number     Number       Type             X           Y           Z
 ---------------------------------------------------------------------
      1          6           0        0.619124   -0.813559    0.024837
      2          6           0        0.464264    0.612219    0.230446
      3          6           0        1.823005    1.122968    0.179821
      4          6           0        2.028374   -1.083436   -0.199337
      5          6           0        2.725415    0.047281   -0.089283
      6          6           0        2.680416   -2.351819   -0.357327
      7          6           0        4.152412   -2.335908   -0.508140
      8          6           0        4.854290   -1.165416   -0.426591
      9          6           0        4.153034    0.113775   -0.190334
     10          6           0        2.252140    2.384010    0.296005
     11          6           0        3.720493    2.530198    0.181984
     12          6           0        4.648046    1.369924   -0.052938
     13          6           0       -0.228509   -1.838108    0.176476
     14          6           0        0.368514   -3.172159   -0.093811
     15          6           0        1.829376   -3.402770   -0.312985
     16          6           0       -0.606503    1.417264    0.291814
     17          6           0       -0.261751    2.896936    0.323190
     18          6           0        1.159042    3.341204    0.461934
     19          6           0       -1.994574    0.912570    0.077127
     20          6           0       -2.978725    1.972350   -0.326406
     21          6           0       -2.599914    3.375862   -0.171073
     22          6           0       -1.245463    3.798882    0.135127
     23          6           0       -2.389758   -0.401671    0.187423
     24          6           0       -3.733892   -0.773714   -0.328849
     25          6           0       -4.579351    0.268542   -0.891416
     26          6           0       -4.204386    1.655073   -0.783316
     27          6           0       -4.183746   -2.040608   -0.339535
     28          6           0       -3.481306   -3.135255    0.268417
     29          6           0       -2.396811   -2.796027    1.230931
     30          6           0       -1.570995   -1.547868    0.835707
     31          1           0        2.168745   -4.426859   -0.418141
     32          1           0        4.659958   -3.279963   -0.673800
     33          1           0        5.933571   -1.150499   -0.529762
     34          1           0        5.709925    1.580945   -0.108965
     35          1           0        4.152137    3.522751    0.243163
     36          1           0        1.391185    4.397838    0.515314
     37          1           0       -1.047809    4.865835    0.122893
     38          1           0       -3.336426    4.150257   -0.358834
     39          1           0       -4.933998    2.403650   -1.071039
     40          1           0       -5.531959    0.024207   -1.347255
     41          1           0       -5.148121   -2.287173   -0.778166
     42          1           0       -3.936862   -4.118470    0.277185
     43          1           0       -2.874605   -2.613815    2.204414
     44          1           0       -1.286633   -1.144754    1.824876
     45          1           0       -0.290158   -4.015262   -0.273683
     46          1           0       -1.762511   -3.673144    1.392411
 ---------------------------------------------------------------------
 Rotational constants (GHZ):           0.2700021           0.1557383           0.1020183
 Standard basis: 6-311+G(d,p) (5D, 7F)
 There are   786 symmetry adapted cartesian basis functions of A   symmetry.
 There are   756 symmetry adapted basis functions of A   symmetry.
   756 basis functions,  1208 primitive gaussians,   786 cartesian basis functions
    98 alpha electrons       98 beta electrons
       nuclear repulsion energy      2612.0184430606 Hartrees.
 NAtoms=   46 NActive=   46 NUniq=   46 SFac= 1.00D+00 NAtFMM=   60 NAOKFM=F Big=F
 Integral buffers will be    131072 words long.
 Raffenetti 2 integral format.
 Two-electron integral symmetry is turned on.
 One-electron integrals computed using PRISM.
 NBasis=   756 RedAO= T EigKep=  1.05D-06  NBF=   756
 NBsUse=   737 1.00D-06 EigRej=  8.25D-07 NBFU=   737
 ExpMin= 4.38D-02 ExpMax= 4.56D+03 ExpMxC= 6.82D+02 IAcc=2 IRadAn=         4 AccDes= 0.00D+00
 Harris functional with IExCor=  402 and IRadAn=       4 diagonalized for initial guess.
 HarFok:  IExCor=  402 AccDes= 0.00D+00 IRadAn=         4 IDoV= 1 UseB2=F ITyADJ=14
 ICtDFT=  3500011 ScaDFX=  1.000000  1.000000  1.000000  1.000000
 FoFCou: FMM=F IPFlag=           0 FMFlag=      100000 FMFlg1=           0
         NFxFlg=           0 DoJE=T BraDBF=F KetDBF=T FulRan=T
         wScrn=  0.000000 ICntrl=       500 IOpCl=  0 I1Cent=   200000004 NGrid=           0
         NMat0=    1 NMatS0=      1 NMatT0=    0 NMatD0=    1 NMtDS0=    0 NMtDT0=    0
 Petite list used in FoFCou.
 Requested convergence on RMS density matrix=1.00D-08 within 128 cycles.
 Requested convergence on MAX density matrix=1.00D-06.
 Requested convergence on             energy=1.00D-06.
 No special actions if energy rises.
 SCF Done:  E(RB3LYP) =  -1153.00339785     A.U. after   17 cycles
            NFock= 17  Conv=0.65D-08     -V/T= 2.0052

 **********************************************************************

            Population analysis using the SCF Density.

 **********************************************************************

 Orbital symmetries:
       Occupied  (A) (A) (A) (A) (A) (A) (A) (A) (A) (A) (A) (A)
                 (A) (A) (A) (A) (A) (A) (A) (A) (A) (A) (A) (A)
                 (A) (A) (A) (A) (A) (A) (A) (A) (A) (A) (A) (A)
                 (A) (A) (A) (A) (A) (A) (A) (A) (A) (A) (A) (A)
                 (A) (A) (A) (A) (A) (A) (A) (A) (A) (A) (A) (A)
                 (A) (A) (A) (A) (A) (A) (A) (A) (A) (A) (A) (A)
                 (A) (A) (A) (A) (A) (A) (A) (A) (A) (A) (A) (A)
                 (A) (A) (A) (A) (A) (A) (A) (A) (A) (A) (A) (A)
                 (A) (A)
       Virtual   (A) (A) (A) (A) (A) (A) (A) (A) (A) (A) (A) (A)
                 (A) (A) (A) (A) (A) (A) (A) (A) (A) (A) (A) (A)
                 (A) (A) (A) (A) (A) (A) (A) (A) (A) (A) (A) (A)
                 (A) (A) (A) (A) (A) (A) (A) (A) (A) (A) (A) (A)
                 (A) (A) (A) (A) (A) (A) (A) (A) (A) (A) (A) (A)
                 (A) (A) (A) (A) (A) (A) (A) (A) (A) (A) (A) (A)
                 (A) (A) (A) (A) (A) (A) (A) (A) (A) (A) (A) (A)
                 (A) (A) (A) (A) (A) (A) (A) (A) (A) (A) (A) (A)
                 (A) (A) (A) (A) (A) (A) (A) (A) (A) (A) (A) (A)
                 (A) (A) (A) (A) (A) (A) (A) (A) (A) (A) (A) (A)
                 (A) (A) (A) (A) (A) (A) (A) (A) (A) (A) (A) (A)
                 (A) (A) (A) (A) (A) (A) (A) (A) (A) (A) (A) (A)
                 (A) (A) (A) (A) (A) (A) (A) (A) (A) (A) (A) (A)
                 (A) (A) (A) (A) (A) (A) (A) (A) (A) (A) (A) (A)
                 (A) (A) (A) (A) (A) (A) (A) (A) (A) (A) (A) (A)
                 (A) (A) (A) (A) (A) (A) (A) (A) (A) (A) (A) (A)
                 (A) (A) (A) (A) (A) (A) (A) (A) (A) (A) (A) (A)
                 (A) (A) (A) (A) (A) (A) (A) (A) (A) (A) (A) (A)
                 (A) (A) (A) (A) (A) (A) (A) (A) (A) (A) (A) (A)
                 (A) (A) (A) (A) (A) (A) (A) (A) (A) (A) (A) (A)
                 (A) (A) (A) (A) (A) (A) (A) (A) (A) (A) (A) (A)
                 (A) (A) (A) (A) (A) (A) (A) (A) (A) (A) (A) (A)
                 (A) (A) (A) (A) (A) (A) (A) (A) (A) (A) (A) (A)
                 (A) (A) (A) (A) (A) (A) (A) (A) (A) (A) (A) (A)
                 (A) (A) (A) (A) (A) (A) (A) (A) (A) (A) (A) (A)
                 (A) (A) (A) (A) (A) (A) (A) (A) (A) (A) (A) (A)
                 (A) (A) (A) (A) (A) (A) (A) (A) (A) (A) (A) (A)
                 (A) (A) (A) (A) (A) (A) (A) (A) (A) (A) (A) (A)
                 (A) (A) (A) (A) (A) (A) (A) (A) (A) (A) (A) (A)
                 (A) (A) (A) (A) (A) (A) (A) (A) (A) (A) (A) (A)
                 (A) (A) (A) (A) (A) (A) (A) (A) (A) (A) (A) (A)
                 (A) (A) (A) (A) (A) (A) (A) (A) (A) (A) (A) (A)
                 (A) (A) (A) (A) (A) (A) (A) (A) (A) (A) (A) (A)
                 (A) (A) (A) (A) (A) (A) (A) (A) (A) (A) (A) (A)
                 (A) (A) (A) (A) (A) (A) (A) (A) (A) (A) (A) (A)
                 (A) (A) (A) (A) (A) (A) (A) (A) (A) (A) (A) (A)
                 (A) (A) (A) (A) (A) (A) (A) (A) (A) (A) (A) (A)
                 (A) (A) (A) (A) (A) (A) (A) (A) (A) (A) (A) (A)
                 (A) (A) (A) (A) (A) (A) (A) (A) (A) (A) (A) (A)
                 (A) (A) (A) (A) (A) (A) (A) (A) (A) (A) (A) (A)
                 (A) (A) (A) (A) (A) (A) (A) (A) (A) (A) (A) (A)
                 (A) (A) (A) (A) (A) (A) (A) (A) (A) (A) (A) (A)
                 (A) (A) (A) (A) (A) (A) (A) (A) (A) (A) (A) (A)
                 (A) (A) (A) (A) (A) (A) (A) (A) (A) (A) (A) (A)
                 (A) (A) (A) (A) (A) (A) (A) (A) (A) (A) (A) (A)
                 (A) (A) (A) (A) (A) (A) (A) (A) (A) (A) (A) (A)
                 (A) (A) (A) (A) (A) (A) (A) (A) (A) (A) (A) (A)
                 (A) (A) (A) (A) (A) (A) (A) (A) (A) (A) (A) (A)
                 (A) (A) (A) (A) (A) (A) (A) (A) (A) (A) (A) (A)
                 (A) (A) (A) (A) (A) (A) (A) (A) (A) (A) (A) (A)
                 (A) (A) (A) (A) (A) (A) (A) (A) (A) (A) (A) (A)
                 (A) (A) (A) (A) (A) (A) (A) (A) (A) (A) (A) (A)
                 (A) (A) (A) (A) (A) (A) (A) (A) (A) (A) (A) (A)
                 (A) (A) (A)
 The electronic state is 1-A.
 Alpha  occ. eigenvalues --  -10.20805 -10.20773 -10.20733 -10.20716 -10.20595
 Alpha  occ. eigenvalues --  -10.20322 -10.20267 -10.19936 -10.19914 -10.19706
 Alpha  occ. eigenvalues --  -10.19515 -10.19506 -10.19497 -10.19474 -10.19427
 Alpha  occ. eigenvalues --  -10.19354 -10.19298 -10.19166 -10.18967 -10.18935
 Alpha  occ. eigenvalues --  -10.18895 -10.18660 -10.18505 -10.18477 -10.18459
 Alpha  occ. eigenvalues --  -10.17980 -10.17741 -10.16931 -10.16879 -10.16796
 Alpha  occ. eigenvalues --   -0.91869  -0.88582  -0.86626  -0.84944  -0.84123
 Alpha  occ. eigenvalues --   -0.81851  -0.80352  -0.79748  -0.78656  -0.76474
 Alpha  occ. eigenvalues --   -0.75434  -0.74734  -0.72175  -0.69961  -0.69893
 Alpha  occ. eigenvalues --   -0.66664  -0.66032  -0.63796  -0.63053  -0.61697
 Alpha  occ. eigenvalues --   -0.60210  -0.60071  -0.58471  -0.56262  -0.55298
 Alpha  occ. eigenvalues --   -0.52834  -0.51668  -0.51185  -0.50809  -0.49929
 Alpha  occ. eigenvalues --   -0.49656  -0.47121  -0.46632  -0.46496  -0.45626
 Alpha  occ. eigenvalues --   -0.44538  -0.44254  -0.43750  -0.43684  -0.42552
 Alpha  occ. eigenvalues --   -0.42171  -0.41804  -0.41254  -0.40421  -0.40089
 Alpha  occ. eigenvalues --   -0.39776  -0.39714  -0.39010  -0.38390  -0.37554
 Alpha  occ. eigenvalues --   -0.36820  -0.36071  -0.35823  -0.35019  -0.34486
 Alpha  occ. eigenvalues --   -0.34217  -0.33499  -0.33052  -0.31879  -0.31345
 Alpha  occ. eigenvalues --   -0.30292  -0.28275  -0.27597  -0.25360  -0.22941
 Alpha  occ. eigenvalues --   -0.22649  -0.20566  -0.19132
 Alpha virt. eigenvalues --   -0.10160  -0.07656  -0.04939  -0.04151  -0.02667
 Alpha virt. eigenvalues --   -0.00747  -0.00047   0.00556   0.00718   0.01238
 Alpha virt. eigenvalues --    0.01440   0.01687   0.01747   0.02435   0.02759
 Alpha virt. eigenvalues --    0.02921   0.03455   0.03919   0.04547   0.04586
 Alpha virt. eigenvalues --    0.04728   0.04832   0.05196   0.05838   0.06234
 Alpha virt. eigenvalues --    0.06589   0.06778   0.07134   0.07397   0.07498
 Alpha virt. eigenvalues --    0.08670   0.08814   0.08948   0.09187   0.09474
 Alpha virt. eigenvalues --    0.09652   0.10156   0.10403   0.10786   0.11125
 Alpha virt. eigenvalues --    0.11526   0.11663   0.12013   0.12536   0.12637
 Alpha virt. eigenvalues --    0.13002   0.13085   0.13799   0.14086   0.14171
 Alpha virt. eigenvalues --    0.14344   0.14580   0.15086   0.15195   0.15339
 Alpha virt. eigenvalues --    0.16029   0.16380   0.16511   0.16648   0.16707
 Alpha virt. eigenvalues --    0.16773   0.16932   0.17169   0.17368   0.17722
 Alpha virt. eigenvalues --    0.17838   0.18155   0.18189   0.18359   0.18432
 Alpha virt. eigenvalues --    0.18496   0.18933   0.19193   0.19258   0.19397
 Alpha virt. eigenvalues --    0.19581   0.19837   0.20049   0.20320   0.20534
 Alpha virt. eigenvalues --    0.20858   0.21088   0.21304   0.21492   0.21771
 Alpha virt. eigenvalues --    0.21994   0.22181   0.22427   0.22516   0.22925
 Alpha virt. eigenvalues --    0.23217   0.23452   0.23608   0.23674   0.23870
 Alpha virt. eigenvalues --    0.24140   0.24221   0.24499   0.24646   0.24819
 Alpha virt. eigenvalues --    0.25272   0.25440   0.25692   0.26280   0.26544
 Alpha virt. eigenvalues --    0.26744   0.26824   0.27102   0.27268   0.27556
 Alpha virt. eigenvalues --    0.27960   0.28437   0.28486   0.28799   0.29245
 Alpha virt. eigenvalues --    0.29480   0.29563   0.29967   0.30158   0.30580
 Alpha virt. eigenvalues --    0.30955   0.31031   0.31268   0.31543   0.31737
 Alpha virt. eigenvalues --    0.32109   0.32522   0.32812   0.33131   0.33428
 Alpha virt. eigenvalues --    0.33781   0.34038   0.34432   0.34548   0.35540
 Alpha virt. eigenvalues --    0.35693   0.35817   0.36281   0.36471   0.36905
 Alpha virt. eigenvalues --    0.37665   0.37794   0.38123   0.38588   0.39205
 Alpha virt. eigenvalues --    0.39490   0.39772   0.40672   0.40760   0.41366
 Alpha virt. eigenvalues --    0.42222   0.42858   0.43049   0.43699   0.43760
 Alpha virt. eigenvalues --    0.44544   0.44950   0.45750   0.46523   0.46899
 Alpha virt. eigenvalues --    0.47415   0.48301   0.48787   0.49183   0.50202
 Alpha virt. eigenvalues --    0.50700   0.51602   0.51693   0.52575   0.52944
 Alpha virt. eigenvalues --    0.53370   0.53494   0.54006   0.54702   0.55434
 Alpha virt. eigenvalues --    0.55477   0.56019   0.56358   0.56758   0.56996
 Alpha virt. eigenvalues --    0.57246   0.57927   0.58206   0.58499   0.58629
 Alpha virt. eigenvalues --    0.58878   0.59754   0.60020   0.60282   0.60794
 Alpha virt. eigenvalues --    0.61004   0.61279   0.62134   0.62553   0.63057
 Alpha virt. eigenvalues --    0.63395   0.63833   0.64039   0.64592   0.64870
 Alpha virt. eigenvalues --    0.65381   0.65670   0.66053   0.66343   0.66486
 Alpha virt. eigenvalues --    0.67283   0.67795   0.68056   0.68543   0.68792
 Alpha virt. eigenvalues --    0.69265   0.69453   0.69715   0.70175   0.70604
 Alpha virt. eigenvalues --    0.71113   0.71206   0.71563   0.71883   0.72385
 Alpha virt. eigenvalues --    0.72505   0.72948   0.73403   0.73707   0.73784
 Alpha virt. eigenvalues --    0.74261   0.74831   0.74927   0.75726   0.75780
 Alpha virt. eigenvalues --    0.75957   0.76806   0.76933   0.77320   0.77850
 Alpha virt. eigenvalues --    0.78464   0.79301   0.80012   0.80460   0.80915
 Alpha virt. eigenvalues --    0.81611   0.81853   0.82188   0.82836   0.83908
 Alpha virt. eigenvalues --    0.84195   0.84546   0.85178   0.86589   0.87048
 Alpha virt. eigenvalues --    0.87490   0.88311   0.88648   0.88935   0.90165
 Alpha virt. eigenvalues --    0.90288   0.91106   0.91473   0.92860   0.93081
 Alpha virt. eigenvalues --    0.93512   0.93781   0.93883   0.94612   0.94920
 Alpha virt. eigenvalues --    0.95182   0.95448   0.96030   0.96474   0.96910
 Alpha virt. eigenvalues --    0.97232   0.97918   0.98152   0.98370   0.98750
 Alpha virt. eigenvalues --    0.99107   0.99958   1.00307   1.00480   1.01343
 Alpha virt. eigenvalues --    1.01859   1.02121   1.02976   1.03631   1.04029
 Alpha virt. eigenvalues --    1.04418   1.05251   1.05736   1.06188   1.06463
 Alpha virt. eigenvalues --    1.07446   1.07874   1.08281   1.09148   1.09672
 Alpha virt. eigenvalues --    1.10244   1.11540   1.11803   1.12474   1.13288
 Alpha virt. eigenvalues --    1.14217   1.15394   1.15641   1.16214   1.17192
 Alpha virt. eigenvalues --    1.18845   1.20097   1.20306   1.20631   1.21682
 Alpha virt. eigenvalues --    1.23298   1.24059   1.26015   1.26439   1.27114
 Alpha virt. eigenvalues --    1.28695   1.30376   1.31316   1.32676   1.33615
 Alpha virt. eigenvalues --    1.34499   1.35726   1.37010   1.38524   1.39408
 Alpha virt. eigenvalues --    1.40315   1.41162   1.42424   1.43337   1.44258
 Alpha virt. eigenvalues --    1.45179   1.45402   1.46111   1.46601   1.46859
 Alpha virt. eigenvalues --    1.47536   1.48148   1.48393   1.48849   1.49417
 Alpha virt. eigenvalues --    1.50044   1.50844   1.50939   1.52182   1.52593
 Alpha virt. eigenvalues --    1.53083   1.53655   1.54489   1.55283   1.56016
 Alpha virt. eigenvalues --    1.56388   1.57795   1.58665   1.59045   1.59401
 Alpha virt. eigenvalues --    1.59976   1.60262   1.61158   1.61707   1.62475
 Alpha virt. eigenvalues --    1.63200   1.63926   1.64455   1.64954   1.66007
 Alpha virt. eigenvalues --    1.66883   1.67395   1.68379   1.69310   1.70200
 Alpha virt. eigenvalues --    1.70960   1.71413   1.72255   1.73256   1.73652
 Alpha virt. eigenvalues --    1.73898   1.74146   1.74799   1.75480   1.76693
 Alpha virt. eigenvalues --    1.77866   1.78161   1.79329   1.80095   1.80449
 Alpha virt. eigenvalues --    1.80621   1.81615   1.82616   1.83673   1.83700
 Alpha virt. eigenvalues --    1.84315   1.84717   1.85163   1.85906   1.86029
 Alpha virt. eigenvalues --    1.87014   1.87130   1.87527   1.87890   1.88924
 Alpha virt. eigenvalues --    1.89226   1.89814   1.90261   1.91585   1.91727
 Alpha virt. eigenvalues --    1.92140   1.93034   1.93439   1.94199   1.95280
 Alpha virt. eigenvalues --    1.96328   1.97006   1.98205   1.98467   1.99228
 Alpha virt. eigenvalues --    1.99717   2.00272   2.00942   2.01722   2.02387
 Alpha virt. eigenvalues --    2.03311   2.03553   2.04030   2.04419   2.05364
 Alpha virt. eigenvalues --    2.06821   2.07304   2.07506   2.08890   2.10299
 Alpha virt. eigenvalues --    2.10887   2.11587   2.12340   2.13439   2.13888
 Alpha virt. eigenvalues --    2.14298   2.15209   2.15926   2.17054   2.17308
 Alpha virt. eigenvalues --    2.19292   2.20552   2.21883   2.22257   2.22974
 Alpha virt. eigenvalues --    2.23900   2.24555   2.25096   2.26196   2.26634
 Alpha virt. eigenvalues --    2.27279   2.28162   2.29672   2.30075   2.32653
 Alpha virt. eigenvalues --    2.33381   2.35058   2.36396   2.37570   2.38362
 Alpha virt. eigenvalues --    2.38805   2.40822   2.41628   2.42563   2.43148
 Alpha virt. eigenvalues --    2.44939   2.45322   2.47532   2.48276   2.49602
 Alpha virt. eigenvalues --    2.50935   2.52571   2.53640   2.54383   2.55990
 Alpha virt. eigenvalues --    2.56361   2.57627   2.59199   2.60296   2.61166
 Alpha virt. eigenvalues --    2.61778   2.63384   2.65219   2.65697   2.65941
 Alpha virt. eigenvalues --    2.67904   2.68391   2.70540   2.70776   2.71269
 Alpha virt. eigenvalues --    2.71908   2.72049   2.72442   2.72652   2.73214
 Alpha virt. eigenvalues --    2.73516   2.74237   2.74595   2.75034   2.75469
 Alpha virt. eigenvalues --    2.75701   2.76114   2.76517   2.76863   2.77291
 Alpha virt. eigenvalues --    2.77713   2.77945   2.78246   2.78586   2.79379
 Alpha virt. eigenvalues --    2.80479   2.81303   2.82009   2.83064   2.83482
 Alpha virt. eigenvalues --    2.84216   2.84382   2.86811   2.87320   2.87377
 Alpha virt. eigenvalues --    2.88404   2.89723   2.90767   2.91853   2.93026
 Alpha virt. eigenvalues --    2.93796   2.94643   2.96860   2.98121   2.99885
 Alpha virt. eigenvalues --    3.01175   3.01596   3.02952   3.04240   3.06072
 Alpha virt. eigenvalues --    3.07206   3.08151   3.08830   3.11244   3.11914
 Alpha virt. eigenvalues --    3.12506   3.13559   3.14387   3.15501   3.15997
 Alpha virt. eigenvalues --    3.16883   3.17790   3.19787   3.20627   3.21214
 Alpha virt. eigenvalues --    3.21986   3.25200   3.27853   3.29680   3.30131
 Alpha virt. eigenvalues --    3.33245   3.34623   3.35322   3.36550   3.37241
 Alpha virt. eigenvalues --    3.38040   3.40360   3.41482   3.42485   3.43380
 Alpha virt. eigenvalues --    3.43939   3.46070   3.48279   3.49037   3.50689
 Alpha virt. eigenvalues --    3.52186   3.54714   3.55485   3.62843   3.63983
 Alpha virt. eigenvalues --    3.64725   3.66295   3.67746   3.70617   3.74823
 Alpha virt. eigenvalues --    3.77356   3.84556   3.87779   3.88508   3.95903
 Alpha virt. eigenvalues --    3.99254   4.04601   4.05525   4.07070   4.07475
 Alpha virt. eigenvalues --    4.07793   4.08182   4.09777   4.15352   4.18040
 Alpha virt. eigenvalues --    4.24497   4.28139   4.31810   4.37341   4.46902
 Alpha virt. eigenvalues --    4.55821   4.62680   4.67842   4.70042   4.72174
 Alpha virt. eigenvalues --    4.75458   4.76324   4.81633   4.83272  23.41368
 Alpha virt. eigenvalues --   23.60145  23.70482  23.73429  23.76201  23.77774
 Alpha virt. eigenvalues --   23.78343  23.81468  23.81760  23.83092  23.84803
 Alpha virt. eigenvalues --   23.87059  23.88044  23.89959  23.92647  23.93182
 Alpha virt. eigenvalues --   23.93627  23.94551  23.96365  24.09765  24.14809
 Alpha virt. eigenvalues --   24.16882  24.18062  24.19175  24.20454  24.21723
 Alpha virt. eigenvalues --   24.23016  24.24994  24.27186  24.29415
          Condensed to atoms (all electrons):
               1          2          3          4          5          6
     1  C    9.760520   0.379001   0.042674  -0.084946  -1.015860   0.139722
     2  C    0.379001   9.954099  -0.494100  -0.443356  -0.787798  -0.337783
     3  C    0.042674  -0.494100   8.834955  -0.478137   0.031275   0.615834
     4  C   -0.084946  -0.443356  -0.478137  10.022035   0.832477   0.329284
     5  C   -1.015860  -0.787798   0.031275   0.832477   9.363033  -0.750973
     6  C    0.139722  -0.337783   0.615834   0.329284  -0.750973  11.685511
     7  C   -1.211165   0.353040  -0.380534  -0.729710   2.314099  -3.375112
     8  C   -0.512451   0.219646  -1.674649   2.300052  -0.806833  -1.032465
     9  C    0.359032  -0.054313  -0.364850   0.041604   0.636213   0.484945
    10  C   -0.348996   0.607143   1.082521   0.713784  -0.648704  -0.498792
    11  C   -0.455537  -1.786220  -1.218976  -0.352383   2.628119   0.131318
    12  C    0.500024  -0.299965   2.487472  -2.041030  -1.951377   0.840856
    13  C    2.830191   1.486656  -0.740242  -0.368161  -0.334224  -0.262409
    14  C   -1.622936  -2.444100   0.085823   2.090016   0.150736  -1.443306
    15  C    0.512285  -0.297917   0.002559  -2.265476  -1.422020  -0.720487
    16  C    0.880173   1.184361   0.199546  -0.662636  -0.791799  -0.076385
    17  C   -0.543521  -0.102528   1.388275  -0.118405  -0.196336   0.004794
    18  C    0.472300   1.298984  -2.140332  -0.010732  -0.825405  -0.101058
    19  C    0.364790   0.495428   0.127989   0.182101  -0.170365   0.033548
    20  C    0.161562  -1.664101  -0.127445   0.214999   0.102453  -0.002125
    21  C    0.337244  -0.546054  -0.353879  -0.174225  -0.085982   0.021291
    22  C    0.194650  -0.788303  -0.858307  -0.066837   0.181438   0.026940
    23  C   -0.175037  -0.788258  -0.317582  -0.395175  -0.113995   0.086016
    24  C    0.427933  -1.162662   0.331638   0.387928   0.039110   0.028626
    25  C   -0.131034  -0.057050  -0.035625   0.045555  -0.001151   0.007582
    26  C   -0.372469   0.048499  -0.263765   0.026772   0.006677  -0.024738
    27  C   -0.651563  -0.263799  -0.057737  -0.188331  -0.020718  -0.011888
    28  C    0.370887   0.007070   0.030677   0.069206   0.010281   0.005327
    29  C   -0.658119   0.153441  -0.050102  -0.215874  -0.096795   0.040657
    30  C   -3.518511   2.408333   0.144484  -2.933833  -0.413021   0.143669
    31  H   -0.003107  -0.003757   0.003102   0.040972  -0.010058  -0.061907
    32  H   -0.006166   0.003797  -0.000292   0.016888  -0.006782  -0.106283
    33  H   -0.001199   0.003587  -0.005478  -0.012680   0.029527  -0.038813
    34  H    0.003822  -0.003386  -0.016012  -0.009800   0.028086   0.012837
    35  H    0.004026  -0.008178   0.028266  -0.001287  -0.019956   0.002243
    36  H   -0.000705  -0.020366   0.024106   0.001878  -0.001451  -0.000269
    37  H    0.000510  -0.005282   0.000409  -0.000476   0.001019  -0.000005
    38  H   -0.000046   0.000632  -0.000660   0.000120   0.000165  -0.000010
    39  H   -0.000264   0.001176  -0.000014  -0.000058   0.000013   0.000003
    40  H   -0.000738   0.000059  -0.000101  -0.000023  -0.000001  -0.000030
    41  H    0.000493  -0.000518   0.000057   0.000439   0.000001  -0.000015
    42  H   -0.002109   0.001313  -0.000031  -0.000108   0.000004  -0.000031
    43  H   -0.001158   0.003890  -0.001138  -0.000474   0.000233   0.000548
    44  H   -0.025321   0.014864  -0.001807   0.034398  -0.009023  -0.005475
    45  H    0.062720  -0.002036   0.000909  -0.007954  -0.000748  -0.043210
    46  H   -0.019951  -0.005121   0.000452  -0.011055   0.000181   0.005128
               7          8          9         10         11         12
     1  C   -1.211165  -0.512451   0.359032  -0.348996  -0.455537   0.500024
     2  C    0.353040   0.219646  -0.054313   0.607143  -1.786220  -0.299965
     3  C   -0.380534  -1.674649  -0.364850   1.082521  -1.218976   2.487472
     4  C   -0.729710   2.300052   0.041604   0.713784  -0.352383  -2.041030
     5  C    2.314099  -0.806833   0.636213  -0.648704   2.628119  -1.951377
     6  C   -3.375112  -1.032465   0.484945  -0.498792   0.131318   0.840856
     7  C   12.498434   0.104637  -1.616021   0.146202  -0.135599  -0.546065
     8  C    0.104637  12.396060  -1.746408   0.860598  -0.399907  -2.710168
     9  C   -1.616021  -1.746408  11.508584  -0.100199   0.116281  -3.453665
    10  C    0.146202   0.860598  -0.100199  11.770822  -3.936709  -0.590813
    11  C   -0.135599  -0.399907   0.116281  -3.936709  14.445486  -0.471688
    12  C   -0.546065  -2.710168  -3.453665  -0.590813  -0.471688  13.962233
    13  C   -0.185319   0.326117  -0.658129  -0.009155  -0.373731  -0.018818
    14  C   -0.138774  -0.309933   0.250907  -0.282197   0.294550  -0.288547
    15  C   -1.217071  -0.885379   0.566498  -0.163492  -0.204552   0.698939
    16  C   -0.139464  -0.280680  -0.084054  -0.933414  -1.111936   0.597013
    17  C    0.108222  -0.138674  -0.102302   0.122240  -0.867093  -0.078660
    18  C   -0.266617   0.418920   0.173072  -0.739222  -0.398331  -0.490966
    19  C    0.045405   0.049901   0.104386  -0.517488  -0.127226  -0.185003
    20  C   -0.008374  -0.000860   0.014649  -0.049437   0.098738  -0.013588
    21  C   -0.001469   0.006935  -0.027547  -0.207978  -0.106050   0.004667
    22  C   -0.026020  -0.000623  -0.120726  -0.289210   0.521782  -0.016694
    23  C   -0.074168   0.111565   0.013659  -0.211946  -0.018148  -0.092268
    24  C    0.055711  -0.005564   0.010514  -0.129127   0.012685  -0.030015
    25  C    0.006329  -0.003854  -0.004593   0.006910  -0.004170   0.003262
    26  C   -0.004515  -0.002695  -0.005026  -0.026708  -0.001490   0.010300
    27  C   -0.018437   0.010033  -0.001923  -0.046954  -0.006352  -0.001683
    28  C    0.012483  -0.003552   0.001928   0.009056   0.001913   0.000307
    29  C   -0.041134   0.014696  -0.011588  -0.016365  -0.007672   0.000897
    30  C    0.307044  -0.161502  -0.307556   0.128124  -0.198565   0.141718
[...]
 0184992,-0.00081705,0.00068050,-0.00427758,-0.10182615,-0.05829987,-0.
 08641643,0.00829125,0.01181354,0.01394333,0.00000936,0.00002275,-0.000
 02260,-0.00000298,0.00000436,-0.00000181,0.00000151,-0.00000582,-0.000
 00715,-0.00000511,-0.00000190,-0.00000201,0.00000387,-0.00000260,-0.00
 000227,0.00000202,-0.00000100,-0.00000573,0.00000013,-0.00000846,0.000
 00519,0.00001089,0.00000343,0.00000126,0.00001446,-0.00000468,-0.00000
 689,0.00000083,0.00001993,-0.00000124,-0.00001077,0.00005921,0.0000102
 8,0.00007877,0.00064894,-0.00026496,0.10854529,-0.00132887,-0.00093384
 ,-0.00042249,-0.00015702,0.00025171,-0.00011100,0.00010099,-0.00016490
 ,-0.00001882,0.00035888,-0.00031965,0.00024081,-0.00012604,-0.00009918
 ,0.00002587,0.00008270,-0.00019237,-0.00001023,0.00004945,0.00016332,0
 .00002965,0.00010454,-0.00011132,-0.00000178,-0.00008022,-0.00004814,-
 0.00003103,-0.00002638,0.00003087,0.00000409,0.00001810,-0.00007554,-0
 .00001775,0.00004747,0.00002944,0.00001099,0.00457565,-0.00263024,-0.0
 0169589,0.00026360,-0.00005542,-0.00002338,0.00001625,0.00023424,0.000
 01309,0.00004879,-0.00021703,0.00013543,-0.00009520,-0.00000942,0.0000
 3284,0.00004727,0.00000879,-0.00000109,-0.00026736,-0.00003205,-0.0004
 6842,0.00001879,0.00027318,-0.00009774,0.00016668,0.00001108,0.0000495
 4,-0.00006647,0.00006591,-0.00003298,-0.00064850,-0.00016113,0.0002291
 5,0.00185841,0.00051696,0.00035423,-0.00063059,0.00003967,0.00003341,0
 .00026620,-0.00020270,0.00005497,0.00017336,-0.00039339,0.00195213,0.0
 0920389,0.01088052,0.01801740,-0.05352578,-0.09726138,-0.08338881,-0.0
 1161038,-0.01621450,-0.01788991,-0.00002954,-0.00002534,-0.00000973,-0
 .00001471,-0.00001182,-0.00000693,0.00000546,-0.00000991,-0.00000416,0
 .00001081,-0.00001160,-0.00000791,0.00000591,-0.00000308,-0.00000043,0
 .00000965,-0.00000138,0.00000096,0.00001067,0.00000610,-0.00000897,-0.
 00000169,0.00000092,-0.00000240,-0.00001609,0.00000177,0.00000518,0.00
 005352,0.00002156,-0.00003395,-0.00078495,-0.00117757,-0.00116079,0.00
 010000,-0.00108194,-0.00054620,0.05797906,0.11389525,-0.00049644,-0.00
 043357,-0.00013468,-0.00000638,-0.00000266,0.00000657,-0.00000658,-0.0
 0001376,0.00000170,0.00017464,0.00000601,-0.00001640,0.00000680,-0.000
 06135,-0.00002378,-0.00002843,0.00006062,-0.00001612,-0.00001840,-0.00
 000223,-0.00001033,0.00000105,0.00001311,0.00000229,0.00001606,-0.0000
 0700,0.00001356,0.00001735,0.00001017,-0.00000063,-0.00000507,0.000006
 76,0.00000655,-0.00000634,-0.00000509,0.00000113,0.00185603,-0.0001881
 5,0.00088597,0.00023773,0.00016320,0.00017592,-0.00011892,-0.00005416,
 0.00001141,0.00000222,-0.00000431,-0.00003745,0.00005054,0.00000169,0.
 00000646,-0.00000700,-0.00001595,0.00000614,0.00006549,-0.00004944,-0.
 00004531,0.00010904,-0.00003800,-0.00001236,-0.00003298,-0.00000964,0.
 00005316,0.00005367,-0.00001000,0.00000643,-0.00017448,-0.00017727,-0.
 00023607,-0.00008543,-0.00074534,-0.00029556,0.00011041,-0.00001492,0.
 00009719,-0.00001243,-0.00013127,-0.00001374,-0.00276266,0.00237070,0.
 00071669,-0.01011791,-0.00457421,-0.02488714,-0.08590579,-0.09105424,-
 0.17945839,-0.00428531,-0.00537663,-0.00662497,-0.00000934,-0.00001242
 ,0.00000593,-0.00000322,-0.00000213,-0.00000475,-0.00000298,-0.0000035
 9,0.00000080,0.00000070,-0.00000474,-0.00000249,0.00000287,-0.00000232
 ,-0.00000196,0.00000137,0.,-0.00000538,-0.00000114,-0.00000752,-0.0000
 1104,0.00001131,0.00000062,-0.00000991,0.00002509,-0.00000306,-0.00000
 852,-0.00003641,-0.00000604,0.00005347,0.00083106,0.00113878,0.0009475
 2,-0.00022595,0.00052877,-0.00105204,0.09603289,0.09255204,0.19884889,
 0.00014968,0.00178536,0.00137374,0.00085228,0.00006961,-0.00046195,-0.
 00012854,0.00035915,-0.00006712,-0.00035540,-0.00040366,0.00052705,0.0
 0000961,0.00024548,0.00000005,-0.00000354,-0.00014517,-0.00008149,0.00
 001920,0.00020278,-0.00006839,0.00022984,-0.00008568,0.00003583,-0.000
 30129,-0.00009895,-0.00010927,0.00047236,0.00014028,0.00001984,-0.0000
 8683,-0.00006509,0.00000427,0.00012208,-0.00002210,0.00001888,-0.01094
 579,-0.00048399,-0.01845079,0.00023460,-0.00161325,-0.00074081,-0.0004
 9796,-0.00019871,0.00064659,0.00041077,-0.00051242,0.00001032,-0.00050
 125,0.00037374,-0.00011633,-0.00007306,-0.00043955,0.00000114,0.000617
 20,-0.00015020,0.00076839,0.00036054,-0.00045483,-0.00033817,0.0001388
 6,0.00006282,0.00003152,-0.00003971,0.00002527,-0.00001827,0.00526705,
 -0.01141002,0.02523692,-0.00348037,0.00038609,0.00139744,-0.00009327,-
 0.00111265,-0.00082480,-0.00029340,-0.00019761,0.00022375,0.00030731,0
 .00039896,0.00023864,-0.00210233,0.00163585,0.00257629,-0.00755229,0.0
 0988407,-0.01522477,-0.08108708,0.03836093,-0.08394871,-0.00009212,-0.
 00012350,-0.00000361,-0.00001145,-0.00000004,-0.00000067,0.00000387,-0
 .00001008,0.00000505,-0.00000225,-0.00000413,-0.00000766,0.00000441,-0
 .00000419,-0.00000509,0.00000428,-0.00001343,0.00001961,0.00001110,0.0
 0001144,-0.00000195,0.00002278,-0.00000442,-0.00000094,0.00001534,0.00
 006632,0.00008336,-0.00024698,-0.00019056,0.00007268,0.00005500,-0.000
 06511,-0.00007222,-0.00000740,0.00063870,-0.00065989,0.00152121,-0.000
 46533,0.00000081,0.09724488,-0.00130798,-0.00232696,-0.00299163,-0.001
 15195,0.00046715,0.00027796,-0.00022826,-0.00088204,0.00001405,0.00039
 791,0.00146946,0.00050528,0.00040349,-0.00012371,0.00002412,-0.0007899
 8,0.00019382,-0.00008535,0.00024462,-0.00006051,-0.00003575,-0.0002687
 0,-0.00024970,-0.00009342,0.00006592,0.00008760,0.00001388,-0.00027722
 ,-0.00007010,-0.00003181,0.00015369,0.00001736,-0.00001538,-0.00011460
 ,0.00012479,0.00003356,-0.01453848,0.00178786,-0.02278069,0.00081847,-
 0.00118381,-0.00091124,-0.00045753,-0.00120878,0.00071672,0.00009431,0
 .00078393,0.00023556,0.00034488,-0.00008214,0.00010530,0.00004179,0.00
 024937,-0.00001119,0.00076124,0.00006997,-0.00089788,-0.00019544,-0.00
 009386,-0.00020066,0.00008565,0.00001057,-0.00000368,-0.00008412,0.000
 02380,-0.00001925,0.00031338,-0.00377693,0.00932817,-0.00052752,0.0003
 7046,0.00001378,-0.00041689,-0.00043965,0.00002534,0.00024796,-0.00004
 596,0.00008040,-0.00022852,0.00037802,-0.00014862,0.00412334,-0.002658
 25,-0.00250673,0.01132523,-0.01580350,0.02013802,0.03745707,-0.0718460
 0,0.07469783,-0.00010762,-0.00013275,0.00007938,-0.00001176,-0.0000210
 4,-0.00000484,0.00001425,-0.00000008,-0.00000038,0.00000862,-0.0000057
 6,-0.00000767,0.00000866,0.00000920,-0.00000020,0.00000517,0.00001465,
 -0.00002235,-0.00000208,0.00000808,0.00000639,-0.00001310,-0.00000282,
 0.00001085,-0.00002514,0.00001373,0.00003461,-0.00011296,-0.00009596,-
 0.00001611,-0.00002397,0.00005155,0.00009257,0.00029367,-0.00067808,0.
 00126592,-0.00034538,0.00030586,0.00079479,-0.03624021,0.09504672,-0.0
 0141898,0.00067326,0.00211040,0.00090193,-0.00033104,-0.00039219,-0.00
 020592,0.00003406,0.00008772,-0.00009808,-0.00038576,0.00033055,0.0000
 2465,0.00034805,-0.00004549,-0.00006223,0.00001934,-0.00008769,0.00006
 833,0.00016376,-0.00002016,0.00017587,-0.00009405,0.00004735,-0.000221
 15,-0.00018356,-0.00011685,0.00033127,0.00004781,0.00002873,-0.0000377
 9,0.00000423,-0.00000655,0.00003135,0.00000353,0.00002505,-0.00992314,
 -0.00131128,-0.01173106,0.00082897,-0.00102629,-0.00080448,-0.00031510
 ,-0.00019907,0.00023536,0.00040960,-0.00097453,-0.00056764,-0.00014101
 ,0.00012685,0.00008192,-0.00014308,-0.00025090,0.00001164,-0.00108172,
 0.00101169,0.00160791,0.00036780,0.00059977,0.00013976,-0.00010640,0.0
 0002443,-0.00003126,-0.00002390,-0.00001509,-0.00000296,-0.00195855,0.
 01014206,-0.01974334,0.00246039,-0.00052771,-0.00117914,-0.00005000,0.
 00082261,0.00031329,0.00007175,-0.00014652,-0.00009542,0.00013994,-0.0
 0057050,-0.00008617,0.00160868,-0.00129328,-0.00004030,0.00328534,-0.0
 0610834,0.00737993,-0.08387282,0.07636314,-0.22705692,-0.00006061,-0.0
 0010382,0.00005976,-0.00000439,0.00000324,-0.00000372,0.00001235,-0.00
 000073,-0.00000596,-0.00000133,0.00000182,-0.00000310,0.00000330,0.000
 00761,-0.00000599,-0.00000255,0.00000318,-0.00000191,-0.00000493,-0.00
 000940,0.00000119,-0.00001638,0.00000661,-0.00000724,0.00000171,-0.000
 06105,-0.00006167,0.00022103,0.00014523,-0.00000049,-0.00006797,0.0000
 3147,0.00002372,0.00022148,-0.00030787,0.00053036,0.00061539,-0.000058
 52,0.00183336,0.08816622,-0.07719189,0.24739225,-0.00567985,-0.0015569
 5,-0.00185842,0.00037927,0.00104469,0.00017337,-0.00056525,0.00014911,
 0.00002046,-0.00039564,-0.00093436,-0.00009200,-0.00005349,0.00015312,
 0.00003972,-0.00039513,-0.00280145,-0.00178779,0.00055851,-0.00020465,
 0.00003082,0.00002542,-0.00018343,0.00004705,-0.00012795,-0.00003285,-
 0.00004077,0.00009535,0.00010874,0.00004379,-0.00008342,-0.00001525,0.
 00000166,0.00005072,0.00000125,0.00001192,-0.01410483,0.02557933,0.001
 51690,-0.15187919,0.13313372,0.00203638,0.00988442,-0.01300350,-0.0009
 5335,-0.00001939,0.00024446,-0.00008279,-0.00000799,-0.00003303,-0.000
 00101,-0.00007944,0.00001043,0.00001421,0.00002051,0.00012765,0.000031
 80,0.00008423,-0.00004929,-0.00000775,-0.00007001,-0.00001797,0.000005
 86,0.00006489,0.00001829,0.00000187,0.00004350,-0.00020321,-0.00016687
 ,-0.00018694,0.00001771,0.00001064,0.00004387,-0.00008344,0.00006151,0
 .00000712,-0.00004167,-0.00001042,-0.00026046,0.00017858,0.00004313,0.
 00055915,-0.00021989,0.00027628,-0.00052533,-0.00036315,0.00025503,0.0
 0097976,0.00059065,0.00099695,0.00079574,-0.00001084,0.00096898,-0.000
 00482,0.00001200,-0.00001602,0.00004895,-0.00004498,-0.00000155,-0.000
 00418,0.00001013,0.00000385,-0.00000180,0.00002678,-0.00000981,-0.0000
 1122,0.00000076,0.00000131,-0.00001657,-0.00000871,0.00000027,0.000004
 01,-0.00000606,0.00000227,0.00001229,-0.00000519,0.00000416,-0.0000100
 8,-0.00000370,0.00002122,0.00003908,-0.00001383,-0.00003329,0.00000365
 ,-0.00012458,-0.00003290,0.00036053,0.00008272,-0.00009340,0.00016722,
 0.00009104,0.00005555,0.16002202,-0.00093829,0.00102467,-0.00075253,-0
 .00032351,0.00028060,0.00000370,-0.00003750,-0.00005228,-0.00002409,-0
 .00072912,0.00028139,-0.00000873,0.00006189,0.00002809,0.00010264,-0.0
 0326653,-0.00301501,-0.00238612,0.00112295,-0.00017642,0.00014005,-0.0
 0017697,-0.00044688,-0.00001780,-0.00015080,-0.00000481,-0.00004405,0.
 00005471,0.00004067,0.00003867,-0.00001646,-0.00001967,-0.00000012,0.0
 0002911,0.00002430,0.00001169,-0.00220487,0.00542514,0.00003244,0.1319
 1737,-0.23616423,-0.01148118,0.01733428,-0.01953218,-0.00071654,0.0000
 7186,-0.00000029,0.00001037,-0.00001395,0.00002541,0.00000470,-0.00000
 191,-0.00002763,0.00000617,0.00007569,-0.00003892,-0.00002124,-0.00002
 424,-0.00004231,0.00002310,0.00000788,0.00001297,-0.00000387,-0.000021
 60,-0.00000831,0.00000642,-0.00010096,0.00005066,0.00014912,-0.0000557
 0,0.00002866,0.00001843,0.00006573,0.00000131,-0.00003296,-0.00003223,
 0.00005110,-0.00001315,0.00008096,-0.00005599,0.00001072,-0.00022113,0
 .00004407,-0.00009949,-0.00043018,-0.00033758,-0.00048187,0.00027795,-
 0.00053286,0.00009955,-0.00046485,0.00076699,0.00094314,-0.00004420,-0
 .00003051,-0.00003646,0.00009467,-0.00008963,-0.00000647,-0.00000033,-
 0.00000731,-0.00000279,0.00000848,0.00000272,-0.00001614,0.00000696,-0
 .00000156,-0.00000124,0.00000439,-0.00000346,-0.00000707,0.00000387,0.
 00000377,-0.00000183,0.00000452,0.00000178,-0.00000254,0.00000101,0.00
 000751,-0.00000068,-0.00001252,-0.00000620,-0.00001154,0.00005451,-0.0
 0009183,0.00000121,-0.00016493,0.00012805,0.00010902,0.00013857,0.0000
 8708,0.00007082,-0.14128817,0.25279754,-0.00238715,0.00025349,0.004672
 74,0.00019851,0.00026400,0.00069650,-0.00016758,0.00021977,-0.00011170
 ,-0.00047242,-0.00079032,-0.00113365,-0.00026182,0.00040984,-0.0002459
 9,-0.00167857,-0.00286770,0.00697857,0.00015684,0.00024301,0.00075972,
 0.00039000,-0.00015427,-0.00047826,-0.00034863,-0.00032910,0.00005792,
 0.00014828,0.00000019,-0.00026265,0.00000142,0.00001374,0.00001166,-0.
 00003087,0.00006778,0.00001240,0.00009850,0.00386012,0.00290008,-0.000
 51211,-0.01243178,-0.03648028,0.00434871,-0.00466387,0.00293801,-0.000
 01030,0.00003528,0.00000834,0.00001366,0.00000252,0.00002303,-0.000078
 27,-0.00000500,0.00000343,-0.00001028,0.00004153,-0.00003590,0.0000636
 3,0.00003104,-0.00005885,-0.00001453,0.00003026,-0.00001089,-0.0000280
 9,-0.00001039,0.00000024,0.00028660,0.00011991,0.00038107,0.00015287,0
 .00006933,-0.00006469,-0.00010507,-0.00001094,-0.00001378,0.00005238,-
 0.00006331,0.00002546,-0.00000146,0.00003818,-0.00026155,-0.00001044,-
 0.00023004,0.00025404,-0.00066454,-0.00007927,0.00027527,0.00074244,0.
 00099529,-0.00235852,0.00100163,0.00093697,-0.00466391,-0.00002829,-0.
 00001894,0.00009373,0.00005524,-0.00001027,-0.00009491,-0.00000301,-0.
 00000044,-0.00000683,0.00000358,-0.00000748,0.00007899,-0.00000353,-0.
 00000045,-0.00000220,-0.00000324,-0.00000143,0.00000454,0.00000083,0.0
 0000062,0.00000261,0.00000127,0.00000067,0.00000540,0.00000997,0.00001
 297,0.00001134,0.00002484,0.00001520,-0.00004433,-0.00002623,0.0000830
 6,0.00006288,0.00024368,0.00018333,-0.00011370,-0.00027687,-0.00028853
 ,-0.00007998,-0.00059080,0.01474042,0.02694494,-0.00010133,0.00034135,
 -0.00016690,-0.00001709,0.00003175,-0.00001487,0.00005384,-0.00002910,
 -0.00000349,-0.00008788,-0.00021199,0.00001761,-0.00009846,0.00010022,
 0.00004015,0.00014180,-0.00018761,0.00008426,0.00004779,0.00010980,0.0
 0003737,0.00009497,-0.00006268,-0.00000173,-0.00010700,-0.00002196,-0.
 00001352,0.00000003,0.00005270,-0.00000063,0.00001133,-0.00008297,-0.0
 0001624,0.00006113,0.00004706,0.00000600,0.00035335,-0.00142455,-0.000
 42439,-0.00001053,-0.00047709,-0.00076035,0.00027212,0.00026889,-0.000
 03118,0.00005316,-0.00008883,0.00001210,0.00001822,0.00006073,0.000003
 55,-0.00000518,-0.00001239,-0.00000229,-0.00026350,-0.00078501,0.00058
 959,-0.00018203,0.00013023,-0.00004606,-0.00000416,-0.00006147,0.00001
 981,-0.00004845,-0.00001447,0.00000245,-0.00071747,0.00329687,-0.00059
 200,0.00020861,0.00028120,-0.00021747,0.00007859,-0.00000812,-0.000043
 30,-0.00009728,0.00004198,0.00002854,0.00025967,0.00040422,-0.00130886
 ,0.00756586,0.00304670,-0.00308080,-0.24330175,-0.07299751,0.08505334,
 -0.01515344,-0.00465230,0.00691318,0.00001756,0.00002419,-0.00003411,-
 0.00000013,0.00000111,0.00000398,0.00000783,-0.00000104,-0.00000052,0.
 00000506,0.00000102,-0.00000033,-0.00000173,0.00000513,0.00000391,-0.0
 0000213,0.00000689,0.00000452,-0.00000426,0.00001239,-0.00000033,-0.00
 003981,0.00001167,-0.00000854,-0.00001153,-0.00000341,0.00001117,-0.00
 002970,-0.00003569,0.00001118,0.00005138,-0.00003047,-0.00035821,0.000
 84086,-0.00035351,0.00056571,-0.01454425,-0.00578368,0.00483584,-0.000
 33919,0.00016906,-0.00018484,0.00023275,-0.00069640,-0.00028075,0.2647
 9240,0.00035314,0.00012493,0.00009025,-0.00002215,0.00000003,-0.000005
 15,-0.00002230,0.00004749,-0.00000286,-0.00003013,0.00008396,0.0000139
 5,0.00002115,0.00000693,0.00002126,-0.00008972,0.00016224,0.00003113,-
 0.00001448,-0.00013086,-0.00003829,-0.00010863,0.00005023,-0.00000111,
 0.00010867,0.00001282,0.00001680,-0.00005610,-0.00007841,-0.00000308,0
 .00003285,0.00007642,0.00001638,-0.00008013,-0.00001553,-0.00001522,0.
 00010999,0.00102496,-0.00056252,-0.00029024,-0.00041303,-0.00044083,-0
 .00008556,-0.00032866,0.00004628,-0.00012133,0.00015235,-0.00001717,-0
 .00005453,-0.00008383,-0.00000895,0.00004194,0.00006263,-0.00000805,0.
 00082797,0.00101705,-0.00073971,0.00023462,-0.00016767,0.00015339,0.00
 016362,0.00009790,-0.00002855,-0.00001559,0.00005621,-0.00002159,0.002
 16148,-0.00498147,-0.00050439,0.00061457,-0.00069853,-0.00044787,-0.00
 030587,0.00011969,0.00003638,0.00017744,-0.00008893,-0.00003302,0.0015
 3177,-0.00282333,0.00318034,-0.02020533,-0.00695882,0.00644053,-0.0730
 1877,-0.07554456,0.03304310,0.02296095,0.00821914,-0.01107037,0.000024
 28,0.00002044,-0.00006556,0.00000717,0.00000122,0.00000397,-0.00000351
 ,0.00000702,0.00000119,-0.00000340,0.00000630,0.00000071,-0.00000295,0
 .00000028,-0.00000110,-0.00000010,-0.00000556,0.00000302,0.00000304,-0
 .00000186,0.00000389,0.00004690,-0.00002481,0.00000378,-0.00001595,0.0
 0000215,-0.00002141,0.00006083,0.00004517,-0.00002593,-0.00027627,0.00
 060753,0.00121374,0.00017656,0.00078343,-0.00026642,-0.01381145,-0.005
 42033,0.00525475,-0.00027057,0.00021735,0.00049666,-0.00033103,-0.0004
 2862,-0.00070500,0.07957711,0.08518896,-0.00001295,-0.00009625,-0.0000
 1432,0.00006755,-0.00003403,0.00003752,-0.00008243,0.00008487,-0.00000
 143,0.00001698,0.00016883,-0.00001348,0.00007031,-0.00006633,-0.000003
 39,-0.00004983,0.00027951,-0.00000260,-0.00007800,-0.00014266,-0.00006
 952,-0.00012544,0.00009550,0.00000216,0.00012644,0.00004309,0.00002694
 ,-0.00000386,-0.00005436,0.00000290,-0.00000669,0.00009081,0.00001859,
 -0.00006807,-0.00004180,-0.00001703,0.00010984,0.00057413,0.00041367,0
 .00088945,-0.00056420,0.00013828,-0.00040696,-0.00015387,-0.00000507,-
 0.00005957,0.00010320,-0.00006377,0.00000779,-0.00004010,-0.00000922,0
 .00000334,0.00002061,-0.00000017,0.00027018,0.00055556,-0.00015948,0.0
 0018168,-0.00016705,0.00004260,-0.00002453,0.00001927,-0.00004070,0.00
 006118,-0.00000210,0.00000393,0.00092615,-0.00177903,0.00013358,-0.000
 00140,0.00000908,0.00059650,0.00006953,-0.00005152,0.00001824,0.000030
 63,-0.00001956,0.00000023,-0.00260364,0.00377476,-0.00181764,0.0236413
 7,0.00832269,-0.01154070,0.08185405,0.03148895,-0.08060625,0.00812316,
 0.00223122,-0.00465119,0.00000725,-0.00001724,0.00001659,0.00000887,-0
 .00000093,0.00000471,-0.00001076,0.00001106,0.00000680,-0.00000562,0.0
 0000667,0.00000212,-0.00000361,-0.00000057,-0.00000156,-0.00000423,-0.
 00000282,-0.00000017,-0.00000239,-0.00000649,0.00000369,0.00002396,-0.
 00001152,0.00000177,0.00001650,0.00000252,0.00000014,-0.00002848,-0.00
 000438,-0.00000887,0.00060513,-0.00027832,-0.00130432,-0.00060004,-0.0
 0085495,0.00099402,-0.02140364,-0.00787379,0.00934159,0.00002138,-0.00
 022923,-0.00006254,-0.00089803,-0.00035188,-0.00068032,-0.09065256,-0.
 03503736,0.08926715\\-0.00000276,0.00000355,0.00000550,0.00000699,0.00
 000704,0.00000038,0.00000557,-0.00000635,-0.00000242,0.00000504,-0.000
 00490,0.00000673,-0.00000102,0.00001019,0.00000097,-0.00000385,-0.0000
 0716,0.00000059,0.00000083,-0.00000023,0.00000379,-0.00000007,0.000001
 59,0.00000426,-0.00000433,-0.00001043,0.00000070,0.00000052,0.00000037
 ,-0.00000289,-0.00000754,-0.00000076,-0.00000839,0.00000833,0.00000336
 ,-0.00000142,0.00000300,0.00000342,0.00000019,-0.00000416,-0.00000871,
 0.00000497,0.00000015,0.00001222,0.00000184,-0.00000441,-0.00000403,0.
 00000256,-0.00000359,-0.00000897,-0.00000275,0.00000118,0.00000684,-0.
 00000175,-0.00000181,0.00000481,-0.00000297,-0.00000150,-0.00000157,-0
 .00000429,-0.00000047,-0.00000035,-0.00000231,0.00000559,0.00000378,-0
 .00000700,0.00000312,-0.00000093,0.00000070,0.00000174,0.00000288,-0.0
 0000098,-0.00000206,-0.00000219,-0.00000195,-0.00000194,0.00000106,-0.
 00000159,0.,-0.00000010,-0.00000010,-0.00000114,0.00000093,0.00000480,
 -0.00000076,-0.00000062,0.00000297,0.00000083,-0.00000312,-0.00000051,
 0.00000008,-0.00000057,0.00000551,0.00000025,-0.00000087,0.00000387,-0
 .00000109,0.00000035,0.00000221,0.00000076,0.00000035,-0.00000057,-0.0
 0000089,-0.00000123,0.00000006,-0.00000034,0.00000054,-0.00000480,-0.0
 0000069,-0.00000019,-0.00000482,-0.00000106,0.00000084,-0.00000549,-0.
 00000168,0.00000010,-0.00000418,-0.00000148,0.00000042,-0.00000101,-0.
 00000190,0.00000015,0.00000136,-0.00000050,-0.00000039,0.00000212,0.00
 000318,-0.00000045,0.00000041,0.00000179,-0.00000044,0.00000010,0.0000
 0016,-0.00000009,0.00000321,0.00000194,-0.00000015,0.00000239\\\@


 IT IS DOUBTED WHETHER A MAN EVER BRINGS HIS FACULTIES TO BEAR WITH THEIR FULL FORCE
 ON A SUBJECT UNTIL HE WRITES UPON IT.

                          -- CICERO
 Job cpu time:       1 days  1 hours 34 minutes 37.3 seconds.
 Elapsed time:       0 days  1 hours 16 minutes 57.1 seconds.
 File lengths (MBytes):  RWF=   2289 Int=      0 D2E=      0 Chk=     53 Scr=      1
 Normal termination of Gaussian 16 at Tue Jun 25 20:38:50 2019.
