 Entering Gaussian System, Link 0=/share/apps/gaussian16/g16/g16
 Initial command:
 /share/apps/gaussian16/g16/l1.exe "/home/am2145//scratch/4567/Gau-4779.inp" -scrdir="/home/am2145//scratch/4567/"
 Entering Link 1 = /share/apps/gaussian16/g16/l1.exe PID=      4780.
  
 Copyright (c) 1988,1990,1992,1993,1995,1998,2003,2009,2016,
            Gaussian, Inc.  All Rights Reserved.
  
 This is part of the Gaussian(R) 16 program.  It is based on
 the Gaussian(R) 09 system (copyright 2009, Gaussian, Inc.),
 the Gaussian(R) 03 system (copyright 2003, Gaussian, Inc.),
 the Gaussian(R) 98 system (copyright 1998, Gaussian, Inc.),
 the Gaussian(R) 94 system (copyright 1995, Gaussian, Inc.),
 the Gaussian 92(TM) system (copyright 1992, Gaussian, Inc.),
 the Gaussian 90(TM) system (copyright 1990, Gaussian, Inc.),
 the Gaussian 88(TM) system (copyright 1988, Gaussian, Inc.),
 the Gaussian 86(TM) system (copyright 1986, Carnegie Mellon
 University), and the Gaussian 82(TM) system (copyright 1983,
 Carnegie Mellon University). Gaussian is a federally registered
 trademark of Gaussian, Inc.
  
 This software contains proprietary and confidential information,
 including trade secrets, belonging to Gaussian, Inc.
  
 This software is provided under written license and may be
 used, copied, transmitted, or stored only in accord with that
 written license.
  
 The following legend is applicable only to US Government
 contracts under FAR:
  
                    RESTRICTED RIGHTS LEGEND
  
 Use, reproduction and disclosure by the US Government is
 subject to restrictions as set forth in subparagraphs (a)
 and (c) of the Commercial Computer Software - Restricted
 Rights clause in FAR 52.227-19.
  
 Gaussian, Inc.
 340 Quinnipiac St., Bldg. 40, Wallingford CT 06492
  
  
 ---------------------------------------------------------------
 Warning -- This program may not be used in any manner that
 competes with the business of Gaussian, Inc. or will provide
 assistance to any competitor of Gaussian, Inc.  The licensee
 of this program is prohibited from giving any competitor of
 Gaussian, Inc. access to this program.  By using this program,
 the user acknowledges that Gaussian, Inc. is engaged in the
 business of creating and licensing software in the field of
 computational chemistry and represents and warrants to the
 licensee that it is not a competitor of Gaussian, Inc. and that
 it will not use this program in any manner prohibited above.
 ---------------------------------------------------------------
  

 Cite this work as:
 Gaussian 16, Revision A.03,
 M. J. Frisch, G. W. Trucks, H. B. Schlegel, G. E. Scuseria, 
 M. A. Robb, J. R. Cheeseman, G. Scalmani, V. Barone, 
 G. A. Petersson, H. Nakatsuji, X. Li, M. Caricato, A. V. Marenich, 
 J. Bloino, B. G. Janesko, R. Gomperts, B. Mennucci, H. P. Hratchian, 
 J. V. Ortiz, A. F. Izmaylov, J. L. Sonnenberg, D. Williams-Young, 
 F. Ding, F. Lipparini, F. Egidi, J. Goings, B. Peng, A. Petrone, 
 T. Henderson, D. Ranasinghe, V. G. Zakrzewski, J. Gao, N. Rega, 
 G. Zheng, W. Liang, M. Hada, M. Ehara, K. Toyota, R. Fukuda, 
 J. Hasegawa, M. Ishida, T. Nakajima, Y. Honda, O. Kitao, H. Nakai, 
 T. Vreven, K. Throssell, J. A. Montgomery, Jr., J. E. Peralta, 
 F. Ogliaro, M. J. Bearpark, J. J. Heyd, E. N. Brothers, K. N. Kudin, 
 V. N. Staroverov, T. A. Keith, R. Kobayashi, J. Normand, 
 K. Raghavachari, A. P. Rendell, J. C. Burant, S. S. Iyengar, 
 J. Tomasi, M. Cossi, J. M. Millam, M. Klene, C. Adamo, R. Cammi, 
 J. W. Ochterski, R. L. Martin, K. Morokuma, O. Farkas, 
 J. B. Foresman, and D. J. Fox, Gaussian, Inc., Wallingford CT, 2016.
 
 ******************************************
 Gaussian 16:  ES64L-G16RevA.03 25-Dec-2016
                 7-Aug-2019 
 ******************************************
 %nprocshared=20
 Will use up to   20 processors via shared memory.
 %mem=160GB
 %chk=7-memb2-carb-4a.chk
 -------------------------------------------
 # opt freq b3lyp/6-311+g(d,p) int=grid=fine
 -------------------------------------------
 1/18=20,19=15,26=3,38=1/1,3;
 2/9=110,12=2,17=6,18=5,40=1/2;
 3/5=4,6=6,7=111,11=2,25=1,30=1,71=1,74=-5,75=-4/1,2,3;
 4//1;
 5/5=2,38=5/2;
 6/7=2,8=2,9=2,10=2,28=1/1;
 7//1,2,3,16;
 1/18=20,19=15,26=3/3(2);
 2/9=110/2;
 99//99;
 2/9=110/2;
 3/5=4,6=6,7=111,11=2,25=1,30=1,71=1,74=-5,75=-4/1,2,3;
 4/5=5,16=3,69=1/1;
 5/5=2,38=5/2;
 7//1,2,3,16;
 1/18=20,19=15,26=3/3(-5);
 2/9=110/2;
 6/7=2,8=2,9=2,10=2,19=2,28=1/1;
 99/9=1/99;
 ---------------
 7-memb2-carb-4a
 ---------------
 Symbolic Z-matrix:
 Charge =  0 Multiplicity = 1
 C                     0.70278  -0.90806  -0.15116 
 C                     0.52512   0.52044  -0.30556 
 C                     1.81418   1.06459  -0.51547 
 C                     2.0381   -1.1911   -0.25602 
 C                     2.75064   0.02459  -0.47914 
 C                     2.72067  -2.34595   0.25754 
 C                     4.17634  -2.18886   0.38002 
 C                     4.81847  -1.00728   0.13532 
 C                     4.08669   0.20861  -0.23916 
 C                     2.18963   2.39664  -0.3689 
 C                     3.61342   2.63016  -0.28994 
 C                     4.5184    1.58511  -0.21583 
 C                    -0.22511  -1.87077   0.48951 
 C                     0.41709  -3.2946    0.38889 
 C                     1.91794  -3.36888   0.6532 
 C                    -0.55426   1.36172  -0.03606 
 C                    -0.20252   2.78368   0.03657 
 C                     1.11368   3.26932  -0.11925 
 C                    -1.93315   0.90325   0.15038 
 C                    -2.889     1.9331    0.3628 
 C                    -2.50855   3.30928   0.50454 
 C                    -1.23274   3.72468   0.34077 
 C                    -2.42344  -0.48923  -0.00083 
 C                    -3.84944  -0.64451  -0.16273 
 C                    -4.74753   0.44043   0.05013 
 C                    -4.28636   1.67266   0.36381 
 C                    -4.44191  -1.88149  -0.508 
 C                    -3.67672  -3.00332  -0.65763 
 C                    -2.30905  -2.91415  -0.36842 
 C                    -1.6709   -1.73659  -0.00933 
 H                    -0.10318  -3.99087   1.04956 
 H                     2.31668  -4.28207   1.08367 
 H                     4.75897  -3.04773   0.69778 
 H                     5.8939   -0.95489   0.27277 
 H                     5.57078   1.81359  -0.0805 
 H                     3.9812    3.64858  -0.21747 
 H                     1.27997   4.33318   0.01818 
 H                    -0.97441   4.77446   0.42717 
 H                    -3.29541   4.02553   0.71424 
 H                    -4.96865   2.49406   0.55185 
 H                    -5.81148   0.24751  -0.03204 
 H                    -5.51705  -1.91411  -0.64569 
 H                    -4.11418  -3.9533   -0.94208 
 H                    -1.73814  -3.83009  -0.40114 
 H                     0.2686   -3.66478  -0.63785 
 H                    -0.26238  -1.59986   1.56129 
 

 GradGradGradGradGradGradGradGradGradGradGradGradGradGradGradGradGradGrad
 Berny optimization.
 Initialization pass.
                           ----------------------------
                           !    Initial Parameters    !
                           ! (Angstroms and Degrees)  !
 --------------------------                            --------------------------
 ! Name  Definition              Value          Derivative Info.                !
 --------------------------------------------------------------------------------
 ! R1    R(1,2)                  1.4478         estimate D2E/DX2                !
 ! R2    R(1,4)                  1.369          estimate D2E/DX2                !
 ! R3    R(1,13)                 1.4827         estimate D2E/DX2                !
 ! R4    R(2,3)                  1.4149         estimate D2E/DX2                !
 ! R5    R(2,16)                 1.3948         estimate D2E/DX2                !
 ! R6    R(3,5)                  1.4            estimate D2E/DX2                !
 ! R7    R(3,10)                 1.3917         estimate D2E/DX2                !
 ! R8    R(4,5)                  1.4267         estimate D2E/DX2                !
 ! R9    R(4,6)                  1.4364         estimate D2E/DX2                !
 ! R10   R(5,9)                  1.3698         estimate D2E/DX2                !
 ! R11   R(6,7)                  1.4692         estimate D2E/DX2                !
 ! R12   R(6,15)                 1.3592         estimate D2E/DX2                !
 ! R13   R(7,8)                  1.3669         estimate D2E/DX2                !
 ! R14   R(7,33)                 1.0854         estimate D2E/DX2                !
 ! R15   R(8,9)                  1.4677         estimate D2E/DX2                !
 ! R16   R(8,34)                 1.0854         estimate D2E/DX2                !
 ! R17   R(9,12)                 1.4428         estimate D2E/DX2                !
 ! R18   R(10,11)                1.445          estimate D2E/DX2                !
 ! R19   R(10,18)                1.4077         estimate D2E/DX2                !
 ! R20   R(11,12)                1.3844         estimate D2E/DX2                !
 ! R21   R(11,36)                1.0852         estimate D2E/DX2                !
 ! R22   R(12,35)                1.0854         estimate D2E/DX2                !
 ! R23   R(13,14)                1.5652         estimate D2E/DX2                !
 ! R24   R(13,30)                1.5353         estimate D2E/DX2                !
 ! R25   R(13,46)                1.1061         estimate D2E/DX2                !
 ! R26   R(14,15)                1.5258         estimate D2E/DX2                !
 ! R27   R(14,31)                1.0918         estimate D2E/DX2                !
 ! R28   R(14,45)                1.1015         estimate D2E/DX2                !
 ! R29   R(15,32)                1.0855         estimate D2E/DX2                !
 ! R30   R(16,17)                1.4666         estimate D2E/DX2                !
 ! R31   R(16,19)                1.465          estimate D2E/DX2                !
 ! R32   R(17,18)                1.4116         estimate D2E/DX2                !
 ! R33   R(17,22)                1.4281         estimate D2E/DX2                !
 ! R34   R(18,37)                1.0855         estimate D2E/DX2                !
 ! R35   R(19,20)                1.421          estimate D2E/DX2                !
 ! R36   R(19,23)                1.484          estimate D2E/DX2                !
 ! R37   R(20,21)                1.4348         estimate D2E/DX2                !
 ! R38   R(20,26)                1.4214         estimate D2E/DX2                !
 ! R39   R(21,22)                1.3517         estimate D2E/DX2                !
 ! R40   R(21,39)                1.0845         estimate D2E/DX2                !
 ! R41   R(22,38)                1.0845         estimate D2E/DX2                !
 ! R42   R(23,24)                1.4435         estimate D2E/DX2                !
 ! R43   R(23,30)                1.4568         estimate D2E/DX2                !
 ! R44   R(24,25)                1.4244         estimate D2E/DX2                !
 ! R45   R(24,27)                1.4143         estimate D2E/DX2                !
 ! R46   R(25,26)                1.3526         estimate D2E/DX2                !
 ! R47   R(25,41)                1.0844         estimate D2E/DX2                !
 ! R48   R(26,40)                1.0842         estimate D2E/DX2                !
 ! R49   R(27,28)                1.3662         estimate D2E/DX2                !
 ! R50   R(27,42)                1.0844         estimate D2E/DX2                !
 ! R51   R(28,29)                1.4008         estimate D2E/DX2                !
 ! R52   R(28,43)                1.0839         estimate D2E/DX2                !
 ! R53   R(29,30)                1.3866         estimate D2E/DX2                !
 ! R54   R(29,44)                1.0798         estimate D2E/DX2                !
 ! A1    A(2,1,4)              108.3923         estimate D2E/DX2                !
 ! A2    A(2,1,13)             127.587          estimate D2E/DX2                !
 ! A3    A(4,1,13)             120.6162         estimate D2E/DX2                !
 ! A4    A(1,2,3)              106.4689         estimate D2E/DX2                !
 ! A5    A(1,2,16)             132.0276         estimate D2E/DX2                !
 ! A6    A(3,2,16)             120.1162         estimate D2E/DX2                !
 ! A7    A(2,3,5)              108.6559         estimate D2E/DX2                !
 ! A8    A(2,3,10)             126.7466         estimate D2E/DX2                !
 ! A9    A(5,3,10)             121.8606         estimate D2E/DX2                !
 ! A10   A(1,4,5)              108.8416         estimate D2E/DX2                !
 ! A11   A(1,4,6)              127.0364         estimate D2E/DX2                !
 ! A12   A(5,4,6)              120.2433         estimate D2E/DX2                !
 ! A13   A(3,5,4)              107.6378         estimate D2E/DX2                !
 ! A14   A(3,5,9)              123.8599         estimate D2E/DX2                !
 ! A15   A(4,5,9)              125.0428         estimate D2E/DX2                !
 ! A16   A(4,6,7)              114.4964         estimate D2E/DX2                !
 ! A17   A(4,6,15)             115.3739         estimate D2E/DX2                !
 ! A18   A(7,6,15)             129.8932         estimate D2E/DX2                !
 ! A19   A(6,7,8)              122.8847         estimate D2E/DX2                !
 ! A20   A(6,7,33)             118.1401         estimate D2E/DX2                !
 ! A21   A(8,7,33)             118.9642         estimate D2E/DX2                !
 ! A22   A(7,8,9)              121.8419         estimate D2E/DX2                !
 ! A23   A(7,8,34)             118.9801         estimate D2E/DX2                !
 ! A24   A(9,8,34)             119.0986         estimate D2E/DX2                !
 ! A25   A(5,9,8)              114.8155         estimate D2E/DX2                !
 ! A26   A(5,9,12)             115.0138         estimate D2E/DX2                !
 ! A27   A(8,9,12)             129.5723         estimate D2E/DX2                !
 ! A28   A(3,10,11)            115.2304         estimate D2E/DX2                !
 ! A29   A(3,10,18)            113.9441         estimate D2E/DX2                !
 ! A30   A(11,10,18)           130.0356         estimate D2E/DX2                !
 ! A31   A(10,11,12)           121.671          estimate D2E/DX2                !
 ! A32   A(10,11,36)           119.291          estimate D2E/DX2                !
 ! A33   A(12,11,36)           118.9005         estimate D2E/DX2                !
 ! A34   A(9,12,11)            121.5816         estimate D2E/DX2                !
 ! A35   A(9,12,35)            119.5369         estimate D2E/DX2                !
 ! A36   A(11,12,35)           118.7892         estimate D2E/DX2                !
 ! A37   A(1,13,14)            107.8251         estimate D2E/DX2                !
 ! A38   A(1,13,30)            113.0915         estimate D2E/DX2                !
 ! A39   A(1,13,46)            106.3048         estimate D2E/DX2                !
 ! A40   A(14,13,30)           116.423          estimate D2E/DX2                !
 ! A41   A(14,13,46)           107.3926         estimate D2E/DX2                !
 ! A42   A(30,13,46)           105.1706         estimate D2E/DX2                !
 ! A43   A(13,14,15)           115.8972         estimate D2E/DX2                !
 ! A44   A(13,14,31)           110.2256         estimate D2E/DX2                !
 ! A45   A(13,14,45)           108.0797         estimate D2E/DX2                !
 ! A46   A(15,14,31)           109.4434         estimate D2E/DX2                !
 ! A47   A(15,14,45)           106.1243         estimate D2E/DX2                !
 ! A48   A(31,14,45)           106.5885         estimate D2E/DX2                !
 ! A49   A(6,15,14)            119.5969         estimate D2E/DX2                !
 ! A50   A(6,15,32)            122.118          estimate D2E/DX2                !
 ! A51   A(14,15,32)           118.1003         estimate D2E/DX2                !
 ! A52   A(2,16,17)            114.1269         estimate D2E/DX2                !
 ! A53   A(2,16,19)            124.347          estimate D2E/DX2                !
 ! A54   A(17,16,19)           121.5234         estimate D2E/DX2                !
 ! A55   A(16,17,18)           123.4857         estimate D2E/DX2                !
 ! A56   A(16,17,22)           118.4502         estimate D2E/DX2                !
 ! A57   A(18,17,22)           118.0013         estimate D2E/DX2                !
 ! A58   A(10,18,17)           121.2655         estimate D2E/DX2                !
 ! A59   A(10,18,37)           120.8595         estimate D2E/DX2                !
 ! A60   A(17,18,37)           117.7777         estimate D2E/DX2                !
 ! A61   A(16,19,20)           115.171          estimate D2E/DX2                !
 ! A62   A(16,19,23)           126.2733         estimate D2E/DX2                !
 ! A63   A(20,19,23)           118.2309         estimate D2E/DX2                !
 ! A64   A(19,20,21)           122.1076         estimate D2E/DX2                !
 ! A65   A(19,20,26)           121.9087         estimate D2E/DX2                !
 ! A66   A(21,20,26)           115.8705         estimate D2E/DX2                !
 ! A67   A(20,21,22)           122.2123         estimate D2E/DX2                !
 ! A68   A(20,21,39)           117.398          estimate D2E/DX2                !
 ! A69   A(22,21,39)           120.3503         estimate D2E/DX2                !
 ! A70   A(17,22,21)           120.2797         estimate D2E/DX2                !
 ! A71   A(17,22,38)           118.8776         estimate D2E/DX2                !
 ! A72   A(21,22,38)           120.8397         estimate D2E/DX2                !
 ! A73   A(19,23,24)           116.023          estimate D2E/DX2                !
 ! A74   A(19,23,30)           129.2984         estimate D2E/DX2                !
 ! A75   A(24,23,30)           114.6786         estimate D2E/DX2                !
 ! A76   A(23,24,25)           121.6104         estimate D2E/DX2                !
 ! A77   A(23,24,27)           122.3623         estimate D2E/DX2                !
 ! A78   A(25,24,27)           116.01           estimate D2E/DX2                !
 ! A79   A(24,25,26)           120.9031         estimate D2E/DX2                !
 ! A80   A(24,25,41)           118.1493         estimate D2E/DX2                !
 ! A81   A(26,25,41)           120.9417         estimate D2E/DX2                !
 ! A82   A(20,26,25)           120.129          estimate D2E/DX2                !
 ! A83   A(20,26,40)           118.6809         estimate D2E/DX2                !
 ! A84   A(25,26,40)           121.0538         estimate D2E/DX2                !
 ! A85   A(24,27,28)           120.6831         estimate D2E/DX2                !
 ! A86   A(24,27,42)           118.2047         estimate D2E/DX2                !
 ! A87   A(28,27,42)           121.1117         estimate D2E/DX2                !
 ! A88   A(27,28,29)           118.1631         estimate D2E/DX2                !
 ! A89   A(27,28,43)           121.4933         estimate D2E/DX2                !
 ! A90   A(29,28,43)           120.2696         estimate D2E/DX2                !
 ! A91   A(28,29,30)           123.8392         estimate D2E/DX2                !
 ! A92   A(28,29,44)           117.1273         estimate D2E/DX2                !
 ! A93   A(30,29,44)           119.0043         estimate D2E/DX2                !
 ! A94   A(13,30,23)           124.013          estimate D2E/DX2                !
 ! A95   A(13,30,29)           116.3143         estimate D2E/DX2                !
 ! A96   A(23,30,29)           119.4            estimate D2E/DX2                !
 ! D1    D(4,1,2,3)              0.4062         estimate D2E/DX2                !
 ! D2    D(4,1,2,16)          -165.7154         estimate D2E/DX2                !
 ! D3    D(13,1,2,3)           159.3505         estimate D2E/DX2                !
 ! D4    D(13,1,2,16)           -6.771          estimate D2E/DX2                !
 ! D5    D(2,1,4,5)             -0.0725         estimate D2E/DX2                !
 ! D6    D(2,1,4,6)            157.4719         estimate D2E/DX2                !
 ! D7    D(13,1,4,5)          -160.7542         estimate D2E/DX2                !
 ! D8    D(13,1,4,6)            -3.2098         estimate D2E/DX2                !
 ! D9    D(2,1,13,14)          179.449          estimate D2E/DX2                !
 ! D10   D(2,1,13,30)           49.2652         estimate D2E/DX2                !
 ! D11   D(2,1,13,46)          -65.6403         estimate D2E/DX2                !
 ! D12   D(4,1,13,14)          -23.8884         estimate D2E/DX2                !
 ! D13   D(4,1,13,30)         -154.0723         estimate D2E/DX2                !
 ! D14   D(4,1,13,46)           91.0223         estimate D2E/DX2                !
 ! D15   D(1,2,3,5)             -0.5884         estimate D2E/DX2                !
 ! D16   D(1,2,3,10)          -161.9176         estimate D2E/DX2                !
 ! D17   D(16,2,3,5)           167.5246         estimate D2E/DX2                !
 ! D18   D(16,2,3,10)            6.1954         estimate D2E/DX2                !
 ! D19   D(1,2,16,17)          162.9912         estimate D2E/DX2                !
 ! D20   D(1,2,16,19)          -17.6041         estimate D2E/DX2                !
 ! D21   D(3,2,16,17)           -1.5873         estimate D2E/DX2                !
 ! D22   D(3,2,16,19)          177.8174         estimate D2E/DX2                !
 ! D23   D(2,3,5,4)              0.5515         estimate D2E/DX2                !
 ! D24   D(2,3,5,9)           -159.3152         estimate D2E/DX2                !
 ! D25   D(10,3,5,4)           162.9724         estimate D2E/DX2                !
 ! D26   D(10,3,5,9)             3.1058         estimate D2E/DX2                !
 ! D27   D(2,3,10,11)          163.9963         estimate D2E/DX2                !
 ! D28   D(2,3,10,18)           -6.8653         estimate D2E/DX2                !
 ! D29   D(5,3,10,11)            4.9193         estimate D2E/DX2                !
 ! D30   D(5,3,10,18)         -165.9422         estimate D2E/DX2                !
 ! D31   D(1,4,5,3)             -0.2946         estimate D2E/DX2                !
 ! D32   D(1,4,5,9)            159.2721         estimate D2E/DX2                !
 ! D33   D(6,4,5,3)           -159.6271         estimate D2E/DX2                !
 ! D34   D(6,4,5,9)             -0.0603         estimate D2E/DX2                !
 ! D35   D(1,4,6,7)           -161.324          estimate D2E/DX2                !
 ! D36   D(1,4,6,15)            13.6495         estimate D2E/DX2                !
 ! D37   D(5,4,6,7)             -6.061          estimate D2E/DX2                !
 ! D38   D(5,4,6,15)           168.9125         estimate D2E/DX2                !
 ! D39   D(3,5,9,8)            163.2457         estimate D2E/DX2                !
 ! D40   D(3,5,9,12)            -8.7492         estimate D2E/DX2                !
 ! D41   D(4,5,9,8)              6.8649         estimate D2E/DX2                !
 ! D42   D(4,5,9,12)          -165.1301         estimate D2E/DX2                !
 ! D43   D(4,6,7,8)              5.318          estimate D2E/DX2                !
 ! D44   D(4,6,7,33)          -175.8997         estimate D2E/DX2                !
 ! D45   D(15,6,7,8)          -168.7596         estimate D2E/DX2                !
 ! D46   D(15,6,7,33)           10.0227         estimate D2E/DX2                !
 ! D47   D(4,6,15,14)            6.7779         estimate D2E/DX2                !
 ! D48   D(4,6,15,32)         -178.2589         estimate D2E/DX2                !
 ! D49   D(7,6,15,14)         -179.1869         estimate D2E/DX2                !
 ! D50   D(7,6,15,32)           -4.2238         estimate D2E/DX2                !
 ! D51   D(6,7,8,9)              1.5383         estimate D2E/DX2                !
 ! D52   D(6,7,8,34)           178.2691         estimate D2E/DX2                !
 ! D53   D(33,7,8,9)          -177.2345         estimate D2E/DX2                !
 ! D54   D(33,7,8,34)           -0.5037         estimate D2E/DX2                !
 ! D55   D(7,8,9,5)             -7.5504         estimate D2E/DX2                !
 ! D56   D(7,8,9,12)           163.0268         estimate D2E/DX2                !
 ! D57   D(34,8,9,5)           175.7226         estimate D2E/DX2                !
 ! D58   D(34,8,9,12)          -13.7003         estimate D2E/DX2                !
 ! D59   D(5,9,12,11)            6.5333         estimate D2E/DX2                !
 ! D60   D(5,9,12,35)         -177.0023         estimate D2E/DX2                !
 ! D61   D(8,9,12,11)         -164.0285         estimate D2E/DX2                !
 ! D62   D(8,9,12,35)           12.4359         estimate D2E/DX2                !
 ! D63   D(3,10,11,12)          -6.8855         estimate D2E/DX2                !
 ! D64   D(3,10,11,36)         177.4253         estimate D2E/DX2                !
 ! D65   D(18,10,11,12)        162.1861         estimate D2E/DX2                !
 ! D66   D(18,10,11,36)        -13.5031         estimate D2E/DX2                !
 ! D67   D(3,10,18,17)           3.3736         estimate D2E/DX2                !
 ! D68   D(3,10,18,37)         179.7067         estimate D2E/DX2                !
 ! D69   D(11,10,18,17)       -165.811          estimate D2E/DX2                !
 ! D70   D(11,10,18,37)         10.5221         estimate D2E/DX2                !
 ! D71   D(10,11,12,9)           1.1894         estimate D2E/DX2                !
 ! D72   D(10,11,12,35)       -175.3007         estimate D2E/DX2                !
 ! D73   D(36,11,12,9)         176.895          estimate D2E/DX2                !
 ! D74   D(36,11,12,35)          0.4049         estimate D2E/DX2                !
 ! D75   D(1,13,14,15)          41.3541         estimate D2E/DX2                !
 ! D76   D(1,13,14,31)         166.3301         estimate D2E/DX2                !
 ! D77   D(1,13,14,45)         -77.5444         estimate D2E/DX2                !
 ! D78   D(30,13,14,15)        169.6567         estimate D2E/DX2                !
 ! D79   D(30,13,14,31)        -65.3673         estimate D2E/DX2                !
 ! D80   D(30,13,14,45)         50.7582         estimate D2E/DX2                !
 ! D81   D(46,13,14,15)        -72.8353         estimate D2E/DX2                !
 ! D82   D(46,13,14,31)         52.1407         estimate D2E/DX2                !
 ! D83   D(46,13,14,45)        168.2662         estimate D2E/DX2                !
 ! D84   D(1,13,30,23)         -53.8729         estimate D2E/DX2                !
 ! D85   D(1,13,30,29)         132.1799         estimate D2E/DX2                !
 ! D86   D(14,13,30,23)       -179.5668         estimate D2E/DX2                !
 ! D87   D(14,13,30,29)          6.486          estimate D2E/DX2                !
 ! D88   D(46,13,30,23)         61.7105         estimate D2E/DX2                !
 ! D89   D(46,13,30,29)       -112.2368         estimate D2E/DX2                !
 ! D90   D(13,14,15,6)         -35.1817         estimate D2E/DX2                !
 ! D91   D(13,14,15,32)        149.6538         estimate D2E/DX2                !
 ! D92   D(31,14,15,6)        -160.558          estimate D2E/DX2                !
 ! D93   D(31,14,15,32)         24.2775         estimate D2E/DX2                !
 ! D94   D(45,14,15,6)          84.7833         estimate D2E/DX2                !
 ! D95   D(45,14,15,32)        -90.3812         estimate D2E/DX2                !
 ! D96   D(2,16,17,18)          -1.4239         estimate D2E/DX2                !
 ! D97   D(2,16,17,22)        -178.4822         estimate D2E/DX2                !
 ! D98   D(19,16,17,18)        179.1527         estimate D2E/DX2                !
 ! D99   D(19,16,17,22)          2.0943         estimate D2E/DX2                !
 ! D100  D(2,16,19,20)        -177.5712         estimate D2E/DX2                !
 ! D101  D(2,16,19,23)          -4.2745         estimate D2E/DX2                !
 ! D102  D(17,16,19,20)          1.7915         estimate D2E/DX2                !
 ! D103  D(17,16,19,23)        175.0882         estimate D2E/DX2                !
 ! D104  D(16,17,18,10)          0.4692         estimate D2E/DX2                !
 ! D105  D(16,17,18,37)       -175.9732         estimate D2E/DX2                !
 ! D106  D(22,17,18,10)        177.5399         estimate D2E/DX2                !
 ! D107  D(22,17,18,37)          1.0975         estimate D2E/DX2                !
 ! D108  D(16,17,22,21)         -2.5339         estimate D2E/DX2                !
 ! D109  D(16,17,22,38)        178.0865         estimate D2E/DX2                !
 ! D110  D(18,17,22,21)       -179.7553         estimate D2E/DX2                !
 ! D111  D(18,17,22,38)          0.865          estimate D2E/DX2                !
 ! D112  D(16,19,20,21)         -5.4032         estimate D2E/DX2                !
 ! D113  D(16,19,20,26)        170.5665         estimate D2E/DX2                !
 ! D114  D(23,19,20,21)       -179.2716         estimate D2E/DX2                !
 ! D115  D(23,19,20,26)         -3.3019         estimate D2E/DX2                !
 ! D116  D(16,19,23,24)       -162.1495         estimate D2E/DX2                !
 ! D117  D(16,19,23,30)         17.8958         estimate D2E/DX2                !
 ! D118  D(20,19,23,24)         10.9637         estimate D2E/DX2                !
 ! D119  D(20,19,23,30)       -168.9909         estimate D2E/DX2                !
 ! D120  D(19,20,21,22)          5.3076         estimate D2E/DX2                !
 ! D121  D(19,20,21,39)       -176.9695         estimate D2E/DX2                !
 ! D122  D(26,20,21,22)       -170.8903         estimate D2E/DX2                !
 ! D123  D(26,20,21,39)          6.8326         estimate D2E/DX2                !
 ! D124  D(19,20,26,25)         -5.4613         estimate D2E/DX2                !
 ! D125  D(19,20,26,40)        178.7374         estimate D2E/DX2                !
 ! D126  D(21,20,26,25)        170.7449         estimate D2E/DX2                !
 ! D127  D(21,20,26,40)         -5.0564         estimate D2E/DX2                !
 ! D128  D(20,21,22,17)         -1.0083         estimate D2E/DX2                !
 ! D129  D(20,21,22,38)        178.359          estimate D2E/DX2                !
 ! D130  D(39,21,22,17)       -178.6655         estimate D2E/DX2                !
 ! D131  D(39,21,22,38)          0.7018         estimate D2E/DX2                !
 ! D132  D(19,23,24,25)        -10.8615         estimate D2E/DX2                !
 ! D133  D(19,23,24,27)        170.7129         estimate D2E/DX2                !
 ! D134  D(30,23,24,25)        169.0998         estimate D2E/DX2                !
 ! D135  D(30,23,24,27)         -9.3257         estimate D2E/DX2                !
 ! D136  D(19,23,30,13)         16.0334         estimate D2E/DX2                !
 ! D137  D(19,23,30,29)       -170.1948         estimate D2E/DX2                !
 ! D138  D(24,23,30,13)       -163.9217         estimate D2E/DX2                !
 ! D139  D(24,23,30,29)          9.85           estimate D2E/DX2                !
 ! D140  D(23,24,25,26)          2.5357         estimate D2E/DX2                !
 ! D141  D(23,24,25,41)       -176.5846         estimate D2E/DX2                !
 ! D142  D(27,24,25,26)       -178.944          estimate D2E/DX2                !
 ! D143  D(27,24,25,41)          1.9357         estimate D2E/DX2                !
 ! D144  D(23,24,27,28)          2.3295         estimate D2E/DX2                !
 ! D145  D(23,24,27,42)       -177.9279         estimate D2E/DX2                !
 ! D146  D(25,24,27,28)       -176.1786         estimate D2E/DX2                !
 ! D147  D(25,24,27,42)          3.5641         estimate D2E/DX2                !
 ! D148  D(24,25,26,20)          5.9194         estimate D2E/DX2                !
 ! D149  D(24,25,26,40)       -178.3804         estimate D2E/DX2                !
 ! D150  D(41,25,26,20)       -174.9849         estimate D2E/DX2                !
 ! D151  D(41,25,26,40)          0.7152         estimate D2E/DX2                !
 ! D152  D(24,27,28,29)          4.4127         estimate D2E/DX2                !
 ! D153  D(24,27,28,43)       -178.7082         estimate D2E/DX2                !
 ! D154  D(42,27,28,29)       -175.3224         estimate D2E/DX2                !
 ! D155  D(42,27,28,43)          1.5567         estimate D2E/DX2                !
 ! D156  D(27,28,29,30)         -3.678          estimate D2E/DX2                !
 ! D157  D(27,28,29,44)        174.3334         estimate D2E/DX2                !
 ! D158  D(43,28,29,30)        179.4033         estimate D2E/DX2                !
 ! D159  D(43,28,29,44)         -2.5853         estimate D2E/DX2                !
 ! D160  D(28,29,30,13)        170.4061         estimate D2E/DX2                !
 ! D161  D(28,29,30,23)         -3.8361         estimate D2E/DX2                !
 ! D162  D(44,29,30,13)         -7.5702         estimate D2E/DX2                !
 ! D163  D(44,29,30,23)        178.1876         estimate D2E/DX2                !
 --------------------------------------------------------------------------------
 Trust Radius=3.00D-01 FncErr=1.00D-07 GrdErr=1.00D-06 EigMax=2.50D+02 EigMin=1.00D-04
 Number of steps in this run=    276 maximum allowed number of steps=    276.
 GradGradGradGradGradGradGradGradGradGradGradGradGradGradGradGradGradGrad

                          Input orientation:                          
 ---------------------------------------------------------------------
 Center     Atomic      Atomic             Coordinates (Angstroms)
 Number     Number       Type             X           Y           Z
 ---------------------------------------------------------------------
      1          6           0        0.702782   -0.908058   -0.151157
      2          6           0        0.525120    0.520441   -0.305563
      3          6           0        1.814183    1.064588   -0.515473
      4          6           0        2.038105   -1.191097   -0.256017
      5          6           0        2.750636    0.024590   -0.479137
      6          6           0        2.720666   -2.345947    0.257544
      7          6           0        4.176337   -2.188856    0.380018
      8          6           0        4.818470   -1.007285    0.135317
      9          6           0        4.086686    0.208612   -0.239157
     10          6           0        2.189630    2.396644   -0.368903
     11          6           0        3.613420    2.630163   -0.289941
     12          6           0        4.518404    1.585110   -0.215826
     13          6           0       -0.225112   -1.870774    0.489510
     14          6           0        0.417088   -3.294596    0.388885
     15          6           0        1.917937   -3.368882    0.653197
     16          6           0       -0.554263    1.361719   -0.036059
     17          6           0       -0.202518    2.783684    0.036566
     18          6           0        1.113676    3.269315   -0.119250
     19          6           0       -1.933150    0.903250    0.150375
     20          6           0       -2.889001    1.933103    0.362800
     21          6           0       -2.508553    3.309282    0.504538
     22          6           0       -1.232743    3.724680    0.340768
     23          6           0       -2.423436   -0.489231   -0.000827
     24          6           0       -3.849444   -0.644513   -0.162729
     25          6           0       -4.747527    0.440425    0.050129
     26          6           0       -4.286356    1.672655    0.363807
     27          6           0       -4.441909   -1.881493   -0.508003
     28          6           0       -3.676715   -3.003323   -0.657628
     29          6           0       -2.309045   -2.914146   -0.368415
     30          6           0       -1.670904   -1.736594   -0.009328
     31          1           0       -0.103181   -3.990870    1.049559
     32          1           0        2.316678   -4.282067    1.083671
     33          1           0        4.758966   -3.047730    0.697780
     34          1           0        5.893902   -0.954891    0.272772
     35          1           0        5.570780    1.813593   -0.080503
     36          1           0        3.981203    3.648582   -0.217472
     37          1           0        1.279965    4.333178    0.018183
     38          1           0       -0.974408    4.774457    0.427172
     39          1           0       -3.295409    4.025525    0.714237
     40          1           0       -4.968647    2.494064    0.551854
     41          1           0       -5.811481    0.247507   -0.032036
     42          1           0       -5.517053   -1.914114   -0.645686
     43          1           0       -4.114175   -3.953297   -0.942078
     44          1           0       -1.738141   -3.830086   -0.401137
     45          1           0        0.268598   -3.664784   -0.637848
     46          1           0       -0.262378   -1.599863    1.561285
 ---------------------------------------------------------------------
                    Distance matrix (angstroms):
                    1          2          3          4          5
     1  C    0.000000
     2  C    1.447762   0.000000
     3  C    2.293310   1.414865   0.000000
     4  C    1.369012   2.284938   2.281573   0.000000
     5  C    2.274007   2.286683   1.399950   1.426667   0.000000
     6  C    2.511258   3.654270   3.612619   1.436424   2.482548
     7  C    3.740077   4.598010   4.119050   2.443788   2.769497
     8  C    4.126839   4.578338   3.707010   2.813780   2.391288
     9  C    3.564478   3.575808   2.444037   2.481160   1.369848
    10  C    3.630315   2.508933   1.391696   3.592713   2.439983
    11  C    4.583676   3.740156   2.395651   4.133376   2.751218
    12  C    4.558403   4.133750   2.770116   3.723013   2.372669
    13  C    1.482654   2.629239   3.712824   2.477887   3.658655
    14  C    2.463500   3.879231   4.666071   2.732820   4.149205
    15  C    2.859937   4.240990   4.586089   2.363019   3.673040
    16  C    2.597171   1.394793   2.434679   3.644945   3.592574
    17  C    3.805754   2.401828   2.706866   4.572185   4.074269
    18  C    4.197654   2.817343   2.347024   4.557252   3.652040
    19  C    3.212459   2.529331   3.809447   4.508027   4.806889
    20  C    4.608389   3.754803   4.862676   5.866850   6.013051
    21  C    5.341214   4.199651   4.976457   6.442356   6.278207
    22  C    5.044850   3.711465   4.134368   5.934599   5.498201
    23  C    3.157729   3.131499   4.542756   4.523614   5.221476
    24  C    4.559863   4.529275   5.926392   5.913602   6.641451
    25  C    5.618255   5.285237   6.615552   6.985728   7.528313
    26  C    5.640635   4.992590   6.193501   6.970227   7.276395
    27  C    5.248120   5.521019   6.915066   6.521558   7.440880
    28  C    4.881254   5.495114   6.835062   6.008712   7.107106
    29  C    3.625285   4.453407   5.731750   4.677525   5.852247
    30  C    2.518129   3.162986   4.499848   3.757016   4.782521
    31  H    3.405147   4.752162   5.628789   3.758772   5.158013
    32  H    3.938705   5.310719   5.603256   3.380305   4.601954
    33  H    4.663852   5.627077   5.201431   3.429271   3.854565
    34  H    5.208612   5.597758   4.619928   3.899049   3.377110
    35  H    5.577614   5.213596   3.855156   4.640987   3.363429
    36  H    5.613859   4.662353   3.385529   5.215324   3.836155
    37  H    5.275639   3.900201   3.354677   5.582793   4.579752
    38  H    5.953017   4.569698   4.735815   6.717873   6.103981
    39  H    6.408953   5.284132   6.032186   7.523358   7.347536
    40  H    6.650847   5.900155   7.013513   7.957867   8.169980
    41  H    6.617034   6.348372   7.684535   7.983467   8.576680
    42  H    6.320052   6.523082   7.914331   7.599672   8.493585
    43  H    5.753443   6.476306   7.778598   6.778715   7.947549
    44  H    3.815605   4.904954   6.048960   4.609269   5.917240
    45  H    2.832829   4.206225   4.977024   3.065302   4.449402
    46  H    2.083887   2.932740   3.965391   2.960050   3.985025
                    6          7          8          9         10
     6  C    0.000000
     7  C    1.469236   0.000000
     8  C    2.491533   1.366866   0.000000
     9  C    2.939132   2.477755   1.467700   0.000000
    10  C    4.813170   5.053187   4.330331   2.898817   0.000000
    11  C    5.085118   4.897822   3.855388   2.467888   1.444972
    12  C    4.348465   3.835995   2.633221   1.442800   2.470872
    13  C    2.992859   4.414286   5.129209   4.842149   4.977822
    14  C    2.494726   3.918506   4.966714   5.112030   6.008857
    15  C    1.359158   2.562705   3.776034   4.277643   5.861723
    16  C    4.955618   5.929442   5.874335   4.786367   2.951407
    17  C    5.908210   6.634643   6.292179   5.010418   2.456945
    18  C    5.852825   6.278598   5.663887   4.268614   1.407678
    19  C    5.676863   6.851254   7.016747   6.072288   4.415562
    20  C    7.056183   8.179844   8.252438   7.210855   5.151966
    21  C    7.706319   8.656372   8.512012   7.325600   4.865052
    22  C    7.244921   8.014337   7.684457   6.402763   3.738977
    23  C    5.475028   6.825743   7.261688   6.551754   5.453818
    24  C    6.799842   8.191015   8.680620   7.982219   6.764729
    25  C    7.973757   9.308990   9.675299   8.841988   7.219870
    26  C    8.078293   9.302081   9.493795   8.521433   6.557394
    27  C    7.218328   8.669326   9.323772   8.785087   7.892979
    28  C    6.495858   7.963070   8.762482   8.412018   7.978534
    29  C    5.100262   6.568590   7.395359   7.118546   6.960069
    30  C    4.441668   5.877615   6.531829   6.081652   5.667157
    31  H    3.362614   4.691462   5.827544   6.070537   6.933206
    32  H    2.143421   2.887039   4.228775   5.004898   6.836029
    33  H    2.200221   1.085400   2.117385   3.454501   6.113960
    34  H    3.464779   2.117593   1.085446   2.209489   5.036483
    35  H    5.053632   4.263349   2.927439   2.191728   3.443152
    36  H    6.144019   5.871180   4.743688   3.441655   2.190893
    37  H    6.836931   7.145406   6.407440   4.995593   2.174279
    38  H    8.023871   8.661416   8.189698   6.848767   4.037185
    39  H    8.774815   9.724054   9.565530   8.364993   5.823410
    40  H    9.090537  10.275699  10.402913   9.372729   7.217909
    41  H    8.922297  10.288934  10.705063   9.900410   8.291565
    42  H    8.298332   9.751377  10.404583   9.843934   8.834716
    43  H    7.123041   8.578682   9.467413   9.223324   8.965949
    44  H    4.745260   6.187478   7.158571   7.089847   7.362105
    45  H    2.924670   4.299400   5.325544   5.453434   6.364244
    46  H    3.339900   4.630820   5.310325   5.042473   5.070507
                   11         12         13         14         15
    11  C    0.000000
    12  C    1.384422   0.000000
    13  C    5.966599   5.911140   0.000000
    14  C    6.766100   6.402968   1.565189   0.000000
    15  C    6.304975   5.662126   2.619882   1.525755   0.000000
    16  C    4.363827   5.080765   3.291440   4.775497   5.381954
    17  C    3.832957   4.877231   4.676500   6.119929   6.536867
    18  C    2.585802   3.799743   5.346350   6.620299   6.731209
    19  C    5.825851   6.497814   3.275304   4.816889   5.773631
    20  C    6.572172   7.438115   4.645626   6.185446   7.162543
    21  C    6.210552   7.271163   5.661034   7.223846   8.013351
    22  C    5.008099   6.161432   5.687403   7.210721   7.768077
    23  C    6.801311   7.248328   2.642294   4.011300   5.250491
    24  C    8.150707   8.659961   3.881355   5.052773   6.430444
    25  C    8.649626   9.340156   5.097738   6.382663   7.700839
    26  C    7.984402   8.824253   5.391233   6.840804   7.999631
    27  C    9.235308   9.611967   4.333189   5.139175   6.633879
    28  C    9.220489   9.402600   3.809482   4.235475   5.757780
    29  C    8.113021   8.178059   2.483433   2.854829   4.372397
    30  C    6.860859   7.027367   1.535304   2.635461   3.997885
    31  H    7.710088   7.351993   2.196208   1.091773   2.151486
    32  H    7.165701   6.400004   3.553598   2.250837   1.085453
    33  H    5.875912   4.728187   5.125391   4.359847   2.859471
    34  H    4.286007   2.929561   6.190973   5.956777   4.666945
    35  H    2.131175   1.085363   6.891432   7.271483   6.382760
    36  H    1.085216   2.132253   6.975400   7.828046   7.366134
    37  H    2.905204   4.253719   6.401283   7.685370   7.754481
    38  H    5.114725   6.384071   6.687632   8.188244   8.644693
    39  H    7.119503   8.238708   6.651584   8.214174   9.047649
    40  H    8.624327   9.561363   6.446458   7.908305   9.044857
    41  H    9.724830  10.417749   5.997220   7.177656   8.561058
    42  H   10.205025  10.636717   5.412503   6.179814   7.686516
    43  H   10.172657  10.282160   4.638012   4.768406   6.266803
    44  H    8.389660   8.276657   2.630858   2.357095   3.832915
    45  H    7.136892   6.767595   2.175582   1.101485   2.115343
    46  H    6.028430   6.013157   1.106112   2.169865   2.950902
                   16         17         18         19         20
    16  C    0.000000
    17  C    1.466623   0.000000
    18  C    2.535323   1.411553   0.000000
    19  C    1.465019   2.558138   3.867054   0.000000
    20  C    2.436508   2.836742   4.247265   1.421046   0.000000
    21  C    2.811494   2.411026   3.675765   2.499102   1.434817
    22  C    2.487151   1.428067   2.434062   2.913295   2.439964
    23  C    2.630792   3.955483   5.162543   1.483997   2.493327
    24  C    3.859952   5.009224   6.320799   2.483100   2.800488
    25  C    4.294144   5.113527   6.510377   2.853940   2.404157
    26  C    3.766310   4.244903   5.651815   2.484978   1.421420
    27  C    5.084776   6.327153   7.585939   3.805539   4.209628
    28  C    5.402744   6.785381   7.910985   4.353642   5.101967
    29  C    4.633869   6.088245   7.071937   3.870782   4.936279
    30  C    3.293500   4.753018   5.729319   2.657641   3.884445
    31  H    5.480169   6.850592   7.453666   5.301861   6.582240
    32  H    6.430274   7.574141   7.740646   6.769017   8.139231
    33  H    6.943498   7.684980   7.338987   7.790655   9.133034
    34  H    6.858636   7.155353   6.391256   8.045521   9.245972
    35  H    6.141850   5.855404   4.688966   7.562473   8.472231
    36  H    5.082628   4.279732   2.894167   6.530829   7.104878
    37  H    3.492406   2.144534   1.085516   4.701701   4.822800
    38  H    3.469566   2.170614   2.631373   3.997755   3.426821
    39  H    3.895213   3.401085   4.550449   3.452867   2.160302
    40  H    4.595066   4.802644   6.168148   3.450524   2.162255
    41  H    5.373995   6.156084   7.556238   3.937604   3.396766
    42  H    5.977626   7.125942   8.432772   4.627701   4.767051
    43  H    6.460901   7.851479   8.953971   5.434738   6.152517
    44  H    5.337573   6.803799   7.655966   4.769346   5.926418
    45  H    5.128838   6.500733   7.004629   5.131854   6.504465
    46  H    3.377525   4.641534   5.331662   3.323811   4.562605
                   21         22         23         24         25
    21  C    0.000000
    22  C    1.351691   0.000000
    23  C    3.832928   4.392207   0.000000
    24  C    4.227970   5.117664   1.443545   0.000000
    25  C    3.667401   4.819181   2.503648   1.424413   0.000000
    26  C    2.420524   3.679115   2.877009   2.416071   1.352577
    27  C    5.630919   6.515239   2.503968   1.414337   2.407533
    28  C    6.524126   7.227435   2.884918   2.416350   3.675181
    29  C    6.287520   6.762794   2.455284   2.750704   4.168275
    30  C    5.140679   5.489997   1.456809   2.441764   3.769424
    31  H    7.705523   7.829943   4.329939   5.167420   6.496552
    32  H    9.013702   8.789670   6.166881   7.266799   8.559973
    33  H    9.657421   9.049507   7.656427   8.978900  10.146925
    34  H    9.425398   8.525965   8.334855   9.758011  10.734826
    35  H    8.237413   7.079382   8.319666   9.735998  10.410097
    36  H    6.538605   5.244297   7.628095   8.930436   9.303473
    37  H    3.954462   2.605385   6.080392   7.149893   7.175319
    38  H    2.122810   1.084543   5.476247   6.162715   5.758682
    39  H    1.084491   2.117682   4.653458   4.783856   3.924618
    40  H    2.592081   3.939029   3.960253   3.407919   2.125572
    41  H    4.535605   5.761472   3.467363   2.159252   1.084420
    42  H    6.136608   7.150133   3.466497   2.150826   2.572972
    43  H    7.577320   8.300583   3.967909   3.409622   4.548670
    44  H    7.237704   7.607913   3.433830   3.829140   5.243788
    45  H    7.593103   7.603676   4.211529   5.128942   6.518248
    46  H    5.501065   5.548155   2.888576   4.092916   5.153924
                   26         27         28         29         30
    26  C    0.000000
    27  C    3.662816   0.000000
    28  C    4.824911   1.366167   0.000000
    29  C    5.048232   2.373808   1.400756   0.000000
    30  C    4.313096   2.819245   2.459303   1.386649   0.000000
    31  H    7.074230   5.069520   4.081652   2.834752   2.942916
    32  H    8.920593   7.346746   6.370877   5.037566   4.855398
    33  H   10.208400   9.352546   8.543993   7.149223   6.600175
    34  H   10.514273  10.406594   9.831502   8.458022   7.610317
    35  H    9.868151  10.681309  10.442793   9.193805   8.065413
    36  H    8.520253  10.080424  10.153092   9.091722   7.809594
    37  H    6.179140   8.463974   8.879732   8.096552   6.749112
    38  H    4.538082   7.563054   8.305005   7.844032   6.562730
    39  H    2.576970   6.140130   7.171619   7.092537   6.030305
    40  H    1.084249   4.532797   5.775223   6.096648   5.393376
    41  H    2.124558   2.575832   3.939097   4.730355   4.591465
    42  H    3.924105   1.084415   2.138542   3.371685   3.902477
    43  H    5.778089   2.142009   1.083851   2.160421   3.428319
    44  H    6.112176   3.334486   2.123062   1.079791   2.130902
    45  H    7.087960   5.038439   4.000427   2.698202   2.806176
    46  H    5.323131   4.672232   4.307084   3.104823   2.114111
                   31         32         33         34         35
    31  H    0.000000
    32  H    2.437556   0.000000
    33  H    4.965253   2.763561   0.000000
    34  H    6.766504   4.952190   2.418406   0.000000
    35  H    8.195283   7.007250   4.989712   2.809576   0.000000
    36  H    8.754929   8.207241   6.803175   5.009064   2.431604
    37  H    8.500977   8.742567   8.187985   7.022600   4.976861
    38  H    8.830479   9.658305   9.702135   8.945555   7.201662
    39  H    8.635123  10.032352  10.719336  10.461495   9.172435
    40  H    8.122490   9.963671  11.196394  11.400357  10.580285
    41  H    7.191549   9.371703  11.096196  11.770924  11.489597
    42  H    6.041257   8.364521  10.425284  11.487975  11.711331
    43  H    4.478404   6.750379   9.068727  10.517980  11.304764
    44  H    2.191681   4.341716   6.635669   8.183458   9.239818
    45  H    1.758378   2.745778   4.725258   6.310055   7.644369
    46  H    2.450331   3.751515   5.296778   6.322661   6.955062
                   36         37         38         39         40
    36  H    0.000000
    37  H    2.796586   0.000000
    38  H    5.122620   2.333280   0.000000
    39  H    7.345696   4.638231   2.455677   0.000000
    40  H    9.056743   6.535465   4.601052   2.274086   0.000000
    41  H   10.368141   8.184365   6.640890   4.600105   2.469477
    42  H   11.015617   9.255746   8.156202   6.485708   4.600748
    43  H   11.128736   9.934008   9.375856   8.189955   6.673112
    44  H    9.416746   8.713419   8.677992   8.085776   7.165140
    45  H    8.212519   8.088302   8.596518   8.583189   8.171630
    46  H    6.979837   6.321468   6.513459   6.446841   6.318873
                   41         42         43         44         45
    41  H    0.000000
    42  H    2.266243   0.000000
    43  H    4.621231   2.492826   0.000000
    44  H    5.775387   4.243928   2.439946   0.000000
    45  H    7.255370   6.044722   4.402783   2.027402   0.000000
    46  H    6.061682   5.707984   5.161571   3.317058   3.063008
                   46
    46  H    0.000000
 Stoichiometry    C30H16
 Framework group  C1[X(C30H16)]
 Deg. of freedom   132
 Full point group                 C1      NOp   1
 Largest Abelian subgroup         C1      NOp   1
 Largest concise Abelian subgroup C1      NOp   1
                         Standard orientation:                         
 ---------------------------------------------------------------------
 Center     Atomic      Atomic             Coordinates (Angstroms)
 Number     Number       Type             X           Y           Z
 ---------------------------------------------------------------------
      1          6           0        0.702782   -0.908058   -0.151157
      2          6           0        0.525120    0.520441   -0.305563
      3          6           0        1.814183    1.064588   -0.515473
      4          6           0        2.038105   -1.191097   -0.256017
      5          6           0        2.750636    0.024590   -0.479137
      6          6           0        2.720666   -2.345947    0.257544
      7          6           0        4.176337   -2.188856    0.380018
      8          6           0        4.818470   -1.007285    0.135317
      9          6           0        4.086686    0.208612   -0.239157
     10          6           0        2.189630    2.396644   -0.368903
     11          6           0        3.613420    2.630163   -0.289941
     12          6           0        4.518404    1.585110   -0.215826
     13          6           0       -0.225112   -1.870774    0.489510
     14          6           0        0.417088   -3.294596    0.388885
     15          6           0        1.917937   -3.368882    0.653197
     16          6           0       -0.554263    1.361719   -0.036059
     17          6           0       -0.202518    2.783684    0.036566
     18          6           0        1.113676    3.269315   -0.119250
     19          6           0       -1.933150    0.903250    0.150375
     20          6           0       -2.889001    1.933103    0.362800
     21          6           0       -2.508553    3.309282    0.504538
     22          6           0       -1.232743    3.724680    0.340768
     23          6           0       -2.423436   -0.489231   -0.000827
     24          6           0       -3.849444   -0.644513   -0.162729
     25          6           0       -4.747527    0.440425    0.050129
     26          6           0       -4.286356    1.672655    0.363807
     27          6           0       -4.441909   -1.881493   -0.508003
     28          6           0       -3.676715   -3.003323   -0.657628
     29          6           0       -2.309045   -2.914146   -0.368415
     30          6           0       -1.670904   -1.736594   -0.009328
     31          1           0       -0.103181   -3.990870    1.049559
     32          1           0        2.316678   -4.282067    1.083671
     33          1           0        4.758966   -3.047730    0.697780
     34          1           0        5.893902   -0.954892    0.272772
     35          1           0        5.570780    1.813592   -0.080503
     36          1           0        3.981203    3.648582   -0.217472
     37          1           0        1.279965    4.333178    0.018183
     38          1           0       -0.974408    4.774457    0.427172
     39          1           0       -3.295409    4.025525    0.714237
     40          1           0       -4.968647    2.494064    0.551854
     41          1           0       -5.811481    0.247508   -0.032036
     42          1           0       -5.517053   -1.914113   -0.645686
     43          1           0       -4.114175   -3.953297   -0.942078
     44          1           0       -1.738141   -3.830086   -0.401137
     45          1           0        0.268598   -3.664784   -0.637848
     46          1           0       -0.262378   -1.599863    1.561285
 ---------------------------------------------------------------------
 Rotational constants (GHZ):           0.2766727           0.1554477           0.1015739
 Standard basis: 6-311+G(d,p) (5D, 7F)
 There are   786 symmetry adapted cartesian basis functions of A   symmetry.
 There are   756 symmetry adapted basis functions of A   symmetry.
   756 basis functions,  1208 primitive gaussians,   786 cartesian basis functions
    98 alpha electrons       98 beta electrons
       nuclear repulsion energy      2625.4775294747 Hartrees.
 NAtoms=   46 NActive=   46 NUniq=   46 SFac= 1.00D+00 NAtFMM=   60 NAOKFM=F Big=F
 Integral buffers will be    131072 words long.
 Raffenetti 2 integral format.
 Two-electron integral symmetry is turned on.
 One-electron integrals computed using PRISM.
 NBasis=   756 RedAO= T EigKep=  1.10D-06  NBF=   756
 NBsUse=   736 1.00D-06 EigRej=  9.99D-07 NBFU=   736
 ExpMin= 4.38D-02 ExpMax= 4.56D+03 ExpMxC= 6.82D+02 IAcc=2 IRadAn=         4 AccDes= 0.00D+00
 Harris functional with IExCor=  402 and IRadAn=       4 diagonalized for initial guess.
 HarFok:  IExCor=  402 AccDes= 0.00D+00 IRadAn=         4 IDoV= 1 UseB2=F ITyADJ=14
 ICtDFT=  3500011 ScaDFX=  1.000000  1.000000  1.000000  1.000000
 FoFCou: FMM=F IPFlag=           0 FMFlag=      100000 FMFlg1=           0
         NFxFlg=           0 DoJE=T BraDBF=F KetDBF=T FulRan=T
         wScrn=  0.000000 ICntrl=       500 IOpCl=  0 I1Cent=   200000004 NGrid=           0
         NMat0=    1 NMatS0=      1 NMatT0=    0 NMatD0=    1 NMtDS0=    0 NMtDT0=    0
 Petite list used in FoFCou.
 Requested convergence on RMS density matrix=1.00D-08 within 128 cycles.
 Requested convergence on MAX density matrix=1.00D-06.
 Requested convergence on             energy=1.00D-06.
 No special actions if energy rises.
 SCF Done:  E(RB3LYP) =  -1153.08053279     A.U. after   17 cycles
            NFock= 17  Conv=0.59D-08     -V/T= 2.0045

 **********************************************************************

            Population analysis using the SCF density.

 **********************************************************************

 Orbital symmetries:
       Occupied  (A) (A) (A) (A) (A) (A) (A) (A) (A) (A) (A) (A)
                 (A) (A) (A) (A) (A) (A) (A) (A) (A) (A) (A) (A)
                 (A) (A) (A) (A) (A) (A) (A) (A) (A) (A) (A) (A)
                 (A) (A) (A) (A) (A) (A) (A) (A) (A) (A) (A) (A)
                 (A) (A) (A) (A) (A) (A) (A) (A) (A) (A) (A) (A)
                 (A) (A) (A) (A) (A) (A) (A) (A) (A) (A) (A) (A)
                 (A) (A) (A) (A) (A) (A) (A) (A) (A) (A) (A) (A)
                 (A) (A) (A) (A) (A) (A) (A) (A) (A) (A) (A) (A)
                 (A) (A)
       Virtual   (A) (A) (A) (A) (A) (A) (A) (A) (A) (A) (A) (A)
                 (A) (A) (A) (A) (A) (A) (A) (A) (A) (A) (A) (A)
                 (A) (A) (A) (A) (A) (A) (A) (A) (A) (A) (A) (A)
                 (A) (A) (A) (A) (A) (A) (A) (A) (A) (A) (A) (A)
                 (A) (A) (A) (A) (A) (A) (A) (A) (A) (A) (A) (A)
                 (A) (A) (A) (A) (A) (A) (A) (A) (A) (A) (A) (A)
                 (A) (A) (A) (A) (A) (A) (A) (A) (A) (A) (A) (A)
                 (A) (A) (A) (A) (A) (A) (A) (A) (A) (A) (A) (A)
                 (A) (A) (A) (A) (A) (A) (A) (A) (A) (A) (A) (A)
                 (A) (A) (A) (A) (A) (A) (A) (A) (A) (A) (A) (A)
                 (A) (A) (A) (A) (A) (A) (A) (A) (A) (A) (A) (A)
                 (A) (A) (A) (A) (A) (A) (A) (A) (A) (A) (A) (A)
                 (A) (A) (A) (A) (A) (A) (A) (A) (A) (A) (A) (A)
                 (A) (A) (A) (A) (A) (A) (A) (A) (A) (A) (A) (A)
                 (A) (A) (A) (A) (A) (A) (A) (A) (A) (A) (A) (A)
                 (A) (A) (A) (A) (A) (A) (A) (A) (A) (A) (A) (A)
                 (A) (A) (A) (A) (A) (A) (A) (A) (A) (A) (A) (A)
                 (A) (A) (A) (A) (A) (A) (A) (A) (A) (A) (A) (A)
                 (A) (A) (A) (A) (A) (A) (A) (A) (A) (A) (A) (A)
                 (A) (A) (A) (A) (A) (A) (A) (A) (A) (A) (A) (A)
                 (A) (A) (A) (A) (A) (A) (A) (A) (A) (A) (A) (A)
                 (A) (A) (A) (A) (A) (A) (A) (A) (A) (A) (A) (A)
                 (A) (A) (A) (A) (A) (A) (A) (A) (A) (A) (A) (A)
                 (A) (A) (A) (A) (A) (A) (A) (A) (A) (A) (A) (A)
                 (A) (A) (A) (A) (A) (A) (A) (A) (A) (A) (A) (A)
                 (A) (A) (A) (A) (A) (A) (A) (A) (A) (A) (A) (A)
                 (A) (A) (A) (A) (A) (A) (A) (A) (A) (A) (A) (A)
                 (A) (A) (A) (A) (A) (A) (A) (A) (A) (A) (A) (A)
                 (A) (A) (A) (A) (A) (A) (A) (A) (A) (A) (A) (A)
                 (A) (A) (A) (A) (A) (A) (A) (A) (A) (A) (A) (A)
                 (A) (A) (A) (A) (A) (A) (A) (A) (A) (A) (A) (A)
                 (A) (A) (A) (A) (A) (A) (A) (A) (A) (A) (A) (A)
                 (A) (A) (A) (A) (A) (A) (A) (A) (A) (A) (A) (A)
                 (A) (A) (A) (A) (A) (A) (A) (A) (A) (A) (A) (A)
                 (A) (A) (A) (A) (A) (A) (A) (A) (A) (A) (A) (A)
                 (A) (A) (A) (A) (A) (A) (A) (A) (A) (A) (A) (A)
                 (A) (A) (A) (A) (A) (A) (A) (A) (A) (A) (A) (A)
                 (A) (A) (A) (A) (A) (A) (A) (A) (A) (A) (A) (A)
                 (A) (A) (A) (A) (A) (A) (A) (A) (A) (A) (A) (A)
                 (A) (A) (A) (A) (A) (A) (A) (A) (A) (A) (A) (A)
                 (A) (A) (A) (A) (A) (A) (A) (A) (A) (A) (A) (A)
                 (A) (A) (A) (A) (A) (A) (A) (A) (A) (A) (A) (A)
                 (A) (A) (A) (A) (A) (A) (A) (A) (A) (A) (A) (A)
                 (A) (A) (A) (A) (A) (A) (A) (A) (A) (A) (A) (A)
                 (A) (A) (A) (A) (A) (A) (A) (A) (A) (A) (A) (A)
                 (A) (A) (A) (A) (A) (A) (A) (A) (A) (A) (A) (A)
                 (A) (A) (A) (A) (A) (A) (A) (A) (A) (A) (A) (A)
                 (A) (A) (A) (A) (A) (A) (A) (A) (A) (A) (A) (A)
                 (A) (A) (A) (A) (A) (A) (A) (A) (A) (A) (A) (A)
                 (A) (A) (A) (A) (A) (A) (A) (A) (A) (A) (A) (A)
                 (A) (A) (A) (A) (A) (A) (A) (A) (A) (A) (A) (A)
                 (A) (A) (A) (A) (A) (A) (A) (A) (A) (A) (A) (A)
                 (A) (A) (A) (A) (A) (A) (A) (A) (A) (A) (A) (A)
                 (A) (A)
 The electronic state is 1-A.
 Alpha  occ. eigenvalues --  -10.20724 -10.20495 -10.20258 -10.19902 -10.19767
 Alpha  occ. eigenvalues --  -10.19673 -10.19594 -10.19399 -10.19244 -10.19155
 Alpha  occ. eigenvalues --  -10.19146 -10.19058 -10.18982 -10.18973 -10.18902
 Alpha  occ. eigenvalues --  -10.18897 -10.18804 -10.18742 -10.18134 -10.18085
 Alpha  occ. eigenvalues --  -10.17922 -10.17896 -10.17840 -10.17768 -10.17758
 Alpha  occ. eigenvalues --  -10.17584 -10.17521 -10.16598 -10.16419 -10.16031
 Alpha  occ. eigenvalues --   -0.91691  -0.88955  -0.87166  -0.85063  -0.84541
 Alpha  occ. eigenvalues --   -0.82311  -0.80505  -0.80048  -0.78618  -0.75910
 Alpha  occ. eigenvalues --   -0.75374  -0.74427  -0.72574  -0.71564  -0.70592
 Alpha  occ. eigenvalues --   -0.66459  -0.65850  -0.63623  -0.63327  -0.61779
 Alpha  occ. eigenvalues --   -0.59962  -0.59803  -0.58078  -0.56369  -0.55628
 Alpha  occ. eigenvalues --   -0.52997  -0.52107  -0.51136  -0.50465  -0.50035
 Alpha  occ. eigenvalues --   -0.49266  -0.47767  -0.47146  -0.46673  -0.45101
 Alpha  occ. eigenvalues --   -0.44649  -0.44251  -0.43793  -0.43423  -0.42710
 Alpha  occ. eigenvalues --   -0.42093  -0.41800  -0.41387  -0.40860  -0.40651
 Alpha  occ. eigenvalues --   -0.40221  -0.39597  -0.38688  -0.37671  -0.37523
 Alpha  occ. eigenvalues --   -0.37366  -0.35767  -0.35361  -0.35232  -0.34385
 Alpha  occ. eigenvalues --   -0.33924  -0.33509  -0.32954  -0.32262  -0.31882
 Alpha  occ. eigenvalues --   -0.29937  -0.28990  -0.27301  -0.25044  -0.24584
 Alpha  occ. eigenvalues --   -0.22343  -0.20925  -0.18966
 Alpha virt. eigenvalues --   -0.10509  -0.05706  -0.04920  -0.03118  -0.01213
 Alpha virt. eigenvalues --   -0.00252   0.00203   0.00515   0.00598   0.01096
 Alpha virt. eigenvalues --    0.01478   0.01574   0.02166   0.02806   0.02931
 Alpha virt. eigenvalues --    0.03089   0.03518   0.03602   0.04522   0.04613
 Alpha virt. eigenvalues --    0.04975   0.05267   0.05472   0.05683   0.06488
 Alpha virt. eigenvalues --    0.06733   0.07038   0.07331   0.07602   0.08146
 Alpha virt. eigenvalues --    0.08482   0.08559   0.09038   0.09356   0.09470
 Alpha virt. eigenvalues --    0.09819   0.10138   0.10654   0.11456   0.11614
 Alpha virt. eigenvalues --    0.11673   0.11937   0.12279   0.12547   0.12641
 Alpha virt. eigenvalues --    0.13098   0.13944   0.14184   0.14625   0.14726
 Alpha virt. eigenvalues --    0.14980   0.15314   0.15635   0.15852   0.16048
 Alpha virt. eigenvalues --    0.16107   0.16534   0.16660   0.16777   0.16923
 Alpha virt. eigenvalues --    0.17012   0.17106   0.17472   0.17533   0.17941
 Alpha virt. eigenvalues --    0.18096   0.18525   0.18563   0.18902   0.19157
 Alpha virt. eigenvalues --    0.19300   0.19464   0.19665   0.19923   0.20049
 Alpha virt. eigenvalues --    0.20205   0.20353   0.20954   0.21151   0.21270
 Alpha virt. eigenvalues --    0.21433   0.21773   0.21804   0.22127   0.22458
 Alpha virt. eigenvalues --    0.22629   0.22691   0.22957   0.23136   0.23553
 Alpha virt. eigenvalues --    0.23736   0.23944   0.24122   0.24234   0.24519
 Alpha virt. eigenvalues --    0.24835   0.25035   0.25265   0.25413   0.25670
 Alpha virt. eigenvalues --    0.25679   0.26228   0.26331   0.26590   0.26909
 Alpha virt. eigenvalues --    0.27085   0.27301   0.27646   0.27959   0.28423
 Alpha virt. eigenvalues --    0.28749   0.29017   0.29159   0.29428   0.29533
 Alpha virt. eigenvalues --    0.29940   0.30166   0.30487   0.30552   0.30786
 Alpha virt. eigenvalues --    0.31128   0.31228   0.31835   0.32069   0.32305
 Alpha virt. eigenvalues --    0.32715   0.33326   0.33400   0.33824   0.33957
 Alpha virt. eigenvalues --    0.34210   0.34586   0.34975   0.35105   0.35600
 Alpha virt. eigenvalues --    0.35922   0.36313   0.37225   0.37407   0.37977
 Alpha virt. eigenvalues --    0.38135   0.38494   0.39017   0.39216   0.39680
 Alpha virt. eigenvalues --    0.39880   0.40295   0.40849   0.41260   0.41604
 Alpha virt. eigenvalues --    0.42098   0.42646   0.43198   0.44104   0.44963
 Alpha virt. eigenvalues --    0.45618   0.46019   0.47243   0.47297   0.48340
 Alpha virt. eigenvalues --    0.49182   0.49681   0.50099   0.50606   0.51361
 Alpha virt. eigenvalues --    0.51812   0.52529   0.52883   0.53197   0.53773
 Alpha virt. eigenvalues --    0.54277   0.54408   0.54916   0.55180   0.55554
 Alpha virt. eigenvalues --    0.56091   0.56404   0.56884   0.57000   0.57289
 Alpha virt. eigenvalues --    0.58242   0.58282   0.58830   0.58982   0.59116
 Alpha virt. eigenvalues --    0.59426   0.60108   0.60603   0.60826   0.61285
 Alpha virt. eigenvalues --    0.61355   0.61524   0.61726   0.62615   0.62906
 Alpha virt. eigenvalues --    0.63302   0.63576   0.64437   0.64812   0.65180
 Alpha virt. eigenvalues --    0.65776   0.66812   0.67060   0.67735   0.68074
 Alpha virt. eigenvalues --    0.68528   0.68712   0.69337   0.69796   0.70196
 Alpha virt. eigenvalues --    0.70394   0.70648   0.70866   0.71529   0.71812
 Alpha virt. eigenvalues --    0.72107   0.72348   0.72647   0.72838   0.73282
 Alpha virt. eigenvalues --    0.73871   0.74145   0.74413   0.74743   0.74849
 Alpha virt. eigenvalues --    0.75003   0.75252   0.75778   0.76294   0.76530
 Alpha virt. eigenvalues --    0.76597   0.77250   0.77875   0.77957   0.78544
 Alpha virt. eigenvalues --    0.79269   0.80388   0.81251   0.81648   0.82338
 Alpha virt. eigenvalues --    0.82908   0.83338   0.83904   0.84167   0.84422
 Alpha virt. eigenvalues --    0.85931   0.86417   0.86968   0.87505   0.88445
 Alpha virt. eigenvalues --    0.88774   0.88895   0.89394   0.89844   0.90250
 Alpha virt. eigenvalues --    0.90838   0.90997   0.91646   0.91685   0.92254
 Alpha virt. eigenvalues --    0.92764   0.92855   0.93728   0.94046   0.94406
 Alpha virt. eigenvalues --    0.94524   0.95288   0.95341   0.95659   0.95830
 Alpha virt. eigenvalues --    0.96358   0.96720   0.97438   0.98251   0.98388
 Alpha virt. eigenvalues --    0.98813   0.99796   1.00244   1.00324   1.00807
 Alpha virt. eigenvalues --    1.01245   1.02400   1.02591   1.03387   1.03985
 Alpha virt. eigenvalues --    1.04832   1.04981   1.06272   1.06753   1.07597
 Alpha virt. eigenvalues --    1.08039   1.08539   1.08895   1.10212   1.10736
 Alpha virt. eigenvalues --    1.10941   1.11805   1.12800   1.13902   1.14327
 Alpha virt. eigenvalues --    1.15551   1.16528   1.17833   1.17927   1.19162
 Alpha virt. eigenvalues --    1.19614   1.19846   1.21237   1.21922   1.23508
 Alpha virt. eigenvalues --    1.25095   1.26586   1.26976   1.28446   1.30669
 Alpha virt. eigenvalues --    1.31192   1.32513   1.34915   1.35787   1.36256
 Alpha virt. eigenvalues --    1.36751   1.37848   1.39492   1.40700   1.42282
 Alpha virt. eigenvalues --    1.42708   1.43354   1.43784   1.43892   1.44296
 Alpha virt. eigenvalues --    1.46177   1.47112   1.47826   1.48614   1.48766
 Alpha virt. eigenvalues --    1.49110   1.49749   1.50609   1.51176   1.51384
 Alpha virt. eigenvalues --    1.51999   1.52501   1.53174   1.53561   1.54714
 Alpha virt. eigenvalues --    1.55249   1.55382   1.56104   1.56488   1.57363
 Alpha virt. eigenvalues --    1.57763   1.58372   1.59285   1.59575   1.60169
 Alpha virt. eigenvalues --    1.61090   1.61328   1.61751   1.63101   1.63916
 Alpha virt. eigenvalues --    1.64623   1.64872   1.65700   1.66956   1.67771
 Alpha virt. eigenvalues --    1.68189   1.68884   1.69362   1.70482   1.71365
 Alpha virt. eigenvalues --    1.71658   1.72440   1.73422   1.73997   1.74163
 Alpha virt. eigenvalues --    1.74373   1.74847   1.75502   1.76648   1.77145
 Alpha virt. eigenvalues --    1.77191   1.78584   1.79303   1.80264   1.81250
 Alpha virt. eigenvalues --    1.81992   1.82981   1.83363   1.84856   1.85278
 Alpha virt. eigenvalues --    1.85630   1.86312   1.86691   1.87398   1.87657
 Alpha virt. eigenvalues --    1.88244   1.88364   1.88771   1.89259   1.90264
 Alpha virt. eigenvalues --    1.90738   1.91160   1.92378   1.93109   1.93921
 Alpha virt. eigenvalues --    1.94588   1.94936   1.95010   1.95700   1.96541
 Alpha virt. eigenvalues --    1.97235   1.97356   1.98040   1.99116   1.99407
 Alpha virt. eigenvalues --    2.00588   2.01410   2.02977   2.03723   2.04232
 Alpha virt. eigenvalues --    2.04859   2.05353   2.06594   2.07124   2.07860
 Alpha virt. eigenvalues --    2.08853   2.09396   2.10817   2.11311   2.11859
 Alpha virt. eigenvalues --    2.12002   2.12407   2.14035   2.15031   2.15442
 Alpha virt. eigenvalues --    2.16844   2.18222   2.18849   2.19747   2.21252
 Alpha virt. eigenvalues --    2.21705   2.22515   2.22996   2.24021   2.24269
 Alpha virt. eigenvalues --    2.24461   2.25257   2.27609   2.28731   2.28920
 Alpha virt. eigenvalues --    2.30554   2.32382   2.33473   2.33889   2.35350
 Alpha virt. eigenvalues --    2.36599   2.38228   2.38641   2.40180   2.40895
 Alpha virt. eigenvalues --    2.41636   2.42131   2.43741   2.44346   2.45459
 Alpha virt. eigenvalues --    2.47418   2.48425   2.49648   2.50283   2.53659
 Alpha virt. eigenvalues --    2.54498   2.54925   2.56260   2.56949   2.58093
 Alpha virt. eigenvalues --    2.58381   2.59312   2.62183   2.63953   2.64524
 Alpha virt. eigenvalues --    2.65568   2.65887   2.67833   2.68640   2.69338
 Alpha virt. eigenvalues --    2.70178   2.70666   2.71419   2.71701   2.71786
 Alpha virt. eigenvalues --    2.72316   2.73299   2.73585   2.73869   2.74467
 Alpha virt. eigenvalues --    2.74901   2.75308   2.75974   2.76239   2.76885
 Alpha virt. eigenvalues --    2.77293   2.77855   2.78250   2.78841   2.79056
 Alpha virt. eigenvalues --    2.79469   2.81128   2.81481   2.82594   2.82858
 Alpha virt. eigenvalues --    2.84005   2.84511   2.85235   2.85479   2.86228
 Alpha virt. eigenvalues --    2.86549   2.87200   2.88569   2.89040   2.90171
 Alpha virt. eigenvalues --    2.90838   2.92152   2.92780   2.93666   2.94506
 Alpha virt. eigenvalues --    2.96965   2.97501   2.99209   3.01204   3.02255
 Alpha virt. eigenvalues --    3.03385   3.04889   3.05929   3.06726   3.09230
 Alpha virt. eigenvalues --    3.09482   3.11563   3.12869   3.13697   3.15598
 Alpha virt. eigenvalues --    3.16989   3.17804   3.19665   3.20783   3.21825
 Alpha virt. eigenvalues --    3.21928   3.23123   3.24172   3.25165   3.27174
 Alpha virt. eigenvalues --    3.29358   3.30110   3.32454   3.34556   3.35885
 Alpha virt. eigenvalues --    3.36378   3.38316   3.39034   3.39581   3.40570
 Alpha virt. eigenvalues --    3.43444   3.43551   3.44234   3.45852   3.48634
 Alpha virt. eigenvalues --    3.49533   3.51023   3.52806   3.53585   3.56750
 Alpha virt. eigenvalues --    3.57674   3.58497   3.61230   3.62585   3.63263
 Alpha virt. eigenvalues --    3.67608   3.68771   3.72670   3.77846   3.79440
 Alpha virt. eigenvalues --    3.83578   3.85670   3.87737   3.95086   3.99263
 Alpha virt. eigenvalues --    4.04613   4.05351   4.06600   4.07555   4.08255
 Alpha virt. eigenvalues --    4.10211   4.11364   4.15487   4.20728   4.24054
 Alpha virt. eigenvalues --    4.28974   4.33094   4.43177   4.47266   4.57364
 Alpha virt. eigenvalues --    4.67759   4.70188   4.75304   4.77574   4.79525
 Alpha virt. eigenvalues --    4.81088   4.81950   4.89719  23.42831  23.59215
 Alpha virt. eigenvalues --   23.68774  23.77578  23.80589  23.82765  23.84490
 Alpha virt. eigenvalues --   23.88276  23.89275  23.90195  23.90807  23.91306
 Alpha virt. eigenvalues --   23.91943  23.93196  23.96611  23.99534  24.00088
 Alpha virt. eigenvalues --   24.01101  24.06153  24.08306  24.11313  24.11421
 Alpha virt. eigenvalues --   24.13395  24.14796  24.16736  24.19020  24.19478
 Alpha virt. eigenvalues --   24.20944  24.22918  24.23389
          Condensed to atoms (all electrons):
               1          2          3          4          5          6
     1  C   14.383772   1.127025   1.482238   0.729444  -0.318576  -2.639809
     2  C    1.127025   9.805538   1.247395   0.479099  -0.804400  -1.895702
     3  C    1.482238   1.247395  10.741083  -0.645742   1.332528  -1.010362
     4  C    0.729444   0.479099  -0.645742  11.535748   1.264317   0.039789
     5  C   -0.318576  -0.804400   1.332528   1.264317  10.885089  -0.318335
     6  C   -2.639809  -1.895702  -1.010362   0.039789  -0.318335  16.676557
     7  C   -0.682721  -0.476372   0.337977  -2.195195   1.971684  -3.170704
     8  C   -0.669183   0.353641  -2.273002   3.236717  -1.866812  -0.623032
     9  C   -2.374999  -1.914542  -2.172862  -2.399227   0.740346   2.040067
    10  C   -2.377474  -0.396963  -0.362793  -0.154617  -1.107118   0.926046
    11  C    0.128305  -0.820385   0.088463  -0.284167   1.059235   0.008597
    12  C    0.430574  -0.274214   1.642669  -1.561411  -1.375369   0.323435
    13  C   -0.763566   0.488485  -1.011562  -0.805076  -0.141878   0.294736
    14  C   -1.850319  -0.531591  -0.397689   0.093480   0.254841   1.296031
    15  C    2.080347   0.588410   0.462934  -2.531969  -1.754300  -5.173679
    16  C    0.192255   0.947505   0.099994  -0.549789  -0.846485  -0.363851
    17  C   -0.916794   0.344912  -1.118785  -0.152415  -0.288358   0.251956
    18  C   -0.411381   0.393876  -0.141642  -0.316253  -0.831338   0.022931
    19  C    0.445650   0.036533  -0.296879  -0.054708  -0.281829   0.078908
    20  C   -0.641541  -0.188453  -0.323397   0.186389   0.089385   0.009826
    21  C    0.037276  -0.377054  -0.202236  -0.103508  -0.081157  -0.047433
    22  C    0.313430  -0.981862  -1.136158   0.015076  -0.015515   0.083779
    23  C   -0.485535   0.186372  -0.050160  -0.042730  -0.144454  -0.179227
    24  C   -0.530539  -0.378725   0.133043   0.110211  -0.104450  -0.137564
    25  C   -0.205446  -0.023436  -0.033707  -0.024800  -0.019375  -0.009889
    26  C    0.060544   0.083822  -0.168070   0.017223   0.011970   0.028397
    27  C    0.253004   0.029000   0.065340   0.111633   0.053627   0.034814
    28  C    0.489601  -0.143153   0.044009   0.140101   0.013517  -0.058528
    29  C    1.092015  -0.328274   0.035086   0.114030  -0.126600  -0.655222
    30  C   -1.711177  -0.014889  -0.296603   0.169816  -0.542834  -0.504683
    31  H    0.113938   0.005572   0.005796   0.007944   0.000957  -0.030050
    32  H    0.001593  -0.001156   0.000769   0.007856  -0.004738  -0.016407
    33  H   -0.006105   0.002076  -0.005492   0.063138  -0.022037  -0.016991
    34  H   -0.003260   0.000690   0.002481  -0.025018   0.012413  -0.037034
    35  H   -0.001011  -0.001783  -0.017905  -0.005473   0.008010   0.012071
    36  H   -0.000114  -0.005882   0.016270  -0.004209  -0.028182  -0.000025
    37  H   -0.002576  -0.015352  -0.010884   0.003735   0.000561   0.001161
    38  H   -0.000408  -0.008184   0.009508  -0.000767   0.001214  -0.000100
    39  H   -0.000199  -0.001533   0.000660   0.000063   0.000239   0.000009
    40  H   -0.000721   0.001965  -0.000013   0.000008   0.000021  -0.000001
    41  H    0.001173   0.000000   0.000063   0.000034   0.000005   0.000016
    42  H   -0.001530  -0.000241   0.000041  -0.000099  -0.000003  -0.000014
    43  H    0.002044  -0.000117   0.000057  -0.000096   0.000001  -0.000170
    44  H   -0.019067  -0.004932  -0.000511  -0.000917   0.000719   0.010099
    45  H   -0.065475  -0.026653  -0.000058  -0.029723   0.011275   0.070434
    46  H   -0.126051  -0.010019   0.021903  -0.022486   0.012748   0.049171
               7          8          9         10         11         12
     1  C   -0.682721  -0.669183  -2.374999  -2.377474   0.128305   0.430574
     2  C   -0.476372   0.353641  -1.914542  -0.396963  -0.820385  -0.274214
     3  C    0.337977  -2.273002  -2.172862  -0.362793   0.088463   1.642669
     4  C   -2.195195   3.236717  -2.399227  -0.154617  -0.284167  -1.561411
     5  C    1.971684  -1.866812   0.740346  -1.107118   1.059235  -1.375369
     6  C   -3.170704  -0.623032   2.040067   0.926046   0.008597   0.323435
     7  C   11.777160  -0.924133   0.352786  -0.209814   0.079155  -0.504577
     8  C   -0.924133  13.884173  -3.164677   0.679083  -0.448562  -1.765510
     9  C    0.352786  -3.164677  14.908951   2.088309  -0.784342  -2.230186
    10  C   -0.209814   0.679083   2.088309  12.235281  -1.198856  -1.799497
    11  C    0.079155  -0.448562  -0.784342  -1.198856   9.607169   1.555028
    12  C   -0.504577  -1.765510  -2.230186  -1.799497   1.555028  11.207189
    13  C   -0.372090   0.431759  -0.218360   0.055977  -0.005764   0.016053
    14  C   -0.466841  -0.050184   0.028847   0.041857   0.040252  -0.172315
    15  C    0.509368  -1.447564   0.758083  -0.112438  -0.050402   0.399206
    16  C   -0.023343  -0.078986  -0.247567  -0.491404  -0.767074   0.238253
    17  C   -0.063797  -0.018557   0.254663  -0.677973  -0.336705  -0.082695
    18  C   -0.075070   0.215797   0.156209   1.991395  -1.183568  -0.232665
    19  C   -0.015839   0.004829  -0.044984  -1.047360  -0.151721  -0.070757
    20  C   -0.002240   0.000461   0.100928  -0.057836  -0.021705   0.003270
    21  C   -0.005511   0.006121  -0.041263  -0.259094  -0.186437  -0.020049
    22  C   -0.025154   0.036327   0.061406  -1.577608  -0.533963  -0.120761
    23  C    0.069995  -0.058047  -0.051280  -0.165407  -0.029425  -0.019182
    24  C    0.025729  -0.010640  -0.014846   0.024043   0.035917  -0.009391
    25  C    0.002120   0.000230   0.000813  -0.016104  -0.001355  -0.000363
    26  C    0.001185   0.001247   0.001793  -0.096226  -0.002673  -0.001217
    27  C   -0.002534  -0.000818   0.012203   0.022375   0.003159  -0.000659
    28  C   -0.014128   0.002564   0.015634  -0.011890  -0.001856  -0.000246
    29  C   -0.184344   0.069572   0.110913  -0.061982  -0.020723  -0.003509
[...]
 3709,-0.00003013,0.00000223,-0.00001188,-0.00000541,0.00000287,-0.0000
 0362,-0.00000496,-0.00000128,-0.00000146,-0.00000387,-0.00000395,-0.00
 000034,-0.00000104,-0.00000211,0.00000164,-0.00000080,-0.00000286,-0.0
 0000246,0.00000002,-0.00000244,-0.00000099,0.00000185,-0.00000775,-0.0
 0000099,0.00002630,0.00008432,0.00003060,-0.00003515,0.00000248,-0.000
 02753,0.00068987,-0.00073065,0.00059398,0.10488573,-0.00004740,0.00004
 848,-0.00007186,-0.00000785,-0.00004499,0.00003003,0.00001426,-0.00002
 094,-0.00000469,0.00000743,-0.00003955,0.00001321,-0.00003194,0.000016
 87,-0.00001080,0.00000679,0.00002526,-0.00001674,-0.00000240,-0.000007
 72,0.00000762,0.00000529,0.00001083,-0.00000047,-0.00001219,-0.0000367
 8,0.00001574,-0.00005196,0.00000357,0.00000858,0.00003418,-0.00000883,
 0.00000341,-0.00000573,0.00003289,-0.00000174,0.00014791,-0.00009681,0
 .00009215,-0.00003017,-0.00003968,0.00002373,-0.00000175,-0.00000394,-
 0.00001579,-0.00000605,-0.00002230,-0.00000583,-0.00007940,0.,0.000009
 26,0.00004810,0.00000452,-0.00000526,-0.00007971,0.00012047,0.00021937
 ,0.00019357,0.00008520,0.00000226,-0.00006261,-0.00002305,-0.00001369,
 0.00004763,-0.00001929,-0.00000815,0.00046839,0.00001990,0.00022457,0.
 00430067,-0.00143555,-0.00191282,-0.00107535,-0.00069149,-0.00021303,0
 .00031526,-0.00043190,0.00000829,-0.01368809,-0.01745678,-0.00671777,-
 0.09681055,-0.27094869,-0.06844123,0.00195493,0.00202110,0.00025075,0.
 00058572,0.00196231,-0.00080898,0.00000846,0.00000278,0.00001043,-0.00
 001457,0.00000446,-0.00000489,-0.00000374,0.00000452,-0.00000273,-0.00
 000641,-0.00000078,-0.00000204,-0.00000591,-0.00000110,-0.00000224,-0.
 00000102,-0.00000508,-0.00000255,-0.00000267,-0.00000620,-0.00000157,-
 0.00000647,-0.00000739,0.00000011,0.00000501,0.00000118,-0.00000206,-0
 .00004801,-0.00012753,-0.00003716,0.00005470,0.00001243,-0.00001097,0.
 00012043,0.00064383,0.00124635,0.10433364,0.28577642,-0.00005249,0.000
 03149,-0.00009605,0.00003089,-0.00001443,-0.00004636,-0.00002339,-0.00
 002785,0.00000810,-0.00008956,0.00004574,0.00010467,0.00003725,0.00003
 026,-0.00000503,0.00000617,-0.00004670,0.00000794,0.00001984,0.0000046
 4,-0.00000617,0.00000520,-0.00001944,0.00000168,-0.00001925,-0.0000071
 2,-0.00000930,-0.00001388,0.00003414,0.00000485,0.00001478,-0.00000550
 ,-0.00000201,-0.00000648,0.00001137,0.00000013,0.00001588,-0.00020115,
 -0.00007278,-0.00003663,-0.00002996,-0.00007045,0.00000853,0.00003043,
 -0.00001226,-0.00000231,0.00007701,0.00003482,-0.00000258,-0.00000037,
 0.00002395,0.00001692,-0.00000411,-0.00000261,0.00005595,0.00017958,-0
 .00088679,0.00015181,-0.00010702,0.00011195,0.00000861,0.00000321,0.00
 004499,0.00000480,-0.00000744,-0.00000676,-0.00002090,0.00025171,-0.00
 061132,0.00039122,-0.00160523,0.00820963,-0.00021081,0.00011905,0.0002
 0015,-0.00004551,-0.00004481,-0.00056429,-0.00178901,-0.00264620,0.003
 02711,-0.03234567,-0.06792042,-0.05727033,-0.00220333,-0.00520050,0.00
 134575,-0.00199852,-0.00006101,0.00531669,-0.00004503,0.00000303,0.000
 00361,-0.00000933,0.00000291,0.00000178,-0.00000175,0.00000184,0.00000
 014,-0.00000222,-0.00000032,0.00000080,-0.00000165,-0.00000025,0.00000
 102,-0.00000094,-0.00000138,0.00000133,0.00000201,-0.00000204,0.000004
 30,-0.00000122,-0.00000126,0.00000081,0.00000156,0.00000089,0.00000003
 ,-0.00001183,-0.00001852,-0.00000635,0.00000235,-0.00004003,0.00010277
 ,0.00065460,0.00111633,-0.00424255,0.03666841,0.07550822,0.04811073,-0
 .00002747,0.00014890,-0.00019551,0.00001764,-0.00015987,0.00001735,0.0
 0015512,0.00008900,-0.00004017,-0.00041224,0.00001721,0.00002824,0.000
 02368,0.00016998,0.00001302,0.00019888,-0.00019193,0.00021314,-0.00014
 049,0.00002809,0.00005045,0.00009973,0.00003401,-0.00001941,-0.0000496
 4,-0.00011409,0.00001681,-0.00013400,0.00000198,0.00000449,0.00009460,
 -0.00002479,0.00001114,-0.00002980,0.00009964,-0.00000982,-0.00067118,
 -0.00026183,0.00103551,-0.00479345,-0.00131362,-0.00280157,-0.00040425
 ,-0.00018454,-0.00019173,0.00011609,0.00005400,-0.00004557,-0.00009081
 ,0.00000070,0.00000437,0.00010838,0.00003537,-0.00001482,0.00055480,-0
 .00028220,0.00002798,0.00010198,-0.00014497,0.00014119,-0.00000521,-0.
 00007468,0.00000438,0.00007670,-0.00004083,-0.00001750,-0.00113163,-0.
 00255159,-0.00213162,-0.00014825,-0.00079870,-0.00011919,-0.00010581,0
 .00026475,0.00023389,-0.00009473,-0.00019264,-0.00009526,-0.00516806,-
 0.00147712,-0.00253533,-0.01411790,0.02790095,0.00069917,-0.13373644,0
 .12932802,-0.00030371,0.01113559,-0.01196881,-0.00037863,-0.00137966,-
 0.00001538,-0.00052043,0.00014738,-0.00001705,0.00000419,0.00000562,-0
 .00000652,0.00000770,0.00000586,0.00000775,-0.00000962,0.00000508,0.00
 000234,-0.00000169,0.00000327,0.00000567,-0.00000251,-0.00000233,0.000
 00133,0.00000646,-0.00000119,0.00000208,-0.00000024,-0.00000855,-0.000
 02003,-0.00000519,-0.00000031,0.00001136,-0.00000619,0.00006490,-0.000
 04699,-0.00000677,-0.00075160,0.00115392,0.00038162,0.00088216,-0.0004
 9945,0.00080887,0.15235114,-0.00030155,-0.00008432,-0.00022344,-0.0000
 7654,-0.00016697,0.00007854,0.00017255,0.00006748,-0.00003601,-0.00015
 787,-0.00013750,0.00027095,-0.00005184,0.00014561,-0.00003840,0.000621
 20,0.00005595,-0.00008484,-0.00020024,-0.00001863,-0.00013035,0.000142
 28,0.00014220,-0.00001910,0.00002197,-0.00023014,0.00005860,-0.0001651
 8,0.00000937,0.00002442,0.00012820,-0.00004399,0.00001190,-0.00004921,
 0.00014206,-0.00001836,0.00162671,-0.00108054,0.00110711,0.00216550,0.
 00026239,0.00067612,-0.00029621,0.00079285,0.00019050,0.00022104,0.000
 06547,-0.00008165,-0.00009429,-0.00005539,0.00001714,0.00011725,0.0000
 3078,-0.00002184,0.00109212,-0.00029849,-0.00003159,-0.00024842,-0.000
 34615,0.00012155,0.00003945,-0.00002860,-0.00001898,0.00005417,-0.0000
 9023,-0.00001941,-0.00326326,-0.00218739,-0.00225804,-0.00061399,0.000
 17481,0.00012699,0.00001498,0.00009387,0.00012142,-0.00006908,-0.00004
 993,-0.00002781,-0.00040082,0.00147501,-0.00070180,-0.00331769,0.00464
 734,-0.00056987,0.12792166,-0.25981572,-0.01128372,0.01364023,-0.02035
 043,-0.00110526,0.00058167,0.00058577,-0.00034868,0.00009994,-0.000053
 43,-0.00001129,0.00000795,-0.00000538,0.00000967,-0.00000074,0.0000244
 0,0.00001410,0.00000007,0.00000089,-0.00000384,0.00000124,0.00000267,-
 0.00000482,-0.00000581,-0.00000276,0.00000169,-0.00000849,-0.00000280,
 0.00000330,-0.00001033,-0.00004754,-0.00000699,0.00001280,-0.00001287,
 -0.00000931,0.00003603,-0.00001063,-0.00001286,-0.00022937,0.00004142,
 0.00000463,0.00013744,0.00069374,0.00062853,-0.13917466,0.27506575,0.0
 0033834,0.00020916,0.00038563,0.00015319,-0.00008969,0.00001050,-0.000
 06328,0.00000666,0.00000403,0.00033841,-0.00001624,-0.00016837,-0.0000
 6623,-0.00015268,-0.00008428,0.00022077,0.00028854,-0.00005715,-0.0001
 2572,0.00001695,0.00001306,0.00002544,0.00014106,-0.00002921,0.0001410
 8,-0.00005144,0.00004173,0.00005155,0.00003976,0.00001721,-0.00002215,
 0.00003590,-0.00000797,-0.00002651,-0.00003049,0.00000464,0.00228232,0
 .00033902,-0.00396732,-0.00105316,-0.00059755,0.00103878,-0.00050748,0
 .00005524,-0.00050448,-0.00031756,-0.00007011,0.00006691,-0.00000950,0
 .00014477,0.00000550,-0.00002546,0.00000027,0.00000264,0.00095705,0.00
 042157,0.00055517,0.00010678,-0.00020936,-0.00047061,-0.00003171,-0.00
 008740,-0.00008766,0.00011934,-0.00005104,-0.00002071,-0.00138686,-0.0
 0383891,0.00610391,-0.00091240,-0.00103514,-0.00135130,-0.00003442,0.0
 0051627,-0.00050462,-0.00031306,-0.00016198,0.00018140,-0.00276474,-0.
 00001520,0.00519805,-0.00188553,0.00581112,0.00427099,-0.00365558,-0.0
 1184878,-0.03927725,0.00425134,-0.00316667,0.00403518,-0.00140258,0.00
 030075,-0.00100376,-0.00001609,-0.00002041,0.00000414,0.00000078,-0.00
 000349,0.00000956,0.00000584,0.00000912,-0.00000157,0.00000212,0.00000
 260,0.00000219,-0.00000275,0.00000116,0.00000493,-0.00000231,0.0000005
 0,-0.00000098,-0.00000023,-0.00000200,0.00001111,-0.00000713,-0.000026
 82,-0.00001646,0.00000600,-0.00001570,0.00003326,0.00004026,-0.0000286
 1,0.00000939,-0.00029038,0.00035140,0.00034250,0.00091247,0.00070008,-
 0.00281268,0.00537153,0.01272252,0.02825319,0.00020254,-0.00070207,0.0
 0100419,0.00020425,0.00097226,0.00011983,-0.00054816,0.00053672,-0.000
 12194,0.00041574,0.00028429,-0.00198992,0.00023469,-0.00072295,0.00035
 418,-0.00213770,0.00068228,-0.00030912,0.00038530,0.00094996,0.0022044
 4,-0.00049513,-0.00053701,0.00004611,-0.00039267,0.00084011,-0.0001228
 2,0.00032078,-0.00038612,-0.00005553,-0.00007215,0.00018527,0.00001419
 ,0.00006763,-0.00020847,0.00004713,0.00130234,0.00405767,0.01064006,-0
 .04384741,-0.01383237,-0.03351647,-0.01186046,-0.01151856,-0.02865042,
 0.00023285,-0.00035001,-0.00009254,0.00015402,0.00018312,-0.00005359,-
 0.00037136,-0.00002461,0.00008363,-0.00020172,-0.00009323,0.00009763,0
 .00013058,-0.00011139,-0.00005548,0.00007734,0.00006917,-0.00000756,-0
 .00007787,0.00006782,0.00001429,-0.00016732,0.00016710,-0.00007886,0.0
 0021633,0.00001261,-0.00002458,0.00000935,0.00012051,0.00000903,-0.000
 09687,-0.00004399,-0.00000611,0.00008308,-0.00011261,-0.00004424,-0.00
 010385,-0.00007728,-0.00009146,-0.00135836,0.00102717,0.00061793,0.000
 18380,-0.00043198,0.00053253,0.00158465,0.00540721,0.01435321,-0.00081
 176,0.00076603,0.00039647,-0.00007995,0.00002276,-0.00011112,0.0000663
 3,-0.00010654,-0.00031535,-0.00000460,0.00001538,-0.00000201,0.0000004
 2,-0.00001864,-0.00000853,-0.00000632,-0.00000265,-0.00001228,-0.00000
 451,-0.00000956,-0.00000184,0.00001365,-0.00000448,0.00000292,0.000004
 34,-0.00001147,0.00000496,0.00000710,0.00000520,0.00001331,0.00001756,
 -0.00002693,0.00000073,-0.00002609,-0.00000290,0.00006314,-0.00298873,
 -0.00005993,0.00059050,0.06037418,0.00082192,0.00193450,-0.00030007,-0
 .00044981,-0.00047539,-0.00038835,0.00022589,0.00004299,-0.00010088,-0
 .00070710,0.00034416,0.00126617,-0.00019021,0.00009894,0.00002922,-0.0
 0001127,0.00078729,0.00001822,-0.00042328,-0.00031437,0.00006750,-0.00
 003081,0.00034376,-0.00010006,0.00014793,-0.00024472,0.00003158,-0.000
 21198,0.00000239,0.00005346,0.00009503,-0.00006587,0.00001845,-0.00001
 309,0.00013619,-0.00002080,-0.00090059,-0.01257649,-0.02988413,-0.0098
 0395,-0.07063151,-0.07084368,-0.00232352,0.00117812,-0.00082972,0.0000
 6213,0.00025821,-0.00004649,0.00000154,-0.00008273,0.00006604,0.000141
 46,0.00012464,-0.00002264,0.00004195,0.00009313,-0.00007168,-0.0000267
 5,0.00002210,0.00001721,-0.00003713,-0.00002441,0.00000108,0.00003836,
 -0.00004917,-0.00001583,0.00000833,-0.00026396,0.00028045,-0.00023794,
 -0.00007735,0.00001483,-0.00002829,0.00001749,-0.00002214,-0.00001657,
 -0.00002905,0.00001573,-0.00003162,0.00023477,0.00002543,0.00025202,0.
 00008394,0.00014125,-0.00015720,0.00051987,0.00040689,-0.00164199,0.00
 159961,-0.00023062,0.00310453,0.00698316,0.01906758,-0.00008951,-0.000
 65857,-0.00087254,0.00004167,-0.00000650,0.00003024,0.00000388,-0.0000
 0808,-0.00001246,0.00000796,0.00000131,-0.00001019,0.00000022,0.000004
 39,0.00000945,-0.00000037,0.00000080,-0.00000782,0.00000250,0.00000343
 ,0.00000152,-0.00000859,-0.00000060,-0.00000319,-0.00000171,0.00000206
 ,-0.00000067,0.00000069,0.00000845,-0.00002500,-0.00000136,0.00001180,
 -0.00001294,0.00002204,-0.00000372,-0.00001031,-0.00011728,0.00060571,
 -0.00022674,0.00997901,0.07616276,-0.00162529,-0.00102630,-0.00009362,
 -0.00010552,0.00062706,-0.00015037,-0.00050289,-0.00030056,0.00020705,
 0.00263833,-0.00204345,0.00058368,-0.00012807,-0.00060650,-0.00006104,
 0.00184191,0.00472611,-0.00051263,-0.00139667,-0.00068769,-0.00001405,
 0.00005360,0.00105606,-0.00024357,0.00052879,-0.00069876,0.00021436,-0
 .00004543,0.00023840,0.00002204,0.00012967,-0.00017826,-0.00000340,-0.
 00002556,0.00028790,-0.00004762,0.00150985,-0.00272566,-0.00451957,-0.
 02208219,-0.07264016,-0.25288419,-0.01043283,-0.00194236,-0.00349474,-
 0.00002650,0.00002877,0.00004226,-0.00014290,-0.00005059,-0.00000758,0
 .00011809,-0.00019177,-0.00003418,-0.00019801,0.00006090,-0.00000264,0
 .00012405,0.00004268,-0.00001291,-0.00000619,-0.00006174,-0.00002056,0
 .00003061,0.00002506,0.00000107,0.00028205,0.00010281,0.00018040,0.000
 01085,-0.00012099,-0.00007745,0.00008501,0.00018169,0.00001004,-0.0001
 8117,-0.00002894,0.00001971,-0.00012578,0.00007032,-0.00007929,0.00002
 416,0.00065172,0.00014441,-0.00084966,-0.00062249,0.00079744,-0.001230
 58,-0.00015468,0.00036784,-0.00254201,-0.00637385,-0.01913819,-0.00088
 814,-0.00035115,-0.00043820,0.00001427,-0.00000359,0.00000735,-0.00002
 071,0.00001538,0.00001051,-0.00001201,-0.00000596,-0.00001377,-0.00000
 586,-0.00000688,0.00000640,0.00000506,-0.00000473,-0.00000030,0.000002
 95,-0.00000400,-0.00000193,0.00000565,-0.00000088,-0.00000104,0.000004
 71,-0.00000087,0.00000225,0.00000678,0.00000104,-0.00000538,-0.0000485
 6,0.00005652,0.00000783,0.00003339,-0.00003406,0.00004211,0.00012531,0
 .00089555,0.00005864,0.03478921,0.08287131,0.27772640,-0.00502752,0.00
 128416,0.02261313,0.00055194,0.00092559,-0.00000199,-0.00077074,-0.000
 80369,-0.00002960,-0.00003723,-0.00103422,0.00196153,-0.00057092,-0.00
 015034,-0.00169903,0.00045291,-0.00050613,-0.00008020,-0.00009499,-0.0
 0000278,0.00009116,0.00014917,0.00005438,-0.00005812,0.00036138,-0.000
 31474,0.00009005,0.00008916,0.00057997,-0.00003462,-0.00041379,-0.0001
 2981,-0.00007097,0.00005127,-0.00030548,0.00011667,-0.04086135,0.00463
 236,0.00602915,0.00042858,0.00442953,0.01259046,0.00051246,-0.00088106
 ,-0.00158615,0.00008187,0.00017907,-0.00000627,0.00005926,-0.00005379,
 -0.00002082,0.00007860,-0.00001770,-0.00002757,0.00020531,0.00015463,-
 0.00004924,0.00000917,0.00006463,0.00008247,0.00011136,-0.00003538,-0.
 00003499,-0.00003277,0.00010172,0.00002178,0.00060130,-0.00087337,-0.0
 0016963,-0.00005669,-0.00058175,0.00058436,0.00014722,-0.00007081,-0.0
 0005249,0.00002563,0.00008121,0.00000323,-0.00051616,-0.00020400,-0.00
 027149,-0.00074391,-0.00036746,0.00171774,-0.00174287,0.00141719,-0.00
 041928,-0.00706227,-0.00772053,-0.03131694,0.00064751,-0.00077144,-0.0
 0059179,-0.00002047,0.00013100,0.00024741,-0.00001549,0.00001432,-0.00
 000029,-0.00002282,0.00000255,-0.00001317,-0.00002716,-0.00004952,0.00
 003867,-0.00000264,-0.00000405,0.00005266,0.00001265,-0.00001217,0.000
 00444,0.00000511,0.00000158,-0.00000328,-0.00000194,0.00000978,-0.0000
 0020,-0.00000014,0.00002219,0.00000146,0.00000147,-0.00001789,0.000008
 14,0.00001742,0.00005464,-0.00014342,-0.00020473,-0.00006806,-0.000034
 52,0.00024514,-0.00006091,-0.00099226,-0.00063587,0.00246286,0.0002582
 2,0.05401658,-0.00400084,0.00602619,0.02105926,0.00034384,-0.00135953,
 0.00071875,0.00002926,-0.00029196,-0.00049578,-0.00061279,0.00041624,0
 .00087211,-0.00104651,-0.00002465,-0.00154395,0.00081099,-0.00040410,0
 .00132752,0.00006430,-0.00002944,0.00001855,0.00036332,-0.00020566,-0.
 00002160,0.00040097,0.00022602,0.00011695,0.00031391,0.00004175,-0.000
 14188,-0.00080988,0.00003922,-0.00005411,0.00024676,-0.00075132,0.0001
 2422,0.00287476,-0.06011963,-0.05058267,0.00019790,-0.01003464,-0.0284
 1087,-0.00027209,0.00147817,-0.00013040,-0.00070099,0.00042632,-0.0000
 3411,0.00000089,-0.00034699,0.00000545,-0.00008394,0.00037678,0.000045
 52,0.00035953,0.00058560,-0.00038697,0.00023105,-0.00019419,-0.0001547
 2,0.00005400,0.00008464,0.00000985,-0.00005799,0.00008681,0.00004242,0
 .00110364,-0.00042679,0.00063479,-0.00044642,-0.00015207,-0.00007751,-
 0.00008575,0.00004422,0.00004323,-0.00010533,-0.00001077,0.00001951,0.
 00013258,0.00055169,0.00014503,0.00032127,-0.00038725,0.00018500,-0.00
 055845,-0.00011780,0.00006269,-0.00029474,0.00172247,0.00013769,-0.000
 68695,0.00127035,0.00005262,0.00021726,-0.00034397,-0.00066777,0.00000
 313,0.00000291,-0.00001024,-0.00002424,0.00000374,0.00000028,-0.000022
 76,-0.00005034,0.00005192,0.00000805,0.00000224,0.00008300,0.00000517,
 0.00000348,-0.00001857,-0.00000314,0.00001107,0.00001334,-0.00000063,0
 .00001164,0.00000601,-0.00001151,-0.00000027,-0.00000007,-0.00001749,0
 .00000978,-0.00000510,-0.00002329,0.00002340,-0.00004089,-0.00001718,-
 0.00001064,-0.00005702,0.00032254,-0.00000568,-0.00036795,0.00304409,-
 0.00609347,-0.00107242,-0.00156628,0.06791640,0.01090427,0.00452253,-0
 .01773602,0.00036855,-0.00228683,0.00083553,0.00150931,0.00070690,-0.0
 0029922,-0.00356091,0.00185954,-0.00050104,0.00099002,0.00145364,0.000
 39946,-0.00015770,-0.00229382,0.00058031,0.00017858,0.00019825,0.00006
 372,0.00017704,-0.00048785,0.00019820,-0.00094047,0.00049164,-0.000201
 86,0.00005605,-0.00062516,-0.00000825,0.00018512,0.00018709,0.00007966
 ,-0.00004890,0.00010225,0.00000611,0.00487088,-0.05772350,-0.25461924,
 0.00066719,-0.00203861,-0.00223774,0.00190521,0.00000595,-0.00069134,-
 0.00062712,0.00058711,-0.00014373,-0.00006000,-0.00002334,0.00007567,-
 0.00009201,0.00015524,0.00005760,0.00008566,0.00095423,-0.00030736,0.0
 0022817,-0.00012165,-0.00002054,-0.00000742,0.00010106,0.00003330,-0.0
 0000777,-0.00001285,0.00000145,0.00048865,-0.00135793,0.00111992,-0.00
 064520,-0.00032662,0.00014963,-0.00003641,0.00001935,0.00002259,-0.000
 10502,-0.00004549,-0.00001140,0.00013025,0.00025253,-0.00006130,-0.000
 33886,-0.00027185,0.00029135,-0.00069866,0.00122692,0.00016798,-0.0063
 2201,-0.00303753,-0.01255153,-0.00027702,-0.00032728,0.00085557,0.0001
 2303,-0.00000931,0.00001624,0.00002034,-0.00002103,-0.00001470,0.00002
 468,-0.00001278,-0.00001598,0.00002768,0.00003530,-0.00002695,0.000008
 70,0.00001523,-0.00005262,-0.00001509,0.00001902,-0.00000798,-0.000000
 82,0.00000568,-0.00000713,-0.00000607,0.00000105,-0.00000596,0.0000001
 6,0.00000628,-0.00000609,-0.00000580,0.00000164,-0.00000356,-0.0000067
 0,0.00003286,-0.00005015,-0.00010302,-0.00002504,0.00001224,0.00024566
 ,-0.00001700,-0.00029783,-0.00032783,-0.00037468,0.00140643,-0.0088044
 0,0.05849889,0.28350653\\-0.00000223,-0.00002803,0.00004505,0.00000353
 ,0.00000381,-0.00001121,0.00000024,-0.00000458,-0.00000024,-0.00001384
 ,-0.00000912,-0.00000819,0.00000142,0.00000372,0.00000310,-0.00000293,
 -0.00000938,0.00000131,0.00000278,0.00000001,0.00000393,0.00000061,-0.
 00000052,0.00000259,-0.00000002,-0.00000053,-0.00000245,0.00000019,0.0
 0000091,-0.00000316,-0.00000242,-0.00000066,0.00000229,0.00000085,-0.0
 0000190,0.00000030,0.00004441,0.00001221,0.00000823,0.00002126,0.00003
 497,0.00001129,0.00000500,0.00001016,-0.00001660,0.00000343,0.00000216
 ,0.00000585,-0.00000004,0.00000029,-0.00000013,0.00000193,-0.00000071,
 0.00000121,-0.00000030,-0.00000366,0.00000026,-0.00000194,0.00000261,-
 0.00000028,0.00000034,-0.00000109,-0.00000182,0.00000023,0.00000158,-0
 .00000239,-0.00001862,-0.00000175,-0.00001710,0.00000093,-0.00000358,0
 .00000749,0.00000136,-0.00000211,0.00000106,0.00000072,0.00000127,-0.0
 0000051,-0.00000586,-0.00000338,-0.00000073,-0.00000417,-0.00000577,0.
 00001618,-0.00005083,0.00000194,-0.00001311,0.00003646,-0.00002533,-0.
 00001035,0.00000136,0.00000237,0.00000015,-0.00000021,-0.00000038,0.00
 000154,0.00000013,0.00000057,0.00000074,0.00000009,-0.00000010,-0.0000
 0032,0.00000006,-0.00000013,-0.00000221,-0.00000038,0.,-0.00000347,-0.
 00000056,0.00000001,-0.00000436,-0.00000017,0.00000002,-0.00000335,-0.
 00000042,0.00000006,-0.00000281,-0.00000013,0.00000045,-0.00000156,0.0
 0000012,-0.00000032,0.00000074,0.00000017,-0.00000034,0.00000108,-0.00
 000209,-0.00000105,0.00000189,0.00000038,0.00000307,-0.00000653,-0.000
 00489,-0.00000182,0.00000128,-0.00001593,0.00002405,-0.00000465\\\@


 "WOULD YOU TELL ME PLEASE, WHICH WAY I OUGHT TO WALK FROM HERE?"
 "THAT DEPENDS A GREAT DEAL ON WHERE YOU WANT TO GO," SAID THE CAT.
 "I DON'T MUCH CARE WHERE -- ", SAID ALICE.
 "THEN IT DOESN'T MATTER WHICH WAY YOU WALK," SAID THE CAT.

                                      -- LEWIS CARROLL
 Job cpu time:       1 days  0 hours 29 minutes 47.8 seconds.
 Elapsed time:       0 days  1 hours 13 minutes 28.2 seconds.
 File lengths (MBytes):  RWF=   2287 Int=      0 D2E=      0 Chk=     47 Scr=      1
 Normal termination of Gaussian 16 at Wed Aug  7 23:53:44 2019.
