 Entering Gaussian System, Link 0=/share/apps/gaussian16/g16/g16
 Initial command:
 /share/apps/gaussian16/g16/l1.exe "/home/amen01//scratch/910/Gau-28386.inp" -scrdir="/home/amen01//scratch/910/"
 Entering Link 1 = /share/apps/gaussian16/g16/l1.exe PID=     28387.
  
 Copyright (c) 1988-2017, Gaussian, Inc.  All Rights Reserved.
  
 This is part of the Gaussian(R) 16 program.  It is based on
 the Gaussian(R) 09 system (copyright 2009, Gaussian, Inc.),
 the Gaussian(R) 03 system (copyright 2003, Gaussian, Inc.),
 the Gaussian(R) 98 system (copyright 1998, Gaussian, Inc.),
 the Gaussian(R) 94 system (copyright 1995, Gaussian, Inc.),
 the Gaussian 92(TM) system (copyright 1992, Gaussian, Inc.),
 the Gaussian 90(TM) system (copyright 1990, Gaussian, Inc.),
 the Gaussian 88(TM) system (copyright 1988, Gaussian, Inc.),
 the Gaussian 86(TM) system (copyright 1986, Carnegie Mellon
 University), and the Gaussian 82(TM) system (copyright 1983,
 Carnegie Mellon University). Gaussian is a federally registered
 trademark of Gaussian, Inc.
  
 This software contains proprietary and confidential information,
 including trade secrets, belonging to Gaussian, Inc.
  
 This software is provided under written license and may be
 used, copied, transmitted, or stored only in accord with that
 written license.
  
 The following legend is applicable only to US Government
 contracts under FAR:
  
                    RESTRICTED RIGHTS LEGEND
  
 Use, reproduction and disclosure by the US Government is
 subject to restrictions as set forth in subparagraphs (a)
 and (c) of the Commercial Computer Software - Restricted
 Rights clause in FAR 52.227-19.
  
 Gaussian, Inc.
 340 Quinnipiac St., Bldg. 40, Wallingford CT 06492
  
  
 ---------------------------------------------------------------
 Warning -- This program may not be used in any manner that
 competes with the business of Gaussian, Inc. or will provide
 assistance to any competitor of Gaussian, Inc.  The licensee
 of this program is prohibited from giving any competitor of
 Gaussian, Inc. access to this program.  By using this program,
 the user acknowledges that Gaussian, Inc. is engaged in the
 business of creating and licensing software in the field of
 computational chemistry and represents and warrants to the
 licensee that it is not a competitor of Gaussian, Inc. and that
 it will not use this program in any manner prohibited above.
 ---------------------------------------------------------------
  

 Cite this work as:
 Gaussian 16, Revision B.01,
 M. J. Frisch, G. W. Trucks, H. B. Schlegel, G. E. Scuseria, 
 M. A. Robb, J. R. Cheeseman, G. Scalmani, V. Barone, 
 G. A. Petersson, H. Nakatsuji, X. Li, M. Caricato, A. V. Marenich, 
 J. Bloino, B. G. Janesko, R. Gomperts, B. Mennucci, H. P. Hratchian, 
 J. V. Ortiz, A. F. Izmaylov, J. L. Sonnenberg, D. Williams-Young, 
 F. Ding, F. Lipparini, F. Egidi, J. Goings, B. Peng, A. Petrone, 
 T. Henderson, D. Ranasinghe, V. G. Zakrzewski, J. Gao, N. Rega, 
 G. Zheng, W. Liang, M. Hada, M. Ehara, K. Toyota, R. Fukuda, 
 J. Hasegawa, M. Ishida, T. Nakajima, Y. Honda, O. Kitao, H. Nakai, 
 T. Vreven, K. Throssell, J. A. Montgomery, Jr., J. E. Peralta, 
 F. Ogliaro, M. J. Bearpark, J. J. Heyd, E. N. Brothers, K. N. Kudin, 
 V. N. Staroverov, T. A. Keith, R. Kobayashi, J. Normand, 
 K. Raghavachari, A. P. Rendell, J. C. Burant, S. S. Iyengar, 
 J. Tomasi, M. Cossi, J. M. Millam, M. Klene, C. Adamo, R. Cammi, 
 J. W. Ochterski, R. L. Martin, K. Morokuma, O. Farkas, 
 J. B. Foresman, and D. J. Fox, Gaussian, Inc., Wallingford CT, 2016.
 
 ******************************************
 Gaussian 16:  ES64L-G16RevB.01 20-Dec-2017
                14-Aug-2019 
 ******************************************
 %nprocshared=20
 Will use up to   20 processors via shared memory.
 %mem=180GB
 %chk=7-memb2-carb-4b.chk
 ----------------------------------------------------------------
 # opt=(modredundant,tight) freq b3lyp/6-311+g(d,p) int=grid=fine
 ----------------------------------------------------------------
 1/7=10,18=120,19=15,26=3,38=1/1,3;
 2/9=110,12=2,17=6,18=5,40=1/2;
 3/5=4,6=6,7=111,11=2,25=1,30=1,71=1,74=-5,75=-4/1,2,3;
 4//1;
 5/5=2,38=5/2;
 6/7=2,8=2,9=2,10=2,28=1/1;
 7//1,2,3,16;
 1/7=10,18=20,19=15,26=3/3(2);
 2/9=110/2;
 99//99;
 2/9=110/2;
 3/5=4,6=6,7=111,11=2,25=1,30=1,71=1,74=-5,75=-4/1,2,3;
 4/5=5,16=3,69=1/1;
 5/5=2,38=5/2;
 7//1,2,3,16;
 1/7=10,18=20,19=15,26=3/3(-5);
 2/9=110/2;
 6/7=2,8=2,9=2,10=2,19=2,28=1/1;
 99/9=1/99;
 ---------------
 7-memb2-carb-4b
 ---------------
 Symbolic Z-matrix:
 Charge =  0 Multiplicity = 1
 C                    -0.6886   -0.8641   -0.0603 
 C                    -0.5292    0.5354   -0.243 
 C                    -1.8349    1.0521   -0.4036 
 C                    -2.0796   -1.1749   -0.1464 
 C                    -2.7706    0.0055   -0.3673 
 C                    -2.7049   -2.3736    0.1878 
 C                    -4.1565   -2.2799    0.2035 
 C                    -4.8304   -1.0843    0.0109 
 C                    -4.1428    0.1661   -0.24 
 C                    -2.2342    2.3767   -0.3019 
 C                    -3.655     2.5854   -0.2711 
 C                    -4.5724    1.529    -0.2401 
 C                     0.2177   -1.8754    0.3144 
 C                    -0.4351   -3.185     0.6026 
 C                    -1.8303   -3.426     0.5505 
 C                     0.5647    1.394    -0.0227 
 C                     0.1766    2.8192    0.0507 
 C                    -1.1399    3.2712   -0.0942 
 C                     1.9059    0.951     0.1282 
 C                     2.8897    1.9898    0.3423 
 C                     2.4881    3.3634    0.4964 
 C                     1.2102    3.77      0.3406 
 C                     2.3774   -0.472    -0.0091 
 C                     3.831    -0.6023   -0.2235 
 C                     4.6982    0.4532   -0.0275 
 C                     4.2509    1.7252    0.3181 
 C                     4.4189   -1.8586   -0.6462 
 C                     3.7378   -3.0049   -0.6476 
 C                     2.3459   -3.032    -0.1312 
 C                     1.6629   -1.6831    0.0248 
 H                    -0.38641  -2.49967   1.6098 
 H                     0.2161   -4.0079    0.8595 
 H                    -2.1969   -4.3919    0.8739 
 H                    -4.7362   -3.1713    0.4184 
 H                    -5.9135   -1.0913    0.0889 
 H                    -5.6288    1.7661   -0.1653 
 H                    -4.0381    3.5992   -0.2145 
 H                    -1.3178    4.3376    0.0085 
 H                     0.945     4.8179    0.4306 
 H                     3.2705    4.0857    0.7038 
 H                     4.956     2.5304    0.4883 
 H                     5.7608    0.2756   -0.1571 
 H                     5.4555   -1.8295   -0.9674 
 H                     4.1884   -3.9355   -0.9758 
 H                     2.3465   -3.5496    0.8507 
 H                     1.7218   -3.6734   -0.7688 
 
 The following ModRedundant input section has been read:
 

 GradGradGradGradGradGradGradGradGradGradGradGradGradGradGradGradGradGrad
 Berny optimization.
 Initialization pass.
                           ----------------------------
                           !    Initial Parameters    !
                           ! (Angstroms and Degrees)  !
 --------------------------                            --------------------------
 ! Name  Definition              Value          Derivative Info.                !
 --------------------------------------------------------------------------------
 ! R1    R(1,2)                  1.4203         estimate D2E/DX2                !
 ! R2    R(1,4)                  1.4279         estimate D2E/DX2                !
 ! R3    R(1,13)                 1.4087         estimate D2E/DX2                !
 ! R4    R(2,3)                  1.4134         estimate D2E/DX2                !
 ! R5    R(2,16)                 1.408          estimate D2E/DX2                !
 ! R6    R(3,5)                  1.4044         estimate D2E/DX2                !
 ! R7    R(3,10)                 1.3872         estimate D2E/DX2                !
 ! R8    R(4,5)                  1.3855         estimate D2E/DX2                !
 ! R9    R(4,6)                  1.3927         estimate D2E/DX2                !
 ! R10   R(5,9)                  1.3874         estimate D2E/DX2                !
 ! R11   R(6,7)                  1.4547         estimate D2E/DX2                !
 ! R12   R(6,15)                 1.4156         estimate D2E/DX2                !
 ! R13   R(7,8)                  1.3859         estimate D2E/DX2                !
 ! R14   R(7,34)                 1.0848         estimate D2E/DX2                !
 ! R15   R(8,9)                  1.4489         estimate D2E/DX2                !
 ! R16   R(8,35)                 1.0859         estimate D2E/DX2                !
 ! R17   R(9,12)                 1.429          estimate D2E/DX2                !
 ! R18   R(10,11)                1.4364         estimate D2E/DX2                !
 ! R19   R(10,18)                1.4286         estimate D2E/DX2                !
 ! R20   R(11,12)                1.3995         estimate D2E/DX2                !
 ! R21   R(11,37)                1.0852         estimate D2E/DX2                !
 ! R22   R(12,36)                1.0853         estimate D2E/DX2                !
 ! R23   R(13,14)                1.4914         estimate D2E/DX2                !
 ! R24   R(13,30)                1.4864         estimate D2E/DX2                !
 ! R25   R(14,15)                1.4168         estimate D2E/DX2                !
 ! R26   R(14,31)                1.2192         estimate D2E/DX2                !
 ! R27   R(14,32)                1.0804         estimate D2E/DX2                !
 ! R28   R(15,33)                1.0826         estimate D2E/DX2                !
 ! R29   R(16,17)                1.4789         estimate D2E/DX2                !
 ! R30   R(16,19)                1.4205         estimate D2E/DX2                !
 ! R31   R(17,18)                1.3995         estimate D2E/DX2                !
 ! R32   R(17,22)                1.434          estimate D2E/DX2                !
 ! R33   R(18,38)                1.086          estimate D2E/DX2                !
 ! R34   R(19,20)                1.4467         estimate D2E/DX2                !
 ! R35   R(19,23)                1.5054         estimate D2E/DX2                !
 ! R36   R(20,21)                1.4394         estimate D2E/DX2                !
 ! R37   R(20,26)                1.3869         estimate D2E/DX2                !
 ! R38   R(21,22)                1.35           estimate D2E/DX2                !
 ! R39   R(21,40)                1.0848         estimate D2E/DX2                !
 ! R40   R(22,39)                1.0847         estimate D2E/DX2                !
 ! R41   R(23,24)                1.4751         estimate D2E/DX2                !
 ! R42   R(23,30)                1.4066         estimate D2E/DX2                !
 ! R43   R(24,25)                1.38           estimate D2E/DX2                !
 ! R44   R(24,27)                1.45           estimate D2E/DX2                !
 ! R45   R(25,26)                1.3919         estimate D2E/DX2                !
 ! R46   R(25,42)                1.0851         estimate D2E/DX2                !
 ! R47   R(26,41)                1.0837         estimate D2E/DX2                !
 ! R48   R(27,28)                1.3334         estimate D2E/DX2                !
 ! R49   R(27,43)                1.0856         estimate D2E/DX2                !
 ! R50   R(28,29)                1.4849         estimate D2E/DX2                !
 ! R51   R(28,44)                1.0848         estimate D2E/DX2                !
 ! R52   R(29,30)                1.52           estimate D2E/DX2                !
 ! R53   R(29,45)                1.11           estimate D2E/DX2                !
 ! R54   R(29,46)                1.0988         estimate D2E/DX2                !
 ! A1    A(2,1,4)              108.4235         estimate D2E/DX2                !
 ! A2    A(2,1,13)             132.0176         estimate D2E/DX2                !
 ! A3    A(4,1,13)             119.1111         estimate D2E/DX2                !
 ! A4    A(1,2,3)              105.7329         estimate D2E/DX2                !
 ! A5    A(1,2,16)             131.9079         estimate D2E/DX2                !
 ! A6    A(3,2,16)             120.8368         estimate D2E/DX2                !
 ! A7    A(2,3,5)              109.8853         estimate D2E/DX2                !
 ! A8    A(2,3,10)             127.3487         estimate D2E/DX2                !
 ! A9    A(5,3,10)             121.1938         estimate D2E/DX2                !
 ! A10   A(1,4,5)              108.0605         estimate D2E/DX2                !
 ! A11   A(1,4,6)              127.6084         estimate D2E/DX2                !
 ! A12   A(5,4,6)              123.2045         estimate D2E/DX2                !
 ! A13   A(3,5,4)              107.8635         estimate D2E/DX2                !
 ! A14   A(3,5,9)              125.1052         estimate D2E/DX2                !
 ! A15   A(4,5,9)              125.2577         estimate D2E/DX2                !
 ! A16   A(4,6,7)              113.2772         estimate D2E/DX2                !
 ! A17   A(4,6,15)             115.0845         estimate D2E/DX2                !
 ! A18   A(7,6,15)             131.4231         estimate D2E/DX2                !
 ! A19   A(6,7,8)              122.6351         estimate D2E/DX2                !
 ! A20   A(6,7,34)             118.8452         estimate D2E/DX2                !
 ! A21   A(8,7,34)             118.4614         estimate D2E/DX2                !
 ! A22   A(7,8,9)              122.5351         estimate D2E/DX2                !
 ! A23   A(7,8,35)             117.9985         estimate D2E/DX2                !
 ! A24   A(9,8,35)             119.4287         estimate D2E/DX2                !
 ! A25   A(5,9,8)              112.6661         estimate D2E/DX2                !
 ! A26   A(5,9,12)             114.062          estimate D2E/DX2                !
 ! A27   A(8,9,12)             132.8774         estimate D2E/DX2                !
 ! A28   A(3,10,11)            115.1528         estimate D2E/DX2                !
 ! A29   A(3,10,18)            112.834          estimate D2E/DX2                !
 ! A30   A(11,10,18)           131.5763         estimate D2E/DX2                !
 ! A31   A(10,11,12)           122.6303         estimate D2E/DX2                !
 ! A32   A(10,11,37)           119.0799         estimate D2E/DX2                !
 ! A33   A(12,11,37)           118.2027         estimate D2E/DX2                !
 ! A34   A(9,12,11)            121.5244         estimate D2E/DX2                !
 ! A35   A(9,12,36)            120.0659         estimate D2E/DX2                !
 ! A36   A(11,12,36)           118.3402         estimate D2E/DX2                !
 ! A37   A(1,13,14)            113.5891         estimate D2E/DX2                !
 ! A38   A(1,13,30)            118.7384         estimate D2E/DX2                !
 ! A39   A(14,13,30)           125.2274         estimate D2E/DX2                !
 ! A40   A(13,14,15)           124.98           estimate D2E/DX2                !
 ! A41   A(13,14,31)            69.4252         estimate D2E/DX2                !
 ! A42   A(13,14,32)           116.8047         estimate D2E/DX2                !
 ! A43   A(15,14,31)            99.5157         estimate D2E/DX2                !
 ! A44   A(15,14,32)           118.2121         estimate D2E/DX2                !
 ! A45   A(31,14,32)           101.9838         estimate D2E/DX2                !
 ! A46   A(6,15,14)            119.4297         estimate D2E/DX2                !
 ! A47   A(6,15,33)            122.0473         estimate D2E/DX2                !
 ! A48   A(14,15,33)           118.3109         estimate D2E/DX2                !
 ! A49   A(2,16,17)            113.0509         estimate D2E/DX2                !
 ! A50   A(2,16,19)            124.0563         estimate D2E/DX2                !
 ! A51   A(17,16,19)           122.8902         estimate D2E/DX2                !
 ! A52   A(16,17,18)           123.5716         estimate D2E/DX2                !
 ! A53   A(16,17,22)           117.3766         estimate D2E/DX2                !
 ! A54   A(18,17,22)           119.0015         estimate D2E/DX2                !
 ! A55   A(10,18,17)           122.2374         estimate D2E/DX2                !
 ! A56   A(10,18,38)           120.2067         estimate D2E/DX2                !
 ! A57   A(17,18,38)           117.4815         estimate D2E/DX2                !
 ! A58   A(16,19,20)           115.7133         estimate D2E/DX2                !
 ! A59   A(16,19,23)           125.5096         estimate D2E/DX2                !
 ! A60   A(20,19,23)           118.6386         estimate D2E/DX2                !
 ! A61   A(19,20,21)           120.7545         estimate D2E/DX2                !
 ! A62   A(19,20,26)           121.862          estimate D2E/DX2                !
 ! A63   A(21,20,26)           117.2438         estimate D2E/DX2                !
 ! A64   A(20,21,22)           122.6262         estimate D2E/DX2                !
 ! A65   A(20,21,40)           117.041          estimate D2E/DX2                !
 ! A66   A(22,21,40)           120.2787         estimate D2E/DX2                !
 ! A67   A(17,22,21)           120.3909         estimate D2E/DX2                !
 ! A68   A(17,22,39)           118.7573         estimate D2E/DX2                !
 ! A69   A(21,22,39)           120.8517         estimate D2E/DX2                !
 ! A70   A(19,23,24)           113.9168         estimate D2E/DX2                !
 ! A71   A(19,23,30)           130.7398         estimate D2E/DX2                !
 ! A72   A(24,23,30)           115.3419         estimate D2E/DX2                !
 ! A73   A(23,24,25)           122.0748         estimate D2E/DX2                !
 ! A74   A(23,24,27)           121.2273         estimate D2E/DX2                !
 ! A75   A(25,24,27)           116.6971         estimate D2E/DX2                !
 ! A76   A(24,25,26)           122.158          estimate D2E/DX2                !
 ! A77   A(24,25,42)           118.2427         estimate D2E/DX2                !
 ! A78   A(26,25,42)           119.5976         estimate D2E/DX2                !
 ! A79   A(20,26,25)           119.6089         estimate D2E/DX2                !
 ! A80   A(20,26,41)           119.6089         estimate D2E/DX2                !
 ! A81   A(25,26,41)           120.5893         estimate D2E/DX2                !
 ! A82   A(24,27,28)           122.5503         estimate D2E/DX2                !
 ! A83   A(24,27,43)           116.754          estimate D2E/DX2                !
 ! A84   A(28,27,43)           120.6957         estimate D2E/DX2                !
 ! A85   A(27,28,29)           119.6141         estimate D2E/DX2                !
 ! A86   A(27,28,44)           121.7112         estimate D2E/DX2                !
 ! A87   A(29,28,44)           118.6161         estimate D2E/DX2                !
 ! A88   A(28,29,30)           116.1494         estimate D2E/DX2                !
 ! A89   A(28,29,45)           108.4003         estimate D2E/DX2                !
 ! A90   A(28,29,46)           109.954          estimate D2E/DX2                !
 ! A91   A(30,29,45)           108.8616         estimate D2E/DX2                !
 ! A92   A(30,29,46)           108.8051         estimate D2E/DX2                !
 ! A93   A(45,29,46)           103.97           estimate D2E/DX2                !
 ! A94   A(13,30,23)           127.5878         estimate D2E/DX2                !
 ! A95   A(13,30,29)           110.0031         estimate D2E/DX2                !
 ! A96   A(23,30,29)           122.2347         estimate D2E/DX2                !
 ! D1    D(4,1,2,3)              1.4271         estimate D2E/DX2                !
 ! D2    D(4,1,2,16)           166.9866         estimate D2E/DX2                !
 ! D3    D(13,1,2,3)          -170.6004         estimate D2E/DX2                !
 ! D4    D(13,1,2,16)           -5.0409         estimate D2E/DX2                !
 ! D5    D(2,1,4,5)             -0.4431         estimate D2E/DX2                !
 ! D6    D(2,1,4,6)           -168.4845         estimate D2E/DX2                !
 ! D7    D(13,1,4,5)           172.7836         estimate D2E/DX2                !
 ! D8    D(13,1,4,6)             4.7422         estimate D2E/DX2                !
 ! D9    D(2,1,13,14)          170.4053         estimate D2E/DX2                !
 ! D10   D(2,1,13,30)          -26.4017         estimate D2E/DX2                !
 ! D11   D(4,1,13,14)           -0.9322         estimate D2E/DX2                !
 ! D12   D(4,1,13,30)          162.2608         estimate D2E/DX2                !
 ! D13   D(1,2,3,5)             -1.9125         estimate D2E/DX2                !
 ! D14   D(1,2,3,10)           163.7532         estimate D2E/DX2                !
 ! D15   D(16,2,3,5)          -169.4298         estimate D2E/DX2                !
 ! D16   D(16,2,3,10)           -3.7641         estimate D2E/DX2                !
 ! D17   D(1,2,16,17)         -162.2413         estimate D2E/DX2                !
 ! D18   D(1,2,16,19)           17.1893         estimate D2E/DX2                !
 ! D19   D(3,2,16,17)            1.5253         estimate D2E/DX2                !
 ! D20   D(3,2,16,19)         -179.0442         estimate D2E/DX2                !
 ! D21   D(2,3,5,4)              1.6798         estimate D2E/DX2                !
 ! D22   D(2,3,5,9)            167.1226         estimate D2E/DX2                !
 ! D23   D(10,3,5,4)          -165.0184         estimate D2E/DX2                !
 ! D24   D(10,3,5,9)             0.4244         estimate D2E/DX2                !
 ! D25   D(2,3,10,11)         -169.1136         estimate D2E/DX2                !
 ! D26   D(2,3,10,18)            4.1937         estimate D2E/DX2                !
 ! D27   D(5,3,10,11)           -4.9069         estimate D2E/DX2                !
 ! D28   D(5,3,10,18)          168.4004         estimate D2E/DX2                !
 ! D29   D(1,4,5,3)             -0.7427         estimate D2E/DX2                !
 ! D30   D(1,4,5,9)           -166.1575         estimate D2E/DX2                !
 ! D31   D(6,4,5,3)            167.9437         estimate D2E/DX2                !
 ! D32   D(6,4,5,9)              2.5288         estimate D2E/DX2                !
 ! D33   D(1,4,6,7)            169.813          estimate D2E/DX2                !
 ! D34   D(1,4,6,15)            -5.4754         estimate D2E/DX2                !
 ! D35   D(5,4,6,7)              3.4304         estimate D2E/DX2                !
 ! D36   D(5,4,6,15)          -171.858          estimate D2E/DX2                !
 ! D37   D(3,5,9,8)           -169.4809         estimate D2E/DX2                !
 ! D38   D(3,5,9,12)             4.2559         estimate D2E/DX2                !
 ! D39   D(4,5,9,8)             -6.5167         estimate D2E/DX2                !
 ! D40   D(4,5,9,12)           167.2201         estimate D2E/DX2                !
 ! D41   D(4,6,7,8)             -4.9676         estimate D2E/DX2                !
 ! D42   D(4,6,7,34)           177.8537         estimate D2E/DX2                !
 ! D43   D(15,6,7,8)           169.3386         estimate D2E/DX2                !
 ! D44   D(15,6,7,34)           -7.8401         estimate D2E/DX2                !
 ! D45   D(4,6,15,14)            2.5524         estimate D2E/DX2                !
 ! D46   D(4,6,15,33)          177.1688         estimate D2E/DX2                !
 ! D47   D(7,6,15,14)         -171.6722         estimate D2E/DX2                !
 ! D48   D(7,6,15,33)            2.9442         estimate D2E/DX2                !
 ! D49   D(6,7,8,9)              0.8696         estimate D2E/DX2                !
 ! D50   D(6,7,8,35)          -176.8822         estimate D2E/DX2                !
 ! D51   D(34,7,8,9)           178.0586         estimate D2E/DX2                !
 ! D52   D(34,7,8,35)            0.3068         estimate D2E/DX2                !
 ! D53   D(7,8,9,5)              4.7423         estimate D2E/DX2                !
 ! D54   D(7,8,9,12)          -167.4449         estimate D2E/DX2                !
 ! D55   D(35,8,9,5)          -177.5369         estimate D2E/DX2                !
 ! D56   D(35,8,9,12)           10.2759         estimate D2E/DX2                !
 ! D57   D(5,9,12,11)           -4.2823         estimate D2E/DX2                !
 ! D58   D(5,9,12,36)          178.8013         estimate D2E/DX2                !
 ! D59   D(8,9,12,11)          167.8217         estimate D2E/DX2                !
 ! D60   D(8,9,12,36)           -9.0947         estimate D2E/DX2                !
 ! D61   D(3,10,11,12)           4.7886         estimate D2E/DX2                !
 ! D62   D(3,10,11,37)        -178.6696         estimate D2E/DX2                !
 ! D63   D(18,10,11,12)       -166.9562         estimate D2E/DX2                !
 ! D64   D(18,10,11,37)          9.5856         estimate D2E/DX2                !
 ! D65   D(3,10,18,17)          -2.8407         estimate D2E/DX2                !
 ! D66   D(3,10,18,38)        -179.6261         estimate D2E/DX2                !
 ! D67   D(11,10,18,17)        169.0524         estimate D2E/DX2                !
 ! D68   D(11,10,18,38)         -7.733          estimate D2E/DX2                !
 ! D69   D(10,11,12,9)          -0.1276         estimate D2E/DX2                !
 ! D70   D(10,11,12,36)        176.8404         estimate D2E/DX2                !
 ! D71   D(37,11,12,9)        -176.6982         estimate D2E/DX2                !
 ! D72   D(37,11,12,36)          0.2698         estimate D2E/DX2                !
 ! D73   D(1,13,14,15)          -1.5347         estimate D2E/DX2                !
 ! D74   D(1,13,14,31)         -88.8333         estimate D2E/DX2                !
 ! D75   D(1,13,14,32)         177.7941         estimate D2E/DX2                !
 ! D76   D(30,13,14,15)       -163.4531         estimate D2E/DX2                !
 ! D77   D(30,13,14,31)        109.2483         estimate D2E/DX2                !
 ! D78   D(30,13,14,32)         15.8757         estimate D2E/DX2                !
 ! D79   D(1,13,30,23)          31.7225         estimate D2E/DX2                !
 ! D80   D(1,13,30,29)        -153.0413         estimate D2E/DX2                !
 ! D81   D(14,13,30,23)       -167.2063         estimate D2E/DX2                !
 ! D82   D(14,13,30,29)          8.0299         estimate D2E/DX2                !
 ! D83   D(13,14,15,6)           0.705          estimate D2E/DX2                !
 ! D84   D(13,14,15,33)       -174.1123         estimate D2E/DX2                !
 ! D85   D(31,14,15,6)          72.1865         estimate D2E/DX2                !
 ! D86   D(31,14,15,33)       -102.6308         estimate D2E/DX2                !
 ! D87   D(32,14,15,6)        -178.6152         estimate D2E/DX2                !
 ! D88   D(32,14,15,33)          6.5674         estimate D2E/DX2                !
 ! D89   D(2,16,17,18)          -0.4808         estimate D2E/DX2                !
 ! D90   D(2,16,17,22)         176.9093         estimate D2E/DX2                !
 ! D91   D(19,16,17,18)       -179.919          estimate D2E/DX2                !
 ! D92   D(19,16,17,22)         -2.5288         estimate D2E/DX2                !
 ! D93   D(2,16,19,20)         179.771          estimate D2E/DX2                !
 ! D94   D(2,16,19,23)           4.1289         estimate D2E/DX2                !
 ! D95   D(17,16,19,20)         -0.853          estimate D2E/DX2                !
 ! D96   D(17,16,19,23)       -176.4951         estimate D2E/DX2                !
 ! D97   D(16,17,18,10)          1.2584         estimate D2E/DX2                !
 ! D98   D(16,17,18,38)        178.1271         estimate D2E/DX2                !
 ! D99   D(22,17,18,10)       -176.0917         estimate D2E/DX2                !
 ! D100  D(22,17,18,38)          0.7769         estimate D2E/DX2                !
 ! D101  D(16,17,22,21)          1.9652         estimate D2E/DX2                !
 ! D102  D(16,17,22,39)       -178.0975         estimate D2E/DX2                !
 ! D103  D(18,17,22,21)        179.479          estimate D2E/DX2                !
 ! D104  D(18,17,22,39)         -0.5837         estimate D2E/DX2                !
 ! D105  D(16,19,20,21)          4.8188         estimate D2E/DX2                !
 ! D106  D(16,19,20,26)       -170.7638         estimate D2E/DX2                !
 ! D107  D(23,19,20,21)       -179.2225         estimate D2E/DX2                !
 ! D108  D(23,19,20,26)          5.1948         estimate D2E/DX2                !
 ! D109  D(16,19,23,24)        161.8365         estimate D2E/DX2                !
 ! D110  D(16,19,23,30)        -17.6898         estimate D2E/DX2                !
 ! D111  D(20,19,23,24)        -13.6897         estimate D2E/DX2                !
 ! D112  D(20,19,23,30)        166.7841         estimate D2E/DX2                !
 ! D113  D(19,20,21,22)         -5.6664         estimate D2E/DX2                !
 ! D114  D(19,20,21,40)        177.0051         estimate D2E/DX2                !
 ! D115  D(26,20,21,22)        170.1141         estimate D2E/DX2                !
 ! D116  D(26,20,21,40)         -7.2144         estimate D2E/DX2                !
 ! D117  D(19,20,26,25)          5.3355         estimate D2E/DX2                !
 ! D118  D(19,20,26,41)       -179.6817         estimate D2E/DX2                !
 ! D119  D(21,20,26,25)       -170.395          estimate D2E/DX2                !
 ! D120  D(21,20,26,41)          4.5878         estimate D2E/DX2                !
 ! D121  D(20,21,22,17)          2.0143         estimate D2E/DX2                !
 ! D122  D(20,21,22,39)       -177.9216         estimate D2E/DX2                !
 ! D123  D(40,21,22,17)        179.2589         estimate D2E/DX2                !
 ! D124  D(40,21,22,39)         -0.677          estimate D2E/DX2                !
 ! D125  D(19,23,24,25)         13.1119         estimate D2E/DX2                !
 ! D126  D(19,23,24,27)       -167.2426         estimate D2E/DX2                !
 ! D127  D(30,23,24,25)       -167.2853         estimate D2E/DX2                !
 ! D128  D(30,23,24,27)         12.3602         estimate D2E/DX2                !
 ! D129  D(19,23,30,13)         -5.0269         estimate D2E/DX2                !
 ! D130  D(19,23,30,29)       -179.7335         estimate D2E/DX2                !
 ! D131  D(24,23,30,13)        175.4522         estimate D2E/DX2                !
 ! D132  D(24,23,30,29)          0.7457         estimate D2E/DX2                !
 ! D133  D(23,24,25,26)         -3.3676         estimate D2E/DX2                !
 ! D134  D(23,24,25,42)        177.0987         estimate D2E/DX2                !
 ! D135  D(27,24,25,26)        176.9717         estimate D2E/DX2                !
 ! D136  D(27,24,25,42)         -2.562          estimate D2E/DX2                !
 ! D137  D(23,24,27,28)        -11.5458         estimate D2E/DX2                !
 ! D138  D(23,24,27,43)        168.4815         estimate D2E/DX2                !
 ! D139  D(25,24,27,28)        168.118          estimate D2E/DX2                !
 ! D140  D(25,24,27,43)        -11.8548         estimate D2E/DX2                !
 ! D141  D(24,25,26,20)         -6.4875         estimate D2E/DX2                !
 ! D142  D(24,25,26,41)        178.5798         estimate D2E/DX2                !
 ! D143  D(42,25,26,20)        173.0401         estimate D2E/DX2                !
 ! D144  D(42,25,26,41)         -1.8926         estimate D2E/DX2                !
 ! D145  D(24,27,28,29)         -3.4257         estimate D2E/DX2                !
 ! D146  D(24,27,28,44)        179.3989         estimate D2E/DX2                !
 ! D147  D(43,27,28,29)        176.546          estimate D2E/DX2                !
 ! D148  D(43,27,28,44)         -0.6294         estimate D2E/DX2                !
 ! D149  D(27,28,29,30)         15.6965         estimate D2E/DX2                !
 ! D150  D(27,28,29,45)       -107.183          estimate D2E/DX2                !
 ! D151  D(27,28,29,46)        139.7724         estimate D2E/DX2                !
 ! D152  D(44,28,29,30)       -167.0407         estimate D2E/DX2                !
 ! D153  D(44,28,29,45)         70.0797         estimate D2E/DX2                !
 ! D154  D(44,28,29,46)        -42.9648         estimate D2E/DX2                !
 ! D155  D(28,29,30,13)        170.0331         estimate D2E/DX2                !
 ! D156  D(28,29,30,23)        -14.429          estimate D2E/DX2                !
 ! D157  D(45,29,30,13)        -67.329          estimate D2E/DX2                !
 ! D158  D(45,29,30,23)        108.2089         estimate D2E/DX2                !
 ! D159  D(46,29,30,13)         45.3664         estimate D2E/DX2                !
 ! D160  D(46,29,30,23)       -139.0957         estimate D2E/DX2                !
 --------------------------------------------------------------------------------
 Trust Radius=3.00D-01 FncErr=1.00D-07 GrdErr=1.00D-06 EigMax=2.50D+02 EigMin=1.00D-04
 Number of steps in this run=    276 maximum allowed number of steps=    276.
 GradGradGradGradGradGradGradGradGradGradGradGradGradGradGradGradGradGrad

                          Input orientation:                          
 ---------------------------------------------------------------------
 Center     Atomic      Atomic             Coordinates (Angstroms)
 Number     Number       Type             X           Y           Z
 ---------------------------------------------------------------------
      1          6           0       -0.688600   -0.864100   -0.060300
      2          6           0       -0.529200    0.535400   -0.243000
      3          6           0       -1.834900    1.052100   -0.403600
      4          6           0       -2.079600   -1.174900   -0.146400
      5          6           0       -2.770600    0.005500   -0.367300
      6          6           0       -2.704900   -2.373600    0.187800
      7          6           0       -4.156500   -2.279900    0.203500
      8          6           0       -4.830400   -1.084300    0.010900
      9          6           0       -4.142800    0.166100   -0.240000
     10          6           0       -2.234200    2.376700   -0.301900
     11          6           0       -3.655000    2.585400   -0.271100
     12          6           0       -4.572400    1.529000   -0.240100
     13          6           0        0.217700   -1.875400    0.314400
     14          6           0       -0.435100   -3.185000    0.602600
     15          6           0       -1.830300   -3.426000    0.550500
     16          6           0        0.564700    1.394000   -0.022700
     17          6           0        0.176600    2.819200    0.050700
     18          6           0       -1.139900    3.271200   -0.094200
     19          6           0        1.905900    0.951000    0.128200
     20          6           0        2.889700    1.989800    0.342300
     21          6           0        2.488100    3.363400    0.496400
     22          6           0        1.210200    3.770000    0.340600
     23          6           0        2.377400   -0.472000   -0.009100
     24          6           0        3.831000   -0.602300   -0.223500
     25          6           0        4.698200    0.453200   -0.027500
     26          6           0        4.250900    1.725200    0.318100
     27          6           0        4.418900   -1.858600   -0.646200
     28          6           0        3.737800   -3.004900   -0.647600
     29          6           0        2.345900   -3.032000   -0.131200
     30          6           0        1.662900   -1.683100    0.024800
     31          1           0       -0.386410   -2.499670    1.609800
     32          1           0        0.216100   -4.007900    0.859500
     33          1           0       -2.196900   -4.391900    0.873900
     34          1           0       -4.736200   -3.171300    0.418400
     35          1           0       -5.913500   -1.091300    0.088900
     36          1           0       -5.628800    1.766100   -0.165300
     37          1           0       -4.038100    3.599200   -0.214500
     38          1           0       -1.317800    4.337600    0.008500
     39          1           0        0.945000    4.817900    0.430600
     40          1           0        3.270500    4.085700    0.703800
     41          1           0        4.956000    2.530400    0.488300
     42          1           0        5.760800    0.275600   -0.157100
     43          1           0        5.455500   -1.829500   -0.967400
     44          1           0        4.188400   -3.935500   -0.975800
     45          1           0        2.346500   -3.549600    0.850700
     46          1           0        1.721800   -3.673400   -0.768800
 ---------------------------------------------------------------------
                    Distance matrix (angstroms):
                    1          2          3          4          5
     1  C    0.000000
     2  C    1.420348   0.000000
     3  C    2.259133   1.413373   0.000000
     4  C    1.427897   2.310454   2.255118   0.000000
     5  C    2.277098   2.306538   1.404359   1.385504   0.000000
     6  C    2.530931   3.658079   3.583584   1.392685   2.443884
     7  C    3.755051   4.613305   4.106169   2.378438   2.733054
     8  C    4.148260   4.603066   3.702571   2.756783   2.360821
     9  C    3.609031   3.632423   2.477532   2.462486   1.387419
    10  C    3.598616   2.510155   1.387209   3.558363   2.431993
    11  C    4.554450   3.738170   2.383554   4.078884   2.728974
    12  C    4.565431   4.163498   2.783536   3.678846   2.362989
    13  C    1.408725   2.584668   3.646772   2.445531   3.596170
    14  C    2.426989   3.816447   4.574374   2.702940   4.071186
    15  C    2.870520   4.244431   4.578614   2.369656   3.674468
    16  C    2.582865   1.407957   2.453581   3.688749   3.629174
    17  C    3.785180   2.408351   2.715725   4.591527   4.096049
    18  C    4.159991   2.807080   2.345881   4.544619   3.660405
    19  C    3.171995   2.498044   3.779764   4.525380   4.796785
    20  C    4.594678   3.761214   4.874166   5.911691   6.039865
    21  C    5.317245   4.200999   4.984018   6.470954   6.298841
    22  C    5.024047   3.718701   4.148909   5.959194   5.524432
    23  C    3.091394   3.085107   4.496886   4.514174   5.182491
    24  C    4.530117   4.506227   5.905243   5.938772   6.631080
    25  C    5.545626   5.232486   6.571265   6.971615   7.489918
    26  C    5.589841   4.957803   6.165296   6.978651   7.261446
    27  C    5.236303   5.511579   6.902249   6.553453   7.432467
    28  C    4.951865   5.559201   6.897374   6.119007   7.176374
    29  C    3.730014   4.583126   5.850911   4.799386   5.954891
    30  C    2.491497   3.130297   4.460880   3.780725   4.760361
    31  H    2.357041   3.558779   4.332086   2.775995   3.983612
    32  H    3.398234   4.734190   5.604072   3.782587   5.150999
    33  H    3.948806   5.320430   5.603587   3.376960   4.605088
    34  H    4.683523   5.645877   5.189444   3.370777   3.817455
    35  H    5.231965   5.634447   4.633756   3.842023   3.359897
    36  H    5.597727   5.246578   3.867850   4.609410   3.363008
    37  H    5.582470   4.658333   3.373065   5.160658   3.813736
    38  H    5.240068   3.891255   3.351377   5.567045   4.584642
    39  H    5.932517   4.578953   4.754470   6.737565   6.132008
    40  H    6.384265   5.285715   6.041041   7.551180   7.368187
    41  H    6.609471   5.882367   7.006938   7.976952   8.173587
    42  H    6.550042   6.295949   7.639265   7.973452   8.538262
    43  H    6.285284   6.475658   7.859480   7.607909   8.449619
    44  H    5.835818   6.540772   7.841155   6.899032   8.020563
    45  H    4.153753   5.114006   6.342950   5.120915   6.348777
    46  H    3.768842   4.801819   5.925693   4.591353   5.820409
                    6          7          8          9         10
     6  C    0.000000
     7  C    1.454706   0.000000
     8  C    2.492256   1.385892   0.000000
     9  C    2.949686   2.485920   1.448877   0.000000
    10  C    4.798616   5.063061   4.337813   2.921188   0.000000
    11  C    5.070006   4.914050   3.863649   2.468183   1.436376
    12  C    4.347521   3.857133   2.637973   1.429004   2.487889
    13  C    2.967460   4.394263   5.118717   4.846549   4.946918
    14  C    2.445899   3.850624   4.907312   5.068223   5.915014
    15  C    1.415635   2.616326   3.843869   4.344621   5.878865
    16  C    4.992935   5.986521   5.937188   4.869858   2.979512
    17  C    5.940287   6.693275   6.348933   5.077466   2.476306
    18  C    5.864513   6.324809   5.709747   4.322073   1.428552
    19  C    5.684716   6.870013   7.038035   6.110516   4.399777
    20  C    7.096667   8.240057   8.316241   7.288416   5.178710
    21  C    7.744395   8.722576   8.577773   7.398233   4.889885
    22  C    7.286644   8.088359   7.756402   6.479182   3.770674
    23  C    5.429975   6.782739   7.233788   6.555417   5.428414
    24  C    6.784148   8.172933   8.677967   8.010755   6.757754
    25  C    7.927360   9.269785   9.651922   8.848212   7.199536
    26  C    8.074670   9.313342   9.510924   8.555493   6.547165
    27  C    7.190918   8.627686   9.304884   8.807220   7.894305
    28  C    6.527236   7.973078   8.805474   8.504424   8.046484
    29  C    5.103512   6.554303   7.437272   7.234840   7.089463
    30  C    4.425046   5.852651   6.520866   6.098837   5.637029
    31  H    2.722751   4.029833   4.930396   4.963724   5.554089
    32  H    3.413848   4.747205   5.893617   6.134426   6.936565
    33  H    2.191422   2.958042   4.315126   5.079632   6.870069
    34  H    2.194466   1.084817   2.128497   3.453093   6.128551
    35  H    3.456760   2.124371   1.085928   2.196499   5.071193
    36  H    5.080451   4.321319   2.965345   2.184897   3.451782
    37  H    6.132993   5.895130   4.755388   3.434791   2.180871
    38  H    6.855392   7.203301   6.460291   5.044184   2.186611
    39  H    8.068358   8.743892   8.268456   6.926374   4.074718
    40  H    8.814432   9.794462   9.635019   8.438663   5.850969
    41  H    9.101039  10.308140  10.443543   9.429130   7.235124
    42  H    8.877235  10.247607  10.679470   9.904552   8.267745
    43  H    8.259701   9.693524  10.359157   9.830508   8.790136
    44  H    7.163175   8.588895   9.510083   9.315225   9.030382
    45  H    5.228676   6.657328   7.634845   7.556922   7.578412
    46  H    4.711713   6.118956   7.088208   7.029575   7.243731
                   11         12         13         14         15
    11  C    0.000000
    12  C    1.399487   0.000000
    13  C    5.936274   5.902751   0.000000
    14  C    6.665480   6.328443   1.491395   0.000000
    15  C    6.335731   5.718058   2.579614   1.416820   0.000000
    16  C    4.391697   5.143470   3.305000   4.728408   5.412669
    17  C    3.852191   4.929724   4.702180   6.060461   6.578751
    18  C    2.612919   3.852091   5.338307   6.531829   6.763489
    19  C    5.809846   6.514453   3.297458   4.776173   5.770239
    20  C    6.600310   7.498964   4.698950   6.156347   7.186977
    21  C    6.239553   7.331993   5.712518   7.172023   8.046580
    22  C    5.044564   6.228784   5.732040   7.151761   7.814801
    23  C    6.768027   7.235819   2.595860   3.955338   5.171461
    24  C    8.136577   8.669478   3.868599   5.054937   6.373592
    25  C    8.624475   9.335233   5.061043   6.323314   7.616009
    26  C    7.974356   8.843116   5.406573   6.793350   7.973071
    27  C    9.223757   9.616872   4.309654   5.184607   6.552964
    28  C    9.276136   9.475322   3.819989   4.359877   5.711086
    29  C    8.221043   8.287186   2.462827   2.880249   4.249776
    30  C    6.825519   7.019026   1.486422   2.644080   3.939100
    31  H    6.330830   6.097116   1.559719   1.219221   2.016190
    32  H    7.728860   7.402440   2.201066   1.080381   2.149847
    33  H    7.219404   6.476191   3.532153   2.152708   1.082565
    34  H    5.897796   4.749029   5.121650   4.305064   2.920030
    35  H    4.329959   2.961885   6.185247   5.887303   4.726142
    36  H    2.139704   1.085261   6.904506   7.216480   6.472934
    37  H    1.085246   2.138191   6.954338   7.724936   7.403583
    38  H    2.934431   4.306095   6.407238   7.597475   7.799353
    39  H    5.161050   6.458204   6.733701   8.122849   8.699342
    40  H    7.152893   8.302936   6.708646   8.161176   9.081151
    41  H    8.644596   9.608526   6.472465   7.857660   9.029753
    42  H    9.695641  10.409271   5.964484   7.137372   8.475101
    43  H   10.147777  10.600343   5.392557   6.245114   7.611551
    44  H   10.224366  10.351504   4.655651   4.942808   6.230083
    45  H    8.655326   8.651774   2.760861   2.816343   4.189398
    46  H    8.266212   8.182997   2.582333   2.602209   3.797259
                   16         17         18         19         20
    16  C    0.000000
    17  C    1.478920   0.000000
    18  C    2.536662   1.399454   0.000000
    19  C    1.420506   2.546891   3.835321   0.000000
    20  C    2.427721   2.851990   4.250905   1.446654   0.000000
    21  C    2.801333   2.416161   3.676914   2.508825   1.439377
    22  C    2.488781   1.434012   2.441480   2.911335   2.447414
    23  C    2.601542   3.959684   5.137138   1.505355   2.538975
    24  C    3.833308   5.013630   6.303219   2.498488   2.815166
    25  C    4.239216   5.103816   6.482977   2.840596   2.401783
    26  C    3.716707   4.227086   5.623240   2.476787   1.386890
    27  C    5.081635   6.353313   7.584182   3.848210   4.257437
    28  C    5.459797   6.862209   7.967913   4.427964   5.161996
    29  C    4.772203   6.243035   7.202951   4.015617   5.073302
    30  C    3.267544   4.741357   5.693412   2.647305   3.885362
    31  H    4.327855   5.571189   6.064182   4.399653   5.700420
    32  H    5.484553   6.874955   7.465492   5.289699   6.586960
    33  H    6.473559   7.636172   7.795997   6.777582   8.178153
    34  H    7.009713   7.756088   7.396076   7.822728   9.208534
    35  H    6.939470   7.237595   6.469327   8.081804   9.330258
    36  H    6.206306   5.904096   4.735040   7.584341   8.536542
    37  H    5.107393   4.294465   2.919181   6.516252   7.134046
    38  H    3.494218   2.130857   1.086004   4.677139   4.829766
    39  H    3.474651   2.174756   2.648491   3.995959   3.433337
    40  H    3.885152   3.406285   4.555419   3.466957   2.160668
    41  H    4.564651   4.808073   6.168313   3.453590   2.140832
    42  H    5.316798   6.139737   7.523113   3.924005   3.380991
    43  H    5.933240   7.107301   8.383252   4.640170   4.783900
    44  H    6.514842   7.923018   9.005805   5.505134   6.207511
    45  H    5.326990   6.775698   7.718234   4.579469   5.589140
    46  H    5.251104   6.724067   7.541345   4.714189   5.888155
                   21         22         23         24         25
    21  C    0.000000
    22  C    1.350047   0.000000
    23  C    3.870152   4.413526   0.000000
    24  C    4.248342   5.128724   1.475093   0.000000
    25  C    3.691650   4.827298   2.498489   1.380048   0.000000
    26  C    2.413080   3.664365   2.905985   2.426294   1.391941
    27  C    5.683556   6.553676   2.548780   1.450032   2.409402
    28  C    6.589820   7.298258   2.945158   2.441523   3.642163
    29  C    6.427694   6.912280   2.563104   2.849120   4.206030
    30  C    5.135224   5.480964   1.406564   2.435249   3.712083
    31  H    6.624051   6.593087   3.790901   4.974691   6.103561
    32  H    7.722039   7.858322   4.234179   5.083159   6.385719
    33  H    9.068429   8.860550   6.088475   7.204230   8.475253
    34  H    9.741607   9.140425   7.620517   8.967091  10.116508
    35  H    9.518261   8.628018   8.314575   9.761762  10.724141
    36  H    8.298993   7.144471   8.314609   9.751950  10.411034
    37  H    6.569039   5.280337   7.601020   8.920505   9.287369
    38  H    3.958786   2.612134   6.065234   7.139088   7.161153
    39  H    2.121570   1.084678   5.498013   6.175388   5.774684
    40  H    1.084842   2.115754   4.698775   4.811589   3.970917
    41  H    2.604704   3.948347   3.988858   3.403835   2.155753
    42  H    4.546662   5.759036   3.468170   2.121142   1.085107
    43  H    6.157466   7.147576   3.497977   2.167581   2.582176
    44  H    7.637561   8.365244   4.026172   3.435682   4.518834
    45  H    6.923521   7.424818   3.195596   3.470479   4.724842
    46  H    7.190584   7.542991   3.354984   3.765333   5.141722
                   26         27         28         29         30
    26  C    0.000000
    27  C    3.715067   0.000000
    28  C    4.854863   1.333380   0.000000
    29  C    5.144108   2.437093   1.484853   0.000000
    30  C    4.289554   2.841932   2.550390   1.519986   0.000000
    31  H    6.404893   5.347103   4.728659   3.283287   2.716373
    32  H    7.031441   4.954811   3.959764   2.543603   2.862630
    33  H    8.905164   7.245490   6.281671   4.847328   4.791307
    34  H   10.234927   9.309802   8.542407   7.104759   6.581652
    35  H   10.549893  10.386896   9.866706   8.487193   7.599748
    36  H    9.891604  10.692333  10.522749   9.306920   8.068582
    37  H    8.514873  10.074463  10.211089   9.205173   7.775690
    38  H    6.158807   8.469431   8.938784   8.231234   6.718159
    39  H    4.528402   7.602837   8.376064   7.993689   6.553095
    40  H    2.584939   6.202905   7.233344   7.225909   6.026979
    41  H    1.083735   4.564963   5.780469   6.175492   5.367767
    42  H    2.146381   2.568019   3.885203   4.754201   4.545589
    43  H    3.967299   1.085613   2.105785   3.437273   3.922972
    44  H    5.807031   2.115486   1.084791   2.219114   3.528832
    45  H    5.633287   3.065132   2.115967   1.109972   2.152497
    46  H    6.059916   3.253134   2.127402   1.098831   2.143493
                   31         32         33         34         35
    31  H    0.000000
    32  H    1.789057   0.000000
    33  H    2.720286   2.443406   0.000000
    34  H    4.559736   5.041800   2.854013   0.000000
    35  H    5.902996   6.831718   5.032226   2.412676   0.000000
    36  H    6.987877   8.279622   7.125927   5.051273   2.882778
    37  H    7.338878   8.781780   8.272382   6.835757   5.060629
    38  H    7.083778   8.527861   8.816230   8.260572   7.113359
    39  H    7.530604   8.866228   9.741071   9.803239   9.059494
    40  H    7.586892   8.652165  10.089157  10.809845  10.560553
    41  H    7.422985   8.084170   9.961471  11.245133  11.463955
    42  H    6.972249   7.079940   9.282969  11.063423  11.756624
    43  H    6.420202   5.961066   8.277409  10.372638  11.441804
    44  H    5.447552   4.376384   6.663464   9.065113  10.548528
    45  H    3.024464   2.179156   4.620876   7.105958   8.651658
    46  H    3.388204   2.242852   4.309398   6.585386   8.105597
                   36         37         38         39         40
    36  H    0.000000
    37  H    2.427551   0.000000
    38  H    5.022702   2.827542   0.000000
    39  H    7.272099   5.170365   2.351408   0.000000
    40  H    9.237609   7.382113   4.647515   2.453305   0.000000
    41  H   10.632466   9.084608   6.546506   4.617803   2.303543
    42  H   11.486716  10.347369   8.162956   6.646037   4.632451
    43  H   11.680471  10.962029   9.212117   8.153952   6.523552
    44  H   11.381677  11.181529   9.986554   9.440319   8.246408
    45  H    9.638171   9.643812   8.737524   8.494454   7.692409
    46  H    9.164262   9.293783   8.603458   8.610700   8.048022
                   41         42         43         44         45
    41  H    0.000000
    42  H    2.479590   0.000000
    43  H    4.623558   2.276234   0.000000
    44  H    6.673879   4.569034   2.457814   0.000000
    45  H    6.626253   5.225444   3.991255   2.622521   0.000000
    46  H    7.108269   5.681751   4.168924   2.489108   1.740217
                   46
    46  H    0.000000
 Stoichiometry    C30H16
 Framework group  C1[X(C30H16)]
 Deg. of freedom   132
 Full point group                 C1      NOp   1
 Largest Abelian subgroup         C1      NOp   1
 Largest concise Abelian subgroup C1      NOp   1
                         Standard orientation:                         
 ---------------------------------------------------------------------
 Center     Atomic      Atomic             Coordinates (Angstroms)
 Number     Number       Type             X           Y           Z
 ---------------------------------------------------------------------
      1          6           0       -0.687884   -0.861695   -0.061346
      2          6           0       -0.526841    0.537740   -0.243095
      3          6           0       -1.831904    1.056023   -0.403771
      4          6           0       -2.079208   -1.170863   -0.148081
      5          6           0       -2.768801    0.010461   -0.368437
      6          6           0       -2.705970   -2.369069    0.185152
      7          6           0       -4.157468   -2.273734    0.200458
      8          6           0       -4.829953   -1.077247    0.008417
      9          6           0       -4.140858    0.172534   -0.241463
     10          6           0       -2.229735    2.381009   -0.301344
     11          6           0       -3.650307    2.591299   -0.270854
     12          6           0       -4.568913    1.535919   -0.240821
     13          6           0        0.217152   -1.874262    0.312987
     14          6           0       -0.437221   -3.183307    0.600140
     15          6           0       -1.832677   -3.422692    0.547448
     16          6           0        0.567962    1.394958   -0.021901
     17          6           0        0.181454    2.820550    0.052295
     18          6           0       -1.134488    3.274134   -0.092726
     19          6           0        1.908612    0.950342    0.129134
     20          6           0        2.893521    1.987888    0.344210
     21          6           0        2.493429    3.361843    0.499068
     22          6           0        1.216040    3.769991    0.343130
     23          6           0        2.378542   -0.473103   -0.008935
     24          6           0        3.832061   -0.604912   -0.222964
     25          6           0        4.700395    0.449478   -0.026013
     26          6           0        4.254428    1.721762    0.320265
     27          6           0        4.418670   -1.861605   -0.646288
     28          6           0        3.736272   -3.007132   -0.648639
     29          6           0        2.344180   -3.032987   -0.132692
     30          6           0        1.662660   -1.683414    0.023963
     31          1           0       -0.388071   -2.498680    1.607796
     32          1           0        0.212965   -4.007109    0.856714
     33          1           0       -2.200473   -4.388384    0.870112
     34          1           0       -4.738245   -3.164615    0.414603
     35          1           0       -5.913084   -1.083070    0.086074
     36          1           0       -5.625067    1.774168   -0.166199
     37          1           0       -4.032276    3.605496   -0.213722
     38          1           0       -1.311211    4.340669    0.010604
     39          1           0        0.951999    4.818133    0.433721
     40          1           0        3.276582    4.083123    0.707177
     41          1           0        4.960386    2.526053    0.491204
     42          1           0        5.762833    0.270758   -0.155395
     43          1           0        5.455403   -1.833474   -0.967145
     44          1           0        4.185920   -3.938031   -0.977296
     45          1           0        2.343886   -3.551218    0.848875
     46          1           0        1.719554   -3.673269   -0.770899
 ---------------------------------------------------------------------
 Rotational constants (GHZ):           0.2741211           0.1552701           0.1008946
 Standard basis: 6-311+G(d,p) (5D, 7F)
 There are   786 symmetry adapted cartesian basis functions of A   symmetry.
 There are   756 symmetry adapted basis functions of A   symmetry.
   756 basis functions,  1208 primitive gaussians,   786 cartesian basis functions
    98 alpha electrons       98 beta electrons
       nuclear repulsion energy      2621.7428843966 Hartrees.
 NAtoms=   46 NActive=   46 NUniq=   46 SFac= 1.00D+00 NAtFMM=   60 NAOKFM=F Big=F
 Integral buffers will be    131072 words long.
 Raffenetti 2 integral format.
 Two-electron integral symmetry is turned on.
 One-electron integrals computed using PRISM.
 NBasis=   756 RedAO= T EigKep=  1.16D-06  NBF=   756
 NBsUse=   734 1.00D-06 EigRej=  9.27D-07 NBFU=   734
 ExpMin= 4.38D-02 ExpMax= 4.56D+03 ExpMxC= 6.82D+02 IAcc=2 IRadAn=         4 AccDes= 0.00D+00
 Harris functional with IExCor=  402 and IRadAn=       4 diagonalized for initial guess.
 HarFok:  IExCor=  402 AccDes= 0.00D+00 IRadAn=         4 IDoV= 1 UseB2=F ITyADJ=14
 ICtDFT=  3500011 ScaDFX=  1.000000  1.000000  1.000000  1.000000
 FoFCou: FMM=F IPFlag=           0 FMFlag=      100000 FMFlg1=           0
         NFxFlg=           0 DoJE=T BraDBF=F KetDBF=T FulRan=T
         wScrn=  0.000000 ICntrl=       500 IOpCl=  0 I1Cent=   200000004 NGrid=           0
         NMat0=    1 NMatS0=      1 NMatT0=    0 NMatD0=    1 NMtDS0=    0 NMtDT0=    0
 Petite list used in FoFCou.
 Requested convergence on RMS density matrix=1.00D-08 within 128 cycles.
 Requested convergence on MAX density matrix=1.00D-06.
 Requested convergence on             energy=1.00D-06.
 No special actions if energy rises.
 SCF Done:  E(RB3LYP) =  -1152.99598827     A.U. after   19 cycles
            NFock= 19  Conv=0.75D-08     -V/T= 2.0044

 **********************************************************************

            Population analysis using the SCF Density.

 **********************************************************************

 Orbital symmetries:
       Occupied  (A) (A) (A) (A) (A) (A) (A) (A) (A) (A) (A) (A)
                 (A) (A) (A) (A) (A) (A) (A) (A) (A) (A) (A) (A)
                 (A) (A) (A) (A) (A) (A) (A) (A) (A) (A) (A) (A)
                 (A) (A) (A) (A) (A) (A) (A) (A) (A) (A) (A) (A)
                 (A) (A) (A) (A) (A) (A) (A) (A) (A) (A) (A) (A)
                 (A) (A) (A) (A) (A) (A) (A) (A) (A) (A) (A) (A)
                 (A) (A) (A) (A) (A) (A) (A) (A) (A) (A) (A) (A)
                 (A) (A) (A) (A) (A) (A) (A) (A) (A) (A) (A) (A)
                 (A) (A)
       Virtual   (A) (A) (A) (A) (A) (A) (A) (A) (A) (A) (A) (A)
                 (A) (A) (A) (A) (A) (A) (A) (A) (A) (A) (A) (A)
                 (A) (A) (A) (A) (A) (A) (A) (A) (A) (A) (A) (A)
                 (A) (A) (A) (A) (A) (A) (A) (A) (A) (A) (A) (A)
                 (A) (A) (A) (A) (A) (A) (A) (A) (A) (A) (A) (A)
                 (A) (A) (A) (A) (A) (A) (A) (A) (A) (A) (A) (A)
                 (A) (A) (A) (A) (A) (A) (A) (A) (A) (A) (A) (A)
                 (A) (A) (A) (A) (A) (A) (A) (A) (A) (A) (A) (A)
                 (A) (A) (A) (A) (A) (A) (A) (A) (A) (A) (A) (A)
                 (A) (A) (A) (A) (A) (A) (A) (A) (A) (A) (A) (A)
                 (A) (A) (A) (A) (A) (A) (A) (A) (A) (A) (A) (A)
                 (A) (A) (A) (A) (A) (A) (A) (A) (A) (A) (A) (A)
                 (A) (A) (A) (A) (A) (A) (A) (A) (A) (A) (A) (A)
                 (A) (A) (A) (A) (A) (A) (A) (A) (A) (A) (A) (A)
                 (A) (A) (A) (A) (A) (A) (A) (A) (A) (A) (A) (A)
                 (A) (A) (A) (A) (A) (A) (A) (A) (A) (A) (A) (A)
                 (A) (A) (A) (A) (A) (A) (A) (A) (A) (A) (A) (A)
                 (A) (A) (A) (A) (A) (A) (A) (A) (A) (A) (A) (A)
                 (A) (A) (A) (A) (A) (A) (A) (A) (A) (A) (A) (A)
                 (A) (A) (A) (A) (A) (A) (A) (A) (A) (A) (A) (A)
                 (A) (A) (A) (A) (A) (A) (A) (A) (A) (A) (A) (A)
                 (A) (A) (A) (A) (A) (A) (A) (A) (A) (A) (A) (A)
                 (A) (A) (A) (A) (A) (A) (A) (A) (A) (A) (A) (A)
                 (A) (A) (A) (A) (A) (A) (A) (A) (A) (A) (A) (A)
                 (A) (A) (A) (A) (A) (A) (A) (A) (A) (A) (A) (A)
                 (A) (A) (A) (A) (A) (A) (A) (A) (A) (A) (A) (A)
                 (A) (A) (A) (A) (A) (A) (A) (A) (A) (A) (A) (A)
                 (A) (A) (A) (A) (A) (A) (A) (A) (A) (A) (A) (A)
                 (A) (A) (A) (A) (A) (A) (A) (A) (A) (A) (A) (A)
                 (A) (A) (A) (A) (A) (A) (A) (A) (A) (A) (A) (A)
                 (A) (A) (A) (A) (A) (A) (A) (A) (A) (A) (A) (A)
                 (A) (A) (A) (A) (A) (A) (A) (A) (A) (A) (A) (A)
                 (A) (A) (A) (A) (A) (A) (A) (A) (A) (A) (A) (A)
                 (A) (A) (A) (A) (A) (A) (A) (A) (A) (A) (A) (A)
                 (A) (A) (A) (A) (A) (A) (A) (A) (A) (A) (A) (A)
                 (A) (A) (A) (A) (A) (A) (A) (A) (A) (A) (A) (A)
                 (A) (A) (A) (A) (A) (A) (A) (A) (A) (A) (A) (A)
                 (A) (A) (A) (A) (A) (A) (A) (A) (A) (A) (A) (A)
                 (A) (A) (A) (A) (A) (A) (A) (A) (A) (A) (A) (A)
                 (A) (A) (A) (A) (A) (A) (A) (A) (A) (A) (A) (A)
                 (A) (A) (A) (A) (A) (A) (A) (A) (A) (A) (A) (A)
                 (A) (A) (A) (A) (A) (A) (A) (A) (A) (A) (A) (A)
                 (A) (A) (A) (A) (A) (A) (A) (A) (A) (A) (A) (A)
                 (A) (A) (A) (A) (A) (A) (A) (A) (A) (A) (A) (A)
                 (A) (A) (A) (A) (A) (A) (A) (A) (A) (A) (A) (A)
                 (A) (A) (A) (A) (A) (A) (A) (A) (A) (A) (A) (A)
                 (A) (A) (A) (A) (A) (A) (A) (A) (A) (A) (A) (A)
                 (A) (A) (A) (A) (A) (A) (A) (A) (A) (A) (A) (A)
                 (A) (A) (A) (A) (A) (A) (A) (A) (A) (A) (A) (A)
                 (A) (A) (A) (A) (A) (A) (A) (A) (A) (A) (A) (A)
                 (A) (A) (A) (A) (A) (A) (A) (A) (A) (A) (A) (A)
                 (A) (A) (A) (A) (A) (A) (A) (A) (A) (A) (A) (A)
                 (A) (A) (A) (A) (A) (A) (A) (A) (A) (A) (A) (A)
 The electronic state is 1-A.
 Alpha  occ. eigenvalues --  -10.23892 -10.22160 -10.21252 -10.20717 -10.20278
 Alpha  occ. eigenvalues --  -10.19934 -10.19758 -10.19644 -10.19576 -10.19463
 Alpha  occ. eigenvalues --  -10.19211 -10.19190 -10.19188 -10.19090 -10.19009
 Alpha  occ. eigenvalues --  -10.18730 -10.18663 -10.18657 -10.18585 -10.18395
 Alpha  occ. eigenvalues --  -10.18011 -10.17758 -10.17673 -10.17415 -10.17301
 Alpha  occ. eigenvalues --  -10.17243 -10.16784 -10.16778 -10.16766 -10.16681
 Alpha  occ. eigenvalues --   -0.92819  -0.88557  -0.88436  -0.85552  -0.84558
 Alpha  occ. eigenvalues --   -0.83090  -0.81200  -0.80131  -0.78633  -0.76079
 Alpha  occ. eigenvalues --   -0.75776  -0.74809  -0.73469  -0.71855  -0.70686
 Alpha  occ. eigenvalues --   -0.67534  -0.65982  -0.64152  -0.63307  -0.62172
 Alpha  occ. eigenvalues --   -0.60840  -0.60247  -0.58194  -0.56629  -0.54942
 Alpha  occ. eigenvalues --   -0.53505  -0.52475  -0.51585  -0.50534  -0.49956
 Alpha  occ. eigenvalues --   -0.49389  -0.47985  -0.47421  -0.46374  -0.45296
 Alpha  occ. eigenvalues --   -0.45018  -0.44527  -0.44435  -0.43950  -0.43917
 Alpha  occ. eigenvalues --   -0.42782  -0.42255  -0.41867  -0.41496  -0.40387
 Alpha  occ. eigenvalues --   -0.39988  -0.39854  -0.39689  -0.38599  -0.37242
 Alpha  occ. eigenvalues --   -0.36697  -0.36097  -0.35397  -0.35061  -0.34690
 Alpha  occ. eigenvalues --   -0.34302  -0.34086  -0.33125  -0.32170  -0.31116
 Alpha  occ. eigenvalues --   -0.30123  -0.28206  -0.27276  -0.25622  -0.24174
 Alpha  occ. eigenvalues --   -0.23067  -0.20476  -0.15582
 Alpha virt. eigenvalues --   -0.10508  -0.06850  -0.05387  -0.03600  -0.02352
 Alpha virt. eigenvalues --   -0.00924   0.00565   0.00652   0.00835   0.01276
 Alpha virt. eigenvalues --    0.01563   0.01616   0.02296   0.02465   0.02814
 Alpha virt. eigenvalues --    0.02936   0.03451   0.04084   0.04283   0.04605
 Alpha virt. eigenvalues --    0.04783   0.04869   0.05235   0.05469   0.06295
 Alpha virt. eigenvalues --    0.06569   0.06914   0.07232   0.07689   0.08137
 Alpha virt. eigenvalues --    0.08598   0.08692   0.08793   0.09266   0.09555
 Alpha virt. eigenvalues --    0.09950   0.10156   0.10377   0.10616   0.11207
 Alpha virt. eigenvalues --    0.11614   0.11839   0.12498   0.12631   0.12761
 Alpha virt. eigenvalues --    0.12904   0.13519   0.13681   0.14103   0.14309
 Alpha virt. eigenvalues --    0.14774   0.15128   0.15377   0.15715   0.15894
 Alpha virt. eigenvalues --    0.15998   0.16266   0.16499   0.16857   0.17006
 Alpha virt. eigenvalues --    0.17183   0.17284   0.17589   0.17620   0.17909
 Alpha virt. eigenvalues --    0.18085   0.18192   0.18557   0.18662   0.18976
 Alpha virt. eigenvalues --    0.19262   0.19400   0.19584   0.19757   0.19939
 Alpha virt. eigenvalues --    0.20431   0.20720   0.20888   0.21127   0.21305
 Alpha virt. eigenvalues --    0.21411   0.21570   0.21782   0.21875   0.22016
 Alpha virt. eigenvalues --    0.22203   0.22727   0.22986   0.23348   0.23397
 Alpha virt. eigenvalues --    0.23660   0.23795   0.24005   0.24164   0.24432
 Alpha virt. eigenvalues --    0.24801   0.25077   0.25279   0.25369   0.25716
 Alpha virt. eigenvalues --    0.25933   0.26078   0.26325   0.26674   0.27318
 Alpha virt. eigenvalues --    0.27353   0.27793   0.28062   0.28193   0.28408
 Alpha virt. eigenvalues --    0.28646   0.28793   0.29132   0.29252   0.29824
 Alpha virt. eigenvalues --    0.29944   0.30088   0.30403   0.30732   0.31086
 Alpha virt. eigenvalues --    0.31318   0.31576   0.32188   0.32660   0.32882
 Alpha virt. eigenvalues --    0.33382   0.33599   0.34007   0.34201   0.34407
 Alpha virt. eigenvalues --    0.34853   0.34933   0.35315   0.35681   0.36074
 Alpha virt. eigenvalues --    0.36850   0.37048   0.37280   0.37576   0.38246
 Alpha virt. eigenvalues --    0.38923   0.39291   0.39532   0.40031   0.40477
 Alpha virt. eigenvalues --    0.40842   0.41694   0.42103   0.42991   0.43169
 Alpha virt. eigenvalues --    0.43721   0.44620   0.44897   0.46115   0.46471
 Alpha virt. eigenvalues --    0.46675   0.47603   0.48183   0.48338   0.48624
 Alpha virt. eigenvalues --    0.49492   0.49638   0.50714   0.51278   0.51573
 Alpha virt. eigenvalues --    0.52419   0.52730   0.53060   0.53851   0.54330
 Alpha virt. eigenvalues --    0.54512   0.55285   0.55469   0.56057   0.56255
 Alpha virt. eigenvalues --    0.56478   0.56829   0.57295   0.57423   0.57991
 Alpha virt. eigenvalues --    0.58711   0.58968   0.59121   0.59418   0.59610
 Alpha virt. eigenvalues --    0.60159   0.60416   0.60740   0.61211   0.61479
 Alpha virt. eigenvalues --    0.61767   0.62204   0.62883   0.63219   0.63786
 Alpha virt. eigenvalues --    0.64293   0.64703   0.64791   0.65492   0.65775
 Alpha virt. eigenvalues --    0.66378   0.66777   0.67570   0.67835   0.68121
 Alpha virt. eigenvalues --    0.68481   0.68784   0.69199   0.69706   0.70169
 Alpha virt. eigenvalues --    0.70343   0.70836   0.71062   0.71592   0.71696
 Alpha virt. eigenvalues --    0.71923   0.72315   0.72622   0.72974   0.73494
 Alpha virt. eigenvalues --    0.73716   0.74288   0.74427   0.74567   0.74981
 Alpha virt. eigenvalues --    0.75215   0.75845   0.76224   0.76432   0.76797
 Alpha virt. eigenvalues --    0.77242   0.77804   0.78316   0.78499   0.79037
 Alpha virt. eigenvalues --    0.80801   0.80978   0.82621   0.83359   0.83629
 Alpha virt. eigenvalues --    0.84239   0.84455   0.85340   0.85490   0.86460
 Alpha virt. eigenvalues --    0.86738   0.87144   0.87800   0.88408   0.89260
 Alpha virt. eigenvalues --    0.89613   0.90416   0.90705   0.91246   0.91546
 Alpha virt. eigenvalues --    0.91912   0.92293   0.92510   0.93314   0.93470
 Alpha virt. eigenvalues --    0.93696   0.93964   0.94225   0.94537   0.94979
 Alpha virt. eigenvalues --    0.95429   0.95722   0.95923   0.96545   0.96940
 Alpha virt. eigenvalues --    0.97308   0.97842   0.98416   0.98625   0.99213
 Alpha virt. eigenvalues --    0.99423   1.00092   1.00644   1.02009   1.02520
 Alpha virt. eigenvalues --    1.03185   1.03329   1.04045   1.04683   1.05430
 Alpha virt. eigenvalues --    1.05814   1.05957   1.06324   1.07651   1.08033
 Alpha virt. eigenvalues --    1.08703   1.09070   1.10272   1.11162   1.12207
 Alpha virt. eigenvalues --    1.12980   1.13575   1.14201   1.15232   1.16529
 Alpha virt. eigenvalues --    1.17517   1.18036   1.18277   1.20177   1.20804
 Alpha virt. eigenvalues --    1.21406   1.22858   1.23724   1.25714   1.26671
 Alpha virt. eigenvalues --    1.27283   1.28299   1.28766   1.30621   1.31732
 Alpha virt. eigenvalues --    1.32450   1.33989   1.35497   1.36271   1.38264
 Alpha virt. eigenvalues --    1.39046   1.39477   1.40500   1.41818   1.42760
 Alpha virt. eigenvalues --    1.43199   1.43957   1.44143   1.44902   1.45897
 Alpha virt. eigenvalues --    1.46851   1.47181   1.47642   1.48448   1.48914
 Alpha virt. eigenvalues --    1.49575   1.50235   1.50626   1.51021   1.51631
 Alpha virt. eigenvalues --    1.52076   1.52682   1.53687   1.54173   1.54408
 Alpha virt. eigenvalues --    1.55373   1.55669   1.56523   1.57281   1.57431
 Alpha virt. eigenvalues --    1.58876   1.59509   1.59891   1.61046   1.61064
 Alpha virt. eigenvalues --    1.61844   1.62264   1.62674   1.63572   1.65401
 Alpha virt. eigenvalues --    1.65937   1.66476   1.67541   1.68245   1.69709
 Alpha virt. eigenvalues --    1.69746   1.69974   1.70907   1.71763   1.71967
 Alpha virt. eigenvalues --    1.72803   1.73638   1.73963   1.75021   1.75472
 Alpha virt. eigenvalues --    1.76089   1.76931   1.77206   1.78009   1.78801
 Alpha virt. eigenvalues --    1.79725   1.80671   1.81364   1.82258   1.82830
 Alpha virt. eigenvalues --    1.83077   1.84232   1.84810   1.85390   1.86162
 Alpha virt. eigenvalues --    1.86495   1.87018   1.87577   1.87689   1.88854
 Alpha virt. eigenvalues --    1.89166   1.89188   1.90527   1.90842   1.91580
 Alpha virt. eigenvalues --    1.92313   1.93076   1.93638   1.93956   1.95571
 Alpha virt. eigenvalues --    1.95693   1.96129   1.96511   1.96881   1.98364
 Alpha virt. eigenvalues --    1.98739   2.00537   2.01154   2.01379   2.01980
 Alpha virt. eigenvalues --    2.03382   2.03891   2.04082   2.04449   2.05324
 Alpha virt. eigenvalues --    2.06158   2.07302   2.08391   2.08646   2.09276
 Alpha virt. eigenvalues --    2.10772   2.11165   2.12265   2.12402   2.13019
 Alpha virt. eigenvalues --    2.14079   2.14372   2.16047   2.17401   2.18234
 Alpha virt. eigenvalues --    2.18944   2.19656   2.20726   2.21666   2.21879
 Alpha virt. eigenvalues --    2.22483   2.23937   2.24124   2.25666   2.25755
 Alpha virt. eigenvalues --    2.27915   2.28795   2.29881   2.30521   2.32161
 Alpha virt. eigenvalues --    2.32947   2.33405   2.34640   2.35703   2.36500
 Alpha virt. eigenvalues --    2.37400   2.38753   2.39765   2.41304   2.42199
 Alpha virt. eigenvalues --    2.42849   2.45587   2.46173   2.47261   2.48498
 Alpha virt. eigenvalues --    2.48929   2.51166   2.51872   2.52276   2.55033
 Alpha virt. eigenvalues --    2.55537   2.56317   2.57041   2.58312   2.58827
 Alpha virt. eigenvalues --    2.60037   2.60746   2.62543   2.63453   2.64287
 Alpha virt. eigenvalues --    2.65053   2.65906   2.68525   2.69350   2.70618
 Alpha virt. eigenvalues --    2.71127   2.71459   2.71717   2.72356   2.72430
 Alpha virt. eigenvalues --    2.72983   2.73657   2.74346   2.75271   2.75350
 Alpha virt. eigenvalues --    2.75888   2.76103   2.76621   2.77089   2.77235
 Alpha virt. eigenvalues --    2.77577   2.78186   2.78807   2.79657   2.79887
 Alpha virt. eigenvalues --    2.80125   2.80360   2.82611   2.82686   2.83528
 Alpha virt. eigenvalues --    2.84045   2.85769   2.86316   2.87256   2.87544
 Alpha virt. eigenvalues --    2.88304   2.89311   2.89686   2.91023   2.92686
 Alpha virt. eigenvalues --    2.93057   2.94418   2.95253   2.96938   2.99862
 Alpha virt. eigenvalues --    3.00399   3.01876   3.03306   3.04611   3.06675
 Alpha virt. eigenvalues --    3.07171   3.09013   3.10951   3.11980   3.12526
 Alpha virt. eigenvalues --    3.13228   3.14058   3.16026   3.17565   3.18532
 Alpha virt. eigenvalues --    3.19751   3.20351   3.21182   3.22265   3.23835
 Alpha virt. eigenvalues --    3.25207   3.25669   3.26885   3.29499   3.31558
 Alpha virt. eigenvalues --    3.33757   3.34042   3.35199   3.35494   3.37357
 Alpha virt. eigenvalues --    3.37925   3.40643   3.42073   3.42486   3.43524
 Alpha virt. eigenvalues --    3.43777   3.45319   3.46102   3.48464   3.49819
 Alpha virt. eigenvalues --    3.50522   3.52720   3.56062   3.57469   3.60458
 Alpha virt. eigenvalues --    3.60938   3.62435   3.62526   3.65408   3.68110
 Alpha virt. eigenvalues --    3.70872   3.73102   3.78344   3.81626   3.83605
 Alpha virt. eigenvalues --    3.85926   3.94196   3.95209   4.04278   4.05318
 Alpha virt. eigenvalues --    4.05945   4.07440   4.10324   4.12023   4.12232
 Alpha virt. eigenvalues --    4.12576   4.21383   4.24265   4.29594   4.32491
 Alpha virt. eigenvalues --    4.42233   4.48857   4.69550   4.72014   4.73831
 Alpha virt. eigenvalues --    4.74525   4.76777   4.77917   4.79913   4.83778
 Alpha virt. eigenvalues --    4.89045  23.39176  23.60102  23.70126  23.77852
 Alpha virt. eigenvalues --   23.78791  23.81196  23.83349  23.84597  23.86957
 Alpha virt. eigenvalues --   23.89139  23.91947  23.94232  23.95478  23.95791
 Alpha virt. eigenvalues --   23.99539  23.99665  24.01565  24.02740  24.05136
 Alpha virt. eigenvalues --   24.06498  24.08382  24.08815  24.09648  24.10426
 Alpha virt. eigenvalues --   24.11288  24.15798  24.18604  24.20626  24.23930
 Alpha virt. eigenvalues --   24.28162
          Condensed to atoms (all electrons):
               1          2          3          4          5          6
     1  C   11.603057  -0.378220   0.166282   0.337796  -0.329930  -0.742576
     2  C   -0.378220  10.867056   1.436262  -1.568046  -1.582983  -1.571980
     3  C    0.166282   1.436262   9.838133  -1.803307  -0.568061  -0.763464
     4  C    0.337796  -1.568046  -1.803307  11.531922   0.399804   2.009360
     5  C   -0.329930  -1.582983  -0.568061   0.399804   9.258998   0.716007
     6  C   -0.742576  -1.571980  -0.763464   2.009360   0.716007  15.981911
     7  C   -2.041776   0.479986   0.102158  -2.971997   1.010503  -3.499724
     8  C   -0.502589  -0.197032  -2.353598   3.421814  -0.820999  -0.782042
     9  C   -0.578573  -0.288149  -0.705074  -1.332062   0.980855  -0.039821
    10  C   -2.170296   0.371315   1.181707  -0.543163  -1.574277  -0.371174
    11  C   -0.217588  -2.321861  -1.649990  -0.230435   2.727579   0.576005
    12  C    0.374146   0.151240   2.739071  -1.658185  -1.123877  -0.212106
    13  C    0.513271   0.409189  -0.556130  -0.079206   0.347245   0.397348
    14  C   -0.231002  -2.893134  -0.739067   2.739067  -0.281186   1.155695
    15  C    2.427994   0.878985   1.038611  -1.990605  -0.980885  -5.169356
    16  C    0.607091   1.643406   1.061251  -0.735450  -1.019835  -0.633542
    17  C   -1.275931  -0.738373  -1.129714  -0.133801  -0.100299   0.366475
    18  C    0.084286   1.115823   0.606508  -0.202116  -0.778587  -0.138359
    19  C    0.768016  -0.170728  -0.129392  -0.111777  -0.181863   0.218512
    20  C   -1.123407  -0.062860  -0.266891   0.188286   0.087842  -0.049843
    21  C   -0.105834  -0.099468  -0.245129  -0.188587  -0.125592  -0.031535
    22  C    0.272286  -1.080788  -1.054296  -0.019827   0.139676   0.082748
    23  C   -0.141112   0.809635  -0.067245  -0.325742   0.035461  -0.200561
    24  C   -1.268414  -0.203909   0.134735   0.343318   0.023269  -0.129026
    25  C   -0.394586   0.032407  -0.085935  -0.006687  -0.038832  -0.043729
    26  C   -0.075967   0.128880  -0.214923   0.048189   0.010130  -0.017215
    27  C    0.381347  -0.140921   0.007862   0.089348   0.052019   0.006608
    28  C   -0.321173  -0.087691   0.007854   0.011123  -0.002665  -0.031879
    29  C   -0.640942   0.170980  -0.196007  -0.114358  -0.102345  -0.690537
    30  C    0.819007   1.154733  -0.111989  -1.056871  -0.523625  -0.608585
    31  H    0.060799   0.071910   0.003676  -0.064908   0.021691  -0.096997
    32  H    0.035445   0.002713   0.003600  -0.018069  -0.000487  -0.005502
    33  H   -0.011717  -0.003152   0.002321   0.016740  -0.001989  -0.028666
    34  H   -0.012538   0.001366  -0.004039   0.053525  -0.008173  -0.092460
    35  H   -0.006654   0.005196  -0.000731  -0.018626   0.029114  -0.059425
    36  H    0.004126  -0.002228  -0.013632  -0.005636   0.028849   0.008590
    37  H    0.003735  -0.002248   0.042574  -0.003401  -0.009038  -0.000529
    38  H   -0.003471  -0.016009  -0.000343   0.005391   0.001092   0.000684
    39  H    0.000327  -0.009193   0.009353  -0.000567   0.000957  -0.000020
    40  H   -0.000577  -0.000258   0.000996  -0.000012   0.000069  -0.000005
    41  H   -0.000254   0.001183  -0.000146   0.000019  -0.000006   0.000001
    42  H    0.000607   0.000433   0.000107   0.000028   0.000024   0.000005
    43  H   -0.001865   0.000022   0.000028  -0.000054   0.000005  -0.000028
    44  H    0.001793  -0.000373  -0.000081   0.000209   0.000006   0.000054
    45  H   -0.007363   0.012527  -0.002286   0.002078  -0.002933  -0.018449
    46  H    0.038502  -0.031293   0.003375  -0.016258   0.005967   0.034751
               7          8          9         10         11         12
     1  C   -2.041776  -0.502589  -0.578573  -2.170296  -0.217588   0.374146
     2  C    0.479986  -0.197032  -0.288149   0.371315  -2.321861   0.151240
     3  C    0.102158  -2.353598  -0.705074   1.181707  -1.649990   2.739071
     4  C   -2.971997   3.421814  -1.332062  -0.543163  -0.230435  -1.658185
     5  C    1.010503  -0.820999   0.980855  -1.574277   2.727579  -1.123877
     6  C   -3.499724  -0.782042  -0.039821  -0.371174   0.576005  -0.212106
     7  C   12.906265   0.445672   0.319554   0.788512  -0.380747  -0.504992
     8  C    0.445672  14.546517  -3.420900  -0.058251  -0.386247  -2.611047
     9  C    0.319554  -3.420900  13.394374   1.402402  -0.943969  -2.333367
    10  C    0.788512  -0.058251   1.402402  13.600710  -3.314962  -1.013154
    11  C   -0.380747  -0.386247  -0.943969  -3.314962  13.718648   0.415739
    12  C   -0.504992  -2.611047  -2.333367  -1.013154   0.415739  11.925406
    13  C    0.096831   0.473569  -0.550283  -0.388850  -0.276201  -0.369736
    14  C   -1.124397   0.224059   0.265252  -0.407218   0.295459  -0.212506
    15  C    0.573466  -1.724942   0.698748   0.015890  -0.200711   0.507717
    16  C   -0.001912  -0.314156  -0.477854  -0.875494  -1.359602   0.421373
    17  C    0.084980  -0.257579   0.040337  -0.000004   0.697151  -0.271223
    18  C   -0.084369   0.170326  -0.402110   0.942041  -1.362389  -0.061741
    19  C    0.032216  -0.011336   0.082821  -0.850193  -0.053018  -0.046826
    20  C    0.007563  -0.041562  -0.045019   0.401195   0.243931  -0.010860
    21  C   -0.000298  -0.002935  -0.027241   0.029322  -0.167138   0.007260
    22  C   -0.014475  -0.015884  -0.085576  -1.140670   0.168345  -0.182780
    23  C   -0.016768  -0.039502   0.017887  -0.186144  -0.030326  -0.015229
    24  C   -0.014714  -0.014471   0.027697   0.243649   0.075716  -0.007066
    25  C   -0.004262  -0.000523  -0.002740   0.001653  -0.000964   0.000960
    26  C   -0.005676   0.001439  -0.010848  -0.062558   0.007025  -0.003503
    27  C   -0.016363   0.005973  -0.001167  -0.008455   0.006059  -0.002760
    28  C   -0.032383  -0.000040   0.001902   0.009267   0.002069  -0.001191
    29  C   -0.293926   0.022408  -0.026249  -0.071012  -0.013552   0.008000
    30  C   -0.303275  -0.057855  -0.014133  -0.096870  -0.163391   0.073459
    31  H   -0.039821  -0.019554  -0.010777   0.007059  -0.001293   0.000803
    32  H    0.022080   0.000667   0.000611  -0.000158  -0.000129   0.000142
[...]
 357,0.00000787,0.00000324,0.00004154,-0.00001372,-0.00000836,0.0000004
 1,-0.00000584,-0.00000765,0.00000026,-0.00001018,0.00000183,0.00000008
 ,-0.00000946,0.00000250,0.00000011,-0.00000041,0.00000662,-0.00000011,
 -0.00000755,0.00001107,-0.00000023,0.00000130,0.00000677,-0.00000013,0
 .00000610,0.00002598,-0.00000048,-0.00002917,0.00006713,-0.00000091,0.
 00130594,0.00015052,-0.00001617,0.35269546,-0.00012116,0.00001895,0.00
 000122,-0.00003955,-0.00005480,0.00000225,-0.00000999,0.00004533,-0.00
 000086,0.00007940,0.00000352,-0.00000104,-0.00005006,0.00002956,0.0000
 0039,-0.00004950,-0.00002306,0.00000148,0.00001151,0.00001850,-0.00000
 012,-0.00002474,-0.00001577,0.00000062,0.00005878,-0.00002706,-0.00000
 041,0.00003755,-0.00000306,-0.00000036,-0.00004791,-0.00000663,0.00000
 090,0.00001023,0.00005463,-0.00000137,0.00009285,0.00013832,-0.0000086
 0,-0.00009005,-0.00005236,0.00000434,0.00002502,0.00009089,-0.00000443
 ,-0.00004492,-0.00039148,0.00000435,0.00016101,-0.00001155,-0.00000128
 ,-0.00004920,-0.00004361,0.00000148,0.00132840,0.00039412,-0.00002492,
 -0.00003388,0.00002228,0.00000324,-0.00007291,0.00001002,0.00000107,-0
 .00001408,-0.00001727,0.00000020,0.00034941,-0.00449374,0.00013284,0.0
 2615307,0.00026551,-0.00035007,0.00337375,-0.00012597,-0.00006903,-0.0
 0025673,-0.00002698,0.00000163,-0.00252801,-0.05563121,0.00037870,-0.0
 3092289,0.00321561,0.00048240,-0.00067240,-0.00397962,0.00033618,-0.00
 006449,-0.00051047,0.00000797,-0.00000412,0.00003728,-0.00009045,-0.00
 000208,0.00003803,0.00008672,-0.00000834,-0.00000468,0.00000027,-0.000
 00258,-0.00000110,0.00000009,-0.00000076,0.00000271,-0.00000009,0.0000
 0004,0.00000153,0.,-0.00000106,0.00000038,0.00000003,0.00001363,-0.000
 00299,-0.00000030,-0.00000473,0.00000139,0.00000007,0.00000378,-0.0000
 2523,0.00000063,0.00000447,-0.00001814,0.00000033,-0.00060679,-0.00130
 111,0.00004331,0.00512881,0.06168417,0.00000202,0.00000035,-0.00000858
 ,0.00000066,0.00000128,0.00002840,0.00000024,-0.00000171,-0.00000455,-
 0.00000035,-0.00000075,0.00000992,0.00000084,0.00000079,0.00001263,0.0
 0000104,0.00000129,0.00001442,-0.00000024,-0.00000019,0.00002079,0.000
 00034,-0.00000003,-0.00000298,-0.00000035,-0.00000001,-0.00000472,-0.0
 0000028,0.00000048,0.00000661,0.00000093,-0.00000029,0.00000328,-0.000
 00054,-0.00000064,-0.00000586,-0.00000416,-0.00000708,-0.00022111,0.00
 000415,0.00000428,0.00009771,-0.00000177,-0.00000446,-0.00011101,-0.00
 000297,0.00000050,-0.00020834,-0.00000094,0.00000111,0.00004192,0.0000
 0023,0.00000052,-0.00000570,-0.00001457,0.00000100,0.00012299,-0.00000
 102,0.00000514,0.00015850,0.00000070,-0.00000017,0.00001022,-0.0000004
 6,-0.00000024,-0.00001748,0.00001619,0.00010857,0.00235678,-0.00030940
 ,0.00006186,0.00190706,-0.00008747,0.00002754,-0.00109989,-0.00000381,
 -0.00000945,-0.00013235,0.00432581,0.00035807,-0.03872552,0.00089188,0
 .00000485,0.00466623,0.00016947,0.00036126,0.01222662,-0.00001000,0.00
 000496,-0.00016110,0.00001302,0.00006814,-0.00005643,-0.00001479,-0.00
 007207,-0.00005800,0.00000041,0.00000027,0.00000269,0.00000016,0.00000
 017,0.00000160,0.00000013,-0.00000013,-0.00000246,0.00000016,-0.000000
 04,0.00000157,0.00000004,-0.00000009,0.00000095,-0.00000028,-0.0000002
 6,-0.00000804,0.00000010,-0.00000010,0.00000155,-0.00000004,0.00000031
 ,0.00000889,0.00000036,-0.00000059,0.00000141,-0.00000093,0.00003222,0
 .00040839,-0.00489283,-0.00080003,0.02575629,-0.00042984,-0.00046894,0
 .00002187,0.00006017,0.00000189,-0.00000133,-0.00001445,0.00014380,-0.
 00000274,-0.00016913,0.00022985,-0.00000245,-0.00002303,-0.00014646,0.
 00000214,0.00004023,0.00001444,0.00000008,0.00005608,0.00000990,-0.000
 00092,0.00000185,0.00004580,-0.00000114,-0.00004428,0.00002692,0.00000
 021,-0.00001269,-0.00005802,0.00000131,-0.00003991,0.00005067,-0.00000
 047,0.00002528,0.00000169,-0.00000020,-0.00081119,0.00211218,-0.000029
 87,0.00003098,0.00012732,-0.00000746,-0.00001289,-0.00010389,0.0000019
 6,-0.00002819,-0.00007774,0.00000155,-0.00003571,-0.00000238,0.0000007
 9,0.00003512,0.00000976,-0.00000065,0.00012446,0.00006843,-0.00001848,
 0.00001326,0.00003404,0.00000090,0.00005502,0.00004227,-0.00000014,-0.
 00000340,-0.00005448,0.00000086,-0.00049772,-0.00055116,0.00001251,-0.
 00114660,-0.00237039,0.00022436,0.00053300,-0.00055384,0.00000114,-0.0
 0014771,-0.00006874,-0.00000748,0.01139421,-0.01635365,0.00025777,-0.1
 2035157,0.11749113,-0.00113289,-0.01019111,0.02823729,-0.00039890,-0.0
 0396962,-0.00373593,0.00016059,0.00004720,0.00000558,0.00004893,0.0000
 4293,0.00000140,-0.00004907,-0.00004397,-0.00001192,0.00000036,-0.0000
 1091,-0.00000741,0.00000028,-0.00000963,0.00000342,0.00000008,-0.00000
 790,0.00000695,0.,-0.00000087,0.00000436,-0.00000004,0.00000045,0.0000
 0781,0.00000002,0.00000270,0.00000608,-0.00000021,0.00000221,0.0000046
 5,-0.00000014,0.00001555,-0.00007678,0.00000186,-0.00003549,0.00001390
 ,0.00000317,0.00099445,0.00026693,-0.00011719,0.12311845,-0.00005581,-
 0.00001584,0.00000955,0.00001352,0.00000009,-0.00000077,0.00000380,-0.
 00002154,0.00000031,0.00003167,-0.00003131,-0.00000025,-0.00000352,0.0
 0003495,-0.00000223,-0.00001565,0.00002736,0.00000100,-0.00000020,-0.0
 0000898,0.00000032,-0.00001074,-0.00000578,0.00000001,0.00002871,-0.00
 002680,0.00000026,0.00002204,0.00001534,-0.00000069,-0.00000668,-0.000
 01067,0.00000027,-0.00000068,0.00002275,-0.00000017,-0.00000793,0.0000
 4628,0.00000023,0.00000840,0.00002758,-0.00000678,0.00003486,-0.000014
 22,-0.00000067,-0.00006228,-0.00001719,0.00000068,0.00004286,-0.000032
 53,0.00000033,-0.00002659,0.00000607,0.00000035,0.00016890,0.00003850,
 -0.00002424,-0.00005002,0.00004945,0.00000219,0.00001914,0.00002510,0.
 00000130,0.00000382,-0.00002061,-0.00000004,-0.00024548,0.00008127,-0.
 00000610,-0.00434141,-0.00110506,0.00030545,0.00104299,-0.00099194,0.0
 0000167,-0.00040779,-0.00027744,-0.00000359,0.01649222,-0.02057166,0.0
 0030374,0.11369901,-0.26989902,0.00303636,-0.00246653,0.00365242,-0.00
 000969,-0.00110063,0.00117614,0.00002985,0.00000681,-0.00000301,0.0000
 2529,0.00000220,-0.00000703,-0.00002342,0.00000848,0.00000667,-0.00000
 097,0.00000395,0.00000559,-0.00000021,0.00000748,-0.00000014,-0.000000
 10,0.00000663,-0.00000118,-0.00000003,0.00000113,-0.00000506,0.0000001
 3,0.00000177,-0.00000601,0.00000034,0.00000695,-0.00000637,-0.00000004
 ,-0.00000615,-0.00000046,0.00000009,0.00004519,-0.00014233,0.00000295,
 -0.00006859,0.00001224,0.00000479,-0.00030034,0.00090184,-0.00014737,-
 0.12375550,0.28658427,0.00001355,0.00001560,0.00041755,-0.00000157,-0.
 00000060,-0.00002807,0.00000008,-0.00000175,-0.00000353,0.00000154,-0.
 00000315,-0.00002047,-0.00000074,-0.00000014,-0.00007837,0.00000069,0.
 00000056,0.00006564,-0.00000072,0.00000017,0.00000692,0.,-0.00000082,-
 0.00001298,0.00000017,0.00000028,0.00000679,-0.00000030,0.00000049,-0.
 00000277,0.00000069,-0.00000057,-0.00000218,-0.00000015,-0.00000020,0.
 00001405,0.00001280,-0.00003083,0.00005243,-0.00000507,-0.00000853,-0.
 00030299,-0.00000084,0.00000136,-0.00002218,0.00000124,0.00000090,-0.0
 0002899,-0.00000012,0.00000099,0.00001495,0.00000008,-0.00000018,0.000
 00429,-0.00002049,-0.00002279,-0.00104231,0.00000259,0.00000096,0.0001
 2169,0.00000032,0.00000096,0.00010343,-0.00000032,0.00000082,-0.000019
 75,0.00000634,-0.00000163,-0.00040093,0.00026398,0.00027665,0.01090527
 ,-0.00003099,0.00002503,-0.00015055,-0.00000066,-0.00000858,-0.0007526
 9,-0.00040319,0.00078483,0.00651276,-0.00105666,0.00298081,-0.03631276
 ,0.00021913,-0.00045948,0.00138153,0.00010751,0.00006851,0.00185510,0.
 00009675,0.00007635,0.00004075,-0.00009693,-0.00007444,0.00004904,-0.0
 0000005,-0.00000067,-0.00003539,0.00000005,-0.00000004,-0.00000200,0.,
 -0.00000004,0.00000027,0.00000001,-0.00000003,0.00000220,0.00000002,0.
 00000008,0.00000228,0.00000014,0.00000025,0.00001225,-0.00000023,-0.00
 000002,-0.00000311,0.00000008,-0.00000007,-0.00000070,-0.00000060,0.00
 000473,0.00003684,0.00000483,0.00000358,0.00020007,-0.00010577,-0.0001
 5570,-0.00663525,0.00102690,-0.00348800,0.02324839,0.00191196,-0.00132
 360,0.00070849,0.00011876,0.00038668,-0.00000597,0.00015108,0.00024941
 ,-0.00001663,-0.00200876,-0.00069737,-0.00009183,0.00020290,-0.0006545
 8,-0.00003862,-0.00016758,0.00209288,0.00053075,0.00054354,-0.00024096
 ,0.00005463,0.00015037,0.00077417,-0.00008071,-0.00038443,-0.00057009,
 0.00003603,0.00024211,-0.00009652,-0.00000356,-0.00041288,-0.00008470,
 0.00000437,0.00013935,0.00042254,0.00000262,-0.00484000,0.00140886,-0.
 00060094,-0.00473746,0.00361678,-0.00432647,0.00206637,-0.00084397,-0.
 00017955,0.00003179,-0.00006052,-0.00003118,0.00006949,-0.00005045,-0.
 00004267,-0.00008678,-0.00005473,0.00000774,-0.00001478,0.00055801,0.0
 0029141,-0.00032280,-0.00012736,0.00002904,0.00012241,0.00008262,-0.00
 001263,-0.00005454,-0.00017247,0.00000702,-0.00143794,0.00007735,0.000
 02721,0.00045454,-0.00054206,0.00092581,0.00028062,0.00028809,-0.00006
 319,0.00036997,-0.00029201,0.00005934,-0.00428121,0.00360881,-0.000040
 95,-0.01598344,-0.02030755,0.02740257,-0.06280449,-0.03135411,0.059459
 44,0.00695480,0.00524053,-0.01043912,0.00039148,-0.00127402,0.00204907
 ,0.00053723,-0.00061471,0.00047346,0.00010184,-0.00000048,-0.00012445,
 0.00000162,-0.00000739,-0.00000152,-0.00000631,0.00000949,-0.00000752,
 0.00000159,0.00001083,0.00000004,0.00000351,-0.00000572,0.00000144,-0.
 00000101,0.00000223,0.00000668,0.00000951,0.00000038,0.00000249,-0.000
 00668,-0.00000331,-0.00000846,0.00000209,-0.00003505,0.00000497,0.0000
 5018,0.00005103,-0.00006493,-0.00050165,-0.00073334,-0.00223021,0.0007
 2002,0.00059848,-0.00084850,0.08013212,0.00140699,-0.00058664,-0.00076
 333,-0.00002038,0.00008708,0.00004943,0.00006614,-0.00028711,0.0000049
 8,-0.00082034,-0.00085246,0.00001663,0.00003008,0.00016240,0.00019678,
 -0.00070838,0.00135210,0.00008069,0.00030266,-0.00021253,0.00006622,-0
 .00002261,0.00041813,-0.00002166,-0.00016616,-0.00051271,0.00000869,0.
 00026401,0.00020994,-0.00004080,-0.00009846,-0.00028597,0.00000776,-0.
 00006218,0.00026762,-0.00003422,-0.00376009,-0.00158602,-0.00076418,-0
 .00237127,0.00246398,-0.00068499,0.00188211,-0.00030146,-0.00052526,-0
 .00012197,0.00015658,0.00008141,0.00022252,-0.00002972,-0.00000733,-0.
 00025765,-0.00002011,0.00000729,-0.00041137,-0.00022776,0.00006116,-0.
 00041643,-0.00024659,-0.00004921,-0.00004540,-0.00023903,-0.00012606,-
 0.00013970,0.00004020,0.00001403,0.00297720,-0.00170996,0.00114564,0.0
 0017900,-0.00181796,0.00018112,0.00019509,0.00131288,0.00000053,0.0005
 6233,-0.00074565,0.00004820,0.00021352,0.00318734,0.00036676,-0.006694
 29,-0.00126589,0.00030625,-0.03197201,-0.09924540,0.09795237,-0.002183
 34,-0.02139840,0.01981181,0.00123848,-0.00021763,0.00089189,0.00056352
 ,0.00015820,-0.00013330,-0.00002922,-0.00001106,0.00005304,0.00001185,
 0.00000514,0.00000956,0.00001627,0.00000671,-0.00000755,0.00001568,-0.
 00001032,-0.00000129,-0.00000642,-0.00000471,0.00001128,-0.00000186,-0
 .00001590,-0.00000691,-0.00000320,-0.00000860,0.00001460,0.00000444,-0
 .00002423,0.00001771,0.00000412,-0.00000477,-0.00002067,-0.00003854,-0
 .00001814,-0.00002179,-0.00015992,-0.00010501,-0.00006484,-0.00027520,
 0.00024966,-0.00022785,0.03732652,0.11534108,-0.00118198,0.00025391,-0
 .00067960,-0.00001318,-0.00013161,-0.00001471,-0.00002580,0.00010004,0
 .,0.00057116,0.00070561,-0.00001351,-0.00006937,-0.00008503,0.00001566
 ,0.00080459,-0.00093781,-0.00038007,-0.00030205,0.00008113,-0.00010972
 ,0.00009192,-0.00031664,0.00004683,0.00012872,0.00039355,-0.00001887,-
 0.00016538,-0.00013456,0.00003368,0.00007663,0.00016472,-0.00000372,0.
 00001885,-0.00020013,0.00000404,0.00241381,0.00141815,0.00259839,0.002
 80737,-0.00145426,0.00225881,-0.00148358,-0.00041408,0.00083186,0.0001
 4023,-0.00008906,-0.00001841,-0.00008462,0.00008844,0.00001448,0.00016
 377,-0.00000810,-0.00000781,-0.00018836,-0.00014355,-0.00010755,0.0002
 0112,0.00006238,0.00005337,-0.00003518,0.00003011,-0.00001821,0.000048
 40,0.00003547,0.00000589,-0.00027962,-0.00069522,-0.00117826,-0.000156
 76,0.00045903,-0.00010165,-0.00013132,-0.00046760,0.00000481,-0.000296
 84,0.00022840,0.00003096,0.00001275,-0.00183232,-0.00020641,0.00186573
 ,-0.00068449,0.00266079,0.05692776,0.09584348,-0.19129480,-0.00347528,
 0.00111017,0.00361399,-0.00202983,0.00048209,-0.00056738,0.00048135,0.
 00023172,-0.00218201,-0.00001430,0.00003324,0.00008591,-0.00000284,0.0
 0000293,-0.00000171,-0.00000493,-0.00001803,0.00001471,-0.00000895,0.0
 0000646,-0.00000029,0.00000450,0.00000028,-0.00000792,0.00000324,0.000
 00410,-0.00000137,-0.00000096,-0.00000071,-0.00000163,0.00000108,0.000
 00012,0.00000448,-0.00000299,0.00001096,-0.00000175,-0.00000548,-0.000
 01168,-0.00001956,-0.00011747,-0.00000816,-0.00016261,0.00069030,0.000
 00807,0.00040828,-0.06459523,-0.10527574,0.21202492,0.00192354,-0.0013
 5952,-0.00073110,0.00011899,0.00039016,-0.00001364,0.00015201,0.000246
 92,0.00000224,-0.00202018,-0.00071178,0.00017944,0.00020627,-0.0006499
 2,0.00005937,-0.00020768,0.00209526,-0.00062061,0.00055019,-0.00024556
 ,-0.00006408,0.00014950,0.00078545,0.00004610,-0.00038850,-0.00058184,
 -0.00000177,0.00024677,-0.00009254,0.00000102,-0.00041479,-0.00008918,
 0.00001128,0.00013839,0.00042753,-0.00002382,-0.00488533,0.00139663,0.
 00076419,-0.00468774,0.00383295,0.00437876,0.00211338,-0.00082369,0.00
 017503,0.00002866,-0.00005672,0.00003217,0.00007307,-0.00005127,0.0000
 4304,-0.00009155,-0.00005468,-0.00000308,-0.00001796,0.00054981,-0.000
 31639,-0.00032889,-0.00012979,-0.00001266,0.00012367,0.00008218,0.0000
 0509,-0.00005592,-0.00017356,0.00000180,-0.00143211,0.00009700,-0.0000
 2302,0.00043178,-0.00059136,-0.00091824,0.00028579,0.00030301,0.000042
 79,0.00037647,-0.00030046,-0.00005738,-0.00427923,0.00366000,0.0000131
 2,-0.01680797,-0.02135107,-0.02599364,-0.06628137,-0.03663802,-0.06163
 976,0.00735784,0.00563451,0.01012253,0.00050702,-0.00064278,-0.0005269
 0,0.00039011,-0.00136975,-0.00202304,0.00010590,0.00000359,0.00012386,
 0.00000174,-0.00000741,0.00000172,-0.00000594,0.00001033,0.00000771,0.
 00000183,0.00001063,-0.00000053,0.00000333,-0.00000579,-0.00000153,-0.
 00000130,0.00000185,-0.00000677,0.00000946,0.00000030,-0.00000282,-0.0
 0000645,-0.00000295,0.00000891,0.00000204,-0.00003552,-0.00000367,0.00
 005218,0.00005388,0.00006069,-0.00043215,-0.00064237,0.00226574,0.0007
 2419,0.00063154,0.00081436,0.00229148,0.00330388,0.00721901,0.08397945
 ,0.00147356,-0.00056636,0.00071631,-0.00002141,0.00008999,-0.00005304,
 0.00006702,-0.00029105,0.00000477,-0.00084108,-0.00087925,0.00004282,0
 .00002686,0.00015804,-0.00020341,-0.00074338,0.00138298,-0.00012964,0.
 00031217,-0.00021833,-0.00007099,-0.00002594,0.00043068,0.00000691,-0.
 00017086,-0.00052765,0.00001684,0.00027131,0.00021660,0.00002548,-0.00
 010125,-0.00029234,0.00000684,-0.00006210,0.00027641,0.00002508,-0.003
 82321,-0.00160411,0.00104559,-0.00245732,0.00254887,0.00074305,0.00195
 475,-0.00026252,0.00051217,-0.00012999,0.00015672,-0.00008472,0.000225
 86,-0.00003302,0.00000261,-0.00026409,-0.00001987,0.00000094,-0.000405
 04,-0.00022433,-0.00004445,-0.00042218,-0.00024631,0.00007371,-0.00004
 019,-0.00023484,0.00013602,-0.00014187,0.00003834,-0.00001118,0.002951
 72,-0.00172898,-0.00121045,0.00018047,-0.00184071,-0.00011589,0.000199
 18,0.00132929,-0.00005978,0.00057245,-0.00075571,-0.00003326,0.0002023
 6,0.00323855,-0.00051166,-0.00675621,-0.00122774,0.00006460,-0.0372151
 6,-0.10714583,-0.10025850,-0.00260809,-0.02220111,-0.01871009,0.000544
 41,0.00015048,0.00002369,0.00129173,-0.00027341,-0.00094080,-0.0000301
 2,-0.00001435,-0.00004820,0.00001167,0.00000462,-0.00001017,0.00001669
 ,0.00000774,0.00000734,0.00001607,-0.00001053,0.00000123,-0.00000694,-
 0.00000517,-0.00001119,-0.00000177,-0.00001577,0.00000755,-0.00000358,
 -0.00000915,-0.00001420,0.00000390,-0.00002491,-0.00001665,0.00000484,
 -0.00000436,0.00002065,-0.00003768,-0.00001681,0.00002276,-0.00015297,
 -0.00010170,0.00006557,-0.00029606,0.00025856,0.00024216,0.00334137,0.
 00657274,0.01115424,0.04309013,0.12391557,0.00104737,-0.00021940,-0.00
 071144,0.00001005,0.00011600,-0.00001787,0.00001872,-0.00009561,0.0000
 0303,-0.00047846,-0.00064982,0.00002466,0.00006271,0.00009836,0.000016
 66,-0.00078089,0.00080618,-0.00037083,0.00027041,-0.00006976,-0.000110
 57,-0.00009415,0.00027832,0.00003514,-0.00011087,-0.00035607,0.0000001
 4,0.00014825,0.00012986,0.00002235,-0.00006045,-0.00015049,0.00000456,
 -0.00002043,0.00017670,-0.00000379,-0.00204137,-0.00128897,0.00266177,
 -0.00250776,0.00133241,0.00212409,0.00136816,0.00048163,0.00074593,-0.
 00013654,0.00008379,-0.00001542,0.00007392,-0.00008511,0.00001420,-0.0
 0015081,0.00001029,-0.00000328,0.00020212,0.00013208,-0.00010779,-0.00
 017302,-0.00004641,0.00005918,0.00003269,-0.00002382,-0.00002366,-0.00
 004088,-0.00003167,0.00000914,0.00016795,0.00071469,-0.00116501,0.0001
 3424,-0.00037186,-0.00005615,0.00011487,0.00040544,-0.00001673,0.00026
 401,-0.00018815,0.00003448,0.00009740,0.00158696,-0.00025963,-0.001024
 46,0.00146867,0.00344749,-0.05908425,-0.09816722,-0.17991831,0.0034740
 2,-0.00023790,0.00401370,-0.00058241,-0.00030668,-0.00214399,0.0019516
 5,-0.00045513,-0.00051021,0.00001495,-0.00002932,0.00008514,0.00000228
 ,-0.00000297,-0.00000132,0.00000486,0.00001802,0.00001332,0.00000825,-
 0.00000637,-0.00000032,-0.00000455,-0.00000022,-0.00000728,-0.00000317
 ,-0.00000358,-0.00000122,0.00000078,0.00000100,-0.00000103,-0.00000092
 ,0.00000115,0.00000493,0.00000269,-0.00000982,-0.00000212,0.00000490,0
 .00000999,-0.00002288,0.00013163,0.00002448,-0.00023545,-0.00068819,-0
 .00002016,0.00039520,-0.00822978,-0.01262885,-0.02761233,0.06660448,0.
 10756932,0.19960354\\0.00000023,-0.00000080,0.00000006,0.00000003,0.00
 000009,-0.00000011,-0.00000061,-0.00000112,0.00000013,0.00000091,-0.00
 000090,-0.00000023,-0.00000050,-0.00000110,0.00000012,0.00000062,-0.00
 000239,0.00000012,0.00000131,-0.00000214,-0.00000001,0.00000055,-0.000
 00266,0.00000004,-0.00000041,-0.00000220,-0.00000002,-0.00000131,-0.00
 000091,0.00000002,-0.00000144,-0.00000202,0.00000008,-0.00000082,-0.00
 000240,0.00000009,0.00000106,0.00000027,-0.00000010,0.00000058,0.00000
 001,0.00000033,0.00000300,-0.00000057,0.00000011,-0.00000111,0.0000004
 6,-0.00000012,-0.00000150,-0.00000013,-0.00000004,-0.00000187,-0.00000
 080,0.00000009,-0.00000023,0.00000052,0.00000005,-0.00000137,0.0000015
 5,-0.00000003,-0.00000185,0.00000130,-0.00000005,-0.00000203,0.0000006
 0,0.00000006,0.00000023,0.00000166,0.00000041,-0.00000003,0.00000170,-
 0.00000008,-0.00000020,0.00000254,-0.00000012,-0.00000097,0.00000199,0
 .,0.00000091,0.00000236,-0.00000004,0.00000130,0.00000193,-0.00000002,
 0.00000200,0.00000152,-0.00000043,0.00000090,0.00000051,-0.00000012,0.
 00000212,-0.00000023,0.00000007,0.00000213,-0.00000033,-0.00000031,0.0
 0000207,-0.00000133,-0.00000015,0.00000151,-0.00000256,0.00000004,0.00
 000043,-0.00000318,0.00000008,-0.00000105,-0.00000297,0.00000007,-0.00
 000202,-0.00000221,0.00000006,-0.00000236,-0.00000077,0.00000006,-0.00
 000261,0.00000045,0.00000002,-0.00000228,0.00000169,-0.00000002,-0.000
 00147,0.00000255,-0.00000005,-0.00000025,0.00000301,0.,0.00000091,0.00
 000291,-0.00000004,0.00000208,0.00000232,-0.00000014,0.00000178,0.0000
 0091,0.00000011,0.00000163,0.00000092,0.00000002\\\@


 ADAM SMITH SAID, "THE REAL PRICE OF ANYTHING IS THE TOIL AND TROUBLE
 OF ACQUIRING IT."  BUT IN ALL UNDERTAKINGS WITH NATURE WE SHOULD FIRST
 READ CAREFULLY THE SMALL PRINT IN THE CONTRACT. THIS MIGHT DISCLOSE
 THAT THE REAL PRICE IS TO BE PAID BY THOSE WHO INHERIT THE DEPLETION
 AND DESPOILATION THAT FOLLOWS.
                               -- E. R. HARRISON IN "COSMOLOGY" (1980)
 Job cpu time:       0 days 20 hours 50 minutes 49.7 seconds.
 Elapsed time:       0 days  1 hours  2 minutes 43.0 seconds.
 File lengths (MBytes):  RWF=   2276 Int=      0 D2E=      0 Chk=     47 Scr=      1
 Normal termination of Gaussian 16 at Wed Aug 14 16:17:27 2019.
