 Entering Gaussian System, Link 0=/share/apps/gaussian16/g16/g16
 Initial command:
 /share/apps/gaussian16/g16/l1.exe "/home/amen01//scratch/627/Gau-20405.inp" -scrdir="/home/amen01//scratch/627/"
 Entering Link 1 = /share/apps/gaussian16/g16/l1.exe PID=     20406.
  
 Copyright (c) 1988-2017, Gaussian, Inc.  All Rights Reserved.
  
 This is part of the Gaussian(R) 16 program.  It is based on
 the Gaussian(R) 09 system (copyright 2009, Gaussian, Inc.),
 the Gaussian(R) 03 system (copyright 2003, Gaussian, Inc.),
 the Gaussian(R) 98 system (copyright 1998, Gaussian, Inc.),
 the Gaussian(R) 94 system (copyright 1995, Gaussian, Inc.),
 the Gaussian 92(TM) system (copyright 1992, Gaussian, Inc.),
 the Gaussian 90(TM) system (copyright 1990, Gaussian, Inc.),
 the Gaussian 88(TM) system (copyright 1988, Gaussian, Inc.),
 the Gaussian 86(TM) system (copyright 1986, Carnegie Mellon
 University), and the Gaussian 82(TM) system (copyright 1983,
 Carnegie Mellon University). Gaussian is a federally registered
 trademark of Gaussian, Inc.
  
 This software contains proprietary and confidential information,
 including trade secrets, belonging to Gaussian, Inc.
  
 This software is provided under written license and may be
 used, copied, transmitted, or stored only in accord with that
 written license.
  
 The following legend is applicable only to US Government
 contracts under FAR:
  
                    RESTRICTED RIGHTS LEGEND
  
 Use, reproduction and disclosure by the US Government is
 subject to restrictions as set forth in subparagraphs (a)
 and (c) of the Commercial Computer Software - Restricted
 Rights clause in FAR 52.227-19.
  
 Gaussian, Inc.
 340 Quinnipiac St., Bldg. 40, Wallingford CT 06492
  
  
 ---------------------------------------------------------------
 Warning -- This program may not be used in any manner that
 competes with the business of Gaussian, Inc. or will provide
 assistance to any competitor of Gaussian, Inc.  The licensee
 of this program is prohibited from giving any competitor of
 Gaussian, Inc. access to this program.  By using this program,
 the user acknowledges that Gaussian, Inc. is engaged in the
 business of creating and licensing software in the field of
 computational chemistry and represents and warrants to the
 licensee that it is not a competitor of Gaussian, Inc. and that
 it will not use this program in any manner prohibited above.
 ---------------------------------------------------------------
  

 Cite this work as:
 Gaussian 16, Revision B.01,
 M. J. Frisch, G. W. Trucks, H. B. Schlegel, G. E. Scuseria, 
 M. A. Robb, J. R. Cheeseman, G. Scalmani, V. Barone, 
 G. A. Petersson, H. Nakatsuji, X. Li, M. Caricato, A. V. Marenich, 
 J. Bloino, B. G. Janesko, R. Gomperts, B. Mennucci, H. P. Hratchian, 
 J. V. Ortiz, A. F. Izmaylov, J. L. Sonnenberg, D. Williams-Young, 
 F. Ding, F. Lipparini, F. Egidi, J. Goings, B. Peng, A. Petrone, 
 T. Henderson, D. Ranasinghe, V. G. Zakrzewski, J. Gao, N. Rega, 
 G. Zheng, W. Liang, M. Hada, M. Ehara, K. Toyota, R. Fukuda, 
 J. Hasegawa, M. Ishida, T. Nakajima, Y. Honda, O. Kitao, H. Nakai, 
 T. Vreven, K. Throssell, J. A. Montgomery, Jr., J. E. Peralta, 
 F. Ogliaro, M. J. Bearpark, J. J. Heyd, E. N. Brothers, K. N. Kudin, 
 V. N. Staroverov, T. A. Keith, R. Kobayashi, J. Normand, 
 K. Raghavachari, A. P. Rendell, J. C. Burant, S. S. Iyengar, 
 J. Tomasi, M. Cossi, J. M. Millam, M. Klene, C. Adamo, R. Cammi, 
 J. W. Ochterski, R. L. Martin, K. Morokuma, O. Farkas, 
 J. B. Foresman, and D. J. Fox, Gaussian, Inc., Wallingford CT, 2016.
 
 ******************************************
 Gaussian 16:  ES64L-G16RevB.01 20-Dec-2017
                25-Jun-2019 
 ******************************************
 %nprocshared=20
 Will use up to   20 processors via shared memory.
 %mem=100GB
 %chk=7-memb2-hadd-4a.chk
 -------------------------------------------
 # opt freq b3lyp/6-311+g(d,p) int=grid=fine
 -------------------------------------------
 1/18=20,19=15,26=3,38=1/1,3;
 2/9=110,12=2,17=6,18=5,40=1/2;
 3/5=4,6=6,7=111,11=2,25=1,30=1,71=1,74=-5,75=-4/1,2,3;
 4//1;
 5/5=2,38=5/2;
 6/7=2,8=2,9=2,10=2,28=1/1;
 7//1,2,3,16;
 1/18=20,19=15,26=3/3(2);
 2/9=110/2;
 99//99;
 2/9=110/2;
 3/5=4,6=6,7=111,11=2,25=1,30=1,71=1,74=-5,75=-4/1,2,3;
 4/5=5,16=3,69=1/1;
 5/5=2,38=5/2;
 7//1,2,3,16;
 1/18=20,19=15,26=3/3(-5);
 2/9=110/2;
 6/7=2,8=2,9=2,10=2,19=2,28=1/1;
 99/9=1/99;
 ---------------
 7-memb2-hadd-4a
 ---------------
 Symbolic Z-matrix:
 Charge =  0 Multiplicity = 1
 C                    -3.94849   0.28806  -0.44651 
 C                    -2.53608   0.08384  -0.25092 
 C                    -2.41419  -1.35196  -0.04305 
 C                    -4.63286  -0.99309  -0.19206 
 C                    -3.71751  -1.94662  -0.00063 
 C                    -6.03838  -1.26222   0.08064 
 C                    -6.41774  -2.65927   0.37771 
 C                    -5.46629  -3.6247    0.53173 
 C                    -4.03626  -3.28736   0.40784 
 C                    -1.3164   -2.06263   0.24292 
 C                    -1.57201  -3.48843   0.53453 
 C                    -2.95061  -4.06339   0.6502 
 C                    -4.73451   1.55109  -0.50844 
 C                    -6.10835   1.06617  -0.15612 
 C                    -6.82727  -0.16087   0.09126 
 C                    -1.4948    0.91879  -0.1391 
 C                    -0.15674   0.20932   0.00527 
 C                    -0.09963  -1.25914   0.2477 
 C                    -1.61211   2.40904  -0.15493 
 C                    -0.29472   3.12268  -0.36997 
 C                     0.9385    2.34009  -0.40864 
 C                     0.97896   0.92135  -0.12264 
 C                    -2.75371   3.13867   0.09549 
 C                    -2.62192   4.63459   0.12527 
 C                    -1.40967   5.25462  -0.36698 
 C                    -0.21923   4.46042  -0.51212 
 C                    -3.62317   5.39075   0.62129 
 C                    -4.81699   4.80516   1.20017 
 C                    -5.06833   3.49084   1.10079 
 C                    -4.13904   2.62829   0.36629 
 H                    -4.75659   1.90778  -1.54636 
 H                    -7.88809  -0.16929   0.30196 
 H                    -7.47105  -2.89236   0.49046 
 H                    -5.73823  -4.64753   0.76736 
 H                    -3.03861  -5.09391   0.9753 
 H                    -0.73154  -4.12851   0.77812 
 H                     0.85157  -1.74239   0.43339 
 H                     1.95755   0.45942  -0.04098 
 H                     1.8838    2.83921  -0.5961 
 H                     0.71973   4.98081  -0.66693 
 H                    -1.33882   6.33113  -0.46806 
 H                    -3.54918   6.47362   0.65911 
 H                    -5.49767   5.46204   1.73255 
 H                    -5.95582   3.05976   1.55172 
 

 GradGradGradGradGradGradGradGradGradGradGradGradGradGradGradGradGradGrad
 Berny optimization.
 Initialization pass.
                           ----------------------------
                           !    Initial Parameters    !
                           ! (Angstroms and Degrees)  !
 --------------------------                            --------------------------
 ! Name  Definition              Value          Derivative Info.                !
 --------------------------------------------------------------------------------
 ! R1    R(1,2)                  1.4404         estimate D2E/DX2                !
 ! R2    R(1,4)                  1.4746         estimate D2E/DX2                !
 ! R3    R(1,13)                 1.4889         estimate D2E/DX2                !
 ! R4    R(2,3)                  1.4559         estimate D2E/DX2                !
 ! R5    R(2,16)                 1.3394         estimate D2E/DX2                !
 ! R6    R(3,5)                  1.4332         estimate D2E/DX2                !
 ! R7    R(3,10)                 1.3386         estimate D2E/DX2                !
 ! R8    R(4,5)                  1.3356         estimate D2E/DX2                !
 ! R9    R(4,6)                  1.4568         estimate D2E/DX2                !
 ! R10   R(5,9)                  1.4374         estimate D2E/DX2                !
 ! R11   R(6,7)                  1.4778         estimate D2E/DX2                !
 ! R12   R(6,15)                 1.3548         estimate D2E/DX2                !
 ! R13   R(7,8)                  1.3642         estimate D2E/DX2                !
 ! R14   R(7,33)                 1.0847         estimate D2E/DX2                !
 ! R15   R(8,9)                  1.4745         estimate D2E/DX2                !
 ! R16   R(8,34)                 1.0843         estimate D2E/DX2                !
 ! R17   R(9,12)                 1.3563         estimate D2E/DX2                !
 ! R18   R(10,11)                1.4776         estimate D2E/DX2                !
 ! R19   R(10,18)                1.4581         estimate D2E/DX2                !
 ! R20   R(11,12)                1.4982         estimate D2E/DX2                !
 ! R21   R(11,36)                1.0842         estimate D2E/DX2                !
 ! R22   R(12,35)                1.0842         estimate D2E/DX2                !
 ! R23   R(13,14)                1.4989         estimate D2E/DX2                !
 ! R24   R(13,30)                1.51           estimate D2E/DX2                !
 ! R25   R(13,31)                1.0977         estimate D2E/DX2                !
 ! R26   R(14,15)                1.4435         estimate D2E/DX2                !
 ! R27   R(15,32)                1.0816         estimate D2E/DX2                !
 ! R28   R(16,17)                1.5214         estimate D2E/DX2                !
 ! R29   R(16,19)                1.4949         estimate D2E/DX2                !
 ! R30   R(17,18)                1.4894         estimate D2E/DX2                !
 ! R31   R(17,22)                1.3465         estimate D2E/DX2                !
 ! R32   R(18,37)                1.083          estimate D2E/DX2                !
 ! R33   R(19,20)                1.5136         estimate D2E/DX2                !
 ! R34   R(19,23)                1.3778         estimate D2E/DX2                !
 ! R35   R(20,21)                1.4611         estimate D2E/DX2                !
 ! R36   R(20,26)                1.3474         estimate D2E/DX2                !
 ! R37   R(21,22)                1.4478         estimate D2E/DX2                !
 ! R38   R(21,39)                1.0853         estimate D2E/DX2                !
 ! R39   R(22,38)                1.0852         estimate D2E/DX2                !
 ! R40   R(23,24)                1.502          estimate D2E/DX2                !
 ! R41   R(23,30)                1.501          estimate D2E/DX2                !
 ! R42   R(24,25)                1.4479         estimate D2E/DX2                !
 ! R43   R(24,27)                1.3492         estimate D2E/DX2                !
 ! R44   R(25,26)                1.4384         estimate D2E/DX2                !
 ! R45   R(25,41)                1.0836         estimate D2E/DX2                !
 ! R46   R(26,40)                1.0846         estimate D2E/DX2                !
 ! R47   R(27,28)                1.4502         estimate D2E/DX2                !
 ! R48   R(27,42)                1.0861         estimate D2E/DX2                !
 ! R49   R(28,29)                1.3418         estimate D2E/DX2                !
 ! R50   R(28,43)                1.0855         estimate D2E/DX2                !
 ! R51   R(29,30)                1.4653         estimate D2E/DX2                !
 ! R52   R(29,44)                1.0848         estimate D2E/DX2                !
 ! A1    A(2,1,4)              107.9669         estimate D2E/DX2                !
 ! A2    A(2,1,13)             130.0572         estimate D2E/DX2                !
 ! A3    A(4,1,13)             119.9449         estimate D2E/DX2                !
 ! A4    A(1,2,3)              103.9634         estimate D2E/DX2                !
 ! A5    A(1,2,16)             133.2566         estimate D2E/DX2                !
 ! A6    A(3,2,16)             122.5328         estimate D2E/DX2                !
 ! A7    A(2,3,5)              109.7116         estimate D2E/DX2                !
 ! A8    A(2,3,10)             128.5154         estimate D2E/DX2                !
 ! A9    A(5,3,10)             121.2759         estimate D2E/DX2                !
 ! A10   A(1,4,5)              109.0832         estimate D2E/DX2                !
 ! A11   A(1,4,6)              129.8344         estimate D2E/DX2                !
 ! A12   A(5,4,6)              120.1663         estimate D2E/DX2                !
 ! A13   A(3,5,4)              108.8313         estimate D2E/DX2                !
 ! A14   A(3,5,9)              126.6623         estimate D2E/DX2                !
 ! A15   A(4,5,9)              123.6902         estimate D2E/DX2                !
 ! A16   A(4,6,7)              117.3833         estimate D2E/DX2                !
 ! A17   A(4,6,15)             114.3989         estimate D2E/DX2                !
 ! A18   A(7,6,15)             128.1306         estimate D2E/DX2                !
 ! A19   A(6,7,8)              120.8423         estimate D2E/DX2                !
 ! A20   A(6,7,33)             118.2507         estimate D2E/DX2                !
 ! A21   A(8,7,33)             120.8949         estimate D2E/DX2                !
 ! A22   A(7,8,9)              120.3325         estimate D2E/DX2                !
 ! A23   A(7,8,34)             121.1446         estimate D2E/DX2                !
 ! A24   A(9,8,34)             118.5104         estimate D2E/DX2                !
 ! A25   A(5,9,8)              116.8947         estimate D2E/DX2                !
 ! A26   A(5,9,12)             114.0146         estimate D2E/DX2                !
 ! A27   A(8,9,12)             129.0787         estimate D2E/DX2                !
 ! A28   A(3,10,11)            114.3666         estimate D2E/DX2                !
 ! A29   A(3,10,18)            113.1095         estimate D2E/DX2                !
 ! A30   A(11,10,18)           132.4879         estimate D2E/DX2                !
 ! A31   A(10,11,12)           123.0073         estimate D2E/DX2                !
 ! A32   A(10,11,36)           118.6807         estimate D2E/DX2                !
 ! A33   A(12,11,36)           117.9971         estimate D2E/DX2                !
 ! A34   A(9,12,11)            120.2107         estimate D2E/DX2                !
 ! A35   A(9,12,35)            122.172          estimate D2E/DX2                !
 ! A36   A(11,12,35)           117.557          estimate D2E/DX2                !
 ! A37   A(1,13,14)            101.5167         estimate D2E/DX2                !
 ! A38   A(1,13,30)            111.8926         estimate D2E/DX2                !
 ! A39   A(1,13,31)            109.001          estimate D2E/DX2                !
 ! A40   A(14,13,30)           117.134          estimate D2E/DX2                !
 ! A41   A(14,13,31)           107.9949         estimate D2E/DX2                !
 ! A42   A(30,13,31)           108.8967         estimate D2E/DX2                !
 ! A43   A(13,14,15)           140.5135         estimate D2E/DX2                !
 ! A44   A(6,15,14)            113.5583         estimate D2E/DX2                !
 ! A45   A(6,15,32)            124.4944         estimate D2E/DX2                !
 ! A46   A(14,15,32)           121.9034         estimate D2E/DX2                !
 ! A47   A(2,16,17)            113.6393         estimate D2E/DX2                !
 ! A48   A(2,16,19)            124.0242         estimate D2E/DX2                !
 ! A49   A(17,16,19)           122.3364         estimate D2E/DX2                !
 ! A50   A(16,17,18)           120.593          estimate D2E/DX2                !
 ! A51   A(16,17,22)           119.0904         estimate D2E/DX2                !
 ! A52   A(18,17,22)           120.2957         estimate D2E/DX2                !
 ! A53   A(10,18,17)           120.7139         estimate D2E/DX2                !
 ! A54   A(10,18,37)           119.1841         estimate D2E/DX2                !
 ! A55   A(17,18,37)           120.1017         estimate D2E/DX2                !
 ! A56   A(16,19,20)           113.7787         estimate D2E/DX2                !
 ! A57   A(16,19,23)           126.2276         estimate D2E/DX2                !
 ! A58   A(20,19,23)           119.8213         estimate D2E/DX2                !
 ! A59   A(19,20,21)           119.0679         estimate D2E/DX2                !
 ! A60   A(19,20,26)           122.1309         estimate D2E/DX2                !
 ! A61   A(21,20,26)           118.7968         estimate D2E/DX2                !
 ! A62   A(20,21,22)           122.9026         estimate D2E/DX2                !
 ! A63   A(20,21,39)           119.5651         estimate D2E/DX2                !
 ! A64   A(22,21,39)           117.4149         estimate D2E/DX2                !
 ! A65   A(17,22,21)           120.8873         estimate D2E/DX2                !
 ! A66   A(17,22,38)           121.8924         estimate D2E/DX2                !
 ! A67   A(21,22,38)           117.2043         estimate D2E/DX2                !
 ! A68   A(19,23,24)           117.2787         estimate D2E/DX2                !
 ! A69   A(19,23,30)           128.1301         estimate D2E/DX2                !
 ! A70   A(24,23,30)           114.5858         estimate D2E/DX2                !
 ! A71   A(23,24,25)           119.5529         estimate D2E/DX2                !
 ! A72   A(23,24,27)           120.0236         estimate D2E/DX2                !
 ! A73   A(25,24,27)           120.4198         estimate D2E/DX2                !
 ! A74   A(24,25,26)           119.393          estimate D2E/DX2                !
 ! A75   A(24,25,41)           120.7913         estimate D2E/DX2                !
 ! A76   A(26,25,41)           119.014          estimate D2E/DX2                !
 ! A77   A(20,26,25)           119.418          estimate D2E/DX2                !
 ! A78   A(20,26,40)           122.6776         estimate D2E/DX2                !
 ! A79   A(25,26,40)           117.7723         estimate D2E/DX2                !
 ! A80   A(24,27,28)           122.0959         estimate D2E/DX2                !
 ! A81   A(24,27,42)           121.4031         estimate D2E/DX2                !
 ! A82   A(28,27,42)           116.4095         estimate D2E/DX2                !
 ! A83   A(27,28,29)           121.3416         estimate D2E/DX2                !
 ! A84   A(27,28,43)           117.88           estimate D2E/DX2                !
 ! A85   A(29,28,43)           120.7717         estimate D2E/DX2                !
 ! A86   A(28,29,30)           119.6647         estimate D2E/DX2                !
 ! A87   A(28,29,44)           120.7765         estimate D2E/DX2                !
 ! A88   A(30,29,44)           119.5573         estimate D2E/DX2                !
 ! A89   A(13,30,23)           120.1339         estimate D2E/DX2                !
 ! A90   A(13,30,29)           117.401          estimate D2E/DX2                !
 ! A91   A(23,30,29)           118.3992         estimate D2E/DX2                !
 ! D1    D(4,1,2,3)              6.5819         estimate D2E/DX2                !
 ! D2    D(4,1,2,16)          -167.607          estimate D2E/DX2                !
 ! D3    D(13,1,2,3)           169.9677         estimate D2E/DX2                !
 ! D4    D(13,1,2,16)           -4.2212         estimate D2E/DX2                !
 ! D5    D(2,1,4,5)             -6.2804         estimate D2E/DX2                !
 ! D6    D(2,1,4,6)            162.5452         estimate D2E/DX2                !
 ! D7    D(13,1,4,5)          -171.651          estimate D2E/DX2                !
 ! D8    D(13,1,4,6)            -2.8254         estimate D2E/DX2                !
 ! D9    D(2,1,13,14)         -157.4113         estimate D2E/DX2                !
 ! D10   D(2,1,13,30)          -31.7144         estimate D2E/DX2                !
 ! D11   D(2,1,13,31)           88.7846         estimate D2E/DX2                !
 ! D12   D(4,1,13,14)            4.2951         estimate D2E/DX2                !
 ! D13   D(4,1,13,30)          129.9921         estimate D2E/DX2                !
 ! D14   D(4,1,13,31)         -109.509          estimate D2E/DX2                !
 ! D15   D(1,2,3,5)             -4.9146         estimate D2E/DX2                !
 ! D16   D(1,2,3,10)          -176.7886         estimate D2E/DX2                !
 ! D17   D(16,2,3,5)           170.0678         estimate D2E/DX2                !
 ! D18   D(16,2,3,10)           -1.8063         estimate D2E/DX2                !
 ! D19   D(1,2,16,17)         -177.6423         estimate D2E/DX2                !
 ! D20   D(1,2,16,19)            2.2369         estimate D2E/DX2                !
 ! D21   D(3,2,16,17)            9.0504         estimate D2E/DX2                !
 ! D22   D(3,2,16,19)         -171.0704         estimate D2E/DX2                !
 ! D23   D(2,3,5,4)              1.1871         estimate D2E/DX2                !
 ! D24   D(2,3,5,9)           -168.6998         estimate D2E/DX2                !
 ! D25   D(10,3,5,4)           173.752          estimate D2E/DX2                !
 ! D26   D(10,3,5,9)             3.8651         estimate D2E/DX2                !
 ! D27   D(2,3,10,11)          173.681          estimate D2E/DX2                !
 ! D28   D(2,3,10,18)           -4.4137         estimate D2E/DX2                !
 ! D29   D(5,3,10,11)            2.638          estimate D2E/DX2                !
 ! D30   D(5,3,10,18)         -175.4566         estimate D2E/DX2                !
 ! D31   D(1,4,5,3)              3.0779         estimate D2E/DX2                !
 ! D32   D(1,4,5,9)            173.3316         estimate D2E/DX2                !
 ! D33   D(6,4,5,3)           -167.0106         estimate D2E/DX2                !
 ! D34   D(6,4,5,9)              3.243          estimate D2E/DX2                !
 ! D35   D(1,4,6,7)           -176.431          estimate D2E/DX2                !
 ! D36   D(1,4,6,15)             0.4528         estimate D2E/DX2                !
 ! D37   D(5,4,6,7)             -8.6609         estimate D2E/DX2                !
 ! D38   D(5,4,6,15)           168.223          estimate D2E/DX2                !
 ! D39   D(3,5,9,8)            172.4904         estimate D2E/DX2                !
 ! D40   D(3,5,9,12)            -6.3669         estimate D2E/DX2                !
 ! D41   D(4,5,9,8)              4.0122         estimate D2E/DX2                !
 ! D42   D(4,5,9,12)          -174.8451         estimate D2E/DX2                !
 ! D43   D(4,6,7,8)              6.923          estimate D2E/DX2                !
 ! D44   D(4,6,7,33)          -174.3318         estimate D2E/DX2                !
 ! D45   D(15,6,7,8)          -169.4686         estimate D2E/DX2                !
 ! D46   D(15,6,7,33)            9.2765         estimate D2E/DX2                !
 ! D47   D(4,6,15,14)           -0.6787         estimate D2E/DX2                !
 ! D48   D(4,6,15,32)         -178.2987         estimate D2E/DX2                !
 ! D49   D(7,6,15,14)          175.8032         estimate D2E/DX2                !
 ! D50   D(7,6,15,32)           -1.8168         estimate D2E/DX2                !
 ! D51   D(6,7,8,9)              0.1934         estimate D2E/DX2                !
 ! D52   D(6,7,8,34)           178.8884         estimate D2E/DX2                !
 ! D53   D(33,7,8,9)          -178.5185         estimate D2E/DX2                !
 ! D54   D(33,7,8,34)            0.1765         estimate D2E/DX2                !
 ! D55   D(7,8,9,5)             -5.6763         estimate D2E/DX2                !
 ! D56   D(7,8,9,12)           172.979          estimate D2E/DX2                !
 ! D57   D(34,8,9,5)           175.5947         estimate D2E/DX2                !
 ! D58   D(34,8,9,12)           -5.7499         estimate D2E/DX2                !
 ! D59   D(5,9,12,11)            2.273          estimate D2E/DX2                !
 ! D60   D(5,9,12,35)          179.3786         estimate D2E/DX2                !
 ! D61   D(8,9,12,11)         -176.4142         estimate D2E/DX2                !
 ! D62   D(8,9,12,35)            0.6914         estimate D2E/DX2                !
 ! D63   D(3,10,11,12)          -6.4012         estimate D2E/DX2                !
 ! D64   D(3,10,11,36)        -179.8222         estimate D2E/DX2                !
 ! D65   D(18,10,11,12)        171.2221         estimate D2E/DX2                !
 ! D66   D(18,10,11,36)         -2.1989         estimate D2E/DX2                !
 ! D67   D(3,10,18,17)           2.3211         estimate D2E/DX2                !
 ! D68   D(3,10,18,37)        -177.8714         estimate D2E/DX2                !
 ! D69   D(11,10,18,17)       -175.3251         estimate D2E/DX2                !
 ! D70   D(11,10,18,37)          4.4825         estimate D2E/DX2                !
 ! D71   D(10,11,12,9)           3.9202         estimate D2E/DX2                !
 ! D72   D(10,11,12,35)       -173.3164         estimate D2E/DX2                !
 ! D73   D(36,11,12,9)         177.3836         estimate D2E/DX2                !
 ! D74   D(36,11,12,35)          0.147          estimate D2E/DX2                !
 ! D75   D(1,13,14,15)          -6.263          estimate D2E/DX2                !
 ! D76   D(30,13,14,15)       -128.4043         estimate D2E/DX2                !
 ! D77   D(31,13,14,15)        108.2908         estimate D2E/DX2                !
 ! D78   D(1,13,30,23)          61.8599         estimate D2E/DX2                !
 ! D79   D(1,13,30,29)        -141.1661         estimate D2E/DX2                !
 ! D80   D(14,13,30,23)        178.4572         estimate D2E/DX2                !
 ! D81   D(14,13,30,29)        -24.5688         estimate D2E/DX2                !
 ! D82   D(31,13,30,23)        -58.6997         estimate D2E/DX2                !
 ! D83   D(31,13,30,29)         98.2743         estimate D2E/DX2                !
 ! D84   D(13,14,15,6)           4.5945         estimate D2E/DX2                !
 ! D85   D(13,14,15,32)       -177.7162         estimate D2E/DX2                !
 ! D86   D(2,16,17,18)         -10.5327         estimate D2E/DX2                !
 ! D87   D(2,16,17,22)         167.8076         estimate D2E/DX2                !
 ! D88   D(19,16,17,18)        169.5859         estimate D2E/DX2                !
 ! D89   D(19,16,17,22)        -12.0739         estimate D2E/DX2                !
 ! D90   D(2,16,19,20)        -165.1452         estimate D2E/DX2                !
 ! D91   D(2,16,19,23)          19.6722         estimate D2E/DX2                !
 ! D92   D(17,16,19,20)         14.7238         estimate D2E/DX2                !
 ! D93   D(17,16,19,23)       -160.4588         estimate D2E/DX2                !
 ! D94   D(16,17,18,10)          5.0334         estimate D2E/DX2                !
 ! D95   D(16,17,18,37)       -174.7724         estimate D2E/DX2                !
 ! D96   D(22,17,18,10)       -173.2868         estimate D2E/DX2                !
 ! D97   D(22,17,18,37)          6.9074         estimate D2E/DX2                !
 ! D98   D(16,17,22,21)         -0.6956         estimate D2E/DX2                !
 ! D99   D(16,17,22,38)       -179.2014         estimate D2E/DX2                !
 ! D100  D(18,17,22,21)        177.6498         estimate D2E/DX2                !
 ! D101  D(18,17,22,38)         -0.8561         estimate D2E/DX2                !
 ! D102  D(16,19,20,21)         -5.7743         estimate D2E/DX2                !
 ! D103  D(16,19,20,26)        174.9983         estimate D2E/DX2                !
 ! D104  D(23,19,20,21)        169.7472         estimate D2E/DX2                !
 ! D105  D(23,19,20,26)         -9.4802         estimate D2E/DX2                !
 ! D106  D(16,19,23,24)        175.6096         estimate D2E/DX2                !
 ! D107  D(16,19,23,30)         -3.4976         estimate D2E/DX2                !
 ! D108  D(20,19,23,24)          0.6916         estimate D2E/DX2                !
 ! D109  D(20,19,23,30)       -178.4156         estimate D2E/DX2                !
 ! D110  D(19,20,21,22)         -6.1204         estimate D2E/DX2                !
 ! D111  D(19,20,21,39)        177.9227         estimate D2E/DX2                !
 ! D112  D(26,20,21,22)        173.133          estimate D2E/DX2                !
 ! D113  D(26,20,21,39)         -2.8239         estimate D2E/DX2                !
 ! D114  D(19,20,26,25)          4.2965         estimate D2E/DX2                !
 ! D115  D(19,20,26,40)       -179.9773         estimate D2E/DX2                !
 ! D116  D(21,20,26,25)       -174.933          estimate D2E/DX2                !
 ! D117  D(21,20,26,40)          0.7933         estimate D2E/DX2                !
 ! D118  D(20,21,22,17)          9.7905         estimate D2E/DX2                !
 ! D119  D(20,21,22,38)       -171.6359         estimate D2E/DX2                !
 ! D120  D(39,21,22,17)       -174.1709         estimate D2E/DX2                !
 ! D121  D(39,21,22,38)          4.4027         estimate D2E/DX2                !
 ! D122  D(19,23,24,25)         12.5083         estimate D2E/DX2                !
 ! D123  D(19,23,24,27)       -166.7958         estimate D2E/DX2                !
 ! D124  D(30,23,24,25)       -168.2639         estimate D2E/DX2                !
 ! D125  D(30,23,24,27)         12.4319         estimate D2E/DX2                !
 ! D126  D(19,23,30,13)        -46.7314         estimate D2E/DX2                !
 ! D127  D(19,23,30,29)        156.5204         estimate D2E/DX2                !
 ! D128  D(24,23,30,13)        134.1411         estimate D2E/DX2                !
 ! D129  D(24,23,30,29)        -22.607          estimate D2E/DX2                !
 ! D130  D(23,24,25,26)        -17.8681         estimate D2E/DX2                !
 ! D131  D(23,24,25,41)        172.4863         estimate D2E/DX2                !
 ! D132  D(27,24,25,26)        161.4332         estimate D2E/DX2                !
 ! D133  D(27,24,25,41)         -8.2124         estimate D2E/DX2                !
 ! D134  D(23,24,27,28)          3.2319         estimate D2E/DX2                !
 ! D135  D(23,24,27,42)        179.6275         estimate D2E/DX2                !
 ! D136  D(25,24,27,28)       -176.0662         estimate D2E/DX2                !
 ! D137  D(25,24,27,42)          0.3294         estimate D2E/DX2                !
 ! D138  D(24,25,26,20)          9.2703         estimate D2E/DX2                !
 ! D139  D(24,25,26,40)       -166.6644         estimate D2E/DX2                !
 ! D140  D(41,25,26,20)        179.101          estimate D2E/DX2                !
 ! D141  D(41,25,26,40)          3.1663         estimate D2E/DX2                !
 ! D142  D(24,27,28,29)         -9.5296         estimate D2E/DX2                !
 ! D143  D(24,27,28,43)        169.537          estimate D2E/DX2                !
 ! D144  D(42,27,28,29)        173.9051         estimate D2E/DX2                !
 ! D145  D(42,27,28,43)         -7.0283         estimate D2E/DX2                !
 ! D146  D(27,28,29,30)         -1.5008         estimate D2E/DX2                !
 ! D147  D(27,28,29,44)        178.9587         estimate D2E/DX2                !
 ! D148  D(43,28,29,30)        179.4595         estimate D2E/DX2                !
 ! D149  D(43,28,29,44)         -0.0811         estimate D2E/DX2                !
 ! D150  D(28,29,30,13)       -139.6309         estimate D2E/DX2                !
 ! D151  D(28,29,30,23)         17.7523         estimate D2E/DX2                !
 ! D152  D(44,29,30,13)         39.9153         estimate D2E/DX2                !
 ! D153  D(44,29,30,23)       -162.7015         estimate D2E/DX2                !
 --------------------------------------------------------------------------------
 Trust Radius=3.00D-01 FncErr=1.00D-07 GrdErr=1.00D-06 EigMax=2.50D+02 EigMin=1.00D-04
 Number of steps in this run=    264 maximum allowed number of steps=    264.
 GradGradGradGradGradGradGradGradGradGradGradGradGradGradGradGradGradGrad

                          Input orientation:                          
 ---------------------------------------------------------------------
 Center     Atomic      Atomic             Coordinates (Angstroms)
 Number     Number       Type             X           Y           Z
 ---------------------------------------------------------------------
      1          6           0       -3.948490    0.288060   -0.446510
      2          6           0       -2.536080    0.083840   -0.250920
      3          6           0       -2.414190   -1.351960   -0.043050
      4          6           0       -4.632860   -0.993090   -0.192060
      5          6           0       -3.717510   -1.946620   -0.000630
      6          6           0       -6.038380   -1.262220    0.080640
      7          6           0       -6.417740   -2.659270    0.377710
      8          6           0       -5.466290   -3.624700    0.531730
      9          6           0       -4.036260   -3.287360    0.407840
     10          6           0       -1.316400   -2.062630    0.242920
     11          6           0       -1.572010   -3.488430    0.534530
     12          6           0       -2.950610   -4.063390    0.650200
     13          6           0       -4.734510    1.551090   -0.508440
     14          6           0       -6.108350    1.066170   -0.156120
     15          6           0       -6.827270   -0.160870    0.091260
     16          6           0       -1.494800    0.918790   -0.139100
     17          6           0       -0.156740    0.209320    0.005270
     18          6           0       -0.099630   -1.259140    0.247700
     19          6           0       -1.612110    2.409040   -0.154930
     20          6           0       -0.294720    3.122680   -0.369970
     21          6           0        0.938500    2.340090   -0.408640
     22          6           0        0.978960    0.921350   -0.122640
     23          6           0       -2.753710    3.138670    0.095490
     24          6           0       -2.621920    4.634590    0.125270
     25          6           0       -1.409670    5.254620   -0.366980
     26          6           0       -0.219230    4.460420   -0.512120
     27          6           0       -3.623170    5.390750    0.621290
     28          6           0       -4.816990    4.805160    1.200170
     29          6           0       -5.068330    3.490840    1.100790
     30          6           0       -4.139040    2.628290    0.366290
     31          1           0       -4.756590    1.907780   -1.546360
     32          1           0       -7.888090   -0.169290    0.301960
     33          1           0       -7.471050   -2.892360    0.490460
     34          1           0       -5.738230   -4.647530    0.767360
     35          1           0       -3.038610   -5.093910    0.975300
     36          1           0       -0.731540   -4.128510    0.778120
     37          1           0        0.851570   -1.742390    0.433390
     38          1           0        1.957550    0.459420   -0.040980
     39          1           0        1.883800    2.839210   -0.596100
     40          1           0        0.719730    4.980810   -0.666930
     41          1           0       -1.338820    6.331130   -0.468060
     42          1           0       -3.549180    6.473620    0.659110
     43          1           0       -5.497670    5.462040    1.732550
     44          1           0       -5.955820    3.059760    1.551720
 ---------------------------------------------------------------------
                    Distance matrix (angstroms):
                    1          2          3          4          5
     1  C    0.000000
     2  C    1.440439   0.000000
     3  C    2.281780   1.455881   0.000000
     4  C    1.474602   2.357908   2.252441   0.000000
     5  C    2.290405   2.362454   1.433200   1.335564   0.000000
     6  C    2.654976   3.766685   3.627410   1.456806   2.421042
     7  C    3.932339   4.794488   4.232554   2.507307   2.818200
     8  C    4.309334   4.790818   3.848511   2.853743   2.481449
     9  C    3.677125   3.748265   2.565187   2.445299   1.437370
    10  C    3.595686   2.517703   1.338646   3.511699   2.416217
    11  C    4.568585   3.782522   2.367989   4.015403   2.695690
    12  C    4.597135   4.264196   2.849596   3.600848   2.343594
    13  C    1.488928   2.655604   3.745420   2.565791   3.677789
    14  C    2.314039   3.706086   4.416668   2.533558   3.849311
    15  C    2.962787   4.311761   4.572965   2.363958   3.587193
    16  C    2.552042   1.339369   2.451695   3.674984   3.629075
    17  C    3.819381   2.396380   2.745180   4.639006   4.162595
    18  C    4.205886   2.826394   2.334596   4.562274   3.690983
    19  C    3.168950   2.503895   3.847203   4.549813   4.840278
    20  C    4.625037   3.777885   4.961999   5.982531   6.127781
    21  C    5.300465   4.145871   5.000542   6.495925   6.341986
    22  C    4.978525   3.615714   4.085063   5.929791   5.504268
    23  C    3.138031   3.082101   4.505577   4.548113   5.176710
    24  C    4.580289   4.567079   5.992517   5.984594   6.672967
    25  C    5.578409   5.293320   6.690358   7.032313   7.570878
    26  C    5.596452   4.958878   6.230701   7.023058   7.317769
    27  C    5.223359   5.486876   6.882377   6.514171   7.364284
    28  C    4.885697   5.440503   6.725264   5.965896   6.945308
    29  C    3.729072   4.455004   5.639640   4.686867   5.709975
    30  C    2.484679   3.069960   4.357185   3.697297   4.608917
    31  H    2.118062   3.152077   4.286337   3.203823   4.280814
    32  H    4.036065   5.386442   5.610822   3.393998   4.543589
    33  H    4.837501   5.810451   5.313125   3.482583   3.901879
    34  H    5.388571   5.803147   4.750451   3.936656   3.459484
    35  H    5.640481   5.344647   3.927993   4.552042   3.364339
    36  H    5.599516   4.696720   3.348860   5.098275   3.779301
    37  H    5.285596   3.908909   3.323345   5.570602   4.594189
    38  H    5.922426   4.514183   4.732147   6.750268   6.164168
    39  H    6.367602   5.219823   6.028639   7.570775   7.391443
    40  H    6.622897   5.895225   7.093283   8.035123   8.253626
    41  H    6.582518   6.364685   7.769616   8.035613   8.625416
    42  H    6.296268   6.533285   7.938572   7.592800   8.447724
    43  H    5.823945   6.452147   7.687080   6.791224   7.814162
    44  H    3.962905   4.878548   5.877900   4.606146   5.699444
                    6          7          8          9         10
     6  C    0.000000
     7  C    1.477807   0.000000
     8  C    2.472262   1.364197   0.000000
     9  C    2.866485   2.463098   1.474494   0.000000
    10  C    4.792086   5.137881   4.443541   2.987440   0.000000
    11  C    5.011037   4.918658   3.896664   2.475683   1.477592
    12  C    4.207764   3.750573   2.556390   1.356317   2.615255
    13  C    3.156233   4.620136   5.329752   4.973703   5.030605
    14  C    2.341442   3.776189   4.784312   4.854362   5.736846
    15  C    1.354781   2.547895   3.747586   4.202963   5.831756
    16  C    5.044721   6.107777   6.071742   4.944680   3.011085
    17  C    6.063398   6.896930   6.570250   5.238273   2.561844
    18  C    5.941100   6.472695   5.871762   4.431295   1.458132
    19  C    5.755476   7.004681   7.192512   6.216284   4.499062
    20  C    7.240168   8.454664   8.548996   7.462756   5.320423
    21  C    7.867203   8.928954   8.802520   7.555334   4.989293
    22  C    7.352031   8.233004   7.914292   6.568644   3.782387
    23  C    5.491549   6.864464   7.300107   6.560210   5.398251
    24  C    6.815171   8.226322   8.744800   8.052173   6.824293
    25  C    8.005906   9.394945   9.803375   8.970214   7.343216
    26  C    8.183061   9.481736   9.694866   8.685859   6.657631
    27  C    7.098419   8.524774   9.202361   8.690558   7.811352
    28  C    6.289534   7.678317   8.481211   8.168611   7.767689
    29  C    4.957145   6.337792   7.149343   6.891251   6.756771
    30  C    4.338797   5.757681   6.394439   5.916689   5.476061
    31  H    3.786689   5.226797   5.952350   5.597075   5.549828
    32  H    2.159839   2.892692   4.225845   4.956830   6.839249
    33  H    2.208586   1.084668   2.134734   3.458415   6.215259
    34  H    3.467275   2.136993   1.084276   2.208171   5.148721
    35  H    4.947816   4.207506   2.872101   2.140313   3.562449
    36  H    6.071626   5.886583   4.767850   3.430133   2.212772
    37  H    6.915664   7.327117   6.593035   5.126253   2.199756
    38  H    8.180081   8.946900   8.492434   7.082765   4.142473
    39  H    8.946544  10.004857   9.852815   8.578454   5.913820
    40  H    9.230728  10.507406  10.665760   9.598813   7.388078
    41  H    8.946837  10.360408  10.823777  10.027898   8.423847
    42  H    8.147022   9.576926  10.279475   9.776355   8.833237
    43  H    6.945275   8.284793   9.165795   8.968979   8.736285
    44  H    4.566224   5.856533   6.779530   6.728975   7.033922
                   11         12         13         14         15
    11  C    0.000000
    12  C    1.498164   0.000000
    13  C    6.040360   6.003926   0.000000
    14  C    6.465273   6.077323   1.498904   0.000000
    15  C    6.235936   5.529066   2.769493   1.443492   0.000000
    16  C    4.459072   5.250190   3.321436   4.615935   5.445546
    17  C    3.994554   5.145648   4.797939   6.015139   6.681348
    18  C    2.686989   4.019193   5.472774   6.455606   6.818490
    19  C    5.937770   6.658241   3.257365   4.692491   5.819187
    20  C    6.793848   7.728784   4.711773   6.170353   7.325889
    21  C    6.415908   7.566431   5.728484   7.165524   8.173854
    22  C    5.136680   6.394250   5.761003   7.088869   7.883792
    23  C    6.745934   7.226074   2.609351   3.951224   5.242220
    24  C    8.200808   8.720003   3.791121   4.996799   6.378288
    25  C    8.790904   9.499182   4.979027   6.298029   7.673846
    26  C    8.130788   9.025894   5.371403   6.806571   8.086197
    27  C    9.113431   9.478077   4.153836   5.048017   6.431771
    28  C    8.930655   9.079483   3.676292   4.181768   5.471048
    29  C    7.826565   7.858382   2.542378   2.922411   4.177081
    30  C    6.635677   6.802320   1.509999   2.567355   3.883508
    31  H    6.602328   6.613721   1.097722   2.113842   3.353927
    32  H    7.138883   6.297936   3.682597   2.214424   1.081575
    33  H    5.929242   4.672388   5.313257   4.236151   2.834581
    34  H    4.330717   2.850574   6.407652   5.799670   4.666180
    35  H    2.218729   1.084161   7.016665   6.974955   6.282544
    36  H    1.084172   2.223708   7.066602   7.534427   7.305605
    37  H    2.988750   4.459890   6.552736   7.528348   7.847474
    38  H    5.326774   6.709961   6.796612   8.089508   8.807685
    39  H    7.297943   8.518842   6.743068   8.198275   9.238814
    40  H    8.855710   9.849050   6.444907   7.887205   9.163456
    41  H    9.873364  10.578016   5.863542   7.110944   8.519506
    42  H   10.157124  10.554001   5.196103   6.037753   7.421913
    43  H    9.846673   9.919315   4.571650   4.823243   6.006562
    44  H    7.945518   7.783527   2.830537   2.629522   3.642091
                   16         17         18         19         20
    16  C    0.000000
    17  C    1.521379   0.000000
    18  C    2.615242   1.489432   0.000000
    19  C    1.494944   2.642448   3.988139   0.000000
    20  C    2.520044   2.940665   4.429438   1.513618   0.000000
    21  C    2.830847   2.431266   3.803019   2.564124   1.461087
    22  C    2.473816   1.346537   2.460700   2.987960   2.555247
    23  C    2.562763   3.915799   5.138875   1.377796   2.502707
    24  C    3.891974   5.067004   6.411941   2.459939   2.819041
    25  C    4.342649   5.211857   6.672564   2.860642   2.405887
    26  C    3.782772   4.282925   5.771048   2.505167   1.347388
    27  C    5.010646   6.264410   7.534981   3.679331   4.147929
    28  C    5.285306   6.653380   7.741861   4.224801   5.074151
    29  C    4.574154   6.007683   6.926619   3.833090   5.008596
    30  C    3.189015   4.673378   5.607407   2.589424   3.945288
    31  H    3.687514   5.143048   5.910610   3.474924   4.771599
    32  H    6.500201   7.746299   7.864530   6.800328   8.303483
    33  H    7.115952   7.959583   7.554083   7.927708   9.403231
    34  H    7.057782   7.437930   6.598867   8.226218   9.555181
    35  H    6.306964   6.113132   4.885946   7.720530   8.766472
    36  H    5.186434   4.443474   2.985622   6.662248   7.354501
    37  H    3.593755   2.238113   1.082956   4.863148   5.062438
    38  H    3.484160   2.129533   2.696066   4.068965   3.503414
    39  H    3.913030   3.382569   4.630601   3.549798   2.208493
    40  H    4.656474   4.897670   6.359629   3.509077   2.137742
    41  H    5.424571   6.252832   7.723995   3.944050   3.375488
    42  H    5.976098   7.153853   8.477277   4.575556   4.783233
    43  H    6.337757   7.687659   8.747450   5.289704   6.079793
    44  H    5.229084   6.644234   7.392451   4.712102   5.978704
                   21         22         23         24         25
    21  C    0.000000
    22  C    1.447845   0.000000
    23  C    3.811075   4.347058   0.000000
    24  C    4.269237   5.178412   1.502009   0.000000
    25  C    3.743010   4.954037   2.549032   1.447860   0.000000
    26  C    2.418025   3.756644   2.922294   2.491891   1.438390
    27  C    5.583558   6.458217   2.470686   1.349191   2.427919
    28  C    6.464558   7.101186   2.873087   2.450069   3.777275
    29  C    6.299572   6.683470   2.547963   2.871363   4.318687
    30  C    5.144413   5.417252   1.500986   2.526852   3.858077
    31  H    5.823689   5.991374   2.867454   3.845342   4.877925
    32  H    9.203838   8.943956   6.111226   7.130290   8.475624
    33  H    9.945222   9.291014   7.666983   8.961161  10.190624
    34  H    9.735940   8.770699   8.365625   9.812310  10.866266
    35  H    8.543831   7.316399   8.284359   9.774451  10.561592
    36  H    6.785294   5.407242   7.574105   8.988419   9.477038
    37  H    4.169318   2.724134   6.077579   7.268146   7.396752
    38  H    2.170382   1.085212   5.421529   6.199293   5.868423
    39  H    1.085290   2.172806   4.698348   4.903598   4.090678
    40  H    2.662325   4.103982   4.004941   3.451677   2.167784
    41  H    4.595445   5.895519   3.537132   2.208310   1.083564
    42  H    6.193984   7.207141   3.474526   2.127634   2.667644
    43  H    7.466964   8.124428   3.950611   3.396757   4.600304
    44  H    7.203651   7.447647   3.518571   3.953446   5.400583
                   26         27         28         29         30
    26  C    0.000000
    27  C    3.706338   0.000000
    28  C    4.918351   1.450250   0.000000
    29  C    5.201474   2.434762   1.341822   0.000000
    30  C    4.415112   2.821760   2.427702   1.465286   0.000000
    31  H    5.307849   4.256105   3.992729   3.100107   2.135119
    32  H    8.994907   7.014667   5.914693   4.688894   4.678244
    33  H   10.375810   9.134178   8.173098   6.847686   6.449441
    34  H   10.726191  10.259721   9.507332   8.172699   7.460283
    35  H   10.072067  10.506909  10.060059   8.822326   7.823951
    36  H    8.700397   9.949997   9.832573   8.773047   7.578589
    37  H    6.365175   8.422606   8.694305   7.929523   6.634270
    38  H    4.579121   7.476701   8.143728   7.736675   6.483693
    39  H    2.656710   6.190243   7.210557   7.185831   6.102891
    40  H    1.084628   4.548444   5.845698   6.232695   5.496321
    41  H    2.180591   2.699862   4.148402   4.943459   4.716821
    42  H    4.063659   1.086054   2.164220   3.376370   3.901313
    43  H    5.822690   2.180305   1.085470   2.114021   3.426760
    44  H    6.255378   3.426437   2.113514   1.084807   2.211809
                   31         32         33         34         35
    31  H    0.000000
    32  H    4.187696   0.000000
    33  H    5.878628   2.761261   0.000000
    34  H    7.020613   4.989301   2.481927   0.000000
    35  H    7.637662   6.944258   4.972767   2.744165   0.000000
    36  H    7.618466   8.192580   6.857974   5.033532   2.508675
    37  H    6.978152   8.881080   8.401886   7.209496   5.163318
    38  H    7.031614   9.871652  10.020746   9.271428   7.538827
    39  H    6.772395  10.263889  11.024732  10.770591   9.467513
    40  H    6.340898  10.077542  11.419949  11.681925  10.877593
    41  H    5.692970   9.259661  11.117364  11.891680  11.640623
    42  H    5.212373   7.942415  10.155348  11.335062  11.583109
    43  H    4.892158   6.282720   8.673697  10.158389  10.865012
    44  H    3.516150   3.965140   6.232971   7.750154   8.678981
                   36         37         38         39         40
    36  H    0.000000
    37  H    2.884206   0.000000
    38  H    5.380635   2.509220   0.000000
    39  H    7.568197   4.807952   2.444790   0.000000
    40  H    9.336705   6.813920   4.729374   2.438550   0.000000
    41  H   10.551105   8.413807   6.747254   4.753439   2.469927
    42  H   10.970798   9.323109   8.184424   6.655957   4.712797
    43  H   10.752004   9.690432   9.151608   8.172389   6.681703
    44  H    8.919797   8.405466   8.480559   8.131508   7.292174
                   41         42         43         44
    41  H    0.000000
    42  H    2.485258   0.000000
    43  H    4.784771   2.443805   0.000000
    44  H    6.008166   4.271195   2.452254   0.000000
 Stoichiometry    C30H14
 Framework group  C1[X(C30H14)]
 Deg. of freedom   126
 Full point group                 C1      NOp   1
 Largest Abelian subgroup         C1      NOp   1
 Largest concise Abelian subgroup C1      NOp   1
                         Standard orientation:                         
 ---------------------------------------------------------------------
 Center     Atomic      Atomic             Coordinates (Angstroms)
 Number     Number       Type             X           Y           Z
 ---------------------------------------------------------------------
      1          6           0        0.693986   -0.749463   -0.641152
      2          6           0        0.427979    0.633745   -0.339756
      3          6           0        1.749862    1.210385   -0.140510
      4          6           0        2.137651   -0.985915   -0.455745
      5          6           0        2.742275    0.178443   -0.205886
      6          6           0        2.865210   -2.237815   -0.295480
      7          6           0        4.319173   -2.151775   -0.045474
      8          6           0        4.921733   -0.946933    0.169728
      9          6           0        4.127246    0.295178    0.160534
     10          6           0        2.068711    2.459347    0.220606
     11          6           0        3.508774    2.671733    0.474359
     12          6           0        4.510142    1.557393    0.476445
     13          6           0       -0.240466   -1.903695   -0.748190
     14          6           0        0.683144   -3.059684   -0.508718
     15          6           0        2.086901   -3.346105   -0.332367
     16          6           0       -0.698969    1.328837   -0.137901
     17          6           0       -0.465738    2.813196    0.100582
     18          6           0        0.909599    3.337345    0.328894
     19          6           0       -2.066628    0.725248   -0.144680
     20          6           0       -3.182298    1.742826   -0.248873
     21          6           0       -2.852276    3.165376   -0.201839
     22          6           0       -1.516738    3.654372    0.069229
     23          6           0       -2.369086   -0.608084    0.025811
     24          6           0       -3.822573   -0.982314    0.083773
     25          6           0       -4.825505   -0.013560   -0.306023
     26          6           0       -4.474356    1.379906   -0.368572
     27          6           0       -4.187274   -2.209270    0.510255
     28          6           0       -3.219706   -3.178060    0.988255
     29          6           0       -1.900664   -2.971764    0.853889
     30          6           0       -1.420683   -1.760837    0.182818
     31          1           0       -0.608015   -1.971453   -1.780328
     32          1           0        2.452540   -4.355898   -0.204185
     33          1           0        4.890648   -3.073250   -0.017085
     34          1           0        5.984987   -0.879726    0.371292
     35          1           0        5.523285    1.794068    0.781292
     36          1           0        3.844344    3.658085    0.774243
     37          1           0        1.058566    4.379840    0.581490
     38          1           0       -1.400762    4.722716    0.220481
     39          1           0       -3.641834    3.902120   -0.309816
     40          1           0       -5.280681    2.101386   -0.444230
     41          1           0       -5.868094   -0.297021   -0.388298
     42          1           0       -5.231764   -2.501431    0.566776
     43          1           0       -3.595150   -4.072966    1.474495
     44          1           0       -1.184619   -3.694790    1.229812
 ---------------------------------------------------------------------
 Rotational constants (GHZ):           0.2811538           0.1535351           0.1020282
 Standard basis: 6-311+G(d,p) (5D, 7F)
 There are   774 symmetry adapted cartesian basis functions of A   symmetry.
 There are   744 symmetry adapted basis functions of A   symmetry.
   744 basis functions,  1192 primitive gaussians,   774 cartesian basis functions
    97 alpha electrons       97 beta electrons
       nuclear repulsion energy      2562.6770398608 Hartrees.
 NAtoms=   44 NActive=   44 NUniq=   44 SFac= 1.00D+00 NAtFMM=   60 NAOKFM=F Big=F
 Integral buffers will be    131072 words long.
 Raffenetti 2 integral format.
 Two-electron integral symmetry is turned on.
 One-electron integrals computed using PRISM.
 NBasis=   744 RedAO= T EigKep=  1.06D-06  NBF=   744
 NBsUse=   725 1.00D-06 EigRej=  9.65D-07 NBFU=   725
 ExpMin= 4.38D-02 ExpMax= 4.56D+03 ExpMxC= 6.82D+02 IAcc=2 IRadAn=         4 AccDes= 0.00D+00
 Harris functional with IExCor=  402 and IRadAn=       4 diagonalized for initial guess.
 HarFok:  IExCor=  402 AccDes= 0.00D+00 IRadAn=         4 IDoV= 1 UseB2=F ITyADJ=14
 ICtDFT=  3500011 ScaDFX=  1.000000  1.000000  1.000000  1.000000
 FoFCou: FMM=F IPFlag=           0 FMFlag=      100000 FMFlg1=           0
         NFxFlg=           0 DoJE=T BraDBF=F KetDBF=T FulRan=T
         wScrn=  0.000000 ICntrl=       500 IOpCl=  0 I1Cent=   200000004 NGrid=           0
         NMat0=    1 NMatS0=      1 NMatT0=    0 NMatD0=    1 NMtDS0=    0 NMtDT0=    0
 Petite list used in FoFCou.
 Requested convergence on RMS density matrix=1.00D-08 within 128 cycles.
 Requested convergence on MAX density matrix=1.00D-06.
 Requested convergence on             energy=1.00D-06.
 No special actions if energy rises.
 EnCoef did     6 forward-backward iterations
 EnCoef did    15 forward-backward iterations
 EnCoef did    12 forward-backward iterations
 EnCoef did     2 forward-backward iterations
 Restarting incremental Fock formation.
 SCF Done:  E(RB3LYP) =  -1151.63188691     A.U. after   27 cycles
            NFock= 27  Conv=0.45D-08     -V/T= 2.0051

 **********************************************************************

            Population analysis using the SCF Density.

 **********************************************************************

 Orbital symmetries:
       Occupied  (A) (A) (A) (A) (A) (A) (A) (A) (A) (A) (A) (A)
                 (A) (A) (A) (A) (A) (A) (A) (A) (A) (A) (A) (A)
                 (A) (A) (A) (A) (A) (A) (A) (A) (A) (A) (A) (A)
                 (A) (A) (A) (A) (A) (A) (A) (A) (A) (A) (A) (A)
                 (A) (A) (A) (A) (A) (A) (A) (A) (A) (A) (A) (A)
                 (A) (A) (A) (A) (A) (A) (A) (A) (A) (A) (A) (A)
                 (A) (A) (A) (A) (A) (A) (A) (A) (A) (A) (A) (A)
                 (A) (A) (A) (A) (A) (A) (A) (A) (A) (A) (A) (A)
                 (A)
       Virtual   (A) (A) (A) (A) (A) (A) (A) (A) (A) (A) (A) (A)
                 (A) (A) (A) (A) (A) (A) (A) (A) (A) (A) (A) (A)
                 (A) (A) (A) (A) (A) (A) (A) (A) (A) (A) (A) (A)
                 (A) (A) (A) (A) (A) (A) (A) (A) (A) (A) (A) (A)
                 (A) (A) (A) (A) (A) (A) (A) (A) (A) (A) (A) (A)
                 (A) (A) (A) (A) (A) (A) (A) (A) (A) (A) (A) (A)
                 (A) (A) (A) (A) (A) (A) (A) (A) (A) (A) (A) (A)
                 (A) (A) (A) (A) (A) (A) (A) (A) (A) (A) (A) (A)
                 (A) (A) (A) (A) (A) (A) (A) (A) (A) (A) (A) (A)
                 (A) (A) (A) (A) (A) (A) (A) (A) (A) (A) (A) (A)
                 (A) (A) (A) (A) (A) (A) (A) (A) (A) (A) (A) (A)
                 (A) (A) (A) (A) (A) (A) (A) (A) (A) (A) (A) (A)
                 (A) (A) (A) (A) (A) (A) (A) (A) (A) (A) (A) (A)
                 (A) (A) (A) (A) (A) (A) (A) (A) (A) (A) (A) (A)
                 (A) (A) (A) (A) (A) (A) (A) (A) (A) (A) (A) (A)
                 (A) (A) (A) (A) (A) (A) (A) (A) (A) (A) (A) (A)
                 (A) (A) (A) (A) (A) (A) (A) (A) (A) (A) (A) (A)
                 (A) (A) (A) (A) (A) (A) (A) (A) (A) (A) (A) (A)
                 (A) (A) (A) (A) (A) (A) (A) (A) (A) (A) (A) (A)
                 (A) (A) (A) (A) (A) (A) (A) (A) (A) (A) (A) (A)
                 (A) (A) (A) (A) (A) (A) (A) (A) (A) (A) (A) (A)
                 (A) (A) (A) (A) (A) (A) (A) (A) (A) (A) (A) (A)
                 (A) (A) (A) (A) (A) (A) (A) (A) (A) (A) (A) (A)
                 (A) (A) (A) (A) (A) (A) (A) (A) (A) (A) (A) (A)
                 (A) (A) (A) (A) (A) (A) (A) (A) (A) (A) (A) (A)
                 (A) (A) (A) (A) (A) (A) (A) (A) (A) (A) (A) (A)
                 (A) (A) (A) (A) (A) (A) (A) (A) (A) (A) (A) (A)
                 (A) (A) (A) (A) (A) (A) (A) (A) (A) (A) (A) (A)
                 (A) (A) (A) (A) (A) (A) (A) (A) (A) (A) (A) (A)
                 (A) (A) (A) (A) (A) (A) (A) (A) (A) (A) (A) (A)
                 (A) (A) (A) (A) (A) (A) (A) (A) (A) (A) (A) (A)
                 (A) (A) (A) (A) (A) (A) (A) (A) (A) (A) (A) (A)
                 (A) (A) (A) (A) (A) (A) (A) (A) (A) (A) (A) (A)
                 (A) (A) (A) (A) (A) (A) (A) (A) (A) (A) (A) (A)
                 (A) (A) (A) (A) (A) (A) (A) (A) (A) (A) (A) (A)
                 (A) (A) (A) (A) (A) (A) (A) (A) (A) (A) (A) (A)
                 (A) (A) (A) (A) (A) (A) (A) (A) (A) (A) (A) (A)
                 (A) (A) (A) (A) (A) (A) (A) (A) (A) (A) (A) (A)
                 (A) (A) (A) (A) (A) (A) (A) (A) (A) (A) (A) (A)
                 (A) (A) (A) (A) (A) (A) (A) (A) (A) (A) (A) (A)
                 (A) (A) (A) (A) (A) (A) (A) (A) (A) (A) (A) (A)
                 (A) (A) (A) (A) (A) (A) (A) (A) (A) (A) (A) (A)
                 (A) (A) (A) (A) (A) (A) (A) (A) (A) (A) (A) (A)
                 (A) (A) (A) (A) (A) (A) (A) (A) (A) (A) (A) (A)
                 (A) (A) (A) (A) (A) (A) (A) (A) (A) (A) (A) (A)
                 (A) (A) (A) (A) (A) (A) (A) (A) (A) (A) (A) (A)
                 (A) (A) (A) (A) (A) (A) (A) (A) (A) (A) (A) (A)
                 (A) (A) (A) (A) (A) (A) (A) (A) (A) (A) (A) (A)
                 (A) (A) (A) (A) (A) (A) (A) (A) (A) (A) (A) (A)
                 (A) (A) (A) (A) (A) (A) (A) (A) (A) (A) (A) (A)
                 (A) (A) (A) (A) (A) (A) (A) (A) (A) (A) (A) (A)
                 (A) (A) (A) (A) (A) (A) (A) (A) (A) (A) (A) (A)
                 (A) (A) (A) (A)
 The electronic state is 1-A.
 Alpha  occ. eigenvalues --  -10.22184 -10.22043 -10.21375 -10.21266 -10.20994
 Alpha  occ. eigenvalues --  -10.20977 -10.20921 -10.20775 -10.20589 -10.20414
 Alpha  occ. eigenvalues --  -10.20359 -10.20306 -10.20302 -10.20067 -10.19719
 Alpha  occ. eigenvalues --  -10.19660 -10.19464 -10.19393 -10.19365 -10.19220
 Alpha  occ. eigenvalues --  -10.19216 -10.19198 -10.19189 -10.18989 -10.18755
 Alpha  occ. eigenvalues --  -10.18500 -10.18440 -10.17466 -10.17345 -10.16772
 Alpha  occ. eigenvalues --   -0.91844  -0.89057  -0.87179  -0.85216  -0.84729
 Alpha  occ. eigenvalues --   -0.82448  -0.80783  -0.80300  -0.79221  -0.76930
 Alpha  occ. eigenvalues --   -0.76161  -0.75160  -0.72331  -0.70018  -0.69378
 Alpha  occ. eigenvalues --   -0.67115  -0.66357  -0.63952  -0.62536  -0.61800
 Alpha  occ. eigenvalues --   -0.60181  -0.59228  -0.58162  -0.56435  -0.55565
 Alpha  occ. eigenvalues --   -0.52696  -0.52395  -0.51403  -0.51157  -0.50394
 Alpha  occ. eigenvalues --   -0.49262  -0.47748  -0.47132  -0.46564  -0.45677
 Alpha  occ. eigenvalues --   -0.45478  -0.44972  -0.44143  -0.43484  -0.42433
 Alpha  occ. eigenvalues --   -0.42392  -0.42023  -0.41240  -0.41020  -0.40727
 Alpha  occ. eigenvalues --   -0.40066  -0.39437  -0.38776  -0.38229  -0.37104
 Alpha  occ. eigenvalues --   -0.36723  -0.36049  -0.35147  -0.34372  -0.34214
 Alpha  occ. eigenvalues --   -0.34020  -0.32676  -0.32447  -0.31049  -0.29541
 Alpha  occ. eigenvalues --   -0.28057  -0.26232  -0.24959  -0.22142  -0.20937
 Alpha  occ. eigenvalues --   -0.19904  -0.16846
 Alpha virt. eigenvalues --   -0.13281  -0.09936  -0.07061  -0.06370  -0.02821
 Alpha virt. eigenvalues --   -0.01256  -0.00927  -0.00151   0.00576   0.00680
 Alpha virt. eigenvalues --    0.00889   0.01459   0.01672   0.02328   0.02751
 Alpha virt. eigenvalues --    0.02933   0.03012   0.03331   0.03917   0.04336
 Alpha virt. eigenvalues --    0.04523   0.04609   0.05248   0.05326   0.05953
 Alpha virt. eigenvalues --    0.06470   0.06641   0.06815   0.07259   0.07578
 Alpha virt. eigenvalues --    0.08096   0.08356   0.08594   0.08772   0.09043
 Alpha virt. eigenvalues --    0.09264   0.09841   0.10141   0.10703   0.10985
 Alpha virt. eigenvalues --    0.11332   0.11591   0.11916   0.12345   0.12435
 Alpha virt. eigenvalues --    0.12849   0.13261   0.13646   0.13877   0.14164
 Alpha virt. eigenvalues --    0.14247   0.14733   0.14904   0.15228   0.15426
 Alpha virt. eigenvalues --    0.15818   0.16010   0.16129   0.16287   0.16458
 Alpha virt. eigenvalues --    0.16779   0.17013   0.17243   0.17399   0.17623
 Alpha virt. eigenvalues --    0.17704   0.17862   0.18179   0.18212   0.18606
 Alpha virt. eigenvalues --    0.18836   0.18966   0.19107   0.19284   0.19451
 Alpha virt. eigenvalues --    0.19519   0.19849   0.20221   0.20561   0.20687
 Alpha virt. eigenvalues --    0.20761   0.21189   0.21311   0.21471   0.21784
 Alpha virt. eigenvalues --    0.22012   0.22175   0.22442   0.22541   0.22825
 Alpha virt. eigenvalues --    0.23030   0.23170   0.23439   0.23668   0.23978
 Alpha virt. eigenvalues --    0.24395   0.24607   0.24878   0.25000   0.25503
 Alpha virt. eigenvalues --    0.25647   0.25887   0.26010   0.26244   0.26559
 Alpha virt. eigenvalues --    0.26834   0.27141   0.27477   0.27729   0.27804
 Alpha virt. eigenvalues --    0.28137   0.28349   0.28444   0.28686   0.28961
 Alpha virt. eigenvalues --    0.29341   0.29450   0.29771   0.29917   0.30200
 Alpha virt. eigenvalues --    0.30413   0.30942   0.31175   0.31382   0.31653
 Alpha virt. eigenvalues --    0.31871   0.32327   0.32657   0.32848   0.33104
 Alpha virt. eigenvalues --    0.34010   0.34222   0.34603   0.34960   0.35411
 Alpha virt. eigenvalues --    0.35762   0.35990   0.36363   0.36634   0.37187
 Alpha virt. eigenvalues --    0.37870   0.38015   0.38561   0.39178   0.39475
 Alpha virt. eigenvalues --    0.39617   0.39949   0.40717   0.41436   0.41978
 Alpha virt. eigenvalues --    0.42225   0.42780   0.43533   0.43756   0.44006
 Alpha virt. eigenvalues --    0.44857   0.45244   0.45819   0.46688   0.47145
 Alpha virt. eigenvalues --    0.48474   0.48754   0.49401   0.50330   0.50955
 Alpha virt. eigenvalues --    0.51187   0.52094   0.52278   0.52946   0.53605
 Alpha virt. eigenvalues --    0.54208   0.54516   0.54678   0.54784   0.55390
 Alpha virt. eigenvalues --    0.55958   0.56687   0.56831   0.57128   0.57406
 Alpha virt. eigenvalues --    0.57693   0.58125   0.59004   0.59329   0.59387
 Alpha virt. eigenvalues --    0.59730   0.59918   0.60054   0.60491   0.61179
 Alpha virt. eigenvalues --    0.61569   0.61909   0.62178   0.62654   0.62722
 Alpha virt. eigenvalues --    0.63471   0.63666   0.64578   0.64768   0.65300
 Alpha virt. eigenvalues --    0.65933   0.66232   0.66325   0.66746   0.67618
 Alpha virt. eigenvalues --    0.67827   0.68297   0.68865   0.69159   0.69255
 Alpha virt. eigenvalues --    0.69741   0.70100   0.70255   0.70424   0.70757
 Alpha virt. eigenvalues --    0.70970   0.71535   0.72235   0.72510   0.72651
 Alpha virt. eigenvalues --    0.72989   0.73174   0.73968   0.74248   0.74947
 Alpha virt. eigenvalues --    0.75109   0.75272   0.75847   0.76109   0.76646
 Alpha virt. eigenvalues --    0.77154   0.77500   0.78084   0.78724   0.79571
 Alpha virt. eigenvalues --    0.79943   0.80820   0.81711   0.82282   0.82424
 Alpha virt. eigenvalues --    0.82984   0.83319   0.83945   0.84589   0.85788
 Alpha virt. eigenvalues --    0.86188   0.86908   0.87463   0.87905   0.88239
 Alpha virt. eigenvalues --    0.89099   0.89525   0.90511   0.90653   0.90877
 Alpha virt. eigenvalues --    0.91465   0.91740   0.92211   0.92514   0.92882
 Alpha virt. eigenvalues --    0.93064   0.93701   0.94107   0.95016   0.95106
 Alpha virt. eigenvalues --    0.95532   0.95675   0.96528   0.96651   0.97016
 Alpha virt. eigenvalues --    0.97601   0.97978   0.98038   0.98713   0.98752
 Alpha virt. eigenvalues --    0.99424   0.99870   1.00130   1.00882   1.01133
 Alpha virt. eigenvalues --    1.01314   1.02336   1.03450   1.04270   1.04771
 Alpha virt. eigenvalues --    1.05313   1.06131   1.06295   1.07261   1.07624
 Alpha virt. eigenvalues --    1.09144   1.09380   1.10075   1.10773   1.11420
 Alpha virt. eigenvalues --    1.12433   1.13010   1.13437   1.14803   1.15137
 Alpha virt. eigenvalues --    1.15754   1.16413   1.17264   1.19023   1.19914
 Alpha virt. eigenvalues --    1.20573   1.20814   1.21532   1.22503   1.23717
 Alpha virt. eigenvalues --    1.26171   1.27291   1.28457   1.29480   1.30394
 Alpha virt. eigenvalues --    1.30824   1.31556   1.33520   1.34870   1.36417
 Alpha virt. eigenvalues --    1.37900   1.38554   1.39225   1.40492   1.41830
 Alpha virt. eigenvalues --    1.43301   1.44246   1.44775   1.44887   1.46338
 Alpha virt. eigenvalues --    1.46444   1.47291   1.47881   1.48197   1.48954
 Alpha virt. eigenvalues --    1.49377   1.49988   1.50381   1.50619   1.50955
 Alpha virt. eigenvalues --    1.51974   1.53112   1.53593   1.54231   1.54446
 Alpha virt. eigenvalues --    1.54990   1.56171   1.56682   1.57774   1.58181
 Alpha virt. eigenvalues --    1.58436   1.59150   1.59631   1.60037   1.60679
 Alpha virt. eigenvalues --    1.61010   1.62805   1.63328   1.64509   1.65423
 Alpha virt. eigenvalues --    1.66612   1.67579   1.68138   1.68591   1.70154
 Alpha virt. eigenvalues --    1.70701   1.70893   1.71709   1.72225   1.72986
 Alpha virt. eigenvalues --    1.73767   1.74116   1.75263   1.75357   1.76371
 Alpha virt. eigenvalues --    1.76976   1.77415   1.78092   1.78719   1.79588
 Alpha virt. eigenvalues --    1.79819   1.80862   1.81825   1.82497   1.82966
 Alpha virt. eigenvalues --    1.83743   1.84217   1.84794   1.85595   1.86119
 Alpha virt. eigenvalues --    1.86367   1.86823   1.87313   1.88367   1.89164
 Alpha virt. eigenvalues --    1.89452   1.90068   1.90406   1.90708   1.91179
 Alpha virt. eigenvalues --    1.91743   1.92811   1.93630   1.94162   1.94740
 Alpha virt. eigenvalues --    1.95392   1.96547   1.97020   1.97878   1.98161
 Alpha virt. eigenvalues --    1.99770   2.00296   2.00484   2.00836   2.02575
 Alpha virt. eigenvalues --    2.02995   2.04560   2.04870   2.05101   2.05946
 Alpha virt. eigenvalues --    2.06938   2.07949   2.08400   2.09183   2.09390
 Alpha virt. eigenvalues --    2.11813   2.12448   2.13033   2.14566   2.14670
 Alpha virt. eigenvalues --    2.14795   2.16094   2.16868   2.18532   2.19700
 Alpha virt. eigenvalues --    2.19886   2.20705   2.20994   2.21761   2.22325
 Alpha virt. eigenvalues --    2.22725   2.24402   2.25672   2.26841   2.28386
 Alpha virt. eigenvalues --    2.29689   2.30679   2.32290   2.33307   2.34738
 Alpha virt. eigenvalues --    2.35822   2.36626   2.37443   2.38859   2.39578
 Alpha virt. eigenvalues --    2.41244   2.42508   2.42844   2.43487   2.44381
 Alpha virt. eigenvalues --    2.46130   2.47483   2.48987   2.52375   2.52626
 Alpha virt. eigenvalues --    2.53176   2.54542   2.55712   2.57148   2.57417
 Alpha virt. eigenvalues --    2.58477   2.60059   2.61619   2.63723   2.64641
 Alpha virt. eigenvalues --    2.66535   2.67080   2.67474   2.69042   2.69551
 Alpha virt. eigenvalues --    2.70442   2.71273   2.72039   2.72102   2.72453
 Alpha virt. eigenvalues --    2.72724   2.73154   2.73626   2.74208   2.74614
 Alpha virt. eigenvalues --    2.74936   2.75140   2.75816   2.76002   2.76260
 Alpha virt. eigenvalues --    2.76690   2.76984   2.77324   2.77877   2.78108
 Alpha virt. eigenvalues --    2.78967   2.79955   2.81387   2.82052   2.82380
 Alpha virt. eigenvalues --    2.82868   2.83814   2.84076   2.86265   2.87201
 Alpha virt. eigenvalues --    2.88037   2.88179   2.89572   2.90729   2.91303
 Alpha virt. eigenvalues --    2.92531   2.94131   2.94639   2.96492   2.97207
 Alpha virt. eigenvalues --    2.98554   3.00759   3.01264   3.03174   3.03981
 Alpha virt. eigenvalues --    3.05183   3.07038   3.07765   3.09206   3.10671
 Alpha virt. eigenvalues --    3.11815   3.12330   3.13236   3.14471   3.15172
 Alpha virt. eigenvalues --    3.15222   3.17250   3.18048   3.19312   3.20219
 Alpha virt. eigenvalues --    3.22194   3.25167   3.26982   3.27306   3.29984
 Alpha virt. eigenvalues --    3.32393   3.33868   3.34551   3.34978   3.35887
 Alpha virt. eigenvalues --    3.37148   3.38036   3.39906   3.40357   3.43378
 Alpha virt. eigenvalues --    3.44940   3.46068   3.47200   3.48338   3.50703
 Alpha virt. eigenvalues --    3.51793   3.53140   3.56503   3.61803   3.62382
 Alpha virt. eigenvalues --    3.63561   3.65478   3.66887   3.69077   3.70883
 Alpha virt. eigenvalues --    3.75378   3.78050   3.84483   3.88404   3.94272
 Alpha virt. eigenvalues --    4.01271   4.04088   4.04884   4.05193   4.06871
 Alpha virt. eigenvalues --    4.08248   4.09665   4.12516   4.18000   4.23397
 Alpha virt. eigenvalues --    4.28029   4.29226   4.39945   4.41891   4.54480
 Alpha virt. eigenvalues --    4.64957   4.66886   4.68591   4.71817   4.72235
 Alpha virt. eigenvalues --    4.73681   4.76419   4.81745  23.41280  23.57569
 Alpha virt. eigenvalues --   23.65821  23.71695  23.73331  23.74881  23.75806
 Alpha virt. eigenvalues --   23.80384  23.82529  23.83601  23.84234  23.86956
 Alpha virt. eigenvalues --   23.87608  23.89123  23.90790  23.91073  23.94291
 Alpha virt. eigenvalues --   23.94492  23.95630  24.06989  24.14959  24.16772
 Alpha virt. eigenvalues --   24.18357  24.18676  24.19099  24.19642  24.23676
 Alpha virt. eigenvalues --   24.23972  24.24792  24.27339
          Condensed to atoms (all electrons):
               1          2          3          4          5          6
     1  C   13.645374  -1.785156  -1.170774   1.676978  -1.165130   0.576668
     2  C   -1.785156  11.351847   0.973416  -2.543124   0.180048  -1.311146
     3  C   -1.170774   0.973416  10.561590  -3.411184   0.621445  -1.774597
     4  C    1.676978  -2.543124  -3.411184  13.210057   0.799608   3.240972
     5  C   -1.165130   0.180048   0.621445   0.799608  11.181405  -1.909105
     6  C    0.576668  -1.311146  -1.774597   3.240972  -1.909105  14.279144
     7  C   -1.487361   1.639458   1.614379  -3.344901   3.667164  -6.746870
     8  C    0.282101  -0.705160  -3.084783   3.230056  -1.887824   2.118999
     9  C   -0.030940  -0.354399  -0.360600   0.389588   2.115042   0.400963
    10  C   -2.016365   2.131476   3.252410  -2.794483  -1.173174  -1.831543
    11  C    0.349193  -1.943897  -2.128575   2.067020   2.926187   1.210805
    12  C   -0.240747   0.091079   3.482730  -3.651190  -2.463856  -1.348278
    13  C   -0.507917   0.384010  -1.100276  -1.559056  -0.490576   0.309024
    14  C   -1.284930  -0.169173  -0.265760   1.266547   0.055240  -0.739102
    15  C    1.124003  -1.447938  -0.533156   0.041318  -2.437480  -0.145116
    16  C   -0.453290   1.003302   0.381435  -1.684317  -0.872956  -0.393581
    17  C   -1.642711   0.454998   0.745518  -0.929363  -1.163546  -0.157108
    18  C    0.063278   1.490235  -0.281802  -0.230863  -0.680503  -0.133041
    19  C    1.171954   0.108392  -0.102523   0.468252  -0.508582   0.169134
    20  C   -0.001238   0.132778  -0.295477   0.279186   0.062631  -0.038060
    21  C    0.339914  -1.506280  -0.360294  -0.224598  -0.268726   0.039087
    22  C    0.958382  -1.197588  -0.378433   0.231209   0.054635   0.100990
    23  C    0.503967  -0.060968  -0.589931   0.955179  -0.364142  -0.221817
    24  C   -0.043656  -1.014307   0.110378   0.121242  -0.099626  -0.096334
    25  C   -0.159883   0.090742  -0.052641  -0.062006  -0.012410  -0.000251
    26  C   -0.218792  -0.014022  -0.151892  -0.003767  -0.000286  -0.022115
    27  C   -0.586053  -0.049661  -0.039734  -0.133698  -0.039471  -0.055639
    28  C    0.614136  -0.133592  -0.007335  -0.031511   0.008615   0.145877
    29  C   -0.561421   0.415426   0.258530  -1.256226   0.252626   0.247421
    30  C   -2.428503   0.390624   0.208157  -0.301540   0.040911  -0.517121
    31  H   -0.229473  -0.067705  -0.040360  -0.002115  -0.032538   0.002165
    32  H   -0.021308   0.000688  -0.003063   0.014450  -0.003782  -0.049922
    33  H    0.002594   0.000363  -0.001567   0.016329  -0.018535  -0.060227
    34  H    0.000372   0.004193   0.004252  -0.017551   0.035429  -0.044308
    35  H    0.004592  -0.001536  -0.016609   0.005808   0.031862   0.016872
    36  H    0.009241  -0.003617   0.024666  -0.002088  -0.014772   0.001937
    37  H    0.001310  -0.017037   0.022178   0.003440   0.002595  -0.000108
    38  H   -0.001964  -0.005287   0.005270  -0.000351   0.001468  -0.000014
    39  H    0.000710  -0.001988   0.001746   0.000107   0.000147   0.000006
    40  H   -0.000476   0.001730  -0.000161   0.000000   0.000005   0.000000
    41  H    0.000077  -0.000957   0.000002  -0.000095  -0.000006   0.000002
    42  H    0.001147  -0.000147   0.000051   0.000093   0.000006  -0.000045
    43  H   -0.001674   0.000465  -0.000111  -0.000088  -0.000003   0.000185
    44  H    0.016443   0.003922   0.001578   0.006523   0.000583  -0.002419
               7          8          9         10         11         12
     1  C   -1.487361   0.282101  -0.030940  -2.016365   0.349193  -0.240747
     2  C    1.639458  -0.705160  -0.354399   2.131476  -1.943897   0.091079
     3  C    1.614379  -3.084783  -0.360600   3.252410  -2.128575   3.482730
     4  C   -3.344901   3.230056   0.389588  -2.794483   2.067020  -3.651190
     5  C    3.667164  -1.887824   2.115042  -1.173174   2.926187  -2.463856
     6  C   -6.746870   2.118999   0.400963  -1.831543   1.210805  -1.348278
     7  C   17.327958  -3.371893  -0.478384   1.510659  -1.360136   1.110761
     8  C   -3.371893  14.365649  -2.294640  -1.433171   1.573797  -3.730769
     9  C   -0.478384  -2.294640  11.412535  -0.705542   0.713413  -3.111745
    10  C    1.510659  -1.433171  -0.705542  14.793353  -4.909390   2.447451
    11  C   -1.360136   1.573797   0.713413  -4.909390  14.478711  -2.498176
    12  C    1.110761  -3.730769  -3.111745   2.447451  -2.498176  15.427416
    13  C   -0.207205   0.671047  -0.289781   0.007619  -0.057335  -0.031586
    14  C   -0.681626  -0.207546  -0.073684  -0.006227   0.085005  -0.181117
    15  C   -2.903199   0.780311   0.376356  -0.462101   0.105117   0.239202
    16  C    0.108297  -0.285679  -0.569806  -0.201858  -1.524516   0.770708
    17  C    0.223339  -0.282176  -0.283360   0.036399  -1.866951  -0.126662
    18  C   -0.106251   0.057513  -0.643705   1.644345  -0.838089   0.103986
    19  C    0.000380   0.020057   0.019948  -0.940293  -0.274639  -0.192664
    20  C   -0.024423  -0.004988  -0.035991  -0.180339   0.121063  -0.005186
    21  C    0.017504  -0.017040  -0.066746  -0.783116  -0.289769   0.023308
    22  C   -0.017846   0.012811  -0.055803  -1.776998   0.059600  -0.262912
    23  C   -0.198760   0.028623   0.059596  -0.371782   0.064016  -0.023979
    24  C   -0.026555   0.004350   0.001437  -0.115216   0.006405  -0.011932
    25  C    0.004216  -0.002262  -0.005236  -0.013517  -0.008373   0.003532
    26  C   -0.006477   0.002634  -0.000226  -0.077528   0.004498  -0.001583
    27  C   -0.004917  -0.003198   0.005037  -0.011959  -0.008667   0.006444
    28  C    0.011016   0.009601  -0.008775  -0.013456   0.002934  -0.006887
    29  C    0.243183  -0.029919  -0.061862   0.150964  -0.061780   0.016673
    30  C    0.007216   0.001719   0.053295   0.360620  -0.139893   0.085438
    31  H   -0.006289   0.002576   0.000917  -0.004401  -0.000587  -0.000931
    32  H    0.017792   0.009621  -0.002477  -0.000033   0.000216  -0.001349
    33  H    0.325128   0.017618  -0.012271  -0.000021   0.000393   0.001812
    34  H    0.064829   0.314553  -0.082950   0.013424  -0.001426   0.053302
    35  H   -0.022702   0.033072  -0.066599  -0.027323   0.052986   0.323830
    36  H   -0.002663   0.002414  -0.050811  -0.102925   0.373646  -0.010852
    37  H    0.000040   0.000072   0.006176  -0.076087   0.025029  -0.009264
    38  H    0.000001   0.000020   0.000281   0.045895   0.006819   0.000789
    39  H   -0.000001   0.000002   0.000032   0.001680   0.000177  -0.000018
    40  H    0.000000  -0.000000  -0.000002   0.000146   0.000003   0.000001
    41  H   -0.000000   0.000000   0.000000  -0.000004  -0.000001   0.000000
    42  H   -0.000002  -0.000000  -0.000001   0.000001   0.000001  -0.000000
    43  H    0.000018  -0.000000   0.000001   0.000005  -0.000001   0.000000
    44  H    0.002865  -0.000337   0.000127   0.000055   0.000017   0.000032
              13         14         15         16         17         18
     1  C   -0.507917  -1.284930   1.124003  -0.453290  -1.642711   0.063278
     2  C    0.384010  -0.169173  -1.447938   1.003302   0.454998   1.490235
     3  C   -1.100276  -0.265760  -0.533156   0.381435   0.745518  -0.281802
     4  C   -1.559056   1.266547   0.041318  -1.684317  -0.929363  -0.230863
     5  C   -0.490576   0.055240  -2.437480  -0.872956  -1.163546  -0.680503
     6  C    0.309024  -0.739102  -0.145116  -0.393581  -0.157108  -0.133041
     7  C   -0.207205  -0.681626  -2.903199   0.108297   0.223339  -0.106251
     8  C    0.671047  -0.207546   0.780311  -0.285679  -0.282176   0.057513
     9  C   -0.289781  -0.073684   0.376356  -0.569806  -0.283360  -0.643705
    10  C    0.007619  -0.006227  -0.462101  -0.201858   0.036399   1.644345
    11  C   -0.057335   0.085005   0.105117  -1.524516  -1.866951  -0.838089
    12  C   -0.031586  -0.181117   0.239202   0.770708  -0.126662   0.103986
    13  C   17.257291  -1.979501  -2.908793   0.293754  -0.829127   0.252383
    14  C   -1.979501  10.593972  -0.933340  -0.267541   0.005984  -0.016108
    15  C   -2.908793  -0.933340  14.900553  -0.083192  -0.269416   0.063793
    16  C    0.293754  -0.267541  -0.083192  10.695266  -1.377712  -0.037242
    17  C   -0.829127   0.005984  -0.269416  -1.377712  16.944365   0.717891
    18  C    0.252383  -0.016108   0.063793  -0.037242   0.717891  10.058009
    19  C   -1.356429   0.379150   0.159718   1.230462  -0.356648  -0.790635
    20  C   -1.171533   0.280126   0.069632  -2.043927   2.168048   0.116297
    21  C   -0.112045   0.020011  -0.007606   2.131993  -3.522986  -2.337617
    22  C   -0.040023  -0.014206   0.007497  -0.038336  -1.967722  -2.490925
    23  C   -3.042627   1.349390   1.119130   0.333057  -0.392733   0.212444
    24  C   -0.656099  -0.036786  -0.137138  -1.551211   0.334578  -0.076452
    25  C   -0.022830   0.009948  -0.006089  -0.013124  -0.342622  -0.090527
    26  C    0.265567  -0.022921   0.001907  -1.021552  -0.405295  -0.181170
[...]
 00003538,0.00032685,0.01216581,0.00703030,0.02533891,-0.00007593,0.000
 05350,0.00002329,0.00002632,0.00010808,0.00000371,0.00003405,-0.000052
 61,-0.00000116,0.00003589,0.00004018,0.00001379,0.00002465,0.00000323,
 -0.00000580,-0.00002022,-0.00001163,-0.00000378,-0.00000872,0.00002153
 ,-0.00000062,0.00002842,-0.00000367,-0.00001569,-0.00002558,-0.0000220
 4,0.00001728,-0.00003160,-0.00000874,-0.00001360,0.00000429,-0.0000029
 3,0.00001036,0.00001236,0.00001207,-0.00001176,-0.00030346,0.00011810,
 0.00005814,0.00002425,-0.00014279,-0.00013627,-0.00004840,0.00002213,0
 .00005380,0.00014903,-0.00012926,-0.00000645,-0.00010934,-0.00014227,-
 0.00000176,0.00003905,0.00004422,0.00001168,-0.00078212,0.00027412,0.0
 0001814,-0.00404672,0.00226792,-0.00010745,0.00065706,0.00095275,0.000
 10286,-0.00034566,0.00025817,0.00001135,-0.00435588,-0.00024141,-0.000
 17446,-0.00048881,-0.02757366,-0.00164812,-0.05993716,-0.02476496,-0.0
 0200074,0.00702464,0.02731223,0.00164925,-0.00017656,-0.00288728,-0.00
 012400,0.00022986,0.00052293,0.00004512,0.00003811,-0.00019622,-0.0000
 0154,0.00004888,-0.00142102,-0.00011851,-0.00003678,-0.00001286,0.0000
 0541,0.00000487,-0.00001175,0.00001920,-0.00000205,-0.00000159,0.00000
 252,-0.00000040,0.00000137,0.00000042,0.00000048,-0.00000965,0.0000023
 8,-0.00000351,0.00000314,-0.00000057,-0.00000188,-0.00000532,-0.000001
 40,-0.00000875,0.00013311,0.00000033,-0.00005223,-0.00003086,-0.000004
 24,0.00086833,-0.00038432,0.00008923,0.06267774,0.00000246,0.00007352,
 0.00002735,-0.00002303,-0.00001689,-0.00003411,0.00004485,0.00002910,0
 .00003941,-0.00002873,-0.00000025,-0.00005349,-0.00004185,-0.00004326,
 -0.00002105,0.00000689,-0.00004588,0.00007906,-0.00001024,0.00000429,0
 .00001643,0.00004967,0.00002341,-0.00005330,-0.00005432,-0.00003420,0.
 00005888,0.00002408,-0.00007381,-0.00010374,-0.00002060,0.00001887,0.0
 0005775,0.00005008,0.00002565,-0.00005730,-0.00006756,0.00010421,0.000
 00959,-0.00004225,-0.00001471,-0.00003261,-0.00000737,0.00001418,-0.00
 006528,0.00002938,0.00003865,0.00002835,0.00003267,0.00010154,-0.00001
 050,-0.00002736,-0.00004102,0.00006634,-0.00013015,0.00042042,0.000045
 76,0.00360482,0.00062000,-0.00032350,-0.00055641,-0.00084179,-0.000072
 55,0.00040242,-0.00009040,0.00004060,-0.00166103,0.00136505,-0.0001877
 7,0.00059194,-0.01063819,-0.00075328,-0.02581073,-0.33031633,-0.017470
 88,-0.00455023,-0.01454969,-0.00127822,0.00311495,0.00035455,0.0002343
 6,-0.00042883,0.00036685,-0.00001189,0.00013470,0.00024304,0.00005304,
 0.00028080,-0.00075046,-0.00007969,-0.00004352,-0.00003051,-0.00000420
 ,-0.00002050,-0.00000595,0.00002273,-0.00001703,-0.00000635,0.00000653
 ,-0.00000768,-0.00000843,0.00000124,-0.00000245,-0.00005026,0.00001464
 ,-0.00000553,0.00000709,-0.00000011,-0.00000518,-0.00000218,-0.0000013
 5,0.00000175,-0.00009888,0.00000042,0.00003658,0.00000930,-0.00000126,
 0.00026569,0.00082117,0.00034778,0.02496037,0.35192520,0.00013992,0.00
 006040,-0.00002277,-0.00016006,0.00004999,-0.00002361,0.00001710,-0.00
 010173,0.00007546,-0.00001135,-0.00002473,0.00004271,0.00002739,0.0000
 1027,0.00000176,0.00003660,-0.00000461,-0.00002867,-0.00000199,0.00000
 363,0.00000762,0.00002717,-0.00000416,-0.00001434,-0.00002711,-0.00003
 034,0.00000018,-0.00009331,-0.00001397,-0.00003257,0.00000786,0.000005
 81,0.00000873,-0.00000101,0.00000936,-0.00001014,-0.00046133,-0.000314
 57,0.00020648,0.00034726,0.00002624,-0.00019224,-0.00009750,0.00005682
 ,0.00004743,0.00001155,0.00020812,-0.00089167,0.00000494,-0.00010860,0
 .00012493,0.00004129,0.00010307,0.00003704,-0.00004044,-0.00002651,-0.
 00070379,-0.00008442,-0.00032163,0.00918072,0.00005194,-0.00009444,-0.
 00003648,0.00004191,0.00009658,-0.00049607,-0.00035957,-0.00038173,0.0
 0435354,0.00010664,-0.00110420,0.00289690,-0.00230139,-0.01729409,-0.0
 3872770,-0.00005789,-0.00093127,0.00531243,0.00026935,0.00011703,-0.00
 255874,-0.00003333,-0.00000440,-0.00000481,0.00001423,0.00005566,0.000
 06266,0.00025301,0.00010691,-0.00010813,0.00004235,0.00006100,0.000011
 07,-0.00000911,-0.00002519,0.00000349,-0.00000407,-0.00000080,0.000003
 40,-0.00000123,-0.00000048,0.00000007,-0.00000016,-0.00001267,0.000005
 76,-0.00000238,0.00000205,0.00000181,0.00000185,0.00000129,-0.00000243
 ,0.00000117,-0.00000076,0.00004764,-0.00000130,-0.00000325,0.00007451,
 0.00013581,0.00036727,-0.00508963,0.00224665,0.01942713,0.02598940,-0.
 00007061,0.00001905,0.00006899,-0.00002104,0.00001954,-0.00000002,0.00
 001755,-0.00002023,0.00001610,-0.00001255,-0.00005550,-0.00001773,-0.0
 0003164,0.00001115,-0.00000671,0.00003226,-0.00010109,-0.00002324,-0.0
 0002059,0.00006788,-0.00001306,0.00007686,-0.00001349,-0.00002354,-0.0
 0004760,-0.00004212,0.00003824,0.00002357,-0.00003064,-0.00005176,-0.0
 0002450,-0.00000543,0.00003436,0.00001169,0.00000858,-0.00003061,0.000
 10160,0.00000759,-0.00002064,0.00009590,-0.00033370,0.00006705,-0.0000
 1895,0.00011094,0.00002339,-0.00031462,0.00003871,-0.00000852,-0.00001
 577,0.00011904,0.00000309,-0.00004290,-0.00001095,0.00002610,0.0002864
 4,0.00103592,0.00006838,0.00014498,0.00031873,0.00005248,0.00000981,-0
 .00012446,0.00000351,0.00001979,0.00005573,-0.00000165,-0.00294246,0.0
 0192343,-0.00008195,0.00657209,0.02148754,0.00129537,-0.00029052,0.003
 26840,0.00022582,0.00023126,-0.00046081,-0.00003186,-0.07495536,-0.067
 46514,-0.00476585,-0.00195009,-0.03109201,-0.00179933,-0.00579228,-0.0
 0068021,-0.00040965,-0.00094330,0.00038146,0.00001082,-0.00001569,0.00
 004698,0.00002242,0.00000636,-0.00000005,0.00001687,-0.00000286,-0.000
 00226,0.00000281,-0.00000102,-0.00000667,0.00000396,0.00000210,-0.0000
 0612,0.00000538,0.00000248,0.00000136,-0.00000032,-0.00000149,0.000009
 56,0.00000049,0.00000234,-0.00000261,0.00000141,-0.00001717,0.00001082
 ,0.00000158,0.00000918,-0.00001324,-0.00000347,-0.00103374,0.00001498,
 -0.00004628,0.07997622,-0.00000200,0.00007533,0.00009648,0.00002919,0.
 00009377,-0.00006284,0.00002048,-0.00000235,0.00005551,-0.00004963,-0.
 00002456,-0.00007339,-0.00007608,-0.00005942,-0.00000414,0.00005831,-0
 .00014438,0.00007844,-0.00004287,0.00007040,0.00001609,0.00010146,0.00
 003179,-0.00006073,-0.00003358,-0.00001587,0.00009568,0.00004484,-0.00
 011031,-0.00016922,-0.00007314,-0.00000224,0.00011629,0.00002390,0.000
 01328,-0.00010426,0.00001942,0.00007366,-0.00005986,-0.00003583,-0.000
 21179,0.00002324,-0.00000013,0.00010021,-0.00002771,0.00038636,-0.0000
 4378,-0.00000898,-0.00007656,0.00002678,-0.00003560,0.00002336,-0.0000
 4105,0.00010633,-0.00084991,-0.00072602,-0.00011594,-0.00009569,0.0001
 0198,0.00014173,0.00003186,0.00000502,0.00003844,0.00004373,0.00003694
 ,-0.00001248,0.00333360,-0.00002200,-0.00014957,-0.00674912,-0.0182615
 1,-0.00121099,-0.00295705,0.00023117,0.00007330,0.00047853,0.00046057,
 -0.00002252,-0.06547941,-0.31465882,-0.01674257,0.00036823,-0.00477498
 ,-0.00052791,-0.00203413,0.00175074,-0.00026451,0.00044591,0.00031743,
 -0.00001930,-0.00004249,0.00002771,-0.00000061,0.00000064,0.00000604,0
 .00000703,-0.00000283,-0.00000420,0.00000403,-0.00001169,-0.00001857,0
 .00000162,0.00000650,-0.00001348,0.00001745,0.00000306,0.00000639,-0.0
 0000075,-0.00000694,-0.00001850,0.00000495,0.00000782,0.00001382,0.000
 00472,0.00003078,-0.00001168,0.00000370,0.00005232,-0.00004811,-0.0000
 0644,0.00086834,0.00103470,0.00005804,0.07235277,0.33440756,0.00013773
 ,-0.00003524,-0.00002289,-0.00008231,0.00001933,0.00000707,0.00001563,
 -0.00003758,0.00000201,0.00002724,0.00001996,0.00000644,0.00001444,-0.
 00000304,-0.00000766,-0.00003844,0.00007372,0.00001961,0.00000916,-0.0
 0004458,0.00001617,-0.00002085,0.00002205,-0.00000181,0.00003449,-0.00
 001867,0.00000675,-0.00005840,-0.00004926,-0.00001195,0.00002029,0.000
 03600,0.00000664,-0.00003464,0.00000691,-0.00000839,-0.00010730,0.0001
 4540,-0.00081315,0.00008256,-0.00004295,0.00008849,-0.00004177,-0.0001
 2658,-0.00000903,-0.00000260,0.00011001,0.00014643,0.00001823,-0.00005
 811,0.00004008,0.00003023,0.00006441,-0.00002510,-0.00003888,-0.000111
 38,0.00012887,0.00002359,0.00008106,0.00008187,0.00001224,-0.00001750,
 0.00001019,0.00001684,0.00002551,-0.00003288,-0.00003383,-0.00021471,0
 .00521233,-0.00004349,-0.00064860,0.00237290,-0.00020449,0.00027425,-0
 .00352121,0.00008777,-0.00008669,0.00001896,-0.00481720,-0.01662825,-0
 .03663317,0.00002857,-0.00131521,0.00436288,-0.00054810,-0.00032513,0.
 00779195,0.00018661,0.00012248,-0.00089538,-0.00014893,0.00000414,-0.0
 0003975,-0.00000816,0.00000904,-0.00001261,-0.00000248,0.00000023,-0.0
 0000030,-0.00000240,-0.00000115,-0.00000117,-0.00000074,-0.00000928,0.
 00000289,-0.00000182,0.00000199,0.00000094,-0.00000150,0.00000155,0.00
 000020,0.00000022,0.00000081,0.00000205,0.00000010,-0.00000216,0.00001
 464,0.00000343,-0.00001460,0.00017395,-0.00000062,0.00003315,0.0003268
 4,0.00536330,0.01856458,0.02559914,-0.00004510,-0.00005109,0.00008517,
 0.00001704,0.00005975,-0.00009078,0.00005791,0.00004698,0.00008036,0.0
 0002050,0.00005280,-0.00009448,-0.00009317,-0.00008247,-0.00002368,0.0
 0003279,-0.00009654,0.00015347,-0.00004032,0.00003108,0.00004241,0.000
 06405,0.00005927,-0.00007334,-0.00000566,0.00003646,0.00011443,0.00006
 991,-0.00013131,-0.00020124,-0.00007084,-0.00002533,0.00014726,0.00006
 836,0.00002127,-0.00013103,0.00016562,-0.00024925,-0.00014186,-0.00005
 669,0.00006617,-0.00006619,0.00000606,0.00005026,-0.00006354,-0.000019
 96,0.00005409,-0.00002888,0.00000500,0.00022435,-0.00000865,-0.0000399
 7,-0.00010375,0.00012910,0.00020040,0.00008529,-0.00001889,0.00000757,
 -0.00038115,0.00014379,-0.00000287,0.00000420,0.00003348,-0.00003118,-
 0.00001638,-0.00001102,-0.00034998,-0.00053883,0.00004100,-0.00381605,
 -0.00351907,-0.00043966,-0.00027659,0.00137584,0.00001156,-0.00060444,
 -0.00008335,-0.00005512,-0.01650490,0.02297385,0.00051679,-0.21330693,
 0.13739297,0.00178125,0.00879416,-0.00611015,0.00004751,0.00092131,-0.
 00215592,-0.00031830,-0.00001274,0.00002749,-0.00002483,-0.00000981,0.
 00001651,-0.00001062,-0.00000123,-0.00000459,0.00000191,-0.00001519,-0
 .00001065,-0.00000443,0.00000828,-0.00002325,0.00002100,-0.00000935,0.
 00001532,-0.00000323,-0.00001952,-0.00000289,-0.00000240,-0.00000015,0
 .00002343,0.00000712,0.00000078,-0.00001378,0.00000310,-0.00013741,0.0
 0009567,0.00000510,-0.00001957,-0.00008217,-0.00000795,0.00099496,-0.0
 0032042,0.00012656,0.22338655,-0.00058087,-0.00035607,-0.00011176,-0.0
 0000390,-0.00006113,0.00003722,-0.00001918,0.00002276,-0.00005911,0.00
 014831,-0.00007938,0.00016379,0.00003671,-0.00000133,0.00003837,-0.000
 04602,0.00007161,-0.00010220,0.00003023,-0.00000586,-0.00004233,-0.000
 02619,-0.00005704,0.00004690,-0.00003249,-0.00003410,-0.00010128,0.000
 01161,0.00013324,0.00016138,0.00005477,-0.00000845,-0.00011562,-0.0000
 0391,-0.00001087,0.00010182,0.00131999,-0.00066882,0.00014104,0.000050
 08,0.00000364,-0.00004207,-0.00003796,-0.00010554,0.00006593,-0.000053
 57,0.00000745,0.00001756,0.00006257,-0.00012313,0.00001119,0.00000635,
 0.00000805,-0.00010268,0.00030655,0.00001054,0.00009359,-0.00005484,-0
 .00016033,-0.00014981,-0.00003941,0.00012467,-0.00003264,-0.00003520,-
 0.00007393,0.00001239,-0.00103228,-0.00033401,-0.00003816,-0.00260069,
 0.00057508,-0.00054231,-0.00010396,0.00031708,0.00007954,-0.00014410,0
 .00013077,0.00007375,-0.00828906,0.01021698,0.00012118,0.13782666,-0.1
 8258967,-0.00329325,0.02451378,-0.01535285,-0.00036085,-0.00254251,-0.
 00375311,-0.00045033,0.00003968,0.00007724,-0.00002135,-0.00000552,-0.
 00004426,0.00002136,-0.00000634,-0.00000322,0.00000498,0.00001304,0.00
 000811,0.00000494,-0.00000549,0.00000080,-0.00001589,0.00000458,-0.000
 01134,0.00000241,0.00001502,0.00000304,0.00000100,0.00000102,-0.000016
 97,-0.00000464,0.00000913,0.00000845,-0.00000254,-0.00002908,0.0000215
 3,-0.00000517,-0.00000027,-0.00000903,-0.00000198,0.00050984,0.0006397
 3,0.00027027,-0.14907009,0.19036576,0.00011987,0.00017057,-0.00012804,
 -0.00009836,0.00004009,-0.00000557,0.00006358,0.00004009,0.00001123,-0
 .00009429,-0.00018116,0.00001554,-0.00011181,-0.00002086,-0.00000173,0
 .00012941,0.00009560,-0.00002648,0.00003953,-0.00008086,0.00000180,-0.
 00007549,0.00000288,0.00002081,0.00004798,0.00003693,-0.00000589,-0.00
 007110,-0.00003836,0.00000434,0.00002513,0.00000527,-0.00000341,-0.000
 00832,-0.00000216,0.00000570,-0.00014601,-0.00009956,0.00007633,0.0002
 7690,0.00017567,-0.00017148,-0.00006984,0.00005170,0.00005744,0.000114
 56,0.00009974,0.00002605,-0.00008483,-0.00000496,0.00002208,0.00004261
 ,0.00008133,0.00000347,-0.00000684,-0.00005424,-0.00104390,-0.00006783
 ,-0.00009307,0.00011775,0.00004789,-0.00001695,0.00005946,0.00003226,-
 0.00000803,0.00000226,-0.00011528,-0.00006233,-0.00059405,-0.00061929,
 -0.00064869,0.00848245,-0.00000162,0.00007544,0.00013019,-0.00000389,0
 .00008924,-0.00054675,-0.00084013,0.00108090,0.00380497,0.00189650,-0.
 00364388,-0.03772151,0.00151105,-0.00085626,0.00313063,0.00005606,-0.0
 0042562,0.00628869,-0.00005153,-0.00000429,-0.00005964,-0.00001022,-0.
 00000263,-0.00000899,-0.00000286,-0.00000354,-0.00000287,-0.00000092,0
 .00000146,-0.00000424,0.00000048,-0.00000188,0.00000038,-0.00000055,-0
 .00000065,0.00000100,0.00000447,-0.00000383,0.00000183,0.00000496,0.00
 000175,0.,0.00000119,-0.00000231,0.00000017,-0.00000770,0.00000616,0.0
 0000078,0.00000065,-0.00000716,0.00011637,0.00017771,0.00026656,-0.004
 35788,-0.00182008,0.00399548,0.02557892,-0.00013524,0.00039830,0.00055
 091,-0.00012748,0.00008396,0.00005729,-0.00008732,-0.00003934,-0.00005
 314,-0.00017020,-0.00035121,-0.00012628,-0.00004263,0.00015224,-0.0001
 3001,0.00032451,-0.00050504,-0.00023617,-0.00012186,0.00035891,-0.0000
 6762,0.00032670,-0.00014098,-0.00006475,-0.00025783,-0.00019235,0.0001
 0158,0.00011841,0.00009703,0.00004824,-0.00004507,-0.00005751,-0.00001
 815,0.00003664,0.00002082,0.00002235,-0.00099925,-0.00040933,0.0007779
 3,0.00096135,-0.00279192,-0.00029876,-0.00029759,0.00058405,0.00041078
 ,0.00006926,-0.00007252,0.00001925,-0.00004771,0.00006464,0.00002966,-
 0.00001726,-0.00010081,-0.00003196,-0.00031267,-0.00085885,-0.00014813
 ,-0.00020848,0.00037624,-0.00002713,-0.00004292,-0.00002797,-0.0000617
 0,-0.00008101,-0.00001333,-0.00000273,-0.00104602,0.00322602,0.0005385
 3,0.00050819,0.00052443,-0.00004317,-0.00000704,-0.00008332,-0.0000657
 9,0.00006422,0.00002683,0.00007520,0.00143118,-0.00080438,0.00047041,-
 0.00029290,0.00043553,0.00045602,-0.30923776,-0.07855371,-0.00474574,-
 0.01917913,-0.00647106,0.00029180,-0.00031302,0.00076026,-0.00005297,-
 0.00003587,-0.00001699,-0.00003294,0.00000147,-0.00000304,0.00001149,0
 .00001050,0.00000249,0.00001906,0.00000049,0.00001262,-0.00000335,0.00
 000650,-0.00000084,0.00000491,0.00000063,0.00000319,-0.00000485,-0.000
 00039,0.00000203,0.00000211,-0.00003215,0.00002155,0.00000628,-0.00001
 653,-0.00001056,0.,-0.00001321,-0.00000433,-0.00002280,-0.00005068,0.0
 0020809,-0.00000028,0.00066836,-0.00019698,-0.00028397,0.32869083,-0.0
 0010547,0.00055082,-0.00005341,0.00007980,-0.00013150,-0.00038655,0.00
 016524,0.00013116,0.00002982,-0.00012335,-0.00023279,-0.00010946,-0.00
 016677,-0.00022632,-0.00008565,0.00032255,0.00059128,0.00043896,0.0001
 0063,-0.00042974,0.00022737,-0.00041343,0.00021008,0.00002306,0.000409
 46,0.00021422,-0.00004480,-0.00034798,-0.00023321,0.00001409,0.0000532
 9,0.00014477,-0.00000522,-0.00012829,-0.00007275,0.00002146,0.00287793
 ,-0.00282340,0.00090479,0.00053092,-0.00078534,-0.00098719,-0.00027482
 ,-0.00043030,-0.00007598,-0.00007113,0.00037743,0.00008402,0.00002563,
 -0.00023535,0.00007193,0.00005951,0.00036732,0.00001813,0.00052983,0.0
 0085463,-0.00016944,0.00028758,-0.00000179,-0.00004268,0.00010349,-0.0
 0009724,-0.00006950,0.00019523,0.00011137,0.00000821,0.00284880,-0.003
 32950,0.00033180,0.00080684,-0.00067778,0.00000935,-0.00052550,-0.0000
 4075,-0.00005301,0.00028220,-0.00027705,0.00004797,-0.00036734,-0.0055
 4953,-0.00019413,-0.02967668,-0.00554346,-0.00034307,-0.08222706,-0.08
 242254,-0.00494382,0.02135064,0.00864705,0.00140937,0.00013879,-0.0004
 6118,-0.00070358,-0.00017954,0.00000452,-0.00026561,0.00001187,0.00000
 320,-0.00000961,-0.00002549,0.00000587,-0.00004445,-0.00000190,0.00001
 477,0.00000011,-0.00001012,0.00000091,0.00000819,0.00000096,-0.0000039
 0,-0.00002722,-0.00000362,-0.00000313,0.00000799,0.00003482,-0.0000286
 7,0.00001138,-0.00000035,-0.00000063,0.00000338,0.00007962,0.00006772,
 -0.00002053,-0.00135332,-0.00031139,-0.00009619,0.00035939,0.00111389,
 -0.00005355,0.08434711,0.09093822,0.00104039,-0.00036121,-0.00020576,-
 0.00071439,0.00021770,0.00041472,-0.00014052,-0.00035763,0.00003939,0.
 00001654,0.00009291,0.00025238,0.00023834,0.00018299,-0.00005096,0.000
 19570,-0.00019288,-0.00014837,-0.00016605,0.00017769,-0.00008212,0.000
 19855,-0.00006388,-0.00003357,-0.00008855,-0.00026788,0.00002953,-0.00
 017687,-0.00007338,-0.00000575,0.00006580,0.00014643,-0.00005557,-0.00
 019285,0.00002159,0.00002931,-0.00009061,0.00105773,-0.00439751,0.0004
 1717,-0.00048176,-0.00017479,-0.00023104,0.00037087,0.00066676,0.00004
 351,0.00059340,-0.00005611,0.00010902,-0.00029646,-0.00003897,0.000177
 76,0.00023053,0.00001416,-0.00001816,-0.00077955,0.00062000,0.00017515
 ,0.00056447,-0.00044288,0.00002155,-0.00001717,-0.00003218,-0.00003008
 ,0.00006179,-0.00000590,-0.00101733,-0.00050166,0.00651524,0.00052507,
 0.00073623,-0.00084899,-0.00065307,0.00009555,-0.00056774,0.00027300,-
 0.00054857,0.00014634,0.00007073,-0.00106283,0.00598294,-0.00284460,-0
 .00060956,0.00454029,-0.00173166,-0.00312385,-0.03852938,0.00200800,-0
 .00091888,0.00387013,0.00000497,-0.00012550,-0.00038797,-0.00006015,0.
 00007019,-0.00007230,-0.00000178,-0.00000290,0.00001236,0.00000225,0.0
 0000711,0.00002772,-0.00000622,-0.00000639,-0.00000382,0.00000672,-0.0
 0000122,0.00000229,0.00000146,0.00000559,0.00000527,0.00000020,-0.0000
 0429,0.00000550,-0.00000488,0.00001119,-0.00001854,0.00000086,-0.00000
 854,0.00002640,-0.00000697,0.00001273,0.00000484,-0.00019342,-0.000093
 88,-0.00004594,0.00014784,0.00012992,-0.00327819,0.00262861,0.00511330
 ,0.02627769\\-0.00001828,-0.00001514,-0.00001689,-0.00000894,-0.000003
 63,-0.00000020,-0.00000800,0.00001711,0.00000455,0.00000648,0.00003199
 ,-0.00002199,0.00000298,-0.00000607,-0.00000108,-0.00004051,0.00001311
 ,0.00002282,0.00001843,-0.00001367,-0.00000182,-0.00001955,0.00001497,
 0.00000275,0.00003005,-0.00002651,-0.00000758,0.00001321,-0.00003294,0
 .00000720,-0.00000250,0.00001023,-0.00000710,-0.00001998,0.00001692,0.
 00000179,-0.00000664,-0.00001968,0.00003391,0.00000748,0.00003093,-0.0
 0001839,0.00002085,-0.00003425,-0.00001620,0.00001107,0.00001183,0.000
 01377,-0.00001717,-0.00001144,-0.00000141,0.00000044,0.00000719,0.0000
 0032,0.00000255,-0.00000336,-0.00000573,0.00000988,-0.00000883,0.00000
 078,-0.00000291,0.00000004,0.00000306,0.00001379,0.00000635,0.00000242
 ,0.00000177,0.00001387,-0.00000490,-0.00001120,0.00001321,0.00000271,0
 .00000284,-0.00000657,0.00001028,-0.00000052,-0.00000145,0.00000249,0.
 00001802,-0.00000599,0.00000313,-0.00001027,-0.00001656,0.00000200,0.0
 0000857,0.00001655,-0.00000329,0.00001162,-0.00001012,-0.00000326,-0.0
 0000657,0.00000946,-0.00000336,-0.00000369,0.00000434,-0.00000258,-0.0
 0000368,0.00000256,-0.00000263,-0.00000690,0.00000208,-0.00000371,-0.0
 0000201,0.00000006,0.00000089,-0.00000428,-0.00000326,-0.00000023,-0.0
 0000027,-0.00000167,0.00000131,-0.00000156,-0.00000400,0.00000667,0.00
 000174,-0.00000309,0.00000338,0.00000243,-0.00000022,-0.00000161,0.000
 00470,-0.00000006,0.00000148,0.00000334,0.00000080,-0.00000049,0.00000
 424,0.00000221,-0.00000390,-0.00000110,0.00000273,0.00000066\\\@


 Other things may change us, but we start and end with family.
 -- Anthony Brandt
 Job cpu time:       0 days 21 hours 45 minutes 18.2 seconds.
 Elapsed time:       0 days  1 hours  5 minutes 27.0 seconds.
 File lengths (MBytes):  RWF=   2139 Int=      0 D2E=      0 Chk=     47 Scr=      1
 Normal termination of Gaussian 16 at Tue Jun 25 20:39:00 2019.
