 Entering Gaussian System, Link 0=/share/apps/gaussian16/g16/g16
 Initial command:
 /share/apps/gaussian16/g16/l1.exe "/home/amen01//scratch/628/Gau-42056.inp" -scrdir="/home/amen01//scratch/628/"
 Entering Link 1 = /share/apps/gaussian16/g16/l1.exe PID=     42057.
  
 Copyright (c) 1988-2017, Gaussian, Inc.  All Rights Reserved.
  
 This is part of the Gaussian(R) 16 program.  It is based on
 the Gaussian(R) 09 system (copyright 2009, Gaussian, Inc.),
 the Gaussian(R) 03 system (copyright 2003, Gaussian, Inc.),
 the Gaussian(R) 98 system (copyright 1998, Gaussian, Inc.),
 the Gaussian(R) 94 system (copyright 1995, Gaussian, Inc.),
 the Gaussian 92(TM) system (copyright 1992, Gaussian, Inc.),
 the Gaussian 90(TM) system (copyright 1990, Gaussian, Inc.),
 the Gaussian 88(TM) system (copyright 1988, Gaussian, Inc.),
 the Gaussian 86(TM) system (copyright 1986, Carnegie Mellon
 University), and the Gaussian 82(TM) system (copyright 1983,
 Carnegie Mellon University). Gaussian is a federally registered
 trademark of Gaussian, Inc.
  
 This software contains proprietary and confidential information,
 including trade secrets, belonging to Gaussian, Inc.
  
 This software is provided under written license and may be
 used, copied, transmitted, or stored only in accord with that
 written license.
  
 The following legend is applicable only to US Government
 contracts under FAR:
  
                    RESTRICTED RIGHTS LEGEND
  
 Use, reproduction and disclosure by the US Government is
 subject to restrictions as set forth in subparagraphs (a)
 and (c) of the Commercial Computer Software - Restricted
 Rights clause in FAR 52.227-19.
  
 Gaussian, Inc.
 340 Quinnipiac St., Bldg. 40, Wallingford CT 06492
  
  
 ---------------------------------------------------------------
 Warning -- This program may not be used in any manner that
 competes with the business of Gaussian, Inc. or will provide
 assistance to any competitor of Gaussian, Inc.  The licensee
 of this program is prohibited from giving any competitor of
 Gaussian, Inc. access to this program.  By using this program,
 the user acknowledges that Gaussian, Inc. is engaged in the
 business of creating and licensing software in the field of
 computational chemistry and represents and warrants to the
 licensee that it is not a competitor of Gaussian, Inc. and that
 it will not use this program in any manner prohibited above.
 ---------------------------------------------------------------
  

 Cite this work as:
 Gaussian 16, Revision B.01,
 M. J. Frisch, G. W. Trucks, H. B. Schlegel, G. E. Scuseria, 
 M. A. Robb, J. R. Cheeseman, G. Scalmani, V. Barone, 
 G. A. Petersson, H. Nakatsuji, X. Li, M. Caricato, A. V. Marenich, 
 J. Bloino, B. G. Janesko, R. Gomperts, B. Mennucci, H. P. Hratchian, 
 J. V. Ortiz, A. F. Izmaylov, J. L. Sonnenberg, D. Williams-Young, 
 F. Ding, F. Lipparini, F. Egidi, J. Goings, B. Peng, A. Petrone, 
 T. Henderson, D. Ranasinghe, V. G. Zakrzewski, J. Gao, N. Rega, 
 G. Zheng, W. Liang, M. Hada, M. Ehara, K. Toyota, R. Fukuda, 
 J. Hasegawa, M. Ishida, T. Nakajima, Y. Honda, O. Kitao, H. Nakai, 
 T. Vreven, K. Throssell, J. A. Montgomery, Jr., J. E. Peralta, 
 F. Ogliaro, M. J. Bearpark, J. J. Heyd, E. N. Brothers, K. N. Kudin, 
 V. N. Staroverov, T. A. Keith, R. Kobayashi, J. Normand, 
 K. Raghavachari, A. P. Rendell, J. C. Burant, S. S. Iyengar, 
 J. Tomasi, M. Cossi, J. M. Millam, M. Klene, C. Adamo, R. Cammi, 
 J. W. Ochterski, R. L. Martin, K. Morokuma, O. Farkas, 
 J. B. Foresman, and D. J. Fox, Gaussian, Inc., Wallingford CT, 2016.
 
 ******************************************
 Gaussian 16:  ES64L-G16RevB.01 20-Dec-2017
                25-Jun-2019 
 ******************************************
 %nprocshared=20
 Will use up to   20 processors via shared memory.
 %mem=100GB
 %chk=7-memb2-hadd-4b.chk
 -------------------------------------------
 # opt freq b3lyp/6-311+g(d,p) int=grid=fine
 -------------------------------------------
 1/18=20,19=15,26=3,38=1/1,3;
 2/9=110,12=2,17=6,18=5,40=1/2;
 3/5=4,6=6,7=111,11=2,25=1,30=1,71=1,74=-5,75=-4/1,2,3;
 4//1;
 5/5=2,38=5/2;
 6/7=2,8=2,9=2,10=2,28=1/1;
 7//1,2,3,16;
 1/18=20,19=15,26=3/3(2);
 2/9=110/2;
 99//99;
 2/9=110/2;
 3/5=4,6=6,7=111,11=2,25=1,30=1,71=1,74=-5,75=-4/1,2,3;
 4/5=5,16=3,69=1/1;
 5/5=2,38=5/2;
 7//1,2,3,16;
 1/18=20,19=15,26=3/3(-5);
 2/9=110/2;
 6/7=2,8=2,9=2,10=2,19=2,28=1/1;
 99/9=1/99;
 ---------------
 7-memb2-hadd-4b
 ---------------
 Symbolic Z-matrix:
 Charge =  0 Multiplicity = 1
 C                    -3.96391   0.27882   0.29036 
 C                    -2.53073   0.07022   0.28714 
 C                    -2.39438  -1.38134   0.22688 
 C                    -4.60884  -1.02535   0.18784 
 C                    -3.68678  -1.98601   0.15869 
 C                    -6.00723  -1.348     0.25961 
 C                    -6.38266  -2.77579   0.17972 
 C                    -5.42598  -3.74861   0.12418 
 C                    -3.99527  -3.38706   0.13848 
 C                    -1.28504  -2.12814   0.22254 
 C                    -1.52777  -3.58557   0.17017 
 C                    -2.90063  -4.18762   0.13838 
 C                    -4.72193   1.35375   0.52384 
 C                    -6.19238   1.08192   0.5641 
 C                    -6.80169  -0.26933   0.43055 
 C                    -1.47021   0.89144   0.25756 
 C                    -0.13414   0.15611   0.17294 
 C                    -0.06867  -1.33014   0.25236 
 C                    -1.57936   2.38076   0.14427 
 C                    -0.27368   3.06399  -0.19553 
 C                     0.96176   2.28699  -0.20998 
 C                     0.9974    0.85615  -0.02581 
 C                    -2.72315   3.12949   0.3311 
 C                    -2.64931   4.62545  -0.02091 
 C                    -1.36789   5.19511  -0.39148 
 C                    -0.18876   4.38374  -0.43969 
 C                    -3.72395   5.45707  -0.03719 
 C                    -5.05106   5.00114   0.29429 
 C                    -5.02431   3.77427   0.68574 
 C                    -4.10755   2.66413   0.94132 
 H                    -7.87899  -0.351     0.51862 
 H                    -7.4371   -3.02976   0.17953 
 H                    -5.69465  -4.79789   0.07458 
 H                    -2.97557  -5.26899   0.12399 
 H                    -0.67627  -4.25636   0.1541 
 H                     0.89004  -1.83384   0.2296 
 H                     1.96539   0.37183  -0.10533 
 H                     1.90768   2.78789  -0.39018 
 H                     0.74979   4.87673  -0.66975 
 H                    -1.27927   6.24588  -0.64374 
 H                    -3.6333    6.50421  -0.31183 
 H                    -5.93414   5.61977   0.23315 
 H                    -3.95434   2.61752   2.03011 
 H                    -6.87108   1.89856   0.78998 
 

 GradGradGradGradGradGradGradGradGradGradGradGradGradGradGradGradGradGrad
 Berny optimization.
 Initialization pass.
                           ----------------------------
                           !    Initial Parameters    !
                           ! (Angstroms and Degrees)  !
 --------------------------                            --------------------------
 ! Name  Definition              Value          Derivative Info.                !
 --------------------------------------------------------------------------------
 ! R1    R(1,2)                  1.4483         estimate D2E/DX2                !
 ! R2    R(1,4)                  1.4585         estimate D2E/DX2                !
 ! R3    R(1,13)                 1.3359         estimate D2E/DX2                !
 ! R4    R(2,3)                  1.4592         estimate D2E/DX2                !
 ! R5    R(2,16)                 1.3416         estimate D2E/DX2                !
 ! R6    R(3,5)                  1.4285         estimate D2E/DX2                !
 ! R7    R(3,10)                 1.3373         estimate D2E/DX2                !
 ! R8    R(4,5)                  1.3319         estimate D2E/DX2                !
 ! R9    R(4,6)                  1.4369         estimate D2E/DX2                !
 ! R10   R(5,9)                  1.4348         estimate D2E/DX2                !
 ! R11   R(6,7)                  1.4785         estimate D2E/DX2                !
 ! R12   R(6,15)                 1.3505         estimate D2E/DX2                !
 ! R13   R(7,8)                  1.3655         estimate D2E/DX2                !
 ! R14   R(7,32)                 1.0846         estimate D2E/DX2                !
 ! R15   R(8,9)                  1.4758         estimate D2E/DX2                !
 ! R16   R(8,33)                 1.0843         estimate D2E/DX2                !
 ! R17   R(9,12)                 1.3561         estimate D2E/DX2                !
 ! R18   R(10,11)                1.4784         estimate D2E/DX2                !
 ! R19   R(10,18)                1.4551         estimate D2E/DX2                !
 ! R20   R(11,12)                1.4994         estimate D2E/DX2                !
 ! R21   R(11,35)                1.0841         estimate D2E/DX2                !
 ! R22   R(12,34)                1.0841         estimate D2E/DX2                !
 ! R23   R(13,14)                1.4959         estimate D2E/DX2                !
 ! R24   R(13,30)                1.5063         estimate D2E/DX2                !
 ! R25   R(14,15)                1.4883         estimate D2E/DX2                !
 ! R26   R(14,44)                1.0856         estimate D2E/DX2                !
 ! R27   R(15,31)                1.084          estimate D2E/DX2                !
 ! R28   R(16,17)                1.5274         estimate D2E/DX2                !
 ! R29   R(16,19)                1.4976         estimate D2E/DX2                !
 ! R30   R(17,18)                1.4898         estimate D2E/DX2                !
 ! R31   R(17,22)                1.3453         estimate D2E/DX2                !
 ! R32   R(18,36)                1.0832         estimate D2E/DX2                !
 ! R33   R(19,20)                1.5123         estimate D2E/DX2                !
 ! R34   R(19,23)                1.3798         estimate D2E/DX2                !
 ! R35   R(20,21)                1.4595         estimate D2E/DX2                !
 ! R36   R(20,26)                1.3448         estimate D2E/DX2                !
 ! R37   R(21,22)                1.4431         estimate D2E/DX2                !
 ! R38   R(21,38)                1.0854         estimate D2E/DX2                !
 ! R39   R(22,37)                1.0853         estimate D2E/DX2                !
 ! R40   R(23,24)                1.5386         estimate D2E/DX2                !
 ! R41   R(23,30)                1.5829         estimate D2E/DX2                !
 ! R42   R(24,25)                1.4505         estimate D2E/DX2                !
 ! R43   R(24,27)                1.3589         estimate D2E/DX2                !
 ! R44   R(25,26)                1.4321         estimate D2E/DX2                !
 ! R45   R(25,40)                1.0843         estimate D2E/DX2                !
 ! R46   R(26,39)                1.0848         estimate D2E/DX2                !
 ! R47   R(27,28)                1.4419         estimate D2E/DX2                !
 ! R48   R(27,41)                1.0863         estimate D2E/DX2                !
 ! R49   R(28,29)                1.2881         estimate D2E/DX2                !
 ! R50   R(28,42)                1.0799         estimate D2E/DX2                !
 ! R51   R(29,30)                1.4623         estimate D2E/DX2                !
 ! R52   R(30,43)                1.1005         estimate D2E/DX2                !
 ! A1    A(2,1,4)              107.9762         estimate D2E/DX2                !
 ! A2    A(2,1,13)             132.6718         estimate D2E/DX2                !
 ! A3    A(4,1,13)             118.7429         estimate D2E/DX2                !
 ! A4    A(1,2,3)              103.641          estimate D2E/DX2                !
 ! A5    A(1,2,16)             133.9564         estimate D2E/DX2                !
 ! A6    A(3,2,16)             122.2848         estimate D2E/DX2                !
 ! A7    A(2,3,5)              109.7862         estimate D2E/DX2                !
 ! A8    A(2,3,10)             129.2841         estimate D2E/DX2                !
 ! A9    A(5,3,10)             120.9288         estimate D2E/DX2                !
 ! A10   A(1,4,5)              109.8991         estimate D2E/DX2                !
 ! A11   A(1,4,6)              128.8725         estimate D2E/DX2                !
 ! A12   A(5,4,6)              120.8551         estimate D2E/DX2                !
 ! A13   A(3,5,4)              108.6622         estimate D2E/DX2                !
 ! A14   A(3,5,9)              127.4849         estimate D2E/DX2                !
 ! A15   A(4,5,9)              123.7653         estimate D2E/DX2                !
 ! A16   A(4,6,7)              117.4687         estimate D2E/DX2                !
 ! A17   A(4,6,15)             113.5447         estimate D2E/DX2                !
 ! A18   A(7,6,15)             128.9603         estimate D2E/DX2                !
 ! A19   A(6,7,8)              120.8157         estimate D2E/DX2                !
 ! A20   A(6,7,32)             118.2299         estimate D2E/DX2                !
 ! A21   A(8,7,32)             120.9496         estimate D2E/DX2                !
 ! A22   A(7,8,9)              120.2832         estimate D2E/DX2                !
 ! A23   A(7,8,33)             121.1769         estimate D2E/DX2                !
 ! A24   A(9,8,33)             118.5391         estimate D2E/DX2                !
 ! A25   A(5,9,8)              116.6042         estimate D2E/DX2                !
 ! A26   A(5,9,12)             113.7597         estimate D2E/DX2                !
 ! A27   A(8,9,12)             129.6359         estimate D2E/DX2                !
 ! A28   A(3,10,11)            114.4833         estimate D2E/DX2                !
 ! A29   A(3,10,18)            112.7756         estimate D2E/DX2                !
 ! A30   A(11,10,18)           132.7348         estimate D2E/DX2                !
 ! A31   A(10,11,12)           123.1544         estimate D2E/DX2                !
 ! A32   A(10,11,35)           118.7856         estimate D2E/DX2                !
 ! A33   A(12,11,35)           118.06           estimate D2E/DX2                !
 ! A34   A(9,12,11)            120.1335         estimate D2E/DX2                !
 ! A35   A(9,12,34)            122.2123         estimate D2E/DX2                !
 ! A36   A(11,12,34)           117.6524         estimate D2E/DX2                !
 ! A37   A(1,13,14)            114.5986         estimate D2E/DX2                !
 ! A38   A(1,13,30)            121.1319         estimate D2E/DX2                !
 ! A39   A(14,13,30)           123.4745         estimate D2E/DX2                !
 ! A40   A(13,14,15)           124.4029         estimate D2E/DX2                !
 ! A41   A(13,14,44)           118.9106         estimate D2E/DX2                !
 ! A42   A(15,14,44)           116.468          estimate D2E/DX2                !
 ! A43   A(6,15,14)            119.7151         estimate D2E/DX2                !
 ! A44   A(6,15,31)            122.3266         estimate D2E/DX2                !
 ! A45   A(14,15,31)           117.9046         estimate D2E/DX2                !
 ! A46   A(2,16,17)            113.4525         estimate D2E/DX2                !
 ! A47   A(2,16,19)            123.5575         estimate D2E/DX2                !
 ! A48   A(17,16,19)           122.5696         estimate D2E/DX2                !
 ! A49   A(16,17,18)           121.0484         estimate D2E/DX2                !
 ! A50   A(16,17,22)           119.5643         estimate D2E/DX2                !
 ! A51   A(18,17,22)           119.3416         estimate D2E/DX2                !
 ! A52   A(10,18,17)           120.6163         estimate D2E/DX2                !
 ! A53   A(10,18,36)           118.9741         estimate D2E/DX2                !
 ! A54   A(17,18,36)           120.1104         estimate D2E/DX2                !
 ! A55   A(16,19,20)           113.788          estimate D2E/DX2                !
 ! A56   A(16,19,23)           126.1444         estimate D2E/DX2                !
 ! A57   A(20,19,23)           120.0647         estimate D2E/DX2                !
 ! A58   A(19,20,21)           119.5066         estimate D2E/DX2                !
 ! A59   A(19,20,26)           122.5929         estimate D2E/DX2                !
 ! A60   A(21,20,26)           117.8517         estimate D2E/DX2                !
 ! A61   A(20,21,22)           123.1946         estimate D2E/DX2                !
 ! A62   A(20,21,38)           119.5802         estimate D2E/DX2                !
 ! A63   A(22,21,38)           117.2085         estimate D2E/DX2                !
 ! A64   A(17,22,21)           120.9314         estimate D2E/DX2                !
 ! A65   A(17,22,37)           121.9233         estimate D2E/DX2                !
 ! A66   A(21,22,37)           117.074          estimate D2E/DX2                !
 ! A67   A(19,23,24)           117.1841         estimate D2E/DX2                !
 ! A68   A(19,23,30)           128.1479         estimate D2E/DX2                !
 ! A69   A(24,23,30)           114.5839         estimate D2E/DX2                !
 ! A70   A(23,24,25)           118.8625         estimate D2E/DX2                !
 ! A71   A(23,24,27)           124.0418         estimate D2E/DX2                !
 ! A72   A(25,24,27)           117.0793         estimate D2E/DX2                !
 ! A73   A(24,25,26)           120.8955         estimate D2E/DX2                !
 ! A74   A(24,25,40)           120.8145         estimate D2E/DX2                !
 ! A75   A(26,25,40)           118.2894         estimate D2E/DX2                !
 ! A76   A(20,26,25)           119.8599         estimate D2E/DX2                !
 ! A77   A(20,26,39)           122.6225         estimate D2E/DX2                !
 ! A78   A(25,26,39)           117.5162         estimate D2E/DX2                !
 ! A79   A(24,27,28)           122.1133         estimate D2E/DX2                !
 ! A80   A(24,27,41)           121.7975         estimate D2E/DX2                !
 ! A81   A(28,27,41)           116.0861         estimate D2E/DX2                !
 ! A82   A(27,28,29)           110.6056         estimate D2E/DX2                !
 ! A83   A(27,28,42)           123.9508         estimate D2E/DX2                !
 ! A84   A(29,28,42)           125.4366         estimate D2E/DX2                !
 ! A85   A(28,29,30)           142.1161         estimate D2E/DX2                !
 ! A86   A(13,30,23)           120.3746         estimate D2E/DX2                !
 ! A87   A(13,30,29)           110.8731         estimate D2E/DX2                !
 ! A88   A(13,30,43)           107.1066         estimate D2E/DX2                !
 ! A89   A(23,30,29)           104.9368         estimate D2E/DX2                !
 ! A90   A(23,30,43)           105.7893         estimate D2E/DX2                !
 ! A91   A(29,30,43)           106.9994         estimate D2E/DX2                !
 ! D1    D(4,1,2,3)             -1.8747         estimate D2E/DX2                !
 ! D2    D(4,1,2,16)           174.0885         estimate D2E/DX2                !
 ! D3    D(13,1,2,3)           168.774          estimate D2E/DX2                !
 ! D4    D(13,1,2,16)          -15.2628         estimate D2E/DX2                !
 ! D5    D(2,1,4,5)              1.5688         estimate D2E/DX2                !
 ! D6    D(2,1,4,6)            174.4879         estimate D2E/DX2                !
 ! D7    D(13,1,4,5)          -170.5999         estimate D2E/DX2                !
 ! D8    D(13,1,4,6)             2.3192         estimate D2E/DX2                !
 ! D9    D(2,1,13,14)         -173.6951         estimate D2E/DX2                !
 ! D10   D(2,1,13,30)           -3.5657         estimate D2E/DX2                !
 ! D11   D(4,1,13,14)           -3.848          estimate D2E/DX2                !
 ! D12   D(4,1,13,30)          166.2815         estimate D2E/DX2                !
 ! D13   D(1,2,3,5)              1.6141         estimate D2E/DX2                !
 ! D14   D(1,2,3,10)          -178.7465         estimate D2E/DX2                !
 ! D15   D(16,2,3,5)          -174.9493         estimate D2E/DX2                !
 ! D16   D(16,2,3,10)            4.6901         estimate D2E/DX2                !
 ! D17   D(1,2,16,17)         -176.0446         estimate D2E/DX2                !
 ! D18   D(1,2,16,19)           -3.3271         estimate D2E/DX2                !
 ! D19   D(3,2,16,17)           -0.6861         estimate D2E/DX2                !
 ! D20   D(3,2,16,19)          172.0313         estimate D2E/DX2                !
 ! D21   D(2,3,5,4)             -0.7179         estimate D2E/DX2                !
 ! D22   D(2,3,5,9)           -177.3857         estimate D2E/DX2                !
 ! D23   D(10,3,5,4)           179.6075         estimate D2E/DX2                !
 ! D24   D(10,3,5,9)             2.9397         estimate D2E/DX2                !
 ! D25   D(2,3,10,11)          179.2398         estimate D2E/DX2                !
 ! D26   D(2,3,10,18)           -1.5544         estimate D2E/DX2                !
 ! D27   D(5,3,10,11)           -1.1558         estimate D2E/DX2                !
 ! D28   D(5,3,10,18)          178.05           estimate D2E/DX2                !
 ! D29   D(1,4,5,3)             -0.5199         estimate D2E/DX2                !
 ! D30   D(1,4,5,9)            176.2996         estimate D2E/DX2                !
 ! D31   D(6,4,5,3)           -174.1011         estimate D2E/DX2                !
 ! D32   D(6,4,5,9)              2.7184         estimate D2E/DX2                !
 ! D33   D(1,4,6,7)           -177.479          estimate D2E/DX2                !
 ! D34   D(1,4,6,15)             0.8234         estimate D2E/DX2                !
 ! D35   D(5,4,6,7)             -5.2389         estimate D2E/DX2                !
 ! D36   D(5,4,6,15)           173.0636         estimate D2E/DX2                !
 ! D37   D(3,5,9,8)            177.3875         estimate D2E/DX2                !
 ! D38   D(3,5,9,12)            -2.4785         estimate D2E/DX2                !
 ! D39   D(4,5,9,8)              1.1857         estimate D2E/DX2                !
 ! D40   D(4,5,9,12)          -178.6803         estimate D2E/DX2                !
 ! D41   D(4,6,7,8)              3.9797         estimate D2E/DX2                !
 ! D42   D(4,6,7,32)          -176.8056         estimate D2E/DX2                !
 ! D43   D(15,6,7,8)          -174.0188         estimate D2E/DX2                !
 ! D44   D(15,6,7,32)            5.1959         estimate D2E/DX2                !
 ! D45   D(4,6,15,14)           -1.7568         estimate D2E/DX2                !
 ! D46   D(4,6,15,31)         -179.0342         estimate D2E/DX2                !
 ! D47   D(7,6,15,14)          176.3061         estimate D2E/DX2                !
 ! D48   D(7,6,15,31)           -0.9713         estimate D2E/DX2                !
 ! D49   D(6,7,8,9)             -0.2114         estimate D2E/DX2                !
 ! D50   D(6,7,8,33)           179.4377         estimate D2E/DX2                !
 ! D51   D(32,7,8,9)          -179.4046         estimate D2E/DX2                !
 ! D52   D(32,7,8,33)            0.2446         estimate D2E/DX2                !
 ! D53   D(7,8,9,5)             -2.3998         estimate D2E/DX2                !
 ! D54   D(7,8,9,12)           177.441          estimate D2E/DX2                !
 ! D55   D(33,8,9,5)           177.9419         estimate D2E/DX2                !
 ! D56   D(33,8,9,12)           -2.2173         estimate D2E/DX2                !
 ! D57   D(5,9,12,11)            0.5272         estimate D2E/DX2                !
 ! D58   D(5,9,12,34)         -179.9837         estimate D2E/DX2                !
 ! D59   D(8,9,12,11)         -179.3173         estimate D2E/DX2                !
 ! D60   D(8,9,12,34)            0.1718         estimate D2E/DX2                !
 ! D61   D(3,10,11,12)          -0.5951         estimate D2E/DX2                !
 ! D62   D(3,10,11,35)         179.4258         estimate D2E/DX2                !
 ! D63   D(18,10,11,12)       -179.5981         estimate D2E/DX2                !
 ! D64   D(18,10,11,35)          0.4228         estimate D2E/DX2                !
 ! D65   D(3,10,18,17)          -4.9436         estimate D2E/DX2                !
 ! D66   D(3,10,18,36)        -178.6677         estimate D2E/DX2                !
 ! D67   D(11,10,18,17)        174.0723         estimate D2E/DX2                !
 ! D68   D(11,10,18,36)          0.3482         estimate D2E/DX2                !
 ! D69   D(10,11,12,9)           0.9211         estimate D2E/DX2                !
 ! D70   D(10,11,12,34)       -178.5909         estimate D2E/DX2                !
 ! D71   D(35,11,12,9)        -179.0996         estimate D2E/DX2                !
 ! D72   D(35,11,12,34)          1.3884         estimate D2E/DX2                !
 ! D73   D(1,13,14,15)           3.0579         estimate D2E/DX2                !
 ! D74   D(1,13,14,44)         177.4879         estimate D2E/DX2                !
 ! D75   D(30,13,14,15)       -166.8103         estimate D2E/DX2                !
 ! D76   D(30,13,14,44)          7.6197         estimate D2E/DX2                !
 ! D77   D(1,13,30,23)          37.1624         estimate D2E/DX2                !
 ! D78   D(1,13,30,29)         160.067          estimate D2E/DX2                !
 ! D79   D(1,13,30,43)         -83.5263         estimate D2E/DX2                !
 ! D80   D(14,13,30,23)       -153.6072         estimate D2E/DX2                !
 ! D81   D(14,13,30,29)        -30.7025         estimate D2E/DX2                !
 ! D82   D(14,13,30,43)         85.7042         estimate D2E/DX2                !
 ! D83   D(13,14,15,6)          -0.0262         estimate D2E/DX2                !
 ! D84   D(13,14,15,31)        177.3704         estimate D2E/DX2                !
 ! D85   D(44,14,15,6)        -174.5799         estimate D2E/DX2                !
 ! D86   D(44,14,15,31)          2.8168         estimate D2E/DX2                !
 ! D87   D(2,16,17,18)          -5.493          estimate D2E/DX2                !
 ! D88   D(2,16,17,22)         172.0312         estimate D2E/DX2                !
 ! D89   D(19,16,17,18)       -178.2922         estimate D2E/DX2                !
 ! D90   D(19,16,17,22)         -0.768          estimate D2E/DX2                !
 ! D91   D(2,16,19,20)        -166.3494         estimate D2E/DX2                !
 ! D92   D(2,16,19,23)          14.2822         estimate D2E/DX2                !
 ! D93   D(17,16,19,20)          5.719          estimate D2E/DX2                !
 ! D94   D(17,16,19,23)       -173.6494         estimate D2E/DX2                !
 ! D95   D(16,17,18,10)          8.7385         estimate D2E/DX2                !
 ! D96   D(16,17,18,36)       -177.6086         estimate D2E/DX2                !
 ! D97   D(22,17,18,10)       -168.7911         estimate D2E/DX2                !
 ! D98   D(22,17,18,36)          4.8617         estimate D2E/DX2                !
 ! D99   D(16,17,22,21)         -2.3279         estimate D2E/DX2                !
 ! D100  D(16,17,22,37)       -179.166          estimate D2E/DX2                !
 ! D101  D(18,17,22,21)        175.2389         estimate D2E/DX2                !
 ! D102  D(18,17,22,37)         -1.5992         estimate D2E/DX2                !
 ! D103  D(16,19,20,21)         -7.7868         estimate D2E/DX2                !
 ! D104  D(16,19,20,26)        174.8096         estimate D2E/DX2                !
 ! D105  D(23,19,20,21)        171.6239         estimate D2E/DX2                !
 ! D106  D(23,19,20,26)         -5.7797         estimate D2E/DX2                !
 ! D107  D(16,19,23,24)       -171.9527         estimate D2E/DX2                !
 ! D108  D(16,19,23,30)         11.5867         estimate D2E/DX2                !
 ! D109  D(20,19,23,24)          8.7151         estimate D2E/DX2                !
 ! D110  D(20,19,23,30)       -167.7456         estimate D2E/DX2                !
 ! D111  D(19,20,21,22)          5.482          estimate D2E/DX2                !
 ! D112  D(19,20,21,38)       -176.0474         estimate D2E/DX2                !
 ! D113  D(26,20,21,22)       -176.992          estimate D2E/DX2                !
 ! D114  D(26,20,21,38)          1.4786         estimate D2E/DX2                !
 ! D115  D(19,20,26,25)         -0.4458         estimate D2E/DX2                !
 ! D116  D(19,20,26,39)        179.1151         estimate D2E/DX2                !
 ! D117  D(21,20,26,25)       -177.8901         estimate D2E/DX2                !
 ! D118  D(21,20,26,39)          1.6707         estimate D2E/DX2                !
 ! D119  D(20,21,22,17)         -0.0245         estimate D2E/DX2                !
 ! D120  D(20,21,22,37)        176.9617         estimate D2E/DX2                !
 ! D121  D(38,21,22,17)       -178.5289         estimate D2E/DX2                !
 ! D122  D(38,21,22,37)         -1.5428         estimate D2E/DX2                !
 ! D123  D(19,23,24,25)         -6.29           estimate D2E/DX2                !
 ! D124  D(19,23,24,27)        172.1894         estimate D2E/DX2                !
 ! D125  D(30,23,24,25)        170.6496         estimate D2E/DX2                !
 ! D126  D(30,23,24,27)        -10.8709         estimate D2E/DX2                !
 ! D127  D(19,23,30,13)        -44.512          estimate D2E/DX2                !
 ! D128  D(19,23,30,29)       -170.229          estimate D2E/DX2                !
 ! D129  D(19,23,30,43)         76.8236         estimate D2E/DX2                !
 ! D130  D(24,23,30,13)        138.9501         estimate D2E/DX2                !
 ! D131  D(24,23,30,29)         13.2331         estimate D2E/DX2                !
 ! D132  D(24,23,30,43)        -99.7142         estimate D2E/DX2                !
 ! D133  D(23,24,25,26)          0.4046         estimate D2E/DX2                !
 ! D134  D(23,24,25,40)       -179.8861         estimate D2E/DX2                !
 ! D135  D(27,24,25,26)       -178.1804         estimate D2E/DX2                !
 ! D136  D(27,24,25,40)          1.529          estimate D2E/DX2                !
 ! D137  D(23,24,27,28)          0.6514         estimate D2E/DX2                !
 ! D138  D(23,24,27,41)       -178.6862         estimate D2E/DX2                !
 ! D139  D(25,24,27,28)        179.1558         estimate D2E/DX2                !
 ! D140  D(25,24,27,41)         -0.1818         estimate D2E/DX2                !
 ! D141  D(24,25,26,20)          2.899          estimate D2E/DX2                !
 ! D142  D(24,25,26,39)       -176.684          estimate D2E/DX2                !
 ! D143  D(40,25,26,20)       -176.8176         estimate D2E/DX2                !
 ! D144  D(40,25,26,39)          3.5995         estimate D2E/DX2                !
 ! D145  D(24,27,28,29)          4.8004         estimate D2E/DX2                !
 ! D146  D(24,27,28,42)       -176.1209         estimate D2E/DX2                !
 ! D147  D(41,27,28,29)       -175.8264         estimate D2E/DX2                !
 ! D148  D(41,27,28,42)          3.2522         estimate D2E/DX2                !
 ! D149  D(27,28,29,30)          1.5383         estimate D2E/DX2                !
 ! D150  D(42,28,29,30)       -177.5236         estimate D2E/DX2                !
 ! D151  D(28,29,30,13)       -142.4179         estimate D2E/DX2                !
 ! D152  D(28,29,30,23)        -10.9792         estimate D2E/DX2                !
 ! D153  D(28,29,30,43)        101.1093         estimate D2E/DX2                !
 --------------------------------------------------------------------------------
 Trust Radius=3.00D-01 FncErr=1.00D-07 GrdErr=1.00D-06 EigMax=2.50D+02 EigMin=1.00D-04
 Number of steps in this run=    264 maximum allowed number of steps=    264.
 GradGradGradGradGradGradGradGradGradGradGradGradGradGradGradGradGradGrad

                          Input orientation:                          
 ---------------------------------------------------------------------
 Center     Atomic      Atomic             Coordinates (Angstroms)
 Number     Number       Type             X           Y           Z
 ---------------------------------------------------------------------
      1          6           0       -3.963910    0.278820    0.290360
      2          6           0       -2.530730    0.070220    0.287140
      3          6           0       -2.394380   -1.381340    0.226880
      4          6           0       -4.608840   -1.025350    0.187840
      5          6           0       -3.686780   -1.986010    0.158690
      6          6           0       -6.007230   -1.348000    0.259610
      7          6           0       -6.382660   -2.775790    0.179720
      8          6           0       -5.425980   -3.748610    0.124180
      9          6           0       -3.995270   -3.387060    0.138480
     10          6           0       -1.285040   -2.128140    0.222540
     11          6           0       -1.527770   -3.585570    0.170170
     12          6           0       -2.900630   -4.187620    0.138380
     13          6           0       -4.721930    1.353750    0.523840
     14          6           0       -6.192380    1.081920    0.564100
     15          6           0       -6.801690   -0.269330    0.430550
     16          6           0       -1.470210    0.891440    0.257560
     17          6           0       -0.134140    0.156110    0.172940
     18          6           0       -0.068670   -1.330140    0.252360
     19          6           0       -1.579360    2.380760    0.144270
     20          6           0       -0.273680    3.063990   -0.195530
     21          6           0        0.961760    2.286990   -0.209980
     22          6           0        0.997400    0.856150   -0.025810
     23          6           0       -2.723150    3.129490    0.331100
     24          6           0       -2.649310    4.625450   -0.020910
     25          6           0       -1.367890    5.195110   -0.391480
     26          6           0       -0.188760    4.383740   -0.439690
     27          6           0       -3.723950    5.457070   -0.037190
     28          6           0       -5.051060    5.001140    0.294290
     29          6           0       -5.024310    3.774270    0.685740
     30          6           0       -4.107550    2.664130    0.941320
     31          1           0       -7.878990   -0.351000    0.518620
     32          1           0       -7.437100   -3.029760    0.179530
     33          1           0       -5.694650   -4.797890    0.074580
     34          1           0       -2.975570   -5.268990    0.123990
     35          1           0       -0.676270   -4.256360    0.154100
     36          1           0        0.890040   -1.833840    0.229600
     37          1           0        1.965390    0.371830   -0.105330
     38          1           0        1.907680    2.787890   -0.390180
     39          1           0        0.749790    4.876730   -0.669750
     40          1           0       -1.279270    6.245880   -0.643740
     41          1           0       -3.633300    6.504210   -0.311830
     42          1           0       -5.934140    5.619770    0.233150
     43          1           0       -3.954340    2.617520    2.030110
     44          1           0       -6.871080    1.898560    0.789980
 ---------------------------------------------------------------------
                    Distance matrix (angstroms):
                    1          2          3          4          5
     1  C    0.000000
     2  C    1.448285   0.000000
     3  C    2.285516   1.459195   0.000000
     4  C    1.458528   2.351314   2.243231   0.000000
     5  C    2.285518   2.362421   1.428486   1.331883   0.000000
     6  C    2.612019   3.754751   3.613152   1.436923   2.408678
     7  C    3.897850   4.790478   4.225292   2.492096   2.809264
     8  C    4.287827   4.795049   3.847741   2.843926   2.476442
     9  C    3.669159   3.757627   2.567796   2.440610   1.434753
    10  C    3.602000   2.527588   1.337297   3.502142   2.406789
    11  C    4.569763   3.792679   2.369147   4.005999   2.687015
    12  C    4.593773   4.276465   2.852951   3.594493   2.337847
    13  C    1.335882   2.550458   3.603664   2.405369   3.515518
    14  C    2.384530   3.808927   4.539402   2.662660   3.981781
    15  C    2.893634   4.286836   4.549992   2.332180   3.567010
    16  C    2.568057   1.341633   2.453683   3.678307   3.633549
    17  C    3.833534   2.400846   2.734108   4.628068   4.148510
    18  C    4.214628   2.832659   2.326413   4.550846   3.678269
    19  C    3.182071   2.502821   3.850257   4.558644   4.848722
    20  C    4.648770   3.780199   4.943355   5.971875   6.105508
    21  C    5.342781   4.166375   4.991109   6.493184   6.324822
    22  C    5.004785   3.628130   4.071165   5.917399   5.482103
    23  C    3.109255   3.065631   4.523996   4.564980   5.208325
    24  C    4.551731   4.567174   6.017301   5.984553   6.694774
    25  C    5.601262   5.298794   6.684740   7.038003   7.566269
    26  C    5.624509   4.961810   6.208480   7.013498   7.291633
    27  C    5.194145   5.526945   6.971466   6.546406   7.445750
    28  C    4.845845   5.537697   6.913649   6.043631   7.120387
    29  C    3.674091   4.482947   5.805807   4.843229   5.936968
    30  C    2.476709   3.105267   4.450978   3.798853   4.734275
    31  H    3.971980   5.369813   5.588171   3.355301   4.514137
    32  H    4.798128   5.804647   5.305521   3.466523   3.892910
    33  H    5.367961   5.809825   4.752661   3.927323   3.456195
    34  H    5.637614   5.360193   3.932199   4.547541   3.359313
    35  H    5.603124   4.709142   3.350066   5.089761   3.770634
    36  H    5.294134   3.915408   3.315445   5.558154   4.579898
    37  H    5.943216   4.523284   4.710792   6.727448   6.129938
    38  H    6.421381   5.248236   6.022538   7.572314   7.374914
    39  H    6.654439   5.897456   7.060679   8.017788   8.213810
    40  H    6.609511   6.369573   7.757315   8.040420   8.614175
    41  H    6.263179   6.555200   8.000439   7.608917   8.503416
    42  H    5.693051   6.510270   7.845093   6.776141   7.931208
    43  H    2.914848   3.399021   4.655749   4.134348   4.976574
    44  H    3.365236   4.736487   5.578142   3.745604   5.062428
                    6          7          8          9         10
     6  C    0.000000
     7  C    1.478484   0.000000
     8  C    2.473686   1.365540   0.000000
     9  C    2.867128   2.464748   1.475755   0.000000
    10  C    4.786342   5.138776   4.447806   2.989530   0.000000
    11  C    5.008022   4.921970   3.901889   2.475675   1.478433
    12  C    4.210594   3.757593   2.563264   1.356146   2.618907
    13  C    3.003542   4.464252   5.166187   4.811633   4.901689
    14  C    2.455912   3.881479   4.910694   4.998022   5.873937
    15  C    1.350524   2.553594   3.753909   4.204942   5.825107
    16  C    5.059609   6.130807   6.098850   4.969474   3.025455
    17  C    6.063254   6.902180   6.576685   5.240569   2.558286
    18  C    5.938591   6.477781   5.879302   4.434194   1.455077
    19  C    5.789904   7.047195   7.236440   6.253351   4.519174
    20  C    7.248890   8.459520   8.547510   7.455055   5.306208
    21  C    7.874039   8.928836   8.794507   7.542441   4.972782
    22  C    7.348781   8.227911   7.904816   6.554279   3.765262
    23  C    5.553216   6.948904   7.392994   6.642350   5.451845
    24  C    6.858311   8.291954   8.823595   8.126336   6.894308
    25  C    8.047340   9.434481   9.834843   8.990975   7.349413
    26  C    8.197345   9.487199   9.689249   8.672320   6.636638
    27  C    7.184040   8.654234   9.363092   8.850034   7.971898
    28  C    6.420829   7.890939   8.759431   8.455819   8.063169
    29  C    5.233103   6.708536   7.554496   7.255554   7.002509
    30  C    4.491180   5.945493   6.597667   6.105249   5.607946
    31  H    2.136488   2.869401   4.209109   4.944234   6.835647
    32  H    2.208904   1.084594   2.136449   3.460570   6.217927
    33  H    3.468960   2.138528   1.084266   2.209619   5.156948
    34  H    4.958177   4.222252   2.883759   2.140481   3.568269
    35  H    6.073617   5.895391   4.776866   3.430989   2.214634
    36  H    6.914425   7.333616   6.600725   5.127090   2.194911
    37  H    8.164170   8.926293   8.465403   7.051111   4.113714
    38  H    8.953972  10.000453   9.837325   8.558873   5.893746
    39  H    9.234083  10.495452  10.637996   9.563423   7.348804
    40  H    8.990921  10.397750  10.847799  10.039027   8.418710
    41  H    8.223095   9.691182  10.417491   9.908129   8.961994
    42  H    6.968204   8.407702   9.382784   9.213640   9.035726
    43  H    4.803580   6.197457   6.806314   6.295627   5.737052
    44  H    3.401129   4.739253   5.867038   6.052480   6.909424
                   11         12         13         14         15
    11  C    0.000000
    12  C    1.499406   0.000000
    13  C    5.892760   5.845724   0.000000
    14  C    6.610539   6.227753   1.495906   0.000000
    15  C    6.235341   5.536843   2.639790   1.488278   0.000000
    16  C    4.478233   5.277988   3.295196   4.735941   5.459120
    17  C    3.992791   5.150015   4.754502   6.141042   6.686074
    18  C    2.687507   4.024696   5.378643   6.589009   6.818404
    19  C    5.966609   6.699956   3.327848   4.810738   5.863247
    20  C    6.776660   7.719988   4.819683   6.287817   7.356488
    21  C    6.389776   7.547184   5.806355   7.296103   8.198549
    22  C    5.113098   6.376614   5.767188   7.217472   7.893084
    23  C    6.822526   7.321799   2.680583   4.035144   5.310024
    24  C    8.289464   8.818092   3.911077   5.045016   6.434668
    25  C    8.800077   9.521852   5.181066   6.411487   7.749969
    26  C    8.103998   9.008697   5.537044   6.924815   8.132602
    27  C    9.307822   9.681360   4.260042   5.059312   6.517892
    28  C    9.282272   9.438324   3.669397   4.090928   5.555279
    29  C    8.164487   8.258409   2.444701   2.937334   4.424353
    30  C    6.805049   7.003417   1.506270   2.644277   4.015528
    31  H    7.135955   6.296690   3.587928   2.213590   1.083975
    32  H    5.935419   4.682082   5.167771   4.313135   2.843718
    33  H    4.340708   2.860603   6.244253   5.921109   4.675479
    34  H    2.220847   1.084059   6.860783   7.132715   6.303156
    35  H    1.084099   2.225477   6.926573   7.687184   7.313932
    36  H    2.986284   4.462934   6.460767   7.666435   7.851801
    37  H    5.285743   6.672790   6.788245   8.215934   8.806812
    38  H    7.262045   8.488637   6.844262   8.332584   9.266786
    39  H    8.803594   9.805156   6.616326   8.007290   9.204208
    40  H    9.868212  10.587655   6.094923   7.229385   8.608088
    41  H   10.318393  10.726356   5.330169   6.059486   7.514697
    42  H   10.205800  10.266258   4.444421   4.557225   5.955931
    43  H    6.915630   7.141350   2.110725   3.084814   4.358887
    44  H    7.681849   7.295933   2.233046   1.085613   2.198580
                   16         17         18         19         20
    16  C    0.000000
    17  C    1.527401   0.000000
    18  C    2.626739   1.489810   0.000000
    19  C    1.497606   2.653027   4.008073   0.000000
    20  C    2.521299   2.934452   4.421653   1.512305   0.000000
    21  C    2.842645   2.426577   3.789350   2.567407   1.459538
    22  C    2.484078   1.345340   2.448213   2.998842   2.553235
    23  C    2.565957   3.945754   5.190449   1.379767   2.506299
    24  C    3.925640   5.132120   6.496417   2.492130   2.848204
    25  C    4.353539   5.218451   6.684414   2.872684   2.403615
    26  C    3.784763   4.272137   5.756890   2.507331   1.344829
    27  C    5.100118   6.405550   7.714346   3.754448   4.201936
    28  C    5.451006   6.903995   8.056741   4.352195   5.178401
    29  C    4.596267   6.104737   7.127495   3.755362   4.883607
    30  C    3.250465   4.761151   5.722011   2.665958   4.018815
    31  H    6.533320   7.769128   7.875958   6.876626   8.367372
    32  H    7.140425   7.967624   7.562260   7.974214   9.412175
    33  H    7.088572   7.447890   6.611244   8.274871   9.553483
    34  H    6.343094   6.124364   4.897049   7.776149   8.765892
    35  H    5.209692   4.445689   2.990250   6.698286   7.339744
    36  H    3.605373   2.238762   1.083216   4.885496   5.052100
    37  H    3.493570   2.128848   2.676200   4.082077   3.502755
    38  H    3.927624   3.378224   4.612699   3.551174   2.207363
    39  H    4.655195   4.876034   6.328143   3.509620   2.135041
    40  H    5.433123   6.250087   7.724288   3.956029   3.366976
    41  H    6.042049   7.264812   8.625656   4.629205   4.809957
    42  H    6.502643   7.968388   9.094249   5.428001   6.225479
    43  H    3.506022   4.909333   5.817460   3.041871   4.324357
    44  H    5.519706   6.985931   7.548928   5.352734   6.771643
                   21         22         23         24         25
    21  C    0.000000
    22  C    1.443084   0.000000
    23  C    3.818525   4.374694   0.000000
    24  C    4.306271   5.244630   1.538590   0.000000
    25  C    3.730600   4.955289   2.574031   1.450473   0.000000
    26  C    2.402670   3.744618   2.930937   2.507610   1.432129
    27  C    5.659960   6.592400   2.560247   1.358936   2.396907
    28  C    6.616260   7.339433   2.987238   2.451305   3.751486
    29  C    6.232764   6.729244   2.415957   2.620017   4.067997
    30  C    5.212066   5.501331   1.582875   2.626619   3.960802
    31  H    9.254659   8.974626   6.223477   7.239178   8.601281
    32  H    9.947884   9.288878   7.757619   9.031354  10.237668
    33  H    9.725446   8.761380   8.469886   9.903664  10.899455
    34  H    8.526836   7.302347   8.404825   9.900878  10.599421
    35  H    6.755081   5.382499   7.666279   9.100004   9.492433
    36  H    4.144830   2.704220   6.140040   7.369680   7.408787
    37  H    2.164732   1.085308   5.456883   6.276613   5.869980
    38  H    1.085420   2.166332   4.699098   4.927387   4.064981
    39  H    2.638764   4.079342   4.014456   3.469584   2.159483
    40  H    4.569811   5.883388   3.570293   2.211497   1.084254
    41  H    6.237780   7.309294   3.553937   2.140703   2.617665
    42  H    7.671846   8.414593   4.064670   3.441413   4.628298
    43  H    5.412513   5.643488   2.159763   3.153025   4.381528
    44  H    7.905959   7.979042   4.350986   5.090856   6.522897
                   26         27         28         29         30
    26  C    0.000000
    27  C    3.716398   0.000000
    28  C    4.955993   1.441864   0.000000
    29  C    5.002059   2.246192   1.288083   0.000000
    30  C    4.496795   2.984149   2.602014   1.462252   0.000000
    31  H    9.081617   7.162888   6.057468   5.019460   4.847004
    32  H   10.386619   9.266107   8.378646   7.236894   6.639775
    33  H   10.718285  10.443197   9.822600   8.620023   7.678012
    34  H   10.062765  10.753344  10.479133   9.289427   8.055048
    35  H    8.674190  10.182125  10.240105   9.147629   7.764443
    36  H    6.345869   8.632349   9.056368   8.163241   6.761227
    37  H    4.565915   7.631048   8.415508   7.813981   6.575007
    38  H    2.635194   6.242145   7.334237   7.083998   6.162078
    39  H    1.084824   4.555357   5.881727   6.032661   5.575383
    40  H    2.167582   2.639429   4.081137   4.679925   4.831202
    41  H    4.046924   1.086346   2.153287   3.222208   4.067126
    42  H    5.915224   2.232598   1.079940   2.106774   3.545947
    43  H    4.837255   3.519922   3.146031   2.071289   1.100504
    44  H    7.234750   4.821994   3.631003   2.634334   2.871602
                   31         32         33         34         35
    31  H    0.000000
    32  H    2.736056   0.000000
    33  H    4.974268   2.484639   0.000000
    34  H    6.955996   4.992243   2.760031   0.000000
    35  H    8.201456   6.871246   5.048140   2.512590   0.000000
    36  H    8.898215   8.412728   7.222726   5.172461   2.885763
    37  H    9.890582  10.002938   9.243083   7.502301   5.335336
    38  H   10.317822  11.022456  10.749674   9.435243   7.522931
    39  H   10.158604  11.413108  11.648309  10.837157   9.280394
    40  H    9.403521  11.163966  11.915386  11.664436  10.549749
    41  H    8.106136  10.276522  11.495040  11.799610  11.169198
    42  H    6.286019   8.779301  10.421619  11.284066  11.188806
    43  H    5.147775   6.888108   7.863910   8.172412   7.843174
    44  H    2.479927   4.998136   6.836536   8.184883   8.755744
                   36         37         38         39         40
    36  H    0.000000
    37  H    2.476598   0.000000
    38  H    4.772851   2.433478   0.000000
    39  H    6.772020   4.700040   2.404604   0.000000
    40  H    8.411332   6.732174   4.709420   2.447924   0.000000
    41  H    9.501412   8.306266   6.672303   4.689166   2.391308
    42  H   10.105728   9.489890   8.360755   6.785445   4.777946
    43  H    6.820884   6.681798   6.344297   5.875552   5.241228
    44  H    8.630169   9.011975   8.902264   8.311316   7.226554
                   41         42         43         44
    41  H    0.000000
    42  H    2.524500   0.000000
    43  H    4.549078   4.020221   0.000000
    44  H    5.736656   3.877540   3.249954   0.000000
 Stoichiometry    C30H14
 Framework group  C1[X(C30H14)]
 Deg. of freedom   126
 Full point group                 C1      NOp   1
 Largest Abelian subgroup         C1      NOp   1
 Largest concise Abelian subgroup C1      NOp   1
                         Standard orientation:                         
 ---------------------------------------------------------------------
 Center     Atomic      Atomic             Coordinates (Angstroms)
 Number     Number       Type             X           Y           Z
 ---------------------------------------------------------------------
      1          6           0        0.668593   -0.849816    0.025952
      2          6           0        0.439990    0.576772    0.126526
      3          6           0        1.782236    1.145673    0.063457
      4          6           0        2.101985   -1.065717   -0.135536
      5          6           0        2.742503    0.101644   -0.105251
      6          6           0        2.829114   -2.304607   -0.169953
      7          6           0        4.300742   -2.228524   -0.290115
      8          6           0        4.941724   -1.022788   -0.283704
      9          6           0        4.170482    0.229376   -0.160723
     10          6           0        2.163631    2.425476    0.134209
     11          6           0        3.624794    2.634862    0.051008
     12          6           0        4.607678    1.511017   -0.087308
     13          6           0       -0.123608   -1.909146    0.212551
     14          6           0        0.575569   -3.229710    0.141855
     15          6           0        2.042299   -3.395504   -0.048374
     16          6           0       -0.660690    1.341848    0.182583
     17          6           0       -0.360328    2.839406    0.190095
     18          6           0        1.040434    3.341804    0.260783
     19          6           0       -2.052388    0.799255    0.074926
     20          6           0       -3.104062    1.859977   -0.161546
     21          6           0       -2.731780    3.269515   -0.091850
     22          6           0       -1.371772    3.719832    0.081597
     23          6           0       -2.419757   -0.526256    0.183637
     24          6           0       -3.879688   -0.880552   -0.148531
     25          6           0       -4.816724    0.193205   -0.418495
     26          6           0       -4.395892    1.561743   -0.386926
     27          6           0       -4.352983   -2.151362   -0.236527
     28          6           0       -3.512012   -3.300042   -0.007893
     29          6           0       -2.337585   -2.933344    0.373437
     30          6           0       -1.544162   -1.745487    0.685933
     31          1           0        2.444258   -4.402167   -0.040701
     32          1           0        4.857549   -3.155820   -0.370320
     33          1           0        6.021342   -0.960608   -0.362392
     34          1           0        5.661200    1.764790   -0.116889
     35          1           0        4.010229    3.647310    0.091737
     36          1           0        1.234283    4.406647    0.304244
     37          1           0       -1.200918    4.791537    0.069312
     38          1           0       -3.497311    4.031733   -0.197321
     39          1           0       -5.153206    2.322692   -0.542734
     40          1           0       -5.853304   -0.020339   -0.654094
     41          1           0       -5.387391   -2.360372   -0.494328
     42          1           0       -3.840633   -4.321685   -0.128415
     43          1           0       -1.512040   -1.659378    1.782593
     44          1           0        0.005879   -4.135627    0.324405
 ---------------------------------------------------------------------
 Rotational constants (GHZ):           0.2789995           0.1521185           0.0993685
 Standard basis: 6-311+G(d,p) (5D, 7F)
 There are   774 symmetry adapted cartesian basis functions of A   symmetry.
 There are   744 symmetry adapted basis functions of A   symmetry.
   744 basis functions,  1192 primitive gaussians,   774 cartesian basis functions
    97 alpha electrons       97 beta electrons
       nuclear repulsion energy      2555.9223528386 Hartrees.
 NAtoms=   44 NActive=   44 NUniq=   44 SFac= 1.00D+00 NAtFMM=   60 NAOKFM=F Big=F
 Integral buffers will be    131072 words long.
 Raffenetti 2 integral format.
 Two-electron integral symmetry is turned on.
 One-electron integrals computed using PRISM.
 NBasis=   744 RedAO= T EigKep=  1.04D-06  NBF=   744
 NBsUse=   723 1.00D-06 EigRej=  9.01D-07 NBFU=   723
 ExpMin= 4.38D-02 ExpMax= 4.56D+03 ExpMxC= 6.82D+02 IAcc=2 IRadAn=         4 AccDes= 0.00D+00
 Harris functional with IExCor=  402 and IRadAn=       4 diagonalized for initial guess.
 HarFok:  IExCor=  402 AccDes= 0.00D+00 IRadAn=         4 IDoV= 1 UseB2=F ITyADJ=14
 ICtDFT=  3500011 ScaDFX=  1.000000  1.000000  1.000000  1.000000
 FoFCou: FMM=F IPFlag=           0 FMFlag=      100000 FMFlg1=           0
         NFxFlg=           0 DoJE=T BraDBF=F KetDBF=T FulRan=T
         wScrn=  0.000000 ICntrl=       500 IOpCl=  0 I1Cent=   200000004 NGrid=           0
         NMat0=    1 NMatS0=      1 NMatT0=    0 NMatD0=    1 NMtDS0=    0 NMtDT0=    0
 Petite list used in FoFCou.
 Requested convergence on RMS density matrix=1.00D-08 within 128 cycles.
 Requested convergence on MAX density matrix=1.00D-06.
 Requested convergence on             energy=1.00D-06.
 No special actions if energy rises.
 Restarting incremental Fock formation.
 SCF Done:  E(RB3LYP) =  -1151.66658085     A.U. after   24 cycles
            NFock= 24  Conv=0.36D-08     -V/T= 2.0049

 **********************************************************************

            Population analysis using the SCF Density.

 **********************************************************************

 Orbital symmetries:
       Occupied  (A) (A) (A) (A) (A) (A) (A) (A) (A) (A) (A) (A)
                 (A) (A) (A) (A) (A) (A) (A) (A) (A) (A) (A) (A)
                 (A) (A) (A) (A) (A) (A) (A) (A) (A) (A) (A) (A)
                 (A) (A) (A) (A) (A) (A) (A) (A) (A) (A) (A) (A)
                 (A) (A) (A) (A) (A) (A) (A) (A) (A) (A) (A) (A)
                 (A) (A) (A) (A) (A) (A) (A) (A) (A) (A) (A) (A)
                 (A) (A) (A) (A) (A) (A) (A) (A) (A) (A) (A) (A)
                 (A) (A) (A) (A) (A) (A) (A) (A) (A) (A) (A) (A)
                 (A)
       Virtual   (A) (A) (A) (A) (A) (A) (A) (A) (A) (A) (A) (A)
                 (A) (A) (A) (A) (A) (A) (A) (A) (A) (A) (A) (A)
                 (A) (A) (A) (A) (A) (A) (A) (A) (A) (A) (A) (A)
                 (A) (A) (A) (A) (A) (A) (A) (A) (A) (A) (A) (A)
                 (A) (A) (A) (A) (A) (A) (A) (A) (A) (A) (A) (A)
                 (A) (A) (A) (A) (A) (A) (A) (A) (A) (A) (A) (A)
                 (A) (A) (A) (A) (A) (A) (A) (A) (A) (A) (A) (A)
                 (A) (A) (A) (A) (A) (A) (A) (A) (A) (A) (A) (A)
                 (A) (A) (A) (A) (A) (A) (A) (A) (A) (A) (A) (A)
                 (A) (A) (A) (A) (A) (A) (A) (A) (A) (A) (A) (A)
                 (A) (A) (A) (A) (A) (A) (A) (A) (A) (A) (A) (A)
                 (A) (A) (A) (A) (A) (A) (A) (A) (A) (A) (A) (A)
                 (A) (A) (A) (A) (A) (A) (A) (A) (A) (A) (A) (A)
                 (A) (A) (A) (A) (A) (A) (A) (A) (A) (A) (A) (A)
                 (A) (A) (A) (A) (A) (A) (A) (A) (A) (A) (A) (A)
                 (A) (A) (A) (A) (A) (A) (A) (A) (A) (A) (A) (A)
                 (A) (A) (A) (A) (A) (A) (A) (A) (A) (A) (A) (A)
                 (A) (A) (A) (A) (A) (A) (A) (A) (A) (A) (A) (A)
                 (A) (A) (A) (A) (A) (A) (A) (A) (A) (A) (A) (A)
                 (A) (A) (A) (A) (A) (A) (A) (A) (A) (A) (A) (A)
                 (A) (A) (A) (A) (A) (A) (A) (A) (A) (A) (A) (A)
                 (A) (A) (A) (A) (A) (A) (A) (A) (A) (A) (A) (A)
                 (A) (A) (A) (A) (A) (A) (A) (A) (A) (A) (A) (A)
                 (A) (A) (A) (A) (A) (A) (A) (A) (A) (A) (A) (A)
                 (A) (A) (A) (A) (A) (A) (A) (A) (A) (A) (A) (A)
                 (A) (A) (A) (A) (A) (A) (A) (A) (A) (A) (A) (A)
                 (A) (A) (A) (A) (A) (A) (A) (A) (A) (A) (A) (A)
                 (A) (A) (A) (A) (A) (A) (A) (A) (A) (A) (A) (A)
                 (A) (A) (A) (A) (A) (A) (A) (A) (A) (A) (A) (A)
                 (A) (A) (A) (A) (A) (A) (A) (A) (A) (A) (A) (A)
                 (A) (A) (A) (A) (A) (A) (A) (A) (A) (A) (A) (A)
                 (A) (A) (A) (A) (A) (A) (A) (A) (A) (A) (A) (A)
                 (A) (A) (A) (A) (A) (A) (A) (A) (A) (A) (A) (A)
                 (A) (A) (A) (A) (A) (A) (A) (A) (A) (A) (A) (A)
                 (A) (A) (A) (A) (A) (A) (A) (A) (A) (A) (A) (A)
                 (A) (A) (A) (A) (A) (A) (A) (A) (A) (A) (A) (A)
                 (A) (A) (A) (A) (A) (A) (A) (A) (A) (A) (A) (A)
                 (A) (A) (A) (A) (A) (A) (A) (A) (A) (A) (A) (A)
                 (A) (A) (A) (A) (A) (A) (A) (A) (A) (A) (A) (A)
                 (A) (A) (A) (A) (A) (A) (A) (A) (A) (A) (A) (A)
                 (A) (A) (A) (A) (A) (A) (A) (A) (A) (A) (A) (A)
                 (A) (A) (A) (A) (A) (A) (A) (A) (A) (A) (A) (A)
                 (A) (A) (A) (A) (A) (A) (A) (A) (A) (A) (A) (A)
                 (A) (A) (A) (A) (A) (A) (A) (A) (A) (A) (A) (A)
                 (A) (A) (A) (A) (A) (A) (A) (A) (A) (A) (A) (A)
                 (A) (A) (A) (A) (A) (A) (A) (A) (A) (A) (A) (A)
                 (A) (A) (A) (A) (A) (A) (A) (A) (A) (A) (A) (A)
                 (A) (A) (A) (A) (A) (A) (A) (A) (A) (A) (A) (A)
                 (A) (A) (A) (A) (A) (A) (A) (A) (A) (A) (A) (A)
                 (A) (A) (A) (A) (A) (A) (A) (A) (A) (A) (A) (A)
                 (A) (A) (A) (A) (A) (A) (A) (A) (A) (A) (A) (A)
                 (A) (A) (A) (A) (A) (A) (A) (A) (A) (A) (A) (A)
                 (A) (A)
 The electronic state is 1-A.
 Alpha  occ. eigenvalues --  -10.22316 -10.21934 -10.21548 -10.21340 -10.21025
 Alpha  occ. eigenvalues --  -10.21020 -10.20691 -10.20663 -10.20542 -10.20478
 Alpha  occ. eigenvalues --  -10.19932 -10.19829 -10.19801 -10.19752 -10.19710
 Alpha  occ. eigenvalues --  -10.19584 -10.19572 -10.19544 -10.19415 -10.19216
 Alpha  occ. eigenvalues --  -10.19106 -10.19004 -10.18864 -10.18743 -10.18536
 Alpha  occ. eigenvalues --  -10.17856 -10.17603 -10.17398 -10.17317 -10.17219
 Alpha  occ. eigenvalues --   -0.92206  -0.88988  -0.87235  -0.85441  -0.84854
 Alpha  occ. eigenvalues --   -0.82439  -0.81135  -0.80246  -0.79132  -0.76553
 Alpha  occ. eigenvalues --   -0.76107  -0.75466  -0.72153  -0.70869  -0.70106
 Alpha  occ. eigenvalues --   -0.66848  -0.66813  -0.63655  -0.63274  -0.61036
 Alpha  occ. eigenvalues --   -0.60424  -0.60258  -0.58774  -0.56482  -0.55190
 Alpha  occ. eigenvalues --   -0.52739  -0.51636  -0.51582  -0.50815  -0.50137
 Alpha  occ. eigenvalues --   -0.49273  -0.47797  -0.47046  -0.46422  -0.46266
 Alpha  occ. eigenvalues --   -0.45423  -0.44513  -0.44278  -0.43303  -0.43132
 Alpha  occ. eigenvalues --   -0.42381  -0.42054  -0.41082  -0.40422  -0.40288
 Alpha  occ. eigenvalues --   -0.39893  -0.39779  -0.38932  -0.37436  -0.36938
 Alpha  occ. eigenvalues --   -0.36593  -0.36269  -0.35625  -0.35367  -0.34527
 Alpha  occ. eigenvalues --   -0.34224  -0.32821  -0.32390  -0.31009  -0.29625
 Alpha  occ. eigenvalues --   -0.28243  -0.26811  -0.26049  -0.23101  -0.21037
 Alpha  occ. eigenvalues --   -0.20797  -0.15927
 Alpha virt. eigenvalues --   -0.12254  -0.09818  -0.06201  -0.04670  -0.03754
 Alpha virt. eigenvalues --   -0.01191  -0.00386  -0.00113   0.00530   0.00761
 Alpha virt. eigenvalues --    0.01171   0.01468   0.01627   0.02191   0.02756
 Alpha virt. eigenvalues --    0.03047   0.03237   0.03903   0.04323   0.04579
 Alpha virt. eigenvalues --    0.04714   0.04925   0.04946   0.05324   0.05834
 Alpha virt. eigenvalues --    0.06466   0.06772   0.06935   0.07613   0.07958
 Alpha virt. eigenvalues --    0.08204   0.08685   0.08806   0.08983   0.09282
 Alpha virt. eigenvalues --    0.09394   0.09517   0.10258   0.10799   0.11236
 Alpha virt. eigenvalues --    0.11500   0.11841   0.12044   0.12203   0.12519
 Alpha virt. eigenvalues --    0.12631   0.12926   0.13208   0.13766   0.14211
 Alpha virt. eigenvalues --    0.14385   0.14533   0.15124   0.15229   0.15850
 Alpha virt. eigenvalues --    0.16144   0.16223   0.16371   0.16559   0.16655
 Alpha virt. eigenvalues --    0.16755   0.16809   0.17107   0.17310   0.17600
 Alpha virt. eigenvalues --    0.17822   0.17884   0.18200   0.18384   0.18525
 Alpha virt. eigenvalues --    0.18575   0.19028   0.19196   0.19263   0.19487
 Alpha virt. eigenvalues --    0.19795   0.20063   0.20377   0.20576   0.20629
 Alpha virt. eigenvalues --    0.20656   0.20994   0.21387   0.21818   0.22021
 Alpha virt. eigenvalues --    0.22098   0.22366   0.22648   0.22796   0.22949
 Alpha virt. eigenvalues --    0.23198   0.23363   0.23462   0.23899   0.23949
 Alpha virt. eigenvalues --    0.24331   0.24445   0.24738   0.24876   0.25351
 Alpha virt. eigenvalues --    0.25575   0.25850   0.26286   0.26477   0.26935
 Alpha virt. eigenvalues --    0.27273   0.27500   0.27852   0.27874   0.28166
 Alpha virt. eigenvalues --    0.28536   0.28706   0.29031   0.29169   0.29531
 Alpha virt. eigenvalues --    0.29896   0.30124   0.30178   0.30588   0.30821
 Alpha virt. eigenvalues --    0.31297   0.31670   0.32224   0.32267   0.32474
 Alpha virt. eigenvalues --    0.32816   0.33432   0.33614   0.33781   0.34507
 Alpha virt. eigenvalues --    0.35026   0.35370   0.35483   0.35568   0.35840
 Alpha virt. eigenvalues --    0.36197   0.36464   0.37579   0.38250   0.38576
 Alpha virt. eigenvalues --    0.38962   0.39502   0.39788   0.40323   0.40485
 Alpha virt. eigenvalues --    0.40961   0.41462   0.41836   0.42519   0.43202
 Alpha virt. eigenvalues --    0.43840   0.44451   0.44651   0.44957   0.45957
 Alpha virt. eigenvalues --    0.46670   0.46935   0.48215   0.49037   0.49171
 Alpha virt. eigenvalues --    0.49983   0.50502   0.50939   0.51202   0.52201
 Alpha virt. eigenvalues --    0.52660   0.53103   0.53499   0.53865   0.54359
 Alpha virt. eigenvalues --    0.54854   0.55171   0.55806   0.56155   0.56517
 Alpha virt. eigenvalues --    0.56630   0.56969   0.57399   0.57778   0.57995
 Alpha virt. eigenvalues --    0.58326   0.58901   0.59308   0.59550   0.59585
 Alpha virt. eigenvalues --    0.60218   0.60582   0.61423   0.61647   0.62010
 Alpha virt. eigenvalues --    0.62575   0.62865   0.63037   0.63155   0.64150
 Alpha virt. eigenvalues --    0.64383   0.64970   0.65102   0.65313   0.65660
 Alpha virt. eigenvalues --    0.66013   0.67119   0.67256   0.67357   0.67683
 Alpha virt. eigenvalues --    0.67923   0.68730   0.69148   0.69683   0.69800
 Alpha virt. eigenvalues --    0.70184   0.70538   0.70723   0.70944   0.71458
 Alpha virt. eigenvalues --    0.71869   0.72390   0.72612   0.72906   0.73135
 Alpha virt. eigenvalues --    0.74029   0.74068   0.74821   0.74998   0.75499
 Alpha virt. eigenvalues --    0.75977   0.76642   0.77252   0.77556   0.77782
 Alpha virt. eigenvalues --    0.78199   0.78898   0.79500   0.80275   0.81711
 Alpha virt. eigenvalues --    0.82226   0.82503   0.83189   0.83274   0.83701
 Alpha virt. eigenvalues --    0.85137   0.85670   0.86415   0.87504   0.88155
 Alpha virt. eigenvalues --    0.88483   0.89094   0.89152   0.89590   0.89812
 Alpha virt. eigenvalues --    0.90638   0.91215   0.92201   0.92363   0.92790
 Alpha virt. eigenvalues --    0.92980   0.93323   0.93679   0.94124   0.94629
 Alpha virt. eigenvalues --    0.95093   0.95204   0.95714   0.96203   0.96903
 Alpha virt. eigenvalues --    0.97005   0.97301   0.97869   0.98286   0.98483
 Alpha virt. eigenvalues --    0.98931   0.99636   0.99858   1.00324   1.00712
 Alpha virt. eigenvalues --    1.01053   1.01882   1.02325   1.02558   1.03462
 Alpha virt. eigenvalues --    1.04125   1.04643   1.05103   1.05514   1.06354
 Alpha virt. eigenvalues --    1.06569   1.07250   1.07327   1.07730   1.08601
 Alpha virt. eigenvalues --    1.09726   1.10726   1.11302   1.11857   1.13239
 Alpha virt. eigenvalues --    1.14139   1.14401   1.15000   1.15864   1.16407
 Alpha virt. eigenvalues --    1.17484   1.17812   1.19143   1.20064   1.22310
 Alpha virt. eigenvalues --    1.23407   1.24276   1.24941   1.28166   1.29005
 Alpha virt. eigenvalues --    1.29286   1.31787   1.32154   1.33303   1.33830
 Alpha virt. eigenvalues --    1.35050   1.36467   1.37795   1.38782   1.39185
 Alpha virt. eigenvalues --    1.40076   1.40737   1.41651   1.42507   1.43544
 Alpha virt. eigenvalues --    1.44760   1.45015   1.45523   1.46320   1.46732
 Alpha virt. eigenvalues --    1.47229   1.47761   1.48114   1.48790   1.49418
 Alpha virt. eigenvalues --    1.50324   1.51018   1.51499   1.51696   1.52227
 Alpha virt. eigenvalues --    1.52856   1.53137   1.54972   1.55702   1.56431
 Alpha virt. eigenvalues --    1.56950   1.57991   1.58302   1.58438   1.59486
 Alpha virt. eigenvalues --    1.59821   1.61352   1.62064   1.62145   1.63267
 Alpha virt. eigenvalues --    1.64126   1.65137   1.65704   1.66074   1.67387
 Alpha virt. eigenvalues --    1.67567   1.69294   1.69882   1.70991   1.71500
 Alpha virt. eigenvalues --    1.72040   1.72816   1.73106   1.74114   1.74759
 Alpha virt. eigenvalues --    1.75488   1.75903   1.76898   1.77475   1.78163
 Alpha virt. eigenvalues --    1.78741   1.79891   1.80271   1.81312   1.81499
 Alpha virt. eigenvalues --    1.82508   1.82884   1.83408   1.83818   1.85007
 Alpha virt. eigenvalues --    1.85266   1.85556   1.86029   1.86580   1.87006
 Alpha virt. eigenvalues --    1.87791   1.88121   1.88678   1.88958   1.89711
 Alpha virt. eigenvalues --    1.90923   1.91605   1.91977   1.92901   1.93087
 Alpha virt. eigenvalues --    1.93907   1.94248   1.95273   1.96157   1.97027
 Alpha virt. eigenvalues --    1.97351   1.98662   1.99383   1.99432   2.00055
 Alpha virt. eigenvalues --    2.01461   2.02284   2.03112   2.03628   2.04572
 Alpha virt. eigenvalues --    2.04768   2.05144   2.05881   2.06886   2.07907
 Alpha virt. eigenvalues --    2.08338   2.09484   2.10895   2.11866   2.12496
 Alpha virt. eigenvalues --    2.12853   2.14030   2.14352   2.15232   2.15696
 Alpha virt. eigenvalues --    2.16956   2.17513   2.18580   2.19510   2.20944
 Alpha virt. eigenvalues --    2.21933   2.22455   2.24209   2.24636   2.24851
 Alpha virt. eigenvalues --    2.25512   2.27196   2.28455   2.29571   2.31828
 Alpha virt. eigenvalues --    2.32613   2.33723   2.35180   2.35866   2.38323
 Alpha virt. eigenvalues --    2.38718   2.40877   2.41858   2.42607   2.43049
 Alpha virt. eigenvalues --    2.43671   2.44354   2.45532   2.47539   2.50291
 Alpha virt. eigenvalues --    2.52365   2.52884   2.54918   2.55484   2.56109
 Alpha virt. eigenvalues --    2.57728   2.58616   2.59093   2.61168   2.61818
 Alpha virt. eigenvalues --    2.62041   2.63125   2.64590   2.65396   2.66810
 Alpha virt. eigenvalues --    2.67384   2.69203   2.70002   2.71309   2.71331
 Alpha virt. eigenvalues --    2.71673   2.71765   2.72647   2.73170   2.73391
 Alpha virt. eigenvalues --    2.73966   2.74294   2.74801   2.75033   2.75302
 Alpha virt. eigenvalues --    2.75527   2.76710   2.76823   2.77137   2.77214
 Alpha virt. eigenvalues --    2.77463   2.78582   2.78745   2.79958   2.80781
 Alpha virt. eigenvalues --    2.81379   2.82134   2.82856   2.83162   2.83895
 Alpha virt. eigenvalues --    2.84512   2.85756   2.86655   2.87164   2.88037
 Alpha virt. eigenvalues --    2.88519   2.89468   2.91191   2.92433   2.93190
 Alpha virt. eigenvalues --    2.93564   2.96514   2.98355   2.99348   3.00145
 Alpha virt. eigenvalues --    3.02731   3.03683   3.05179   3.05716   3.06969
 Alpha virt. eigenvalues --    3.08152   3.09681   3.10627   3.11119   3.12738
 Alpha virt. eigenvalues --    3.13230   3.14054   3.15197   3.16804   3.17400
 Alpha virt. eigenvalues --    3.18415   3.19534   3.19973   3.22701   3.25872
 Alpha virt. eigenvalues --    3.27076   3.29329   3.31280   3.33468   3.33847
 Alpha virt. eigenvalues --    3.34538   3.36021   3.37048   3.38237   3.38640
 Alpha virt. eigenvalues --    3.40180   3.41171   3.41809   3.42849   3.45898
 Alpha virt. eigenvalues --    3.46779   3.49067   3.49642   3.52596   3.54369
 Alpha virt. eigenvalues --    3.56040   3.61809   3.63008   3.63712   3.66109
 Alpha virt. eigenvalues --    3.66394   3.69545   3.75401   3.77047   3.82315
 Alpha virt. eigenvalues --    3.84460   3.87164   3.93978   3.97297   4.04714
 Alpha virt. eigenvalues --    4.05938   4.07010   4.08389   4.08650   4.09724
 Alpha virt. eigenvalues --    4.10806   4.17959   4.24054   4.28184   4.30937
 Alpha virt. eigenvalues --    4.38257   4.47467   4.51438   4.66117   4.68989
 Alpha virt. eigenvalues --    4.72400   4.73291   4.74132   4.78066   4.81634
 Alpha virt. eigenvalues --    4.83026  23.40349  23.57533  23.66159  23.69128
 Alpha virt. eigenvalues --   23.71937  23.75475  23.76060  23.80059  23.80867
 Alpha virt. eigenvalues --   23.82254  23.82761  23.86861  23.88207  23.90998
 Alpha virt. eigenvalues --   23.92050  23.94830  23.94850  23.95824  24.06089
 Alpha virt. eigenvalues --   24.15050  24.15327  24.17067  24.18705  24.19630
 Alpha virt. eigenvalues --   24.21152  24.21941  24.24646  24.27024  24.29543
 Alpha virt. eigenvalues --   24.45908
          Condensed to atoms (all electrons):
               1          2          3          4          5          6
     1  C   11.957613  -0.518180   0.310527  -0.098968  -0.074911  -0.343692
     2  C   -0.518180  10.113101  -0.929546   0.979658  -0.106238  -0.178445
     3  C    0.310527  -0.929546   7.756365  -0.579961  -0.302325   0.549871
     4  C   -0.098968   0.979658  -0.579961   8.542968   0.079818  -0.340090
     5  C   -0.074911  -0.106238  -0.302325   0.079818   7.629338  -0.621801
     6  C   -0.343692  -0.178445   0.549871  -0.340090  -0.621801  10.255260
     7  C   -0.891527  -0.268176  -0.384750  -0.355751   1.500930  -1.773323
     8  C   -0.806202   1.125545  -1.423939   2.161346  -0.806545  -1.782442
     9  C    0.360282   0.010819   0.483895  -0.199091   0.077045   0.791165
    10  C   -0.431116   0.872912   0.169308   0.348177   0.255825  -0.393810
    11  C   -0.123789  -1.044238  -0.664734  -0.859917   0.475752   0.086757
    12  C    0.698277  -1.270778   1.555565  -1.907590  -1.140906   0.734344
    13  C    4.613309   0.964232  -0.286862   0.759832   0.681598  -0.435745
    14  C   -2.917206  -1.198406  -0.131802  -0.025034  -0.630921  -1.530892
    15  C   -0.739882  -0.794327  -0.033476  -0.583486  -0.840312   0.130431
    16  C    0.198059   0.640493   0.367293  -0.237208  -0.201381  -0.024396
    17  C   -0.621353   0.005511   0.197912  -0.039743  -0.052586  -0.000385
    18  C   -0.135411   0.405942  -0.016267  -0.041275  -0.103353  -0.024911
    19  C    0.765831   0.700179   0.106011   0.149174  -0.253552   0.021405
    20  C    0.669213  -1.230166  -0.099056   0.209749   0.198248  -0.054913
    21  C    0.512467  -0.816470  -0.223270  -0.084650   0.041949   0.011282
    22  C    0.316424  -0.848721  -0.928027  -0.138304   0.245973   0.015730
    23  C   -0.023323  -0.226350   0.010920  -0.004860   0.061636   0.101151
    24  C    0.767846  -1.652170   0.409361   0.515867  -0.039369  -0.117360
    25  C   -0.023578   0.058145  -0.073039   0.022061   0.005728  -0.008756
    26  C   -0.325195   0.178044  -0.170337   0.061675   0.032702  -0.009501
    27  C    0.047249   0.039567  -0.014603   0.006703   0.010517  -0.020391
    28  C    0.952875  -0.179113   0.033502  -0.124450   0.014729  -0.004173
    29  C    2.176655  -0.198903  -0.052228  -0.288388   0.090703  -0.155226
    30  C   -9.840058   1.757080   0.249787  -2.050022  -0.184313   1.013533
    31  H   -0.011781  -0.003614   0.004002   0.022272  -0.013243  -0.064339
    32  H   -0.009593   0.003419  -0.002934   0.029019   0.003600  -0.096724
    33  H    0.000386   0.000736  -0.011311  -0.002898   0.034698  -0.020562
    34  H    0.002608  -0.000333   0.000865  -0.015137   0.029527   0.011869
    35  H    0.003305  -0.013790   0.025649  -0.003659  -0.001782   0.002855
    36  H    0.001103  -0.011596   0.017547   0.001977  -0.002249  -0.000327
    37  H   -0.000868  -0.012510   0.004509  -0.000096   0.000978   0.000032
    38  H    0.000003  -0.000713  -0.000435   0.000009   0.000136  -0.000005
    39  H   -0.000448   0.002672  -0.000220  -0.000024   0.000025   0.000001
    40  H   -0.000226  -0.000069   0.000024   0.000047   0.000007  -0.000003
    41  H    0.003891  -0.002886   0.000163   0.000219  -0.000020  -0.000083
    42  H    0.009021  -0.001346   0.000014   0.000595  -0.000020  -0.001000
    43  H    0.075653  -0.041986   0.003639   0.027038  -0.005752  -0.009662
    44  H    0.003512  -0.011316   0.002126  -0.000013  -0.001224  -0.027486
               7          8          9         10         11         12
     1  C   -0.891527  -0.806202   0.360282  -0.431116  -0.123789   0.698277
     2  C   -0.268176   1.125545   0.010819   0.872912  -1.044238  -1.270778
     3  C   -0.384750  -1.423939   0.483895   0.169308  -0.664734   1.555565
     4  C   -0.355751   2.161346  -0.199091   0.348177  -0.859917  -1.907590
     5  C    1.500930  -0.806545   0.077045   0.255825   0.475752  -1.140906
     6  C   -1.773323  -1.782442   0.791165  -0.393810   0.086757   0.734344
     7  C   10.269714   0.836318  -1.179428   0.217544  -0.148896  -0.760713
     8  C    0.836318  12.335558  -2.481643   0.517149  -0.312883  -2.373149
     9  C   -1.179428  -2.481643  11.627122   0.910359  -1.853092  -1.988928
    10  C    0.217544   0.517149   0.910359   9.434481  -1.719416  -1.859996
    11  C   -0.148896  -0.312883  -1.853092  -1.719416  10.126073   1.901835
    12  C   -0.760713  -2.373149  -1.988928  -1.859996   1.901835  12.755964
    13  C   -0.246851  -0.036856  -0.852144   0.058835  -0.151764  -0.031067
    14  C   -0.408154  -0.119399  -0.077800  -0.137841   0.052918  -0.043744
    15  C   -0.830454  -0.344619   0.420537  -0.148097  -0.046601   0.187931
    16  C   -0.155827  -0.128860   0.106956  -0.336254  -0.344888   0.243240
    17  C   -0.005504  -0.028923   0.008232  -1.186962   0.014438  -0.507632
    18  C   -0.045301   0.012772  -0.221213   0.905299  -0.177363   0.110777
    19  C   -0.064430   0.163405   0.158400  -0.743361  -0.163299  -0.252543
    20  C   -0.025078   0.010932   0.038306  -0.187952   0.048007  -0.004313
    21  C   -0.003708   0.006366  -0.012021  -0.054354   0.082349  -0.027480
    22  C   -0.015039  -0.010059  -0.153350  -0.717226   0.642399  -0.086121
    23  C   -0.056571   0.043491   0.083184  -0.263523  -0.029053  -0.061566
    24  C    0.009353   0.004073   0.027460  -0.164754   0.001597  -0.026055
    25  C    0.000577  -0.000506  -0.002511  -0.003683   0.003586   0.000078
    26  C   -0.000827  -0.003092  -0.008228   0.074509   0.033446   0.002254
    27  C   -0.006349  -0.000153   0.003855   0.009137   0.000864   0.001796
    28  C   -0.009402   0.011814  -0.010775  -0.015376  -0.002309  -0.002121
    29  C   -0.136986   0.115727  -0.041327  -0.112760  -0.033305  -0.012459
    30  C    0.715033  -0.527813  -0.336286   0.617503   0.083629   0.090149
    31  H    0.025533   0.004707   0.014343  -0.000463   0.000220   0.000519
    32  H    0.405784  -0.011431  -0.040590   0.001117  -0.001139  -0.008356
    33  H    0.016112   0.383516  -0.082445   0.005157   0.008092   0.008787
    34  H    0.001948  -0.003697  -0.078908  -0.006048   0.000311   0.390481
    35  H   -0.000323   0.004395  -0.016895  -0.113775   0.386067   0.030555
    36  H    0.000197  -0.000176   0.003674  -0.058054   0.018287  -0.005167
    37  H    0.000002   0.000014   0.000210   0.037332   0.005432   0.000607
    38  H   -0.000000   0.000000   0.000003   0.002690   0.000389   0.000010
    39  H    0.000000  -0.000000  -0.000000   0.000216   0.000006   0.000001
    40  H   -0.000000  -0.000000   0.000000   0.000041   0.000002  -0.000000
    41  H    0.000000   0.000001   0.000002  -0.000044  -0.000001  -0.000001
    42  H   -0.000018   0.000004   0.000006  -0.000025  -0.000001  -0.000000
    43  H   -0.002518   0.001507   0.001994  -0.006684  -0.000503  -0.000476
    44  H   -0.000182  -0.002748   0.002257   0.000051   0.000033   0.000188
              13         14         15         16         17         18
     1  C    4.613309  -2.917206  -0.739882   0.198059  -0.621353  -0.135411
     2  C    0.964232  -1.198406  -0.794327   0.640493   0.005511   0.405942
     3  C   -0.286862  -0.131802  -0.033476   0.367293   0.197912  -0.016267
     4  C    0.759832  -0.025034  -0.583486  -0.237208  -0.039743  -0.041275
     5  C    0.681598  -0.630921  -0.840312  -0.201381  -0.052586  -0.103353
     6  C   -0.435745  -1.530892   0.130431  -0.024396  -0.000385  -0.024911
     7  C   -0.246851  -0.408154  -0.830454  -0.155827  -0.005504  -0.045301
     8  C   -0.036856  -0.119399  -0.344619  -0.128860  -0.028923   0.012772
     9  C   -0.852144  -0.077800   0.420537   0.106956   0.008232  -0.221213
    10  C    0.058835  -0.137841  -0.148097  -0.336254  -1.186962   0.905299
    11  C   -0.151764   0.052918  -0.046601  -0.344888   0.014438  -0.177363
    12  C   -0.031067  -0.043744   0.187931   0.243240  -0.507632   0.110777
    13  C   21.329875  -6.900955  -4.034527  -0.793890  -0.264922   0.002430
    14  C   -6.900955  14.829017   2.358102   0.227600  -0.101672  -0.061778
    15  C   -4.034527   2.358102  10.640571   0.168624  -0.140671   0.014901
    16  C   -0.793890   0.227600   0.168624   9.574755  -1.467279   0.409310
    17  C   -0.264922  -0.101672  -0.140671  -1.467279  14.286691   1.174492
    18  C    0.002430  -0.061778   0.014901   0.409310   1.174492   8.191351
    19  C   -1.013181  -0.233686  -0.030047   2.033023  -1.134946  -0.787736
    20  C    0.629505  -0.428235  -0.035706  -1.677081   1.257080  -0.186425
    21  C   -0.070855  -0.045700  -0.009718   1.260300  -3.989985  -1.214802
    22  C   -0.011250   0.068476  -0.018218  -0.251618  -2.050944  -2.155401
    23  C   -3.002855   0.507032   0.334237   0.547143   0.216784  -0.001841
    24  C    2.423901  -0.653145  -0.302068  -2.266973   0.488769  -0.076358
    25  C    0.269403  -0.090712  -0.010112  -0.712535  -0.417426  -0.022301
    26  C    0.281177  -0.050694  -0.013283  -2.081794  -0.240083  -0.072612
    27  C    0.361461  -0.228438   0.040029  -0.137435   0.049214   0.025146
    28  C    0.951381  -1.064336  -0.193739  -0.185418  -0.107096  -0.013487
    29  C    1.183449  -1.501199  -0.264737  -0.057273  -0.208647  -0.004025
[...]
 00323378,0.02477054,0.00008430,-0.00001406,-0.00006591,-0.00006011,-0.
 00013286,-0.00006089,-0.00000054,0.00009365,-0.00001336,-0.00005977,-0
 .00004414,0.00005253,-0.00003790,-0.00002756,0.00002740,0.00001892,0.0
 0003804,0.00001205,-0.00000490,-0.00007270,-0.00000144,-0.00007423,0.0
 0002578,0.00001130,0.00006065,0.00002797,-0.00001469,-0.00001816,-0.00
 002346,-0.00000513,-0.00000407,0.00005453,-0.00000089,-0.00003801,-0.0
 0001984,0.00000530,0.00004404,0.00020324,-0.00002810,-0.00009462,-0.00
 001830,-0.00005637,-0.00001495,-0.00005833,-0.00001837,-0.00014341,0.0
 0019627,0.00019404,-0.00001978,0.00009799,0.00001798,-0.00005112,0.000
 04624,0.00000419,0.00070269,0.00086332,-0.00020587,-0.00008900,0.00015
 512,-0.00000753,0.00002227,-0.00035389,0.00001374,0.00021735,0.0001679
 8,0.00000106,-0.00317848,0.00170728,-0.00249074,0.00537435,0.02157796,
 -0.00157828,-0.00008946,0.00299057,0.00051396,0.00004275,-0.00057976,-
 0.00005452,-0.06291090,-0.04974066,-0.00259027,-0.00665556,-0.03242640
 ,-0.00595968,0.00057017,0.00397248,-0.00156396,-0.00027544,-0.00116343
 ,0.00156874,-0.00000695,0.00000127,-0.00000097,-0.00000341,-0.00000326
 ,0.00000124,-0.00000353,-0.00000280,0.00000145,-0.00000306,-0.00000352
 ,0.00000087,0.00000336,-0.00000375,0.00000095,0.00000250,0.00001142,-0
 .00000327,-0.00000300,-0.00000841,0.00000172,0.00000028,0.00000984,0.0
 0000258,-0.00000357,0.00002039,-0.00004492,-0.00069135,-0.00025737,-0.
 00019535,0.06677437,0.00001381,0.00003072,-0.00001354,0.00002550,-0.00
 000499,-0.00001170,-0.00000763,0.00000731,-0.00000543,-0.00002623,-0.0
 0000820,0.00000529,0.00000141,-0.00001071,0.00001308,-0.00001152,-0.00
 003431,-0.00000749,0.00000117,0.00001182,-0.00000334,0.00000523,-0.000
 00430,-0.00000131,-0.00000354,-0.00001266,-0.00000403,0.00000611,0.000
 00619,-0.00000187,-0.00000940,0.00001733,-0.00000415,-0.00000963,-0.00
 000621,0.00000263,-0.00004073,0.00005873,0.00012953,-0.00013386,-0.000
 06570,0.00005447,0.00001676,-0.00001109,-0.00000779,0.00033665,-0.0000
 1880,-0.00001914,-0.00005890,-0.00007641,-0.00004527,0.00002666,-0.000
 00174,0.00000447,-0.00073658,-0.00056588,0.00012810,-0.00014735,0.0001
 0221,0.00007255,-0.00001741,0.00004739,0.00001437,0.00008934,0.0000095
 8,-0.00000973,0.00275975,0.00011017,0.00018272,-0.00524363,-0.01700649
 ,-0.00126413,-0.00253153,0.00045110,-0.00012253,0.00044579,0.00041503,
 0.00007769,-0.04575653,-0.31201968,-0.00790900,0.00059745,-0.00647747,
 0.00009317,-0.00295974,0.00050578,0.00051180,0.00055555,-0.00020049,-0
 .00095542,-0.00000933,-0.00000551,0.00000546,-0.00000668,-0.00000256,0
 .00000266,-0.00000134,-0.00000751,0.00000150,-0.00000163,-0.00000725,0
 .00000125,0.00000577,-0.00000505,0.00000061,0.00000698,-0.00001258,0.0
 0000076,0.00000531,-0.00000257,0.00000570,0.00003789,-0.00000350,0.000
 00461,0.00005809,-0.00003456,-0.00002446,0.00084794,0.00099089,-0.0000
 9729,0.05225447,0.33344913,-0.00003920,0.00003346,0.00003753,-0.000044
 71,0.00011325,0.00007963,0.00002546,-0.00011109,0.00001015,0.00007448,
 -0.00001708,-0.00011318,0.00000202,0.00007159,-0.00001862,-0.00005052,
 -0.00017228,-0.00005537,0.00002964,0.00017208,-0.00002301,0.00016617,-
 0.00007376,-0.00002341,-0.00013920,-0.00007218,0.00002773,0.00006380,0
 .00006281,-0.00000040,-0.00000009,-0.00010664,0.00000204,0.00007428,0.
 00004267,-0.00001192,-0.00006106,-0.00030185,0.00021199,-0.00021694,-0
 .00002155,0.00029282,0.00015679,0.00005286,-0.00001871,-0.00030647,-0.
 00015012,-0.00019702,0.00009007,0.00009803,0.00000409,-0.00002210,-0.0
 0009767,-0.00001819,0.00008211,0.00108597,-0.00005829,0.00027173,-0.00
 028440,0.00025968,-0.00007245,0.00035188,-0.00008818,-0.00021739,-0.00
 021158,-0.00002539,-0.00217775,-0.00026723,0.00491001,0.00085878,0.009
 71520,0.00510523,0.00139201,-0.00016060,-0.00242472,-0.00006555,0.0004
 1332,0.00015623,-0.01322645,-0.00958183,-0.04780846,0.01496977,-0.0031
 3882,0.01330600,-0.01404591,-0.00935136,0.00665277,0.00039184,0.001866
 12,-0.00469996,0.00000853,0.00000007,0.00002695,-0.00000240,0.00000378
 ,0.00000301,0.00000883,-0.00000605,0.00000178,0.00000564,-0.00000273,0
 .00000056,0.00000061,0.00000263,-0.00000043,0.00000042,0.00000451,0.00
 001787,0.00000236,-0.00000090,0.00001311,-0.00000639,0.00000743,0.0000
 0531,0.00003434,-0.00003834,0.00005360,-0.00022244,-0.00026291,0.00024
 421,0.01150682,0.00959039,0.02654414,-0.00025279,-0.00024679,-0.000020
 00,-0.00005401,0.00012662,0.00003672,0.00000925,-0.00006784,0.00000703
 ,0.00010904,0.00006501,-0.00007046,0.00001610,0.00000205,-0.00001378,-
 0.00003783,-0.00008095,0.00001234,0.00001426,0.00007457,0.00000724,0.0
 0005765,-0.00004615,-0.00001383,-0.00005738,-0.00001269,0.00002017,0.0
 0002600,0.00002309,0.00000170,0.00001014,-0.00005602,0.00000068,0.0000
 3787,0.00002322,-0.00000439,0.00084688,-0.00001162,0.00025278,-0.00010
 720,-0.00000550,0.00002815,0.00002763,0.00002004,-0.00004608,-0.000137
 99,-0.00015416,0.00003140,-0.00000542,0.00002270,-0.00001461,0.0000190
 6,-0.00004567,0.00000057,0.00006967,0.00019150,0.00032178,0.00008675,0
 .00006071,-0.00009238,0.00008441,0.00017482,-0.00002241,-0.00019476,-0
 .00004592,0.00000813,0.00022733,-0.00047491,-0.00018064,-0.00035535,-0
 .00322559,-0.00367878,-0.00079294,0.00085412,-0.00005937,-0.00010744,-
 0.00023650,0.00039373,-0.01923698,0.01804209,-0.01128801,-0.17525321,0
 .10595279,-0.08631771,0.00979066,-0.00521658,0.00712161,0.00049712,-0.
 00359404,-0.00139600,-0.00000182,-0.00000459,-0.00000145,0.00000203,-0
 .00000096,0.00000028,0.00000418,0.00000340,-0.00000270,0.00000448,0.00
 000333,-0.00000084,-0.00000385,0.00000418,-0.00000159,-0.00000327,0.00
 000167,-0.00000341,0.00000190,0.00001045,-0.00000062,-0.00001067,-0.00
 000672,0.00000152,-0.00009479,0.00004727,-0.00001083,-0.00000297,-0.00
 002633,-0.00015025,0.00048260,-0.00023251,0.00117211,0.18454967,-0.000
 26606,-0.00026973,0.00000891,-0.00001191,-0.00012376,-0.00000651,-0.00
 007025,0.00006321,-0.00001431,0.00006295,0.00010432,-0.00008791,0.0000
 4793,-0.00001635,0.00001342,-0.00007783,-0.00003668,0.00003838,-0.0000
 2768,0.00004895,0.00001843,0.00002416,-0.00000541,-0.00001678,-0.00001
 534,-0.00001352,0.00000839,0.00010535,0.00002941,-0.00000609,-0.000024
 29,0.00003001,-0.00000077,-0.00000274,-0.00002012,-0.00000020,0.000726
 68,0.00020393,0.00043370,0.00009572,-0.00003724,-0.00013940,-0.0000808
 1,-0.00003576,-0.00000643,0.00004876,0.00019884,-0.00001661,0.00012862
 ,0.00006409,0.00001338,-0.00005539,-0.00010190,-0.00000462,0.00054998,
 -0.00010647,-0.00043948,-0.00016403,-0.00053243,0.00000583,-0.00014374
 ,-0.00001427,0.00005552,0.00007262,-0.00006890,-0.00001580,-0.00152297
 ,0.00006136,0.00057501,-0.00330835,-0.00057023,0.00022591,0.00035428,0
 .00051565,0.00043976,-0.00055474,0.00028616,-0.00009147,-0.00794564,0.
 01105971,-0.00453043,0.10630179,-0.14745024,0.07888469,0.01688692,-0.0
 1571065,0.01011853,0.00023584,-0.00327575,0.00361147,-0.00002014,-0.00
 002113,0.00000620,-0.00000844,-0.00000625,0.00000544,-0.00000313,-0.00
 000687,0.00000161,-0.00000183,-0.00000760,0.00000308,0.00000576,-0.000
 00571,0.00000170,0.00000293,-0.00000060,0.00000958,-0.00000192,-0.0000
 0933,-0.00000741,0.00001803,0.00000314,0.00000069,-0.00004647,0.000050
 09,-0.00003508,-0.00001511,-0.00002445,0.00003996,0.00097064,0.0002838
 5,-0.00058583,-0.11226707,0.15541307,0.00037451,0.00031814,0.00003807,
 0.00014916,-0.00029566,-0.00007114,-0.00009214,0.00017207,-0.00001010,
 -0.00019208,-0.00002318,0.00009009,0.00003822,-0.00000515,0.00000293,0
 .00008050,0.00016275,0.00003645,-0.00007989,-0.00014321,0.00001228,-0.
 00011174,0.00010859,0.00001386,0.00009962,0.00006439,-0.00002545,0.000
 02782,0.00000429,-0.00000163,-0.00004416,0.00009012,0.00000116,-0.0000
 3837,-0.00006050,0.00000727,-0.00106998,-0.00016742,-0.00017245,0.0004
 8391,0.00003572,-0.00026513,-0.00014463,-0.00000625,0.00010048,0.00016
 248,0.00038264,-0.00009821,0.00017106,0.00006999,0.00004513,-0.0000849
 8,-0.00001531,-0.00000450,0.00012431,-0.00049153,-0.00035096,-0.000125
 64,-0.00062013,0.00014936,-0.00028950,-0.00016968,-0.00000045,0.000302
 09,-0.00005030,-0.00002815,-0.00090397,0.00124720,0.00043732,-0.003351
 45,-0.00165944,0.00375547,0.00067199,0.00058108,0.00056739,-0.00082145
 ,0.00019324,-0.00035838,-0.00070007,0.00704730,0.00258258,-0.09124912,
 0.06627656,-0.09050462,0.00055379,0.01454381,-0.01022629,0.00030092,0.
 00181540,0.00588443,0.00000440,0.00000881,-0.00001683,0.00000573,0.000
 00357,-0.00000320,-0.00000951,0.00000666,0.00000455,-0.00000883,0.0000
 0465,0.00000096,-0.00000169,-0.00000255,0.00000290,-0.00000654,0.00000
 503,0.00001029,-0.00001682,-0.00001008,0.00000314,0.00001139,-0.000000
 20,-0.00000561,-0.00003985,0.00006753,-0.00005730,-0.00005882,-0.00003
 749,0.00011968,0.00121529,-0.00013387,-0.00236833,0.09430376,-0.088883
 08,0.09001564,0.00025046,0.00081438,0.00006113,-0.00047847,0.00015185,
 0.00016902,-0.00032937,-0.00035140,-0.00001063,-0.00038593,-0.00023413
 ,0.00028996,0.00032068,0.00036040,0.00001896,0.00043795,-0.00119676,-0
 .00030793,-0.00018995,0.00072711,0.00008821,0.00064099,-0.00020164,-0.
 00014285,-0.00059215,-0.00034000,0.00008101,0.00007997,0.00027586,0.00
 000712,-0.00013502,-0.00006541,-0.00000149,0.00008535,0.00003526,-0.00
 002300,0.00099557,-0.00356691,-0.00588647,-0.00083003,-0.00212633,0.00
 050147,0.00025248,0.00144229,0.00004560,0.00037159,0.00042967,0.000451
 20,0.00030237,-0.00016417,0.00002729,-0.00000570,0.00003111,-0.0000145
 4,-0.00090665,-0.00241281,-0.00023251,-0.00008325,0.00079452,-0.001280
 22,-0.00000288,-0.00062769,0.00009634,0.00019428,0.00028898,0.00001544
 ,-0.01446617,0.00578014,0.02759293,0.00030730,-0.00216224,0.00116944,-
 0.00137412,0.00040568,-0.00087269,-0.00024878,-0.00142922,0.00005214,-
 0.00377370,0.00212455,-0.00072518,0.00404026,0.00558576,0.00204479,-0.
 00352958,-0.00470637,-0.01625695,-0.02783763,0.00003827,0.01122938,-0.
 00001487,0.00004860,-0.00000953,-0.00001008,-0.00000080,0.00001477,0.0
 0000139,-0.00000082,-0.00000176,-0.00000393,-0.00000510,0.00000438,0.0
 0000391,0.00000360,0.00000231,-0.00001320,0.00001760,0.00000741,-0.000
 02298,0.00000788,-0.00002138,-0.00002732,0.00001476,0.00003199,0.00003
 146,-0.00001295,0.00014022,-0.00002038,-0.00008211,-0.00012991,0.00015
 776,-0.00020829,-0.00077505,-0.00031050,0.00005584,0.00062939,0.047577
 82,-0.00208963,-0.00106106,0.00027195,-0.00009323,0.00036900,-0.000498
 87,-0.00018261,-0.00023730,0.00008787,0.00056384,-0.00007882,0.0021398
 2,0.00024495,0.00008849,-0.00005878,-0.00026265,-0.00027064,-0.0002324
 3,-0.00005216,0.00023233,-0.00022099,0.00015422,-0.00020142,0.00002741
 ,-0.00023509,-0.00020698,-0.00006796,0.00012712,0.00002179,0.00000904,
 0.00004200,0.00004522,0.00000705,-0.00005887,0.00004564,-0.00002979,-0
 .00416409,-0.01771994,-0.02994197,0.00070108,0.00064937,0.00070656,0.0
 0053272,-0.00061344,0.00076323,0.00021224,-0.00090117,0.00002947,-0.00
 033151,0.00002311,0.00001269,0.00008382,-0.00007175,-0.00003010,-0.001
 78763,0.00112732,0.00007996,0.00072618,0.00101471,-0.00011982,0.000139
 48,-0.00002741,0.00001941,0.00003322,0.00010953,-0.00000087,0.00299522
 ,0.00257662,0.00120178,0.00117218,-0.00291413,0.00120246,-0.00102811,0
 .00032919,-0.00066385,0.00038529,-0.00095667,-0.00006153,0.00032041,-0
 .00084720,0.00225291,-0.00410275,-0.00580833,-0.00488362,0.00514529,0.
 00356451,0.01422044,0.00087928,-0.03899093,-0.05458849,-0.00002204,0.0
 0008324,-0.00005746,-0.00001221,-0.00002540,0.00002554,0.00001004,0.00
 000055,0.00001410,0.00000028,-0.00001043,-0.00001786,0.00000765,-0.000
 00060,-0.00000004,0.00000418,-0.00000072,-0.00000374,0.00000755,0.0000
 0642,0.00001024,-0.00000611,0.00000087,0.00001185,-0.00000325,-0.00001
 360,0.00003078,0.00005062,0.00001256,0.00003762,-0.00054477,0.00011218
 ,0.00127576,0.00035496,0.00009644,-0.00043050,0.00045527,0.06042324,-0
 .00100055,-0.00006509,0.00036278,0.00036946,-0.00026400,-0.00022591,-0
 .00006053,0.00024868,-0.00001914,0.00030310,0.00054109,0.00001699,0.00
 015428,-0.00013535,-0.00002661,-0.00063938,0.00091182,0.00026751,0.000
 01171,-0.00040746,-0.00003625,-0.00030094,0.00015765,0.00005305,0.0002
 1860,0.00016170,-0.00002409,0.00018162,0.00000993,0.00000002,0.0000162
 4,0.00007008,-0.00000131,-0.00004182,-0.00003061,0.00000008,-0.0016355
 8,-0.00353754,0.00094494,0.00165859,0.00125259,0.00045146,-0.00024102,
 -0.00169118,0.00009221,-0.00032839,0.00006636,-0.00021808,0.00022064,0
 .00003528,-0.00002504,-0.00005986,-0.00018802,-0.00000567,0.00109622,0
 .00089249,0.00028528,-0.00029398,-0.00093398,0.00032523,-0.00006637,0.
 00017849,-0.00004753,-0.00011630,-0.00011349,-0.00001022,0.00450951,-0
 .00148979,-0.00868320,-0.00018017,-0.00093902,0.00102989,0.00142918,0.
 00020526,0.00020909,-0.00077980,0.00088266,-0.00009062,0.00090691,-0.0
 0072134,0.00015283,-0.00247504,-0.00087566,0.00081932,-0.00579856,0.00
 633741,-0.02132364,0.02194814,-0.06803334,-0.24957325,-0.00002654,-0.0
 0004580,-0.00004715,0.00000047,-0.00000884,-0.00000112,-0.00000634,-0.
 00000219,0.00001014,-0.00000260,-0.00000358,0.00000187,0.00000202,-0.0
 0000637,0.00000252,0.00000095,-0.00000037,0.00000782,0.00000040,-0.000
 00936,0.00001258,0.00003281,-0.00000573,-0.00001366,-0.00001005,0.0000
 3804,-0.00004384,0.00005198,0.00004183,0.00005087,-0.00029830,-0.00025
 935,0.00019469,-0.00036887,0.00027577,0.00065507,-0.01808429,0.0677887
 9,0.27461111,-0.00507432,-0.00197871,0.00201715,0.00036982,0.00080954,
 0.00030079,-0.00054685,0.00022301,0.00001664,-0.00048250,-0.00075708,-
 0.00019814,-0.00001472,0.00006034,0.00002444,-0.00032369,-0.00328495,0
 .00191443,0.00065034,-0.00033920,-0.00011681,-0.00010452,-0.00016446,-
 0.00009599,-0.00005035,0.00000592,0.00003493,0.00011369,0.00006250,-0.
 00008800,-0.00007773,0.00003121,0.00000504,0.00000983,-0.00000384,-0.0
 0002013,-0.01399511,0.02433944,0.00673870,-0.14986140,0.12940316,0.037
 73296,0.01059120,-0.01307778,-0.00297632,0.00005749,0.00030299,0.00000
 572,-0.00004293,-0.00005494,0.00000890,-0.00010001,0.00003733,-0.00000
 031,0.00020533,0.00008232,-0.00012453,-0.00008974,-0.00010678,0.000033
 95,-0.00004922,-0.00015634,0.00000885,0.00015664,0.00009865,-0.0000044
 0,-0.00026161,0.00004333,-0.00010891,-0.00009139,0.00007168,-0.0002113
 3,0.00003426,-0.00012081,0.00002902,-0.00000071,0.00001555,-0.00001547
 ,0.00017145,0.00036506,0.00035012,0.00009244,-0.00058263,-0.00037447,0
 .00066202,0.00140307,-0.00084558,0.00014339,0.00068764,-0.00043350,0.0
 0050309,0.00033323,-0.00144625,-0.00000513,0.00000732,0.00002770,0.000
 05384,-0.00005185,-0.00000972,-0.00000675,0.00000926,-0.00000026,0.000
 00110,0.00002203,0.00002402,-0.00001030,-0.00000076,0.00000408,-0.0000
 1587,-0.00000921,-0.00000398,0.00000855,-0.00000557,-0.00000332,0.0000
 1372,-0.00000442,-0.00000438,-0.00000337,-0.00000440,0.00002446,-0.000
 02307,0.00005634,0.00030344,0.00004647,-0.00005892,-0.00026910,-0.0004
 5894,-0.00037239,-0.00029755,0.15780557,-0.00151837,0.00038887,0.00014
 779,-0.00025808,0.00032838,-0.00020517,-0.00019740,0.00008692,0.000087
 05,-0.00077643,0.00014443,0.00032938,0.00008337,0.00005083,-0.00004740
 ,-0.00297623,-0.00315386,0.00061431,0.00090241,-0.00013828,-0.00024869
 ,-0.00013501,-0.00034895,0.00005346,-0.00011274,-0.00004321,0.00003242
 ,0.00008683,-0.00001034,-0.00001197,-0.00003476,0.00007952,-0.00000854
 ,-0.00003668,-0.00001101,0.00000158,-0.00227317,0.00726787,0.00187853,
 0.13014488,-0.23255772,-0.04960455,0.01580694,-0.01778110,-0.00567483,
 0.00008124,0.00010239,0.00003479,-0.00002763,-0.00002442,0.00005901,-0
 .00002757,0.00000854,0.00000572,0.00007502,0.00014580,-0.00009628,-0.0
 0001039,0.00001168,0.00000218,-0.00000196,-0.00008720,0.00001482,0.000
 07711,0.00005474,0.00000392,0.00051009,0.00015972,0.00009637,0.0001497
 2,-0.00021575,-0.00002731,-0.00010203,-0.00007566,-0.00003806,0.000057
 90,-0.00007729,-0.00000360,-0.00044727,0.00017175,0.00000724,0.0005464
 9,0.00025374,-0.00025760,-0.00253025,-0.00208956,0.00068065,0.00040284
 ,-0.00092639,0.00060327,-0.00019596,0.00094460,-0.00003988,-0.00003062
 ,-0.00002828,-0.00000045,0.00007941,-0.00006286,-0.00001729,-0.0000067
 0,0.00000213,0.00000221,0.00000300,0.00000267,0.00000065,-0.00000135,-
 0.00000181,0.00000034,-0.00000289,-0.00000416,-0.00001939,0.00000981,-
 0.00000205,-0.00000252,0.00001054,-0.00000152,0.00000135,-0.00000737,0
 .00000837,-0.00000709,0.00001282,-0.00000319,0.00005299,0.00000053,-0.
 00004089,-0.00000401,0.00000578,0.00002562,-0.00032847,-0.13733589,0.2
 4744691,0.00249795,0.00002890,0.00386615,-0.00003016,-0.00039310,0.000
 54716,0.00006764,-0.00009092,-0.00011855,-0.00015135,0.00096323,-0.000
 76144,0.00030064,-0.00030706,-0.00020650,0.00162914,-0.00007537,0.0080
 0139,0.00022143,-0.00031125,0.00043080,-0.00039222,-0.00000233,-0.0004
 6236,0.00016238,0.00015270,0.00009664,0.00004949,-0.00004126,-0.000225
 69,0.00000181,0.00005306,0.00000144,-0.00004336,-0.00002178,-0.0000212
 1,0.00348467,-0.00607863,0.00157507,0.03635060,-0.04730864,-0.04969883
 ,0.00048276,0.00081186,0.00371952,-0.00011648,-0.00018426,-0.00002705,
 0.00006381,-0.00000118,0.00000333,0.00003378,-0.00004849,-0.00002489,-
 0.00003279,0.00003540,0.00019028,0.00002575,0.00001852,0.00000917,-0.0
 0001772,0.00010552,-0.00002265,-0.00010318,-0.00006628,-0.00001150,-0.
 00028757,0.00002433,-0.00018173,0.00003659,0.00012811,0.00014931,0.000
 03706,0.00007031,0.00001241,-0.00000699,0.00006344,0.00001580,-0.00005
 066,-0.00007076,-0.00014329,0.00015670,0.00026773,0.00070218,-0.000126
 42,-0.00063572,-0.00069187,-0.00066915,0.00080051,-0.00214651,-0.00178
 195,0.00040566,-0.00488563,0.00002783,-0.00000330,0.00011290,-0.000015
 40,-0.00000126,-0.00006464,0.00000024,0.00000330,-0.00000317,0.0000053
 5,-0.00000306,0.00008076,-0.00000129,0.00000098,0.00000082,0.00000410,
 0.00000159,0.00001219,-0.00000515,0.00000177,0.00000165,-0.00000806,0.
 00000111,-0.00000212,0.00000970,0.00000077,0.00000477,0.00010561,-0.00
 000198,-0.00020751,0.00003727,0.00009285,0.00003225,0.00000450,-0.0003
 1808,-0.00014100,-0.04195688,0.05193308,0.04048213\\0.00000143,0.00000
 179,-0.00000572,0.00000444,0.00000590,0.00000862,0.00000119,-0.0000058
 3,0.00000612,-0.00000105,-0.00000346,-0.00000429,-0.00000045,0.0000025
 3,-0.00000057,-0.00000608,0.00001428,0.00000146,0.00000316,-0.00000458
 ,-0.00000431,-0.00000701,0.00000347,-0.00000313,0.00001405,-0.00000851
 ,-0.00000174,-0.00000516,-0.00000123,-0.00000316,0.00000158,0.00000211
 ,-0.00000438,-0.00001364,0.00000688,-0.00000306,0.00000135,-0.00000439
 ,0.00000043,0.00000754,0.00000496,-0.00000019,0.00000097,-0.00000620,-
 0.00000516,-0.00001021,-0.00000021,-0.00000183,0.00000817,-0.00000305,
 -0.00000240,0.00000081,0.00000446,0.00000083,-0.00000153,-0.00000398,0
 .00000316,0.00000384,0.00001294,0.00000300,-0.00000115,-0.00000091,0.0
 0000128,-0.00000643,-0.00000450,0.00000051,-0.00000677,-0.00000643,0.0
 0000176,0.00000800,0.00000248,0.00000607,-0.00000658,0.00000064,0.0000
 0149,0.00000251,-0.00001283,0.00000278,-0.00000771,0.00000675,-0.00000
 021,0.00001997,0.00002028,0.00000205,-0.00001873,-0.00002787,0.0000018
 5,0.00000971,0.00000378,-0.00000498,-0.00000015,0.00000085,-0.00000271
 ,-0.00000146,0.00000024,-0.00000344,-0.00000180,0.00000042,-0.00000381
 ,-0.00000038,-0.00000008,-0.00000340,-0.00000132,-0.00000073,0.0000010
 9,-0.00000064,-0.00000094,0.00000064,0.00000101,0.00000009,0.00000259,
 0.00000138,-0.00000172,0.00000294,0.00000090,0.00000046,0.00000295,0.0
 0000393,-0.00000050,0.00000382,0.00000476,-0.00000071,-0.00000077,0.00
 000072,0.00000137,0.00000350,-0.00000039,0.00000292,0.00000031,-0.0000
 0279,-0.00000093,0.00000002\\\@


 "I COULD HAVE DONE IT IN A MUCH MORE COMPLICATED WAY"
 SAID THE RED QUEEN, IMMENSELY PROUD.

                                      -- LEWIS CARROLL
 Job cpu time:       0 days 21 hours 38 minutes 45.5 seconds.
 Elapsed time:       0 days  1 hours  5 minutes  7.3 seconds.
 File lengths (MBytes):  RWF=   2136 Int=      0 D2E=      0 Chk=     45 Scr=      1
 Normal termination of Gaussian 16 at Tue Jun 25 20:55:38 2019.
