 Entering Gaussian System, Link 0=/share/apps/gaussian16/g16/g16
 Initial command:
 /share/apps/gaussian16/g16/l1.exe "/home/am2145//scratch/4568/Gau-38841.inp" -scrdir="/home/am2145//scratch/4568/"
 Entering Link 1 = /share/apps/gaussian16/g16/l1.exe PID=     38842.
  
 Copyright (c) 1988,1990,1992,1993,1995,1998,2003,2009,2016,
            Gaussian, Inc.  All Rights Reserved.
  
 This is part of the Gaussian(R) 16 program.  It is based on
 the Gaussian(R) 09 system (copyright 2009, Gaussian, Inc.),
 the Gaussian(R) 03 system (copyright 2003, Gaussian, Inc.),
 the Gaussian(R) 98 system (copyright 1998, Gaussian, Inc.),
 the Gaussian(R) 94 system (copyright 1995, Gaussian, Inc.),
 the Gaussian 92(TM) system (copyright 1992, Gaussian, Inc.),
 the Gaussian 90(TM) system (copyright 1990, Gaussian, Inc.),
 the Gaussian 88(TM) system (copyright 1988, Gaussian, Inc.),
 the Gaussian 86(TM) system (copyright 1986, Carnegie Mellon
 University), and the Gaussian 82(TM) system (copyright 1983,
 Carnegie Mellon University). Gaussian is a federally registered
 trademark of Gaussian, Inc.
  
 This software contains proprietary and confidential information,
 including trade secrets, belonging to Gaussian, Inc.
  
 This software is provided under written license and may be
 used, copied, transmitted, or stored only in accord with that
 written license.
  
 The following legend is applicable only to US Government
 contracts under FAR:
  
                    RESTRICTED RIGHTS LEGEND
  
 Use, reproduction and disclosure by the US Government is
 subject to restrictions as set forth in subparagraphs (a)
 and (c) of the Commercial Computer Software - Restricted
 Rights clause in FAR 52.227-19.
  
 Gaussian, Inc.
 340 Quinnipiac St., Bldg. 40, Wallingford CT 06492
  
  
 ---------------------------------------------------------------
 Warning -- This program may not be used in any manner that
 competes with the business of Gaussian, Inc. or will provide
 assistance to any competitor of Gaussian, Inc.  The licensee
 of this program is prohibited from giving any competitor of
 Gaussian, Inc. access to this program.  By using this program,
 the user acknowledges that Gaussian, Inc. is engaged in the
 business of creating and licensing software in the field of
 computational chemistry and represents and warrants to the
 licensee that it is not a competitor of Gaussian, Inc. and that
 it will not use this program in any manner prohibited above.
 ---------------------------------------------------------------
  

 Cite this work as:
 Gaussian 16, Revision A.03,
 M. J. Frisch, G. W. Trucks, H. B. Schlegel, G. E. Scuseria, 
 M. A. Robb, J. R. Cheeseman, G. Scalmani, V. Barone, 
 G. A. Petersson, H. Nakatsuji, X. Li, M. Caricato, A. V. Marenich, 
 J. Bloino, B. G. Janesko, R. Gomperts, B. Mennucci, H. P. Hratchian, 
 J. V. Ortiz, A. F. Izmaylov, J. L. Sonnenberg, D. Williams-Young, 
 F. Ding, F. Lipparini, F. Egidi, J. Goings, B. Peng, A. Petrone, 
 T. Henderson, D. Ranasinghe, V. G. Zakrzewski, J. Gao, N. Rega, 
 G. Zheng, W. Liang, M. Hada, M. Ehara, K. Toyota, R. Fukuda, 
 J. Hasegawa, M. Ishida, T. Nakajima, Y. Honda, O. Kitao, H. Nakai, 
 T. Vreven, K. Throssell, J. A. Montgomery, Jr., J. E. Peralta, 
 F. Ogliaro, M. J. Bearpark, J. J. Heyd, E. N. Brothers, K. N. Kudin, 
 V. N. Staroverov, T. A. Keith, R. Kobayashi, J. Normand, 
 K. Raghavachari, A. P. Rendell, J. C. Burant, S. S. Iyengar, 
 J. Tomasi, M. Cossi, J. M. Millam, M. Klene, C. Adamo, R. Cammi, 
 J. W. Ochterski, R. L. Martin, K. Morokuma, O. Farkas, 
 J. B. Foresman, and D. J. Fox, Gaussian, Inc., Wallingford CT, 2016.
 
 ******************************************
 Gaussian 16:  ES64L-G16RevA.03 25-Dec-2016
                 7-Aug-2019 
 ******************************************
 %nprocshared=20
 Will use up to   20 processors via shared memory.
 %mem=160GB
 %chk=7-memb2-carb-5a.chk
 -------------------------------------------
 # opt freq b3lyp/6-311+g(d,p) int=grid=fine
 -------------------------------------------
 1/18=20,19=15,26=3,38=1/1,3;
 2/9=110,12=2,17=6,18=5,40=1/2;
 3/5=4,6=6,7=111,11=2,25=1,30=1,71=1,74=-5,75=-4/1,2,3;
 4//1;
 5/5=2,38=5/2;
 6/7=2,8=2,9=2,10=2,28=1/1;
 7//1,2,3,16;
 1/18=20,19=15,26=3/3(2);
 2/9=110/2;
 99//99;
 2/9=110/2;
 3/5=4,6=6,7=111,11=2,25=1,30=1,71=1,74=-5,75=-4/1,2,3;
 4/5=5,16=3,69=1/1;
 5/5=2,38=5/2;
 7//1,2,3,16;
 1/18=20,19=15,26=3/3(-5);
 2/9=110/2;
 6/7=2,8=2,9=2,10=2,19=2,28=1/1;
 99/9=1/99;
 ---------------
 7-memb2-carb-5a
 ---------------
 Symbolic Z-matrix:
 Charge =  0 Multiplicity = 1
 C                     0.68503  -0.82313  -0.58017 
 C                     0.5418    0.60724  -0.38587 
 C                     1.83862   1.1363   -0.29819 
 C                     2.11003  -1.11089  -0.49326 
 C                     2.78576   0.09228  -0.31886 
 C                     2.64471  -2.30335  -0.05692 
 C                     3.99205  -2.24341   0.38211 
 C                     4.70508  -1.03271   0.45972 
 C                     4.0819    0.21176   0.16534 
 C                     2.17807   2.44404   0.04772 
 C                     3.58525   2.63373   0.36807 
 C                     4.47558   1.58439   0.44471 
 C                    -0.19599  -1.84404  -0.59616 
 C                     0.47266  -3.17648  -0.95558 
 C                     1.57953  -3.37962   0.09656 
 C                    -0.57058   1.42047  -0.22092 
 C                    -0.24852   2.8338   -0.05142 
 C                     1.07882   3.31141   0.10999 
 C                    -1.94413   0.91649  -0.16494 
 C                    -2.94225   1.93113  -0.13397 
 C                    -2.60654   3.32332  -0.11825 
 C                    -1.32759   3.76385  -0.03503 
 C                    -2.36201  -0.5023   -0.03554 
 C                    -3.767    -0.71898   0.22398 
 C                    -4.71711   0.34162   0.16257 
 C                    -4.32379   1.61875  -0.03751 
 C                    -4.29244  -1.98617   0.57189 
 C                    -3.48276  -3.08425   0.65881 
 C                    -2.14623  -2.94942   0.28566 
 C                    -1.55706  -1.74199  -0.10435 
 H                    -0.2165   -4.01609  -0.95875 
 H                     1.96569  -4.39944   0.13819 
 H                     4.48703  -3.14885   0.71913 
 H                     5.72443  -1.05758   0.83181 
 H                     5.49355   1.79082   0.76031 
 H                     3.93594   3.63086   0.61438 
 H                     1.21077   4.3701    0.31016 
 H                    -1.10938   4.82364   0.04004 
 H                    -3.4274    4.03229  -0.1173 
 H                    -5.04505   2.42783  -0.0689 
 H                    -5.76372   0.09648   0.30387 
 H                    -5.35339  -2.05742   0.78341 
 H                    -3.8693   -4.04931   0.96484 
 H                    -1.53989  -3.84163   0.29671 
 H                     0.88872  -3.10255  -1.96554 
 H                     0.993    -3.14221   1.00661 
 

 GradGradGradGradGradGradGradGradGradGradGradGradGradGradGradGradGradGrad
 Berny optimization.
 Initialization pass.
                           ----------------------------
                           !    Initial Parameters    !
                           ! (Angstroms and Degrees)  !
 --------------------------                            --------------------------
 ! Name  Definition              Value          Derivative Info.                !
 --------------------------------------------------------------------------------
 ! R1    R(1,2)                  1.4506         estimate D2E/DX2                !
 ! R2    R(1,4)                  1.4564         estimate D2E/DX2                !
 ! R3    R(1,13)                 1.3486         estimate D2E/DX2                !
 ! R4    R(2,3)                  1.4033         estimate D2E/DX2                !
 ! R5    R(2,16)                 1.3878         estimate D2E/DX2                !
 ! R6    R(3,5)                  1.4098         estimate D2E/DX2                !
 ! R7    R(3,10)                 1.3947         estimate D2E/DX2                !
 ! R8    R(4,5)                  1.3909         estimate D2E/DX2                !
 ! R9    R(4,6)                  1.3778         estimate D2E/DX2                !
 ! R10   R(5,9)                  1.3888         estimate D2E/DX2                !
 ! R11   R(6,7)                  1.4183         estimate D2E/DX2                !
 ! R12   R(6,15)                 1.522          estimate D2E/DX2                !
 ! R13   R(7,8)                  1.4072         estimate D2E/DX2                !
 ! R14   R(7,33)                 1.0855         estimate D2E/DX2                !
 ! R15   R(8,9)                  1.4226         estimate D2E/DX2                !
 ! R16   R(8,34)                 1.0854         estimate D2E/DX2                !
 ! R17   R(9,12)                 1.455          estimate D2E/DX2                !
 ! R18   R(10,11)                1.4556         estimate D2E/DX2                !
 ! R19   R(10,18)                1.4016         estimate D2E/DX2                !
 ! R20   R(11,12)                1.3783         estimate D2E/DX2                !
 ! R21   R(11,36)                1.0853         estimate D2E/DX2                !
 ! R22   R(12,35)                1.0856         estimate D2E/DX2                !
 ! R23   R(13,14)                1.5335         estimate D2E/DX2                !
 ! R24   R(13,30)                1.4508         estimate D2E/DX2                !
 ! R25   R(14,15)                1.5406         estimate D2E/DX2                !
 ! R26   R(14,31)                1.0862         estimate D2E/DX2                !
 ! R27   R(14,45)                1.0948         estimate D2E/DX2                !
 ! R28   R(15,32)                1.0913         estimate D2E/DX2                !
 ! R29   R(15,46)                1.1084         estimate D2E/DX2                !
 ! R30   R(16,17)                1.4594         estimate D2E/DX2                !
 ! R31   R(16,19)                1.4642         estimate D2E/DX2                !
 ! R32   R(17,18)                1.4199         estimate D2E/DX2                !
 ! R33   R(17,22)                1.4247         estimate D2E/DX2                !
 ! R34   R(18,37)                1.0855         estimate D2E/DX2                !
 ! R35   R(19,20)                1.4236         estimate D2E/DX2                !
 ! R36   R(19,23)                1.4847         estimate D2E/DX2                !
 ! R37   R(20,21)                1.4322         estimate D2E/DX2                !
 ! R38   R(20,26)                1.4197         estimate D2E/DX2                !
 ! R39   R(21,22)                1.3552         estimate D2E/DX2                !
 ! R40   R(21,39)                1.0846         estimate D2E/DX2                !
 ! R41   R(22,38)                1.0846         estimate D2E/DX2                !
 ! R42   R(23,24)                1.4451         estimate D2E/DX2                !
 ! R43   R(23,30)                1.4797         estimate D2E/DX2                !
 ! R44   R(24,25)                1.4253         estimate D2E/DX2                !
 ! R45   R(24,27)                1.4152         estimate D2E/DX2                !
 ! R46   R(25,26)                1.3512         estimate D2E/DX2                !
 ! R47   R(25,41)                1.0842         estimate D2E/DX2                !
 ! R48   R(26,40)                1.0843         estimate D2E/DX2                !
 ! R49   R(27,28)                1.3671         estimate D2E/DX2                !
 ! R50   R(27,42)                1.0842         estimate D2E/DX2                !
 ! R51   R(28,29)                1.3942         estimate D2E/DX2                !
 ! R52   R(28,43)                1.0837         estimate D2E/DX2                !
 ! R53   R(29,30)                1.399          estimate D2E/DX2                !
 ! R54   R(29,44)                1.0788         estimate D2E/DX2                !
 ! A1    A(2,1,4)              106.466          estimate D2E/DX2                !
 ! A2    A(2,1,13)             133.1218         estimate D2E/DX2                !
 ! A3    A(4,1,13)             119.3635         estimate D2E/DX2                !
 ! A4    A(1,2,3)              106.7907         estimate D2E/DX2                !
 ! A5    A(1,2,16)             132.29           estimate D2E/DX2                !
 ! A6    A(3,2,16)             120.8217         estimate D2E/DX2                !
 ! A7    A(2,3,5)              109.9218         estimate D2E/DX2                !
 ! A8    A(2,3,10)             126.4359         estimate D2E/DX2                !
 ! A9    A(5,3,10)             122.3114         estimate D2E/DX2                !
 ! A10   A(1,4,5)              108.1754         estimate D2E/DX2                !
 ! A11   A(1,4,6)              124.7247         estimate D2E/DX2                !
 ! A12   A(5,4,6)              121.3608         estimate D2E/DX2                !
 ! A13   A(3,5,4)              108.4236         estimate D2E/DX2                !
 ! A14   A(3,5,9)              123.9313         estimate D2E/DX2                !
 ! A15   A(4,5,9)              124.8586         estimate D2E/DX2                !
 ! A16   A(4,6,7)              115.4747         estimate D2E/DX2                !
 ! A17   A(4,6,15)             111.8617         estimate D2E/DX2                !
 ! A18   A(7,6,15)             131.5665         estimate D2E/DX2                !
 ! A19   A(6,7,8)              122.328          estimate D2E/DX2                !
 ! A20   A(6,7,33)             119.6039         estimate D2E/DX2                !
 ! A21   A(8,7,33)             117.9987         estimate D2E/DX2                !
 ! A22   A(7,8,9)              121.2831         estimate D2E/DX2                !
 ! A23   A(7,8,34)             118.3621         estimate D2E/DX2                !
 ! A24   A(9,8,34)             120.1577         estimate D2E/DX2                !
 ! A25   A(5,9,8)              113.9365         estimate D2E/DX2                !
 ! A26   A(5,9,12)             113.6169         estimate D2E/DX2                !
 ! A27   A(8,9,12)             131.8359         estimate D2E/DX2                !
 ! A28   A(3,10,11)            114.3353         estimate D2E/DX2                !
 ! A29   A(3,10,18)            113.6034         estimate D2E/DX2                !
 ! A30   A(11,10,18)           131.8942         estimate D2E/DX2                !
 ! A31   A(10,11,12)           122.5141         estimate D2E/DX2                !
 ! A32   A(10,11,36)           118.8191         estimate D2E/DX2                !
 ! A33   A(12,11,36)           118.5632         estimate D2E/DX2                !
 ! A34   A(9,12,11)            122.1923         estimate D2E/DX2                !
 ! A35   A(9,12,35)            119.2693         estimate D2E/DX2                !
 ! A36   A(11,12,35)           118.4985         estimate D2E/DX2                !
 ! A37   A(1,13,14)            112.0672         estimate D2E/DX2                !
 ! A38   A(1,13,30)            123.7528         estimate D2E/DX2                !
 ! A39   A(14,13,30)           123.3415         estimate D2E/DX2                !
 ! A40   A(13,14,15)           105.532          estimate D2E/DX2                !
 ! A41   A(13,14,31)           113.3073         estimate D2E/DX2                !
 ! A42   A(13,14,45)           108.8589         estimate D2E/DX2                !
 ! A43   A(15,14,31)           110.8491         estimate D2E/DX2                !
 ! A44   A(15,14,45)           111.4617         estimate D2E/DX2                !
 ! A45   A(31,14,45)           106.8944         estimate D2E/DX2                !
 ! A46   A(6,15,14)            109.9202         estimate D2E/DX2                !
 ! A47   A(6,15,32)            114.6473         estimate D2E/DX2                !
 ! A48   A(6,15,46)            107.5575         estimate D2E/DX2                !
 ! A49   A(14,15,32)           113.7983         estimate D2E/DX2                !
 ! A50   A(14,15,46)            98.7596         estimate D2E/DX2                !
 ! A51   A(32,15,46)           110.8609         estimate D2E/DX2                !
 ! A52   A(2,16,17)            113.8533         estimate D2E/DX2                !
 ! A53   A(2,16,19)            123.6958         estimate D2E/DX2                !
 ! A54   A(17,16,19)           122.4064         estimate D2E/DX2                !
 ! A55   A(16,17,18)           123.0422         estimate D2E/DX2                !
 ! A56   A(16,17,22)           117.7999         estimate D2E/DX2                !
 ! A57   A(18,17,22)           119.1545         estimate D2E/DX2                !
 ! A58   A(10,18,17)           121.3288         estimate D2E/DX2                !
 ! A59   A(10,18,37)           121.092          estimate D2E/DX2                !
 ! A60   A(17,18,37)           117.5595         estimate D2E/DX2                !
 ! A61   A(16,19,20)           114.4076         estimate D2E/DX2                !
 ! A62   A(16,19,23)           126.6053         estimate D2E/DX2                !
 ! A63   A(20,19,23)           118.8067         estimate D2E/DX2                !
 ! A64   A(19,20,21)           121.9185         estimate D2E/DX2                !
 ! A65   A(19,20,26)           121.7978         estimate D2E/DX2                !
 ! A66   A(21,20,26)           116.1837         estimate D2E/DX2                !
 ! A67   A(20,21,22)           122.5383         estimate D2E/DX2                !
 ! A68   A(20,21,39)           117.2579         estimate D2E/DX2                !
 ! A69   A(22,21,39)           120.1108         estimate D2E/DX2                !
 ! A70   A(17,22,21)           120.1238         estimate D2E/DX2                !
 ! A71   A(17,22,38)           119.0967         estimate D2E/DX2                !
 ! A72   A(21,22,38)           120.7788         estimate D2E/DX2                !
 ! A73   A(19,23,24)           115.6313         estimate D2E/DX2                !
 ! A74   A(19,23,30)           130.0494         estimate D2E/DX2                !
 ! A75   A(24,23,30)           114.3071         estimate D2E/DX2                !
 ! A76   A(23,24,25)           121.9249         estimate D2E/DX2                !
 ! A77   A(23,24,27)           122.6409         estimate D2E/DX2                !
 ! A78   A(25,24,27)           115.4293         estimate D2E/DX2                !
 ! A79   A(24,25,26)           121.0431         estimate D2E/DX2                !
 ! A80   A(24,25,41)           118.0117         estimate D2E/DX2                !
 ! A81   A(26,25,41)           120.9307         estimate D2E/DX2                !
 ! A82   A(20,26,25)           120.0854         estimate D2E/DX2                !
 ! A83   A(20,26,40)           118.7597         estimate D2E/DX2                !
 ! A84   A(25,26,40)           121.0577         estimate D2E/DX2                !
 ! A85   A(24,27,28)           120.9934         estimate D2E/DX2                !
 ! A86   A(24,27,42)           118.0425         estimate D2E/DX2                !
 ! A87   A(28,27,42)           120.9566         estimate D2E/DX2                !
 ! A88   A(27,28,29)           118.2347         estimate D2E/DX2                !
 ! A89   A(27,28,43)           121.4661         estimate D2E/DX2                !
 ! A90   A(29,28,43)           120.2409         estimate D2E/DX2                !
 ! A91   A(28,29,30)           124.181          estimate D2E/DX2                !
 ! A92   A(28,29,44)           117.1349         estimate D2E/DX2                !
 ! A93   A(30,29,44)           118.683          estimate D2E/DX2                !
 ! A94   A(13,30,23)           125.8065         estimate D2E/DX2                !
 ! A95   A(13,30,29)           115.397          estimate D2E/DX2                !
 ! A96   A(23,30,29)           118.7529         estimate D2E/DX2                !
 ! D1    D(4,1,2,3)              4.4608         estimate D2E/DX2                !
 ! D2    D(4,1,2,16)          -171.857          estimate D2E/DX2                !
 ! D3    D(13,1,2,3)           172.2372         estimate D2E/DX2                !
 ! D4    D(13,1,2,16)           -4.0805         estimate D2E/DX2                !
 ! D5    D(2,1,4,5)             -2.6031         estimate D2E/DX2                !
 ! D6    D(2,1,4,6)            150.776          estimate D2E/DX2                !
 ! D7    D(13,1,4,5)          -172.3894         estimate D2E/DX2                !
 ! D8    D(13,1,4,6)           -19.0103         estimate D2E/DX2                !
 ! D9    D(2,1,13,14)          175.563          estimate D2E/DX2                !
 ! D10   D(2,1,13,30)          -14.6326         estimate D2E/DX2                !
 ! D11   D(4,1,13,14)          -17.9092         estimate D2E/DX2                !
 ! D12   D(4,1,13,30)          151.8951         estimate D2E/DX2                !
 ! D13   D(1,2,3,5)             -4.7715         estimate D2E/DX2                !
 ! D14   D(1,2,3,10)          -171.7381         estimate D2E/DX2                !
 ! D15   D(16,2,3,5)           172.0572         estimate D2E/DX2                !
 ! D16   D(16,2,3,10)            5.0905         estimate D2E/DX2                !
 ! D17   D(1,2,16,17)          179.9146         estimate D2E/DX2                !
 ! D18   D(1,2,16,19)            2.2916         estimate D2E/DX2                !
 ! D19   D(3,2,16,17)            4.0204         estimate D2E/DX2                !
 ! D20   D(3,2,16,19)         -173.6027         estimate D2E/DX2                !
 ! D21   D(2,3,5,4)              3.1973         estimate D2E/DX2                !
 ! D22   D(2,3,5,9)           -158.6414         estimate D2E/DX2                !
 ! D23   D(10,3,5,4)           170.8008         estimate D2E/DX2                !
 ! D24   D(10,3,5,9)             8.9621         estimate D2E/DX2                !
 ! D25   D(2,3,10,11)          166.0768         estimate D2E/DX2                !
 ! D26   D(2,3,10,18)           -9.793          estimate D2E/DX2                !
 ! D27   D(5,3,10,11)            0.6058         estimate D2E/DX2                !
 ! D28   D(5,3,10,18)         -175.264          estimate D2E/DX2                !
 ! D29   D(1,4,5,3)             -0.2701         estimate D2E/DX2                !
 ! D30   D(1,4,5,9)            161.3591         estimate D2E/DX2                !
 ! D31   D(6,4,5,3)           -154.7207         estimate D2E/DX2                !
 ! D32   D(6,4,5,9)              6.9084         estimate D2E/DX2                !
 ! D33   D(1,4,6,7)           -159.4138         estimate D2E/DX2                !
 ! D34   D(1,4,6,15)            10.0214         estimate D2E/DX2                !
 ! D35   D(5,4,6,7)             -9.3189         estimate D2E/DX2                !
 ! D36   D(5,4,6,15)           160.1164         estimate D2E/DX2                !
 ! D37   D(3,5,9,8)            160.0048         estimate D2E/DX2                !
 ! D38   D(3,5,9,12)           -12.1175         estimate D2E/DX2                !
 ! D39   D(4,5,9,8)              1.1285         estimate D2E/DX2                !
 ! D40   D(4,5,9,12)          -170.9938         estimate D2E/DX2                !
 ! D41   D(4,6,7,8)              4.452          estimate D2E/DX2                !
 ! D42   D(4,6,7,33)          -178.6383         estimate D2E/DX2                !
 ! D43   D(15,6,7,8)          -162.402          estimate D2E/DX2                !
 ! D44   D(15,6,7,33)           14.5076         estimate D2E/DX2                !
 ! D45   D(4,6,15,14)           32.4749         estimate D2E/DX2                !
 ! D46   D(4,6,15,32)          162.1549         estimate D2E/DX2                !
 ! D47   D(4,6,15,46)          -74.0575         estimate D2E/DX2                !
 ! D48   D(7,6,15,14)         -160.3063         estimate D2E/DX2                !
 ! D49   D(7,6,15,32)          -30.6263         estimate D2E/DX2                !
 ! D50   D(7,6,15,46)           93.1612         estimate D2E/DX2                !
 ! D51   D(6,7,8,9)              3.359          estimate D2E/DX2                !
 ! D52   D(6,7,8,34)           178.2635         estimate D2E/DX2                !
 ! D53   D(33,7,8,9)          -173.5979         estimate D2E/DX2                !
 ! D54   D(33,7,8,34)            1.3066         estimate D2E/DX2                !
 ! D55   D(7,8,9,5)             -6.0031         estimate D2E/DX2                !
 ! D56   D(7,8,9,12)           164.2934         estimate D2E/DX2                !
 ! D57   D(34,8,9,5)           179.1829         estimate D2E/DX2                !
 ! D58   D(34,8,9,12)          -10.5206         estimate D2E/DX2                !
 ! D59   D(5,9,12,11)            6.6292         estimate D2E/DX2                !
 ! D60   D(5,9,12,35)         -175.7042         estimate D2E/DX2                !
 ! D61   D(8,9,12,11)         -163.6914         estimate D2E/DX2                !
 ! D62   D(8,9,12,35)           13.9753         estimate D2E/DX2                !
 ! D63   D(3,10,11,12)          -5.8249         estimate D2E/DX2                !
 ! D64   D(3,10,11,36)         177.9334         estimate D2E/DX2                !
 ! D65   D(18,10,11,12)        169.0885         estimate D2E/DX2                !
 ! D66   D(18,10,11,36)         -7.1532         estimate D2E/DX2                !
 ! D67   D(3,10,18,17)           5.3432         estimate D2E/DX2                !
 ! D68   D(3,10,18,37)        -176.313          estimate D2E/DX2                !
 ! D69   D(11,10,18,17)       -169.5991         estimate D2E/DX2                !
 ! D70   D(11,10,18,37)          8.7447         estimate D2E/DX2                !
 ! D71   D(10,11,12,9)           2.1507         estimate D2E/DX2                !
 ! D72   D(10,11,12,35)       -175.5333         estimate D2E/DX2                !
 ! D73   D(36,11,12,9)         178.4016         estimate D2E/DX2                !
 ! D74   D(36,11,12,35)          0.7177         estimate D2E/DX2                !
 ! D75   D(1,13,14,15)          57.6147         estimate D2E/DX2                !
 ! D76   D(1,13,14,31)         179.0784         estimate D2E/DX2                !
 ! D77   D(1,13,14,45)         -62.1357         estimate D2E/DX2                !
 ! D78   D(30,13,14,15)       -112.2385         estimate D2E/DX2                !
 ! D79   D(30,13,14,31)          9.2251         estimate D2E/DX2                !
 ! D80   D(30,13,14,45)        128.0111         estimate D2E/DX2                !
 ! D81   D(1,13,30,23)          26.3073         estimate D2E/DX2                !
 ! D82   D(1,13,30,29)        -156.1398         estimate D2E/DX2                !
 ! D83   D(14,13,30,23)       -165.017          estimate D2E/DX2                !
 ! D84   D(14,13,30,29)         12.5359         estimate D2E/DX2                !
 ! D85   D(13,14,15,6)         -65.4145         estimate D2E/DX2                !
 ! D86   D(13,14,15,32)        164.4487         estimate D2E/DX2                !
 ! D87   D(13,14,15,46)         46.9493         estimate D2E/DX2                !
 ! D88   D(31,14,15,6)         171.5416         estimate D2E/DX2                !
 ! D89   D(31,14,15,32)         41.4049         estimate D2E/DX2                !
 ! D90   D(31,14,15,46)        -76.0945         estimate D2E/DX2                !
 ! D91   D(45,14,15,6)          52.6035         estimate D2E/DX2                !
 ! D92   D(45,14,15,32)        -77.5332         estimate D2E/DX2                !
 ! D93   D(45,14,15,46)        164.9674         estimate D2E/DX2                !
 ! D94   D(2,16,17,18)          -8.0062         estimate D2E/DX2                !
 ! D95   D(2,16,17,22)         172.6778         estimate D2E/DX2                !
 ! D96   D(19,16,17,18)        169.6514         estimate D2E/DX2                !
 ! D97   D(19,16,17,22)         -9.6646         estimate D2E/DX2                !
 ! D98   D(2,16,19,20)        -173.6299         estimate D2E/DX2                !
 ! D99   D(2,16,19,23)          11.3469         estimate D2E/DX2                !
 ! D100  D(17,16,19,20)          8.9451         estimate D2E/DX2                !
 ! D101  D(17,16,19,23)       -166.078          estimate D2E/DX2                !
 ! D102  D(16,17,18,10)          3.2789         estimate D2E/DX2                !
 ! D103  D(16,17,18,37)       -175.1213         estimate D2E/DX2                !
 ! D104  D(22,17,18,10)       -177.4139         estimate D2E/DX2                !
 ! D105  D(22,17,18,37)          4.1859         estimate D2E/DX2                !
 ! D106  D(16,17,22,21)          2.7394         estimate D2E/DX2                !
 ! D107  D(16,17,22,38)       -176.981          estimate D2E/DX2                !
 ! D108  D(18,17,22,21)       -176.6041         estimate D2E/DX2                !
 ! D109  D(18,17,22,38)          3.6756         estimate D2E/DX2                !
 ! D110  D(16,19,20,21)         -1.8056         estimate D2E/DX2                !
 ! D111  D(16,19,20,26)       -178.0291         estimate D2E/DX2                !
 ! D112  D(23,19,20,21)        173.6359         estimate D2E/DX2                !
 ! D113  D(23,19,20,26)         -2.5876         estimate D2E/DX2                !
 ! D114  D(16,19,23,24)        169.9263         estimate D2E/DX2                !
 ! D115  D(16,19,23,30)         -8.7156         estimate D2E/DX2                !
 ! D116  D(20,19,23,24)         -4.9011         estimate D2E/DX2                !
 ! D117  D(20,19,23,30)        176.457          estimate D2E/DX2                !
 ! D118  D(19,20,21,22)         -4.8515         estimate D2E/DX2                !
 ! D119  D(19,20,21,39)        178.6551         estimate D2E/DX2                !
 ! D120  D(26,20,21,22)        171.5721         estimate D2E/DX2                !
 ! D121  D(26,20,21,39)         -4.9213         estimate D2E/DX2                !
 ! D122  D(19,20,26,25)          6.6398         estimate D2E/DX2                !
 ! D123  D(19,20,26,40)       -176.9078         estimate D2E/DX2                !
 ! D124  D(21,20,26,25)       -169.7884         estimate D2E/DX2                !
 ! D125  D(21,20,26,40)          6.6639         estimate D2E/DX2                !
 ! D126  D(20,21,22,17)          4.3115         estimate D2E/DX2                !
 ! D127  D(20,21,22,38)       -175.9729         estimate D2E/DX2                !
 ! D128  D(39,21,22,17)       -179.2921         estimate D2E/DX2                !
 ! D129  D(39,21,22,38)          0.4235         estimate D2E/DX2                !
 ! D130  D(19,23,24,25)          8.9055         estimate D2E/DX2                !
 ! D131  D(19,23,24,27)       -170.2522         estimate D2E/DX2                !
 ! D132  D(30,23,24,25)       -172.2352         estimate D2E/DX2                !
 ! D133  D(30,23,24,27)          8.6071         estimate D2E/DX2                !
 ! D134  D(19,23,30,13)        -13.8277         estimate D2E/DX2                !
 ! D135  D(19,23,30,29)        168.6938         estimate D2E/DX2                !
 ! D136  D(24,23,30,13)        167.5159         estimate D2E/DX2                !
 ! D137  D(24,23,30,29)         -9.9626         estimate D2E/DX2                !
 ! D138  D(23,24,25,26)         -5.3526         estimate D2E/DX2                !
 ! D139  D(23,24,25,41)        176.0213         estimate D2E/DX2                !
 ! D140  D(27,24,25,26)        173.862          estimate D2E/DX2                !
 ! D141  D(27,24,25,41)         -4.7641         estimate D2E/DX2                !
 ! D142  D(23,24,27,28)         -1.0479         estimate D2E/DX2                !
 ! D143  D(23,24,27,42)        177.9664         estimate D2E/DX2                !
 ! D144  D(25,24,27,28)        179.7438         estimate D2E/DX2                !
 ! D145  D(25,24,27,42)         -1.2419         estimate D2E/DX2                !
 ! D146  D(24,25,26,20)         -2.671          estimate D2E/DX2                !
 ! D147  D(24,25,26,40)       -179.0404         estimate D2E/DX2                !
 ! D148  D(41,25,26,20)        175.915          estimate D2E/DX2                !
 ! D149  D(41,25,26,40)         -0.4545         estimate D2E/DX2                !
 ! D150  D(24,27,28,29)         -5.37           estimate D2E/DX2                !
 ! D151  D(24,27,28,43)        177.4002         estimate D2E/DX2                !
 ! D152  D(42,27,28,29)        175.6445         estimate D2E/DX2                !
 ! D153  D(42,27,28,43)         -1.5854         estimate D2E/DX2                !
 ! D154  D(27,28,29,30)          3.6768         estimate D2E/DX2                !
 ! D155  D(27,28,29,44)       -175.929          estimate D2E/DX2                !
 ! D156  D(43,28,29,30)       -179.0582         estimate D2E/DX2                !
 ! D157  D(43,28,29,44)          1.3361         estimate D2E/DX2                !
 ! D158  D(28,29,30,13)       -173.3826         estimate D2E/DX2                !
 ! D159  D(28,29,30,23)          4.3538         estimate D2E/DX2                !
 ! D160  D(44,29,30,13)          6.2175         estimate D2E/DX2                !
 ! D161  D(44,29,30,23)       -176.0461         estimate D2E/DX2                !
 --------------------------------------------------------------------------------
 Trust Radius=3.00D-01 FncErr=1.00D-07 GrdErr=1.00D-06 EigMax=2.50D+02 EigMin=1.00D-04
 Number of steps in this run=    276 maximum allowed number of steps=    276.
 GradGradGradGradGradGradGradGradGradGradGradGradGradGradGradGradGradGrad

                          Input orientation:                          
 ---------------------------------------------------------------------
 Center     Atomic      Atomic             Coordinates (Angstroms)
 Number     Number       Type             X           Y           Z
 ---------------------------------------------------------------------
      1          6           0        0.685027   -0.823132   -0.580173
      2          6           0        0.541803    0.607238   -0.385869
      3          6           0        1.838619    1.136298   -0.298192
      4          6           0        2.110026   -1.110887   -0.493263
      5          6           0        2.785760    0.092279   -0.318857
      6          6           0        2.644711   -2.303346   -0.056917
      7          6           0        3.992054   -2.243409    0.382106
      8          6           0        4.705080   -1.032709    0.459718
      9          6           0        4.081905    0.211764    0.165335
     10          6           0        2.178066    2.444042    0.047715
     11          6           0        3.585254    2.633730    0.368072
     12          6           0        4.475584    1.584393    0.444711
     13          6           0       -0.195987   -1.844044   -0.596163
     14          6           0        0.472657   -3.176482   -0.955576
     15          6           0        1.579531   -3.379624    0.096560
     16          6           0       -0.570583    1.420472   -0.220919
     17          6           0       -0.248515    2.833800   -0.051419
     18          6           0        1.078823    3.311412    0.109986
     19          6           0       -1.944134    0.916487   -0.164942
     20          6           0       -2.942252    1.931132   -0.133973
     21          6           0       -2.606538    3.323323   -0.118245
     22          6           0       -1.327594    3.763854   -0.035025
     23          6           0       -2.362005   -0.502304   -0.035541
     24          6           0       -3.766998   -0.718983    0.223981
     25          6           0       -4.717107    0.341619    0.162572
     26          6           0       -4.323787    1.618753   -0.037509
     27          6           0       -4.292437   -1.986173    0.571887
     28          6           0       -3.482758   -3.084246    0.658811
     29          6           0       -2.146225   -2.949420    0.285658
     30          6           0       -1.557064   -1.741989   -0.104354
     31          1           0       -0.216496   -4.016091   -0.958752
     32          1           0        1.965692   -4.399438    0.138187
     33          1           0        4.487030   -3.148845    0.719128
     34          1           0        5.724428   -1.057583    0.831810
     35          1           0        5.493547    1.790817    0.760308
     36          1           0        3.935943    3.630863    0.614382
     37          1           0        1.210768    4.370097    0.310164
     38          1           0       -1.109382    4.823635    0.040044
     39          1           0       -3.427401    4.032288   -0.117304
     40          1           0       -5.045045    2.427827   -0.068902
     41          1           0       -5.763719    0.096482    0.303874
     42          1           0       -5.353385   -2.057425    0.783413
     43          1           0       -3.869300   -4.049314    0.964840
     44          1           0       -1.539888   -3.841627    0.296713
     45          1           0        0.888719   -3.102553   -1.965542
     46          1           0        0.993001   -3.142211    1.006608
 ---------------------------------------------------------------------
                    Distance matrix (angstroms):
                    1          2          3          4          5
     1  C    0.000000
     2  C    1.450595   0.000000
     3  C    2.291212   1.403326   0.000000
     4  C    1.456358   2.328693   2.271906   0.000000
     5  C    2.306370   2.303262   1.409780   1.390914   0.000000
     6  C    2.511014   3.605819   3.541066   1.377768   2.414027
     7  C    3.725533   4.540948   4.064789   2.364510   2.720649
     8  C    4.157658   4.553825   3.673638   2.765608   2.357025
     9  C    3.628439   3.604518   2.470213   2.464034   1.388780
    10  C    3.646620   2.497839   1.394658   3.596499   2.456513
    11  C    4.610898   3.733322   2.395192   4.115866   2.751370
    12  C    4.605962   4.137551   2.776018   3.706777   2.380115
    13  C    1.348593   2.568529   3.620890   2.421942   3.566099
    14  C    2.392548   3.826994   4.571441   2.676078   4.054708
    15  C    2.791730   4.147853   4.540540   2.403432   3.698874
    16  C    2.596031   1.387790   2.427134   3.696974   3.610918
    17  C    3.811067   2.386218   2.701581   4.617196   4.098083
    18  C    4.210208   2.801218   2.339876   4.580832   3.668836
    19  C    3.179808   2.514821   3.791476   4.544695   4.803635
    20  C    4.576267   3.735611   4.849274   5.908340   6.018778
    21  C    5.314214   4.166628   4.957306   6.484507   6.289417
    22  C    5.038677   3.685371   4.122889   5.982501   5.520933
    23  C    3.111906   3.128245   4.516552   4.536402   5.189728
    24  C    4.525267   4.549346   5.927704   5.933586   6.625063
    25  C    5.575963   5.294098   6.619771   7.010680   7.522430
    26  C    5.598706   4.981815   6.186757   7.003756   7.277014
    27  C    5.239757   5.568928   6.935179   6.549214   7.430630
    28  C    4.900832   5.560171   6.859001   6.041577   7.095101
    29  C    3.645100   4.508465   5.736981   4.701340   5.825963
    30  C    2.469347   3.162809   4.455645   3.741268   4.719181
    31  H    3.339319   4.719998   5.586318   3.750946   5.128519
    32  H    3.866020   5.231529   5.554363   3.351735   4.588782
    33  H    4.642451   5.558237   5.139209   3.357575   3.804815
    34  H    5.238724   5.577990   4.603209   3.850008   3.358867
    35  H    5.634845   5.218654   3.860999   4.630285   3.373683
    36  H    5.642117   4.654352   3.384437   5.200485   3.836070
    37  H    5.295161   3.884724   3.349888   5.612071   4.601738
    38  H    5.957395   4.548166   4.733029   6.772559   6.138947
    39  H    6.379766   5.249540   6.012524   7.566815   7.359868
    40  H    6.607863   5.884546   7.007528   7.993599   8.175498
    41  H    6.573702   6.363664   7.696703   8.005562   8.572129
    42  H    6.312311   6.574260   7.943215   7.630750   8.490106
    43  H    5.791132   6.554824   7.814484   6.820026   7.942952
    44  H    3.851037   4.959008   6.045491   4.626324   5.879266
    45  H    2.675163   4.047007   4.652980   2.761509   4.064147
    46  H    2.826809   4.025039   4.552275   2.761093   3.928456
                    6          7          8          9         10
     6  C    0.000000
     7  C    1.418332   0.000000
     8  C    2.475187   1.407204   0.000000
     9  C    2.905288   2.466361   1.422576   0.000000
    10  C    4.771415   5.037317   4.317794   2.936240   0.000000
    11  C    5.043804   4.894095   3.834734   2.480662   1.455606
    12  C    4.326458   3.858729   2.627188   1.455041   2.484993
    13  C    2.927680   4.319281   5.078741   4.806931   4.943520
    14  C    2.507543   3.878940   4.950982   5.075758   5.958633
    15  C    1.522018   2.681937   3.925424   4.377748   5.854547
    16  C    4.922584   5.882629   5.857814   4.822428   2.945324
    17  C    5.895851   6.629360   6.304701   5.067010   2.459682
    18  C    5.831412   6.278296   5.669518   4.316177   1.401622
    19  C    5.606826   6.747039   6.957127   6.076089   4.401270
    20  C    7.010770   8.110347   8.223047   7.237720   5.149150
    21  C    7.696673   8.647559   8.530464   7.382241   4.867557
    22  C    7.251938   8.034915   7.723014   6.474579   3.746786
    23  C    5.320847   6.601511   7.104245   6.486464   5.412960
    24  C    6.610531   7.908967   8.481162   7.904113   6.736437
    25  C    7.825623   9.087357   9.526525   8.799971   7.209493
    26  C    7.996449   9.178539   9.423265   8.525047   6.554575
    27  C    6.972805   8.290656   9.048590   8.667515   7.859324
    28  C    6.218356   7.527044   8.443289   8.266276   7.936015
    29  C    4.846425   6.179500   7.116492   6.985497   6.917047
    30  C    4.239373   5.592922   6.327377   5.973931   5.612235
    31  H    3.454462   4.759432   5.927439   6.133073   6.962774
    32  H    2.211953   2.968855   4.352297   5.073685   6.847372
    33  H    2.170542   1.085541   2.143098   3.429943   6.087897
    34  H    3.438956   2.146983   1.085422   2.180209   5.045083
    35  H    5.054295   4.321169   2.946919   2.200031   3.453535
    36  H    6.110054   5.879130   4.729101   3.451548   2.195401
    37  H    6.835626   7.174900   6.436062   5.055308   2.171228
    38  H    8.055835   8.722658   8.263223   6.945107   4.058305
    39  H    8.775788   9.730473   9.598145   8.430063   5.828466
    40  H    9.028648  10.182977  10.359522   9.395053   7.224071
    41  H    8.751631  10.032762  10.530675   9.847273   8.285445
    42  H    8.045879   9.355900  10.115708   9.723988   8.804954
    43  H    6.820904   8.087135   9.103573   9.056360   8.920506
    44  H    4.472385   5.758817   6.849541   6.931940   7.307176
    45  H    2.713870   3.985005   4.973002   5.071664   6.039895
    46  H    2.136101   3.192517   4.304488   4.636617   5.790516
                   11         12         13         14         15
    11  C    0.000000
    12  C    1.378285   0.000000
    13  C    5.939528   5.887374   0.000000
    14  C    6.723010   6.375748   1.533510   0.000000
    15  C    6.344846   5.757586   2.447516   1.540593   0.000000
    16  C    4.369197   5.092518   3.307294   4.770750   5.269222
    17  C    3.861837   4.911647   4.709748   6.120546   6.478448
    18  C    2.609225   3.825261   5.357473   6.602699   6.709758
    19  C    5.814392   6.483098   3.295831   4.818545   5.562479
    20  C    6.584378   7.448449   4.691220   6.198738   6.978811
    21  C    6.249026   7.314181   5.721962   7.240858   7.905619
    22  C    5.057247   6.217481   5.748385   7.228871   7.713493
    23  C    6.735540   7.165024   2.608869   4.004123   4.881816
    24  C    8.081897   8.561216   3.832821   5.040370   5.973326
    25  C    8.615405   9.280607   5.078713   6.368747   7.314346
    26  C    7.984210   8.812641   5.416806   6.844195   7.736337
    27  C    9.134717   9.468015   4.262094   5.143549   6.053730
    28  C    9.095965   9.229151   3.730405   4.273179   5.101975
    29  C    8.001763   8.026775   2.408919   2.907019   3.755275
    30  C    6.768570   6.910798   1.450800   2.627188   3.544072
    31  H    7.773923   7.439808   2.202199   1.086225   2.178184
    32  H    7.220892   6.496133   3.426684   2.218354   1.091272
    33  H    5.862987   4.741200   5.036184   4.349780   2.982348
    34  H    4.291493   2.947795   6.140761   5.938483   4.807561
    35  H    2.122718   1.085569   6.886438   7.268263   6.518707
    36  H    1.085323   2.123215   6.965118   7.797375   7.414024
    37  H    2.942194   4.293865   6.435521   7.687507   7.761430
    38  H    5.190654   6.469025   6.759955   8.215594   8.632897
    39  H    7.167209   8.292480   6.723289   8.238903   8.947153
    40  H    8.643807   9.571706   6.483845   7.914512   8.811292
    41  H    9.687365  10.347804   5.964507   7.154781   8.127091
    42  H   10.103401  10.487430   5.342988   6.182163   7.091213
    43  H   10.029436  10.081978   4.559953   4.827258   5.558071
    44  H    8.258476   8.102438   2.567807   2.461906   3.159792
    45  H    6.754406   6.375138   2.153052   1.094808   2.192317
    46  H    6.363097   5.897872   2.380715   2.030295   1.108409
                   16         17         18         19         20
    16  C    0.000000
    17  C    1.459436   0.000000
    18  C    2.530947   1.419856   0.000000
    19  C    1.464164   2.562050   3.866461   0.000000
    20  C    2.427581   2.842155   4.258372   1.423623   0.000000
    21  C    2.788637   2.409226   3.692441   2.496762   1.432183
    22  C    2.469628   1.424669   2.452871   2.916247   2.444541
    23  C    2.634507   3.949263   5.138570   1.484698   2.503595
    24  C    3.871986   5.007777   6.303892   2.479689   2.798472
    25  C    4.301703   5.121042   6.512698   2.850810   2.400958
    26  C    3.762910   4.252573   5.663483   2.484384   1.419692
    27  C    5.107442   6.322496   7.558319   3.805638   4.203156
    28  C    5.435731   6.781447   7.874876   4.364836   5.106336
    29  C    4.672818   6.095946   7.044843   3.897322   4.962815
    30  C    3.314799   4.759511   5.703569   2.687190   3.925741
    31  H    5.497817   6.909796   7.517470   5.286321   6.593896
    32  H    6.358695   7.566928   7.761736   6.605883   8.014868
    33  H    6.880537   7.668844   7.329519   7.659528   9.040364
    34  H    6.846617   7.183245   6.418005   7.981059   9.218270
    35  H    6.154156   5.892197   4.714331   7.545836   8.484228
    36  H    5.088451   4.311414   2.918835   6.523074   7.124513
    37  H    3.486481   2.149525   1.085493   4.701761   4.836671
    38  H    3.455420   2.170000   2.660818   4.000579   3.428741
    39  H    3.872174   3.397945   4.569177   3.451169   2.156503
    40  H    4.588974   4.813712   6.189869   3.450945   2.161638
    41  H    5.384888   6.167383   7.562655   3.934644   3.393866
    42  H    5.998304   7.119040   8.405428   4.622394   4.750131
    43  H    6.496624   7.843477   8.910386   5.444433   6.150816
    44  H    5.375610   6.808096   7.619612   4.797519   5.956246
    45  H    5.062709   6.340146   6.744101   5.236401   6.585512
    46  H    4.976916   6.194634   6.516176   5.145126   6.521192
                   21         22         23         24         25
    21  C    0.000000
    22  C    1.355246   0.000000
    23  C    3.834326   4.389773   0.000000
    24  C    4.219481   5.110147   1.445098   0.000000
    25  C    3.663867   4.820740   2.509574   1.425256   0.000000
    26  C    2.420955   3.684920   2.889200   2.417313   1.351223
    27  C    5.613313   6.497803   2.509463   1.415237   2.401354
    28  C    6.513718   7.212670   2.899075   2.421640   3.675108
    29  C    6.302565   6.770601   2.477520   2.757818   4.177981
    30  C    5.172908   5.511059   1.479691   2.457265   3.794541
    31  H    7.764390   7.912986   4.219268   4.987569   6.364158
    32  H    8.978423   8.804264   5.826388   6.812991   8.193779
    33  H    9.638924   9.064436   7.381259   8.618490   9.859474
    34  H    9.460441   8.586540   8.151750   9.516894  10.556102
    35  H    8.290465   7.145166   8.222012   9.609601  10.330291
    36  H    6.590552   5.305114   7.561059   8.854878   9.268146
    37  H    3.981343   2.632483   6.051819   7.119292   7.168690
    38  H    2.125434   1.084614   5.471782   6.149583   5.754925
    39  H    1.084642   2.118494   4.658785   4.775602   3.919529
    40  H    2.598204   3.950387   3.973095   3.409046   2.124473
    41  H    4.534146   5.765733   3.470649   2.158300   1.084184
    42  H    6.108241   7.124895   3.469502   2.149655   2.558458
    43  H    7.558004   8.276811   3.981706   3.413274   4.543424
    44  H    7.255787   7.615672   3.455047   3.836172   5.254737
    45  H    7.544615   7.469035   4.588399   5.670196   6.914946
    46  H    7.484992   7.359612   4.394457   5.398345   6.742018
                   26         27         28         29         30
    26  C    0.000000
    27  C    3.656205   0.000000
    28  C    4.828084   1.367077   0.000000
    29  C    5.070939   2.369810   1.394181   0.000000
    30  C    4.353598   2.828284   2.468273   1.398967   0.000000
    31  H    7.033491   4.803823   3.762089   2.531837   2.774646
    32  H    8.706724   6.721318   5.629066   4.362587   4.419352
    33  H   10.046541   8.857343   7.970278   6.650394   6.260067
    34  H   10.434803  10.063172   9.429187   8.113230   7.373258
    35  H    9.851201  10.491265  10.215214   9.003402   7.933440
    36  H    8.526235   9.962888  10.006587   8.966658   7.717334
    37  H    6.190482   8.411655   8.815780   8.052660   6.722374
    38  H    4.539789   7.535793   8.279515   7.845747   6.582453
    39  H    2.575854   6.119244   7.158944   7.109714   6.069646
    40  H    1.084343   4.523320   5.775228   6.119122   5.436417
    41  H    2.123030   2.563972   3.930114   4.729071   4.608966
    42  H    3.904903   1.084173   2.137553   3.365901   3.911481
    43  H    5.773928   2.142430   1.083709   2.154076   3.437057
    44  H    6.138204   3.330909   2.116479   1.078796   2.137669
    45  H    7.292343   5.876158   5.098762   3.781830   3.361102
    46  H    7.212849   5.427823   4.489626   3.226713   3.114111
                   31         32         33         34         35
    31  H    0.000000
    32  H    2.472281   0.000000
    33  H    5.068585   2.873782   0.000000
    34  H    6.874115   5.077126   2.432535   0.000000
    35  H    8.323457   7.152066   5.041332   2.858636   0.000000
    36  H    8.842704   8.282173   6.802875   5.022696   2.415201
    37  H    8.600894   8.803649   8.211920   7.078485   5.019712
    38  H    8.940671   9.722694   9.764293   9.050778   7.301742
    39  H    8.705995  10.012229  10.719445  10.514922   9.240006
    40  H    8.101284   9.787996  11.071618  11.355215  10.590340
    41  H    7.019912   8.943408  10.760225  11.558032  11.393206
    42  H    5.767074   7.711694   9.900964  11.122948  11.509363
    43  H    4.128473   5.903649   8.408298  10.050262  11.036841
    44  H    1.832484   3.553220   6.081293   7.797917   9.022669
    45  H    1.752050   2.695822   4.489704   5.949047   7.251191
    46  H    2.467628   1.811326   3.505842   5.173261   6.682091
                   36         37         38         39         40
    36  H    0.000000
    37  H    2.839999   0.000000
    38  H    5.216117   2.379445   0.000000
    39  H    7.410489   4.670059   2.454425   0.000000
    40  H    9.086931   6.561349   4.608819   2.278905   0.000000
    41  H   10.328200   8.179688   6.639159   4.596340   2.467919
    42  H   10.893888   9.199191   8.118691   6.450218   4.575915
    43  H   10.955809   9.855058   9.338181   8.165697   6.663659
    44  H    9.269506   8.660179   8.679745   8.107568   7.192069
    45  H    7.828185   7.818123   8.416605   8.541126   8.330180
    46  H    7.395220   7.547664   8.295117   8.501563   8.284929
                   41         42         43         44         45
    41  H    0.000000
    42  H    2.244470   0.000000
    43  H    4.605792   2.490591   0.000000
    44  H    5.774903   4.238279   2.432219   0.000000
    45  H    7.722629   6.900211   5.667649   3.400318   0.000000
    46  H    7.525705   6.442297   4.946367   2.721885   2.974243
                   46
    46  H    0.000000
 Stoichiometry    C30H16
 Framework group  C1[X(C30H16)]
 Deg. of freedom   132
 Full point group                 C1      NOp   1
 Largest Abelian subgroup         C1      NOp   1
 Largest concise Abelian subgroup C1      NOp   1
                         Standard orientation:                         
 ---------------------------------------------------------------------
 Center     Atomic      Atomic             Coordinates (Angstroms)
 Number     Number       Type             X           Y           Z
 ---------------------------------------------------------------------
      1          6           0       -0.685027   -0.823132    0.580173
      2          6           0       -0.541803    0.607238    0.385869
      3          6           0       -1.838619    1.136298    0.298192
      4          6           0       -2.110026   -1.110887    0.493263
      5          6           0       -2.785760    0.092279    0.318857
      6          6           0       -2.644711   -2.303346    0.056917
      7          6           0       -3.992054   -2.243409   -0.382106
      8          6           0       -4.705080   -1.032709   -0.459718
      9          6           0       -4.081905    0.211764   -0.165335
     10          6           0       -2.178066    2.444042   -0.047715
     11          6           0       -3.585254    2.633730   -0.368072
     12          6           0       -4.475584    1.584393   -0.444711
     13          6           0        0.195987   -1.844044    0.596163
     14          6           0       -0.472657   -3.176482    0.955576
     15          6           0       -1.579531   -3.379624   -0.096560
     16          6           0        0.570583    1.420472    0.220919
     17          6           0        0.248515    2.833800    0.051419
     18          6           0       -1.078823    3.311412   -0.109986
     19          6           0        1.944134    0.916487    0.164942
     20          6           0        2.942252    1.931132    0.133973
     21          6           0        2.606538    3.323323    0.118245
     22          6           0        1.327594    3.763854    0.035025
     23          6           0        2.362005   -0.502304    0.035541
     24          6           0        3.766998   -0.718983   -0.223981
     25          6           0        4.717107    0.341619   -0.162572
     26          6           0        4.323787    1.618753    0.037509
     27          6           0        4.292437   -1.986173   -0.571887
     28          6           0        3.482758   -3.084246   -0.658811
     29          6           0        2.146225   -2.949420   -0.285658
     30          6           0        1.557064   -1.741989    0.104354
     31          1           0        0.216496   -4.016091    0.958752
     32          1           0       -1.965692   -4.399438   -0.138187
     33          1           0       -4.487030   -3.148845   -0.719128
     34          1           0       -5.724428   -1.057583   -0.831810
     35          1           0       -5.493547    1.790817   -0.760308
     36          1           0       -3.935943    3.630863   -0.614382
     37          1           0       -1.210768    4.370097   -0.310164
     38          1           0        1.109382    4.823635   -0.040044
     39          1           0        3.427401    4.032288    0.117304
     40          1           0        5.045045    2.427827    0.068902
     41          1           0        5.763719    0.096482   -0.303874
     42          1           0        5.353385   -2.057425   -0.783413
     43          1           0        3.869300   -4.049314   -0.964840
     44          1           0        1.539888   -3.841627   -0.296713
     45          1           0       -0.888719   -3.102553    1.965542
     46          1           0       -0.993001   -3.142211   -1.006608
 ---------------------------------------------------------------------
 Rotational constants (GHZ):           0.2717951           0.1602073           0.1031643
 Standard basis: 6-311+G(d,p) (5D, 7F)
 There are   786 symmetry adapted cartesian basis functions of A   symmetry.
 There are   756 symmetry adapted basis functions of A   symmetry.
   756 basis functions,  1208 primitive gaussians,   786 cartesian basis functions
    98 alpha electrons       98 beta electrons
       nuclear repulsion energy      2633.1259387778 Hartrees.
 NAtoms=   46 NActive=   46 NUniq=   46 SFac= 1.00D+00 NAtFMM=   60 NAOKFM=F Big=F
 Integral buffers will be    131072 words long.
 Raffenetti 2 integral format.
 Two-electron integral symmetry is turned on.
 One-electron integrals computed using PRISM.
 NBasis=   756 RedAO= T EigKep=  1.07D-06  NBF=   756
 NBsUse=   735 1.00D-06 EigRej=  8.90D-07 NBFU=   735
 ExpMin= 4.38D-02 ExpMax= 4.56D+03 ExpMxC= 6.82D+02 IAcc=2 IRadAn=         4 AccDes= 0.00D+00
 Harris functional with IExCor=  402 and IRadAn=       4 diagonalized for initial guess.
 HarFok:  IExCor=  402 AccDes= 0.00D+00 IRadAn=         4 IDoV= 1 UseB2=F ITyADJ=14
 ICtDFT=  3500011 ScaDFX=  1.000000  1.000000  1.000000  1.000000
 FoFCou: FMM=F IPFlag=           0 FMFlag=      100000 FMFlg1=           0
         NFxFlg=           0 DoJE=T BraDBF=F KetDBF=T FulRan=T
         wScrn=  0.000000 ICntrl=       500 IOpCl=  0 I1Cent=   200000004 NGrid=           0
         NMat0=    1 NMatS0=      1 NMatT0=    0 NMatD0=    1 NMtDS0=    0 NMtDT0=    0
 Petite list used in FoFCou.
 Requested convergence on RMS density matrix=1.00D-08 within 128 cycles.
 Requested convergence on MAX density matrix=1.00D-06.
 Requested convergence on             energy=1.00D-06.
 No special actions if energy rises.
 SCF Done:  E(RB3LYP) =  -1153.10415541     A.U. after   16 cycles
            NFock= 16  Conv=0.88D-08     -V/T= 2.0044

 **********************************************************************

            Population analysis using the SCF density.

 **********************************************************************

 Orbital symmetries:
       Occupied  (A) (A) (A) (A) (A) (A) (A) (A) (A) (A) (A) (A)
                 (A) (A) (A) (A) (A) (A) (A) (A) (A) (A) (A) (A)
                 (A) (A) (A) (A) (A) (A) (A) (A) (A) (A) (A) (A)
                 (A) (A) (A) (A) (A) (A) (A) (A) (A) (A) (A) (A)
                 (A) (A) (A) (A) (A) (A) (A) (A) (A) (A) (A) (A)
                 (A) (A) (A) (A) (A) (A) (A) (A) (A) (A) (A) (A)
                 (A) (A) (A) (A) (A) (A) (A) (A) (A) (A) (A) (A)
                 (A) (A) (A) (A) (A) (A) (A) (A) (A) (A) (A) (A)
                 (A) (A)
       Virtual   (A) (A) (A) (A) (A) (A) (A) (A) (A) (A) (A) (A)
                 (A) (A) (A) (A) (A) (A) (A) (A) (A) (A) (A) (A)
                 (A) (A) (A) (A) (A) (A) (A) (A) (A) (A) (A) (A)
                 (A) (A) (A) (A) (A) (A) (A) (A) (A) (A) (A) (A)
                 (A) (A) (A) (A) (A) (A) (A) (A) (A) (A) (A) (A)
                 (A) (A) (A) (A) (A) (A) (A) (A) (A) (A) (A) (A)
                 (A) (A) (A) (A) (A) (A) (A) (A) (A) (A) (A) (A)
                 (A) (A) (A) (A) (A) (A) (A) (A) (A) (A) (A) (A)
                 (A) (A) (A) (A) (A) (A) (A) (A) (A) (A) (A) (A)
                 (A) (A) (A) (A) (A) (A) (A) (A) (A) (A) (A) (A)
                 (A) (A) (A) (A) (A) (A) (A) (A) (A) (A) (A) (A)
                 (A) (A) (A) (A) (A) (A) (A) (A) (A) (A) (A) (A)
                 (A) (A) (A) (A) (A) (A) (A) (A) (A) (A) (A) (A)
                 (A) (A) (A) (A) (A) (A) (A) (A) (A) (A) (A) (A)
                 (A) (A) (A) (A) (A) (A) (A) (A) (A) (A) (A) (A)
                 (A) (A) (A) (A) (A) (A) (A) (A) (A) (A) (A) (A)
                 (A) (A) (A) (A) (A) (A) (A) (A) (A) (A) (A) (A)
                 (A) (A) (A) (A) (A) (A) (A) (A) (A) (A) (A) (A)
                 (A) (A) (A) (A) (A) (A) (A) (A) (A) (A) (A) (A)
                 (A) (A) (A) (A) (A) (A) (A) (A) (A) (A) (A) (A)
                 (A) (A) (A) (A) (A) (A) (A) (A) (A) (A) (A) (A)
                 (A) (A) (A) (A) (A) (A) (A) (A) (A) (A) (A) (A)
                 (A) (A) (A) (A) (A) (A) (A) (A) (A) (A) (A) (A)
                 (A) (A) (A) (A) (A) (A) (A) (A) (A) (A) (A) (A)
                 (A) (A) (A) (A) (A) (A) (A) (A) (A) (A) (A) (A)
                 (A) (A) (A) (A) (A) (A) (A) (A) (A) (A) (A) (A)
                 (A) (A) (A) (A) (A) (A) (A) (A) (A) (A) (A) (A)
                 (A) (A) (A) (A) (A) (A) (A) (A) (A) (A) (A) (A)
                 (A) (A) (A) (A) (A) (A) (A) (A) (A) (A) (A) (A)
                 (A) (A) (A) (A) (A) (A) (A) (A) (A) (A) (A) (A)
                 (A) (A) (A) (A) (A) (A) (A) (A) (A) (A) (A) (A)
                 (A) (A) (A) (A) (A) (A) (A) (A) (A) (A) (A) (A)
                 (A) (A) (A) (A) (A) (A) (A) (A) (A) (A) (A) (A)
                 (A) (A) (A) (A) (A) (A) (A) (A) (A) (A) (A) (A)
                 (A) (A) (A) (A) (A) (A) (A) (A) (A) (A) (A) (A)
                 (A) (A) (A) (A) (A) (A) (A) (A) (A) (A) (A) (A)
                 (A) (A) (A) (A) (A) (A) (A) (A) (A) (A) (A) (A)
                 (A) (A) (A) (A) (A) (A) (A) (A) (A) (A) (A) (A)
                 (A) (A) (A) (A) (A) (A) (A) (A) (A) (A) (A) (A)
                 (A) (A) (A) (A) (A) (A) (A) (A) (A) (A) (A) (A)
                 (A) (A) (A) (A) (A) (A) (A) (A) (A) (A) (A) (A)
                 (A) (A) (A) (A) (A) (A) (A) (A) (A) (A) (A) (A)
                 (A) (A) (A) (A) (A) (A) (A) (A) (A) (A) (A) (A)
                 (A) (A) (A) (A) (A) (A) (A) (A) (A) (A) (A) (A)
                 (A) (A) (A) (A) (A) (A) (A) (A) (A) (A) (A) (A)
                 (A) (A) (A) (A) (A) (A) (A) (A) (A) (A) (A) (A)
                 (A) (A) (A) (A) (A) (A) (A) (A) (A) (A) (A) (A)
                 (A) (A) (A) (A) (A) (A) (A) (A) (A) (A) (A) (A)
                 (A) (A) (A) (A) (A) (A) (A) (A) (A) (A) (A) (A)
                 (A) (A) (A) (A) (A) (A) (A) (A) (A) (A) (A) (A)
                 (A) (A) (A) (A) (A) (A) (A) (A) (A) (A) (A) (A)
                 (A) (A) (A) (A) (A) (A) (A) (A) (A) (A) (A) (A)
                 (A) (A) (A) (A) (A) (A) (A) (A) (A) (A) (A) (A)
                 (A)
 The electronic state is 1-A.
 Alpha  occ. eigenvalues --  -10.21854 -10.20877 -10.20818 -10.20226 -10.20133
 Alpha  occ. eigenvalues --  -10.19606 -10.19409 -10.19130 -10.19073 -10.18936
 Alpha  occ. eigenvalues --  -10.18826 -10.18821 -10.18761 -10.18624 -10.18618
 Alpha  occ. eigenvalues --  -10.18503 -10.18440 -10.18360 -10.18347 -10.18216
 Alpha  occ. eigenvalues --  -10.18166 -10.18145 -10.18125 -10.17977 -10.17898
 Alpha  occ. eigenvalues --  -10.17849 -10.17770 -10.17078 -10.17069 -10.16906
 Alpha  occ. eigenvalues --   -0.92256  -0.89151  -0.87708  -0.85387  -0.84775
 Alpha  occ. eigenvalues --   -0.82357  -0.80929  -0.80064  -0.78627  -0.75885
 Alpha  occ. eigenvalues --   -0.75650  -0.74757  -0.72997  -0.71548  -0.70816
 Alpha  occ. eigenvalues --   -0.66672  -0.65680  -0.63730  -0.63502  -0.61933
 Alpha  occ. eigenvalues --   -0.61261  -0.60067  -0.58492  -0.56532  -0.55580
 Alpha  occ. eigenvalues --   -0.53434  -0.52078  -0.51175  -0.50165  -0.49880
 Alpha  occ. eigenvalues --   -0.49469  -0.48287  -0.47327  -0.46360  -0.45361
 Alpha  occ. eigenvalues --   -0.44725  -0.44510  -0.44069  -0.43411  -0.42701
 Alpha  occ. eigenvalues --   -0.42394  -0.41974  -0.41149  -0.40887  -0.40269
 Alpha  occ. eigenvalues --   -0.40021  -0.39568  -0.38832  -0.38292  -0.37790
 Alpha  occ. eigenvalues --   -0.37005  -0.35964  -0.35631  -0.35091  -0.34865
 Alpha  occ. eigenvalues --   -0.34297  -0.34209  -0.33037  -0.32233  -0.31899
 Alpha  occ. eigenvalues --   -0.30270  -0.29030  -0.27491  -0.25358  -0.24732
 Alpha  occ. eigenvalues --   -0.24064  -0.21351  -0.18800
 Alpha virt. eigenvalues --   -0.08426  -0.06933  -0.05226  -0.03481  -0.02301
 Alpha virt. eigenvalues --   -0.00330   0.00378   0.00556   0.00758   0.01475
 Alpha virt. eigenvalues --    0.01651   0.01871   0.02316   0.02821   0.03042
 Alpha virt. eigenvalues --    0.03111   0.03302   0.04313   0.04695   0.04814
 Alpha virt. eigenvalues --    0.04923   0.05109   0.05504   0.05891   0.06359
 Alpha virt. eigenvalues --    0.06894   0.07053   0.07068   0.07610   0.08150
 Alpha virt. eigenvalues --    0.08505   0.08601   0.08957   0.09349   0.09722
 Alpha virt. eigenvalues --    0.09814   0.10187   0.10746   0.10888   0.11581
 Alpha virt. eigenvalues --    0.11626   0.11709   0.11977   0.12502   0.12670
 Alpha virt. eigenvalues --    0.12866   0.13315   0.13803   0.14239   0.14435
 Alpha virt. eigenvalues --    0.14796   0.15098   0.15471   0.15825   0.16010
 Alpha virt. eigenvalues --    0.16249   0.16396   0.16614   0.16777   0.16887
 Alpha virt. eigenvalues --    0.17148   0.17232   0.17423   0.17779   0.18040
 Alpha virt. eigenvalues --    0.18103   0.18458   0.18608   0.18795   0.19186
 Alpha virt. eigenvalues --    0.19315   0.19416   0.19553   0.19794   0.20051
 Alpha virt. eigenvalues --    0.20326   0.20359   0.20698   0.20986   0.21185
 Alpha virt. eigenvalues --    0.21452   0.21702   0.21727   0.22301   0.22404
 Alpha virt. eigenvalues --    0.22598   0.22771   0.23047   0.23335   0.23572
 Alpha virt. eigenvalues --    0.23657   0.23925   0.24097   0.24446   0.24643
 Alpha virt. eigenvalues --    0.24919   0.25106   0.25218   0.25451   0.25547
 Alpha virt. eigenvalues --    0.26010   0.26382   0.26506   0.26759   0.27086
 Alpha virt. eigenvalues --    0.27263   0.28051   0.28081   0.28220   0.28766
 Alpha virt. eigenvalues --    0.28919   0.28989   0.29102   0.29258   0.29876
 Alpha virt. eigenvalues --    0.30095   0.30350   0.30588   0.30653   0.30958
 Alpha virt. eigenvalues --    0.31620   0.31796   0.32136   0.32513   0.33029
 Alpha virt. eigenvalues --    0.33349   0.33591   0.33745   0.34000   0.34336
 Alpha virt. eigenvalues --    0.34920   0.34953   0.35200   0.35547   0.36126
 Alpha virt. eigenvalues --    0.36481   0.36571   0.37023   0.37301   0.37857
 Alpha virt. eigenvalues --    0.38155   0.38635   0.39083   0.39880   0.40354
 Alpha virt. eigenvalues --    0.40693   0.40984   0.41758   0.42169   0.42676
 Alpha virt. eigenvalues --    0.42981   0.43580   0.44225   0.44278   0.46018
 Alpha virt. eigenvalues --    0.46698   0.47332   0.47450   0.48148   0.48781
 Alpha virt. eigenvalues --    0.49759   0.50471   0.50980   0.51628   0.51877
 Alpha virt. eigenvalues --    0.52516   0.52775   0.53095   0.53662   0.54247
 Alpha virt. eigenvalues --    0.54659   0.55127   0.55453   0.55594   0.55810
 Alpha virt. eigenvalues --    0.55922   0.56746   0.57078   0.57254   0.57732
 Alpha virt. eigenvalues --    0.57867   0.58169   0.58807   0.59395   0.59627
 Alpha virt. eigenvalues --    0.59875   0.60402   0.60784   0.60901   0.61153
 Alpha virt. eigenvalues --    0.61497   0.61954   0.62297   0.63108   0.63525
 Alpha virt. eigenvalues --    0.64635   0.65115   0.65309   0.65825   0.65935
 Alpha virt. eigenvalues --    0.66381   0.67105   0.67639   0.68137   0.68287
 Alpha virt. eigenvalues --    0.68705   0.68926   0.69407   0.70002   0.70123
 Alpha virt. eigenvalues --    0.70361   0.70603   0.71213   0.71448   0.71532
 Alpha virt. eigenvalues --    0.71824   0.72447   0.72690   0.72889   0.73285
 Alpha virt. eigenvalues --    0.73363   0.73878   0.74016   0.74526   0.74936
 Alpha virt. eigenvalues --    0.74998   0.75584   0.75914   0.76256   0.76914
 Alpha virt. eigenvalues --    0.77334   0.77633   0.77922   0.78357   0.79345
 Alpha virt. eigenvalues --    0.80188   0.80905   0.81884   0.82944   0.83659
 Alpha virt. eigenvalues --    0.83787   0.84100   0.85233   0.85498   0.86002
 Alpha virt. eigenvalues --    0.86772   0.87117   0.87506   0.88062   0.88917
 Alpha virt. eigenvalues --    0.89123   0.89577   0.90350   0.90602   0.90956
 Alpha virt. eigenvalues --    0.91149   0.91379   0.92093   0.92875   0.93306
 Alpha virt. eigenvalues --    0.93497   0.93772   0.94319   0.94456   0.94840
 Alpha virt. eigenvalues --    0.95193   0.95445   0.95915   0.96543   0.97086
 Alpha virt. eigenvalues --    0.97176   0.97896   0.98080   0.98677   0.98988
 Alpha virt. eigenvalues --    0.99779   1.00622   1.01134   1.01408   1.01893
 Alpha virt. eigenvalues --    1.02259   1.03070   1.03584   1.03836   1.04575
 Alpha virt. eigenvalues --    1.05049   1.05566   1.06570   1.07194   1.08292
 Alpha virt. eigenvalues --    1.08630   1.09418   1.10464   1.10999   1.12038
 Alpha virt. eigenvalues --    1.12294   1.13718   1.14208   1.15058   1.15205
 Alpha virt. eigenvalues --    1.16020   1.17501   1.17689   1.18605   1.20006
 Alpha virt. eigenvalues --    1.21078   1.21430   1.22968   1.24113   1.24700
 Alpha virt. eigenvalues --    1.25662   1.27460   1.28849   1.29403   1.31563
 Alpha virt. eigenvalues --    1.33442   1.33770   1.35666   1.36789   1.37614
 Alpha virt. eigenvalues --    1.38307   1.38925   1.39863   1.41387   1.41595
 Alpha virt. eigenvalues --    1.42808   1.43930   1.44414   1.45968   1.45980
 Alpha virt. eigenvalues --    1.46654   1.47803   1.48123   1.48971   1.49694
 Alpha virt. eigenvalues --    1.49838   1.50184   1.50717   1.51049   1.51619
 Alpha virt. eigenvalues --    1.51851   1.53055   1.53706   1.54732   1.55448
 Alpha virt. eigenvalues --    1.55716   1.56798   1.57349   1.57956   1.58910
 Alpha virt. eigenvalues --    1.59217   1.59656   1.60307   1.60410   1.60764
 Alpha virt. eigenvalues --    1.61765   1.62578   1.62789   1.64043   1.64531
 Alpha virt. eigenvalues --    1.65573   1.66582   1.67145   1.67538   1.68948
 Alpha virt. eigenvalues --    1.69705   1.70601   1.70802   1.71587   1.72165
 Alpha virt. eigenvalues --    1.72857   1.73543   1.73870   1.74159   1.74964
 Alpha virt. eigenvalues --    1.75483   1.75712   1.76362   1.77020   1.77765
 Alpha virt. eigenvalues --    1.78562   1.79600   1.79954   1.81803   1.81947
 Alpha virt. eigenvalues --    1.83318   1.83741   1.83892   1.84856   1.85371
 Alpha virt. eigenvalues --    1.85740   1.86447   1.87035   1.87391   1.88226
 Alpha virt. eigenvalues --    1.88341   1.89105   1.89876   1.90559   1.91614
 Alpha virt. eigenvalues --    1.91952   1.92465   1.93154   1.93523   1.93968
 Alpha virt. eigenvalues --    1.94313   1.95362   1.96279   1.97371   1.97457
 Alpha virt. eigenvalues --    1.98232   1.99091   1.99514   2.00036   2.00737
 Alpha virt. eigenvalues --    2.01005   2.02127   2.02419   2.03570   2.04001
 Alpha virt. eigenvalues --    2.04503   2.06114   2.06535   2.07571   2.08360
 Alpha virt. eigenvalues --    2.08843   2.10315   2.10536   2.11201   2.11529
 Alpha virt. eigenvalues --    2.12033   2.13955   2.15085   2.16293   2.16455
 Alpha virt. eigenvalues --    2.17741   2.18761   2.19058   2.19808   2.20556
 Alpha virt. eigenvalues --    2.22272   2.22955   2.23552   2.25147   2.25900
 Alpha virt. eigenvalues --    2.26688   2.27171   2.28321   2.29644   2.30968
 Alpha virt. eigenvalues --    2.32905   2.33704   2.34697   2.36083   2.36697
 Alpha virt. eigenvalues --    2.38114   2.40117   2.40672   2.40886   2.42833
 Alpha virt. eigenvalues --    2.43386   2.43873   2.45191   2.45355   2.47233
 Alpha virt. eigenvalues --    2.48479   2.49417   2.51538   2.52559   2.54979
 Alpha virt. eigenvalues --    2.55793   2.56088   2.56976   2.57358   2.58427
 Alpha virt. eigenvalues --    2.59480   2.61815   2.62331   2.63537   2.65546
 Alpha virt. eigenvalues --    2.66139   2.67427   2.68045   2.68912   2.69302
 Alpha virt. eigenvalues --    2.70030   2.70861   2.71343   2.71993   2.72582
 Alpha virt. eigenvalues --    2.72840   2.73488   2.73853   2.74329   2.75415
 Alpha virt. eigenvalues --    2.75523   2.75779   2.76702   2.77107   2.77176
 Alpha virt. eigenvalues --    2.78365   2.78603   2.79152   2.79883   2.80111
 Alpha virt. eigenvalues --    2.81868   2.81939   2.83024   2.83772   2.83920
 Alpha virt. eigenvalues --    2.84858   2.85161   2.86140   2.86792   2.86974
 Alpha virt. eigenvalues --    2.87769   2.88428   2.88988   2.91255   2.91503
 Alpha virt. eigenvalues --    2.92293   2.93549   2.94079   2.95724   2.97364
 Alpha virt. eigenvalues --    2.97768   3.00792   3.01312   3.03632   3.04085
 Alpha virt. eigenvalues --    3.04611   3.05744   3.05836   3.07823   3.09898
 Alpha virt. eigenvalues --    3.11416   3.12342   3.14300   3.14868   3.15602
 Alpha virt. eigenvalues --    3.17919   3.20045   3.20476   3.22278   3.22808
 Alpha virt. eigenvalues --    3.23974   3.25554   3.25855   3.28972   3.30399
 Alpha virt. eigenvalues --    3.31432   3.33519   3.34513   3.36009   3.36647
 Alpha virt. eigenvalues --    3.38054   3.39017   3.40148   3.40831   3.42646
 Alpha virt. eigenvalues --    3.44634   3.46083   3.47223   3.49039   3.49919
 Alpha virt. eigenvalues --    3.50221   3.52944   3.55076   3.56762   3.58766
 Alpha virt. eigenvalues --    3.61163   3.61967   3.62618   3.63593   3.68022
 Alpha virt. eigenvalues --    3.69460   3.72539   3.78584   3.81821   3.82977
 Alpha virt. eigenvalues --    3.87119   3.87810   3.92661   3.95599   4.05530
 Alpha virt. eigenvalues --    4.06772   4.07273   4.08135   4.10147   4.11691
 Alpha virt. eigenvalues --    4.14288   4.15616   4.22167   4.25317   4.29880
 Alpha virt. eigenvalues --    4.38274   4.41737   4.45655   4.53268   4.70024
 Alpha virt. eigenvalues --    4.75144   4.76868   4.78325   4.80120   4.81433
 Alpha virt. eigenvalues --    4.85294   4.89314  23.41487  23.59305  23.69816
 Alpha virt. eigenvalues --   23.76668  23.79608  23.83554  23.85415  23.87346
 Alpha virt. eigenvalues --   23.88672  23.91293  23.92149  23.94256  23.96232
 Alpha virt. eigenvalues --   23.97058  23.97438  23.99089  24.00590  24.01033
 Alpha virt. eigenvalues --   24.05327  24.07759  24.07869  24.09490  24.10095
 Alpha virt. eigenvalues --   24.13733  24.15827  24.19268  24.20603  24.22554
 Alpha virt. eigenvalues --   24.23325  24.23552
          Condensed to atoms (all electrons):
               1          2          3          4          5          6
     1  C    9.200006   0.631287   0.353091   0.555538  -1.123571  -0.512917
     2  C    0.631287   8.225663  -0.121457   0.152697  -0.484559  -0.751678
     3  C    0.353091  -0.121457   8.628979  -0.140886   1.074582  -0.177266
     4  C    0.555538   0.152697  -0.140886  11.727524   1.458388  -1.422166
     5  C   -1.123571  -0.484559   1.074582   1.458388  10.460750  -1.046322
     6  C   -0.512917  -0.751678  -0.177266  -1.422166  -1.046322  15.791612
     7  C   -1.893194  -0.179317  -0.090947  -2.949537   1.877020  -2.934692
     8  C    0.137963   0.330424  -1.950365   1.581116  -2.005133  -1.463819
     9  C   -1.048623  -0.892108  -0.228996  -2.297446   0.840524   1.802510
    10  C   -0.634052  -0.095641  -0.003196  -0.347742  -1.128993   0.479184
    11  C   -0.306785  -0.372355   0.482833   0.128171   1.706972  -0.282167
    12  C    0.054171  -0.467458   0.855352  -1.622010  -1.931674   1.124934
    13  C    0.333099   0.949417  -0.573717  -0.903929  -0.562952   1.001426
    14  C   -0.600656  -0.419909  -0.330337   1.818910  -0.089964  -0.849762
    15  C    0.797624  -0.265149   0.531344  -0.319297  -0.901263  -4.074123
    16  C    0.680111   0.004968  -0.006137  -0.196902  -0.437386  -0.137882
    17  C   -0.020991   0.419881  -0.098441  -0.359515  -0.527069   0.011354
    18  C    0.009943   0.581464   0.414764  -0.177663  -0.597494  -0.062448
    19  C    0.332984   0.043615  -0.193942  -0.194598  -0.413525   0.009787
    20  C   -0.422027   0.161448  -0.286011   0.158324   0.165099  -0.016041
    21  C   -0.068890  -0.572880  -0.203077  -0.104520  -0.010193  -0.017960
    22  C    0.295891  -0.838079  -1.132284  -0.246707  -0.205686   0.036021
    23  C    0.499592   0.293610  -0.181126  -0.191995  -0.016297   0.093549
    24  C   -1.054516  -0.205378   0.099819   0.241523   0.067661  -0.156626
    25  C    0.029660   0.020665  -0.038877   0.085542   0.018806   0.009950
    26  C   -0.010748   0.262522  -0.314640   0.012113  -0.019129  -0.019935
    27  C    0.250460   0.089519  -0.066942  -0.036508   0.004620   0.007920
    28  C    0.049535  -0.161937   0.046953  -0.070960  -0.006842  -0.009733
    29  C   -1.070096  -0.450482  -0.037847  -0.155244   0.026150  -0.079077
    30  C    0.484820   0.429562  -0.330990   0.022257  -0.361525  -0.703301
    31  H    0.054093  -0.007664   0.004643  -0.012270  -0.004977  -0.016106
    32  H    0.017713  -0.003752  -0.001806   0.027811  -0.009824  -0.033270
    33  H    0.012624   0.000986  -0.003524   0.069680  -0.024693   0.030340
    34  H   -0.003826   0.000814  -0.005843  -0.015105   0.026183  -0.015772
    35  H    0.002897   0.000012  -0.001374  -0.001595   0.023861   0.004126
    36  H    0.003869  -0.006181   0.028949  -0.001943  -0.025743  -0.000061
    37  H   -0.000629  -0.008753   0.009761   0.002137  -0.000271   0.000248
    38  H    0.000362  -0.011451   0.010374  -0.000305   0.001269  -0.000030
    39  H   -0.000445  -0.000008   0.000393   0.000064   0.000158  -0.000002
    40  H    0.000356   0.002808   0.000151   0.000069   0.000068   0.000010
    41  H   -0.000661   0.000385  -0.000041  -0.000008  -0.000005  -0.000020
    42  H    0.000526  -0.000121   0.000134   0.000054   0.000030  -0.000050
    43  H    0.001300  -0.000312  -0.000050  -0.000105   0.000094   0.000133
    44  H    0.026087   0.003170   0.000800  -0.013090  -0.000820   0.015609
    45  H   -0.046003   0.001118  -0.005391   0.008472   0.021384   0.068003
    46  H   -0.082644  -0.000005  -0.007192  -0.105559   0.041665   0.185258
               7          8          9         10         11         12
     1  C   -1.893194   0.137963  -1.048623  -0.634052  -0.306785   0.054171
     2  C   -0.179317   0.330424  -0.892108  -0.095641  -0.372355  -0.467458
     3  C   -0.090947  -1.950365  -0.228996  -0.003196   0.482833   0.855352
     4  C   -2.949537   1.581116  -2.297446  -0.347742   0.128171  -1.622010
     5  C    1.877020  -2.005133   0.840524  -1.128993   1.706972  -1.931674
     6  C   -2.934692  -1.463819   1.802510   0.479184  -0.282167   1.124934
     7  C   14.743581   1.148965  -0.480841   0.376751  -0.031750  -0.622283
     8  C    1.148965  12.423717  -3.219736   0.722847  -0.611369  -1.210545
     9  C   -0.480841  -3.219736  14.163314   0.970247  -1.138270  -1.409966
    10  C    0.376751   0.722847   0.970247  10.221102  -1.619147  -0.806356
    11  C   -0.031750  -0.611369  -1.138270  -1.619147   9.856868   0.985608
    12  C   -0.622283  -1.210545  -1.409966  -0.806356   0.985608  10.488564
    13  C   -0.020537   0.575711  -0.272325  -0.233299  -0.167656  -0.074442
    14  C   -1.428365  -0.120443  -0.229917  -0.156914  -0.011728  -0.020851
    15  C   -0.615281  -0.608999   0.604136  -0.219258   0.092263   0.101222
    16  C   -0.136857  -0.140306  -0.327168  -0.954842  -0.728011   0.294932
    17  C    0.039251  -0.104466  -0.286555  -0.430517  -0.199233  -0.182902
    18  C   -0.016478   0.099325  -0.209987   1.326225  -1.354068   0.128827
    19  C   -0.002674   0.037758  -0.002596  -0.550271  -0.083688  -0.084138
    20  C   -0.030607  -0.001609  -0.025207   0.027612   0.021160   0.024781
    21  C   -0.011701   0.007395  -0.012078  -0.103819  -0.121231  -0.009530
    22  C    0.004955  -0.022034  -0.183022  -0.993914  -0.147963  -0.052362
    23  C   -0.021346   0.022896   0.016553  -0.105411  -0.061375   0.021832
    24  C   -0.078096   0.012051   0.042456   0.064175   0.006308  -0.000023
    25  C   -0.001480   0.000364   0.006602  -0.018860   0.000959  -0.000419
    26  C   -0.001086  -0.002505  -0.022208  -0.048942   0.003922   0.004386
    27  C    0.009098  -0.003440   0.000220  -0.010589  -0.005199   0.004325
    28  C    0.003240  -0.000484   0.001487   0.001575   0.000093  -0.002180
    29  C   -0.287642   0.034260   0.125729   0.021538  -0.018120   0.003704
    30  C   -0.510966   0.130292  -0.160923  -0.076525  -0.010476  -0.026977
    31  H    0.015334  -0.001220   0.002558  -0.000026  -0.000012   0.000335
    32  H   -0.066388   0.000414  -0.000373   0.000123  -0.000250  -0.000642
[...]
 ,0.00056291,0.00066770,0.00029218,-0.00000705,-0.00000580,0.00035338,0
 .00004198,0.01214923,0.01668606,0.00336295,-0.10872975,-0.10344689,-0.
 02168920,-0.00844882,-0.02918529,-0.00573712,-0.00478153,0.00138829,-0
 .00044801,-0.00001882,0.00000888,-0.00002821,-0.00002745,0.00001440,-0
 .00000535,-0.00000803,0.00000506,-0.00000276,-0.00000403,-0.00000090,0
 .00000001,-0.00000479,-0.00000331,-0.00000072,-0.00000170,-0.00000372,
 -0.00000037,0.00000031,-0.00000223,-0.00000126,-0.00000093,-0.00000225
 ,-0.00000078,0.00000393,-0.00000688,-0.00000023,0.00002397,0.00008643,
 0.00000885,-0.00004182,-0.00000502,-0.00000201,0.00075648,-0.00058120,
 -0.00005542,0.11049735,-0.00005846,0.00003653,0.00000396,0.00002090,0.
 00003211,0.00000491,-0.00003200,0.00001051,0.00000051,0.00004431,-0.00
 000881,-0.00000209,-0.00000110,-0.00002756,0.00000380,-0.00003633,0.00
 000293,0.00000063,0.00001883,0.00000245,0.00000014,-0.00001646,-0.0000
 1880,0.00000412,-0.00002745,0.00001061,-0.00000509,0.00000465,-0.00002
 580,0.00000372,0.00001157,0.00001019,-0.00000165,-0.00000658,0.0000049
 9,0.00000054,0.00007122,-0.00017796,0.00000389,-0.00003919,-0.00003277
 ,-0.00002981,0.00000462,-0.00001438,0.00001507,-0.00003897,-0.00007768
 ,-0.00000149,-0.00002905,0.00005134,-0.00000050,-0.00001765,-0.0000052
 1,-0.00000061,-0.00005251,0.00013876,0.00021704,0.00015185,0.00007757,
 -0.00003330,-0.00003815,-0.00001802,-0.00000741,0.00002418,-0.00000740
 ,-0.00000136,0.00045241,0.00001254,0.00011664,0.00410551,-0.00135344,-
 0.00209266,-0.00105813,-0.00072540,-0.00007273,0.00036033,-0.00039347,
 0.00004595,-0.01410483,-0.01777165,-0.00431542,-0.10357706,-0.27693732
 ,-0.04926409,0.00167782,0.00159291,-0.00012552,0.00048213,0.00199716,-
 0.00082462,0.00000422,-0.00001326,0.00001737,-0.00000965,0.00000972,-0
 .00000082,-0.00000552,0.00000621,-0.00000149,-0.00000584,-0.00000115,-
 0.00000032,-0.00000619,-0.00000095,-0.00000040,-0.00000288,-0.00000629
 ,-0.00000051,-0.00000315,-0.00000740,-0.00000148,-0.00000541,-0.000008
 96,-0.00000023,0.00000583,0.00000136,-0.00000059,-0.00004523,-0.000130
 79,-0.00001152,0.00005483,0.00000830,-0.00002530,0.00025791,0.00072354
 ,0.00104876,0.11180419,0.29229488,0.00003982,0.00003260,-0.00021494,0.
 00002057,-0.00000722,-0.00001868,0.00001080,-0.00001138,-0.00000737,-0
 .00002579,0.00001663,-0.00000940,-0.00001253,0.00001603,0.00001855,-0.
 00000625,-0.00000831,0.00000612,-0.00000161,-0.00001212,-0.00000470,-0
 .00000663,0.00000767,-0.00000873,0.00000637,-0.00000113,0.00000321,-0.
 00001214,0.00000946,-0.00000090,0.00000361,-0.00000012,0.00000020,-0.0
 0000206,-0.00000033,0.00000218,-0.00005473,-0.00009528,0.00010550,-0.0
 0006164,0.00004832,-0.00001472,-0.00000758,-0.00002172,0.00003001,-0.0
 0002155,-0.00001367,0.00000631,-0.00001664,0.00004019,0.00003742,0.000
 01950,-0.00000280,0.00000144,-0.00004508,0.00013183,-0.00092376,0.0001
 1104,-0.00000165,0.00011801,-0.00001451,-0.00003446,0.00004674,0.00002
 548,-0.00000521,-0.00000818,0.00022380,0.00002090,-0.00052551,0.001134
 72,-0.00181265,0.00802564,-0.00029123,-0.00003458,0.00012652,-0.000024
 60,-0.00010701,-0.00055103,-0.00290827,-0.00374875,0.00307363,-0.02098
 016,-0.04918183,-0.04714184,-0.00079938,-0.00129909,0.00246164,-0.0002
 9100,-0.00016353,0.00606127,-0.00006569,-0.00002055,0.00003725,-0.0000
 0137,0.00000221,0.00000454,-0.00000195,0.00000122,-0.00000055,-0.00000
 093,-0.00000027,0.00000276,-0.00000063,-0.00000006,0.00000035,-0.00000
 048,-0.00000076,0.00000087,-0.00000038,-0.00000195,0.00000453,0.000000
 13,-0.00000212,-0.00000005,0.00000074,0.00000153,0.00000008,-0.0000124
 1,-0.00003020,0.00000607,0.00002119,-0.00001638,0.00010787,0.00002554,
 0.00099550,-0.00423972,0.02380153,0.05460254,0.03661591,0.00016109,0.0
 0056221,0.00004093,0.00007820,-0.00013897,-0.00000973,0.00007716,0.000
 03816,-0.00000487,-0.00019539,0.00009108,-0.00006682,-0.00005838,0.000
 03306,-0.00002061,-0.00002748,-0.00024168,0.00004882,-0.00006487,0.000
 04494,-0.00001192,0.00002102,0.00004464,-0.00000235,0.00006032,0.00000
 980,0.00000767,-0.00000400,0.00000501,0.00000822,-0.00000662,0.0000360
 0,-0.00000299,-0.00002422,-0.00004534,0.00000204,-0.00014654,-0.001106
 43,-0.00022472,-0.00593954,-0.00114807,-0.00173482,-0.00061722,-0.0002
 1321,-0.00000618,-0.00001106,0.00000399,-0.00000702,-0.00004340,0.0000
 9796,-0.00000473,0.00001629,0.00002615,-0.00000390,0.00078748,-0.00022
 212,0.00003844,0.00002212,-0.00012984,0.00005341,-0.00000334,-0.000092
 51,-0.00002680,0.00008474,-0.00004098,-0.00000338,-0.00140635,-0.00299
 585,-0.00101803,-0.00034461,-0.00096795,-0.00020319,-0.00008391,0.0003
 0543,0.00010504,-0.00008625,-0.00016969,-0.00002020,-0.00582329,-0.001
 60123,-0.00079553,-0.01459161,0.02831829,0.00403314,-0.13796718,0.1301
 5257,0.01841883,0.01104698,-0.01226471,-0.00155759,-0.00371130,0.00004
 836,-0.00180253,0.00006413,-0.00000739,0.00001488,-0.00000462,-0.00000
 697,0.00000019,0.00001014,0.00000996,0.00000021,0.00000676,0.00000519,
 0.00000129,-0.00000019,0.00000470,0.00000041,-0.00000564,0.00000152,0.
 00000064,-0.00000080,-0.00000024,0.00000228,-0.00000747,-0.00002762,0.
 00000148,0.00000288,0.00000824,-0.00000287,0.00007960,-0.00004790,-0.0
 0001115,-0.00074234,0.00124499,0.00031970,0.00103114,-0.00034177,0.000
 20402,0.15964395,-0.00011734,-0.00003817,0.00006896,-0.00001640,0.0000
 7973,-0.00004865,-0.00003732,0.00000419,-0.00000339,0.00000807,0.00004
 286,-0.00010080,-0.00004718,-0.00004854,0.00000142,0.00022785,-0.00025
 924,0.00021032,-0.00000128,0.00018052,-0.00009615,0.00004764,0.0000016
 2,-0.00000487,0.00003833,0.00000229,0.00000598,-0.00000340,0.00005238,
 0.00001520,0.00000721,0.00005345,-0.00000182,-0.00004890,-0.00003786,-
 0.00000154,0.00153522,-0.00203632,0.00075453,0.00212811,0.00015670,0.0
 0099030,0.00017113,0.00086308,-0.00006333,0.00019841,0.00005222,-0.000
 00017,-0.00006392,-0.00001666,0.00000468,0.00003652,0.00000332,-0.0000
 0919,0.00110178,-0.00018939,-0.00018112,-0.00019233,-0.00037318,0.0001
 0845,0.00006619,-0.00000755,-0.00002241,0.00003073,-0.00006984,-0.0000
 0021,-0.00363414,-0.00229353,-0.00161996,-0.00049198,0.00005664,0.0001
 5319,0.00001555,0.00019866,0.00011737,-0.00012800,-0.00008493,-0.00002
 769,-0.00068626,0.00140794,-0.00076004,-0.00376035,0.00544164,-0.00011
 113,0.12758115,-0.25836347,-0.03433414,0.01415882,-0.01920402,-0.00291
 035,0.00152834,0.00132115,-0.00028110,0.00002798,-0.00001813,-0.000028
 40,-0.00000991,-0.00000491,0.00000254,0.00000982,0.00001950,0.00000995
 ,0.00000199,0.00000545,0.00000155,-0.00000458,0.00000091,-0.00000070,-
 0.00000739,-0.00000212,-0.00000063,-0.00000922,-0.00000459,0.00000086,
 -0.00000736,-0.00005054,0.00000332,0.00001370,-0.00001540,-0.00000723,
 0.00003905,-0.00001699,-0.00001104,-0.00025567,0.00008089,0.00004719,0
 .00022256,0.00073618,0.00069926,-0.13946757,0.27211317,0.00023615,0.00
 030192,-0.00004866,0.00010748,0.00004505,0.00011156,-0.00000543,0.0000
 5053,0.00004067,0.00001879,0.00008397,0.00030319,-0.00001303,-0.000017
 52,0.00002476,0.00017875,-0.00012504,0.00000964,-0.00004554,0.00006550
 ,0.00010302,0.00000018,0.00003770,-0.00000447,0.00001615,0.00000605,-0
 .00003644,-0.00000278,-0.00001790,-0.00003684,0.00002779,0.00000588,0.
 00000236,-0.00000814,0.00001429,-0.00000429,0.00052930,0.00023811,-0.0
 0410731,-0.00125120,-0.00061350,0.00158397,0.00005768,0.00017122,-0.00
 057343,-0.00008954,-0.00008497,-0.00005356,-0.00004738,0.00012082,-0.0
 0006660,0.00001278,-0.00001952,0.00001693,0.00048275,0.00019537,0.0008
 0527,0.00009400,-0.00011840,-0.00046912,-0.00001349,-0.00010533,0.0000
 3181,0.00008873,-0.00002792,-0.00001488,-0.00058777,-0.00241240,0.0056
 6169,-0.00086919,-0.00063518,-0.00096066,-0.00003852,0.00041002,-0.000
 51695,-0.00025919,-0.00014770,0.00013268,-0.00094317,0.00014570,0.0058
 1784,0.00033741,0.00130078,0.00451873,0.01549970,-0.03533669,-0.040292
 11,0.00384545,-0.00178892,0.00255287,-0.00233256,0.00064780,-0.0010549
 0,0.00001865,-0.00000476,0.00002438,-0.00001104,0.00000017,0.00001106,
 0.00000695,0.00000671,-0.00002447,-0.00000021,0.00000084,-0.00000437,-
 0.00000049,-0.00000096,0.00000071,-0.00000176,-0.00000226,0.00001167,0
 .00000187,-0.00000259,0.00000637,-0.00000461,-0.00001423,-0.00003324,0
 .00000691,-0.00000732,0.00003466,0.00002629,-0.00001683,0.00003630,-0.
 00010077,0.00013783,0.00017610,0.00023668,0.00075124,-0.00322263,-0.01
 589521,0.03676332,0.02978546,-0.00006140,0.00044867,-0.00011735,-0.000
 02000,-0.00032530,-0.00061884,0.00025318,-0.00003111,0.00006190,-0.000
 35139,-0.00013296,0.00071347,-0.00009134,0.00019488,0.00000253,0.00092
 445,0.00101196,-0.00025043,-0.00037200,-0.00039087,-0.00007637,0.00005
 825,0.00022198,0.00005817,0.00003808,-0.00018707,-0.00003871,-0.000014
 61,-0.00005984,0.00002855,-0.00000426,-0.00001508,0.00000418,0.0000150
 2,0.00004675,-0.00000559,0.00096147,0.00303799,0.01056259,-0.04490661,
 -0.00147637,-0.00291295,-0.00381182,-0.00699165,-0.03048246,-0.0001798
 6,-0.00007426,0.00002469,0.00010359,0.00006752,0.00004036,-0.00007774,
 0.00004909,-0.00000382,0.00031498,0.00008625,-0.00005163,-0.00018183,-
 0.00000695,0.00003484,-0.00000928,0.00003760,0.00001000,0.00000057,-0.
 00001830,-0.00000017,0.00031581,-0.00018512,-0.00044528,-0.00022422,0.
 00002692,0.00010026,0.00003402,-0.00021564,0.00001712,0.00016000,0.000
 13333,-0.00000240,0.00012041,-0.00003207,-0.00001905,-0.00012074,-0.00
 018260,-0.00005061,0.00012643,0.00057102,0.00039023,-0.00063116,0.0007
 2623,-0.00075460,-0.00048059,0.00617885,0.01767081,0.00175014,-0.00036
 020,0.00014544,0.00003863,-0.00001755,-0.00005979,-0.00001598,-0.00001
 370,0.00006326,0.00000304,0.00000084,-0.00000171,0.00000675,0.00000537
 ,-0.00000258,-0.00000178,0.00000653,0.00000036,-0.00000211,0.00000477,
 -0.00000013,-0.00000378,-0.00000115,-0.00000107,-0.00000040,0.00000164
 ,-0.00000449,-0.00000338,-0.00000421,-0.00000993,0.00001865,-0.0000244
 0,-0.00001452,-0.00002749,-0.00000056,0.00002363,-0.00145741,-0.000292
 44,0.00074880,0.05323458,0.00198755,-0.00134898,0.00038439,-0.00026383
 ,0.00026821,0.00226700,-0.00031242,-0.00001853,-0.00004476,0.00107874,
 -0.00005912,-0.00106349,0.00022070,-0.00060425,0.00023262,-0.00042507,
 -0.00018431,0.00010047,0.00017537,0.00019906,-0.00004184,-0.00010099,-
 0.00023388,0.00003780,-0.00022692,0.00013420,0.00001425,0.00011718,-0.
 00015398,-0.00027888,0.00009010,0.00002723,0.00002428,-0.00004335,0.00
 004824,0.00000342,0.00148750,-0.01688125,-0.02862750,-0.00412561,-0.06
 873862,-0.07846304,0.00132919,-0.00011080,0.00184655,-0.00018220,-0.00
 012186,0.00001416,-0.00006520,0.00002285,-0.00014723,-0.00012806,-0.00
 020306,0.00004976,-0.00020523,0.00017057,0.00012317,0.00020536,-0.0000
 9502,-0.00006244,0.00007518,0.00002098,-0.00000455,-0.00006105,0.00007
 121,0.00000540,0.00015028,-0.00058552,0.00057676,-0.00002570,-0.000110
 85,-0.00014655,0.00008670,0.00010516,-0.00005251,-0.00014962,-0.000008
 16,0.00001155,-0.00006774,0.00012800,-0.00000321,0.00017420,0.00011214
 ,0.00005937,0.00009366,0.00035141,0.00010292,-0.00080695,-0.00036630,0
 .00021428,0.00018230,0.00710141,0.01979362,0.00056007,0.00082584,0.000
 91869,-0.00003054,0.00001368,-0.00003404,-0.00000815,0.00000637,0.0000
 1043,-0.00001415,-0.00000015,-0.00001176,-0.00001748,-0.00001418,-0.00
 000615,0.00000233,-0.00000701,0.00001753,0.00000280,-0.00001072,-0.000
 00528,0.00001348,-0.00000030,-0.00000060,0.00000723,-0.00000136,0.0000
 0598,0.00000559,0.00000370,0.00001868,-0.00000008,0.00000844,0.0000105
 8,0.00001025,0.00000306,0.00001026,0.00017995,0.00023375,0.00002213,-0
 .00201267,0.07894259,0.00187941,0.00103247,0.00048889,-0.00006182,-0.0
 0042820,-0.00027125,0.00020556,0.00010255,0.00005432,-0.00110184,-0.00
 022651,0.00016650,0.00025797,0.00040427,-0.00012732,-0.00026646,0.0000
 3228,-0.00028346,0.00030927,-0.00010791,-0.00003229,-0.00003168,-0.000
 35913,0.00006149,-0.00043949,0.00011466,0.00000014,0.00007650,-0.00021
 145,0.00000097,-0.00003795,-0.00003926,0.00001041,0.00007794,0.0000744
 9,0.00000872,0.00167089,-0.00449287,0.00147609,-0.00474693,-0.07176542
 ,-0.26642922,-0.00169527,-0.00125964,-0.01005700,-0.00013932,-0.000019
 59,-0.00000656,0.00006170,0.00001729,0.00000011,-0.00011469,0.00004665
 ,0.00001956,-0.00003441,0.00012096,0.00000563,0.00002498,-0.00007315,0
 .00001282,0.00005632,0.00003306,0.00000342,-0.00003955,0.00004713,0.00
 000854,0.00041380,-0.00011802,-0.00013193,-0.00006180,-0.00006290,0.00
 001439,0.00008766,-0.00002180,0.00000253,-0.00003828,0.00007434,0.0000
 0874,-0.00004839,-0.00002403,-0.00006133,-0.00015472,0.00045645,0.0002
 1675,0.00000537,-0.00062756,0.00045980,-0.00123125,-0.00045121,-0.0001
 7488,0.00010790,-0.00541178,-0.01792485,-0.00010087,0.00062258,0.00112
 721,0.00001413,0.00001264,-0.00002239,-0.00002069,-0.00002520,0.000006
 79,-0.00000945,-0.00000736,-0.00000409,0.00000674,-0.00000554,-0.00001
 109,-0.00000019,-0.00000154,0.00000403,0.00000006,-0.00000170,-0.00000
 308,0.00000487,0.00000108,-0.00000269,0.00000281,0.00000148,-0.0000033
 5,0.00000276,-0.00000406,-0.00000209,-0.00003544,0.00004395,-0.0000123
 0,0.00002674,-0.00001203,-0.00000223,0.00005610,0.00059995,-0.00025761
 ,0.00767691,0.08172421,0.29089485,-0.00011159,0.00067359,0.00067031,0.
 00002245,-0.00015013,-0.00006748,-0.00008518,-0.00007619,0.00002538,-0
 .00069909,0.00039358,0.00003124,-0.00047451,-0.00043121,-0.00103125,-0
 .00148824,-0.00454906,0.01961043,-0.00022334,-0.00105996,-0.00015770,0
 .00026857,0.00028660,-0.00093756,0.00035246,-0.00048824,0.00026436,-0.
 00019272,0.00004489,0.00004635,-0.00006335,-0.00020627,-0.00001268,0.0
 0012148,0.00009800,0.00010182,0.00057260,-0.00139297,-0.00032024,-0.00
 277837,0.00130042,-0.03098039,-0.04487043,0.00035877,0.01344797,-0.000
 02837,0.00008155,0.00000033,-0.00003938,-0.00007775,-0.00000240,0.0000
 9611,0.00006181,-0.00000182,0.00001774,0.00000863,-0.00000491,0.000014
 60,-0.00001152,-0.00001039,-0.00000760,-0.00000203,-0.00000277,0.00001
 367,0.00000772,0.00000287,0.00003618,-0.00006438,0.00007256,-0.0000287
 3,0.00002529,0.00000693,-0.00000076,-0.00000516,-0.00001303,-0.0000272
 2,0.00002124,0.00000628,0.00003110,0.00007105,-0.00000285,0.00002459,0
 .00001539,-0.00001309,0.00004617,-0.00002439,0.00016669,-0.00032428,0.
 00027704,-0.00024771,0.00145354,0.00016303,-0.00021039,-0.00065948,-0.
 00120172,0.01208486,-0.00026311,0.00017228,0.00039993,-0.00005448,-0.0
 0000599,0.00002328,-0.00002404,-0.00002918,-0.00000207,0.00001107,-0.0
 0000186,0.00000118,0.00000499,-0.00000788,0.00000564,-0.00000260,-0.00
 000073,0.00000062,0.00000428,-0.00000132,-0.00000004,0.00000226,-0.000
 00314,0.00000024,-0.00000071,0.00000361,0.00000888,-0.00000822,0.00000
 493,0.00000734,0.00000694,0.00000284,-0.00000527,0.00018101,0.00008678
 ,-0.00005822,-0.00542687,0.00103731,-0.00261590,0.05460087,-0.00062484
 ,0.00019529,0.00028736,-0.00011217,-0.00028869,0.00001576,0.00014141,-
 0.00018256,0.00009828,-0.00177867,-0.00147392,-0.00002861,0.00041744,0
 .00022638,-0.00174541,-0.00509771,-0.00708192,0.02703170,0.00146626,0.
 00063149,0.00021044,0.00001345,-0.00127623,-0.00082383,-0.00051338,0.0
 0032263,0.00010878,0.00006243,0.00002839,0.00012349,-0.00026231,-0.000
 08852,-0.00003321,0.00012779,-0.00016960,0.00018722,0.00019260,0.00009
 916,0.00019455,-0.00062550,-0.00066357,0.00439580,0.00137913,-0.047973
 77,0.02716561,0.00007484,-0.00000424,-0.00002837,0.00009648,-0.0000174
 3,-0.00000420,-0.00005437,0.00010041,-0.00002677,-0.00002590,-0.000015
 18,-0.00000298,0.00000013,-0.00006184,0.00000235,0.00005717,0.00002558
 ,-0.00000737,-0.00004661,0.00003176,0.00000682,0.00001961,-0.00001446,
 -0.00001725,-0.00000478,0.00002145,0.00000712,0.00000821,-0.00001646,-
 0.00000326,0.00000385,0.00001617,-0.00000030,0.00000356,-0.00000077,0.
 00000233,-0.00000073,0.00000708,0.00002166,0.00000214,0.00002557,0.000
 01764,0.00001447,0.00001898,-0.00002505,-0.00070728,0.00060533,-0.0007
 3772,0.00114856,0.00309331,-0.02834666,-0.00012929,0.00021230,0.000399
 72,-0.00003648,-0.00002850,-0.00002482,-0.00001622,-0.00002521,-0.0000
 0240,0.00000748,-0.00000316,-0.00000471,0.00000436,-0.00001255,0.00001
 268,-0.00000164,-0.00000194,0.00000213,0.00000324,0.00000094,0.0000012
 5,0.00000056,-0.00000103,0.00000054,0.00000054,0.00000182,-0.00000195,
 -0.00000093,0.00000205,-0.00000325,-0.00000141,0.00000063,-0.00000101,
 0.00000584,0.00002711,-0.00002299,0.00019389,0.00106009,0.00019536,0.0
 0459474,0.05264762,-0.00090226,0.00036979,-0.00014745,-0.00000264,-0.0
 0033965,-0.00007228,0.00011134,0.00002426,0.00001518,0.00171986,-0.000
 48828,0.00074955,-0.00016332,0.00007609,0.00021805,0.00451368,0.005214
 76,-0.00525099,-0.00174779,-0.00027771,0.00047499,0.00033839,0.0014226
 6,0.00011345,0.00052124,-0.00075236,0.00000960,-0.00014811,0.00006686,
 -0.00000712,0.00018920,-0.00010454,0.00001422,-0.00006764,0.00026326,-
 0.00009350,-0.00007270,0.00004886,-0.00035880,-0.00123490,0.00006750,-
 0.01048089,0.00859375,0.02260257,-0.29052810,-0.00013479,0.00012922,0.
 00002728,-0.00007554,-0.00004242,0.00000750,0.00009719,-0.00000930,0.0
 0000076,0.00008159,-0.00001277,-0.00001920,-0.00005610,0.00008387,0.00
 001152,-0.00004141,-0.00005022,0.00000450,0.00004639,-0.00002572,-0.00
 000326,-0.00002868,0.00001071,0.00000016,-0.00003741,0.00001678,0.0000
 0740,-0.00000894,-0.00001020,0.00000375,0.00002100,0.00000192,-0.00000
 159,-0.00002534,0.00000323,-0.00000620,0.00000584,0.00005373,-0.000004
 45,-0.00003544,-0.00013761,0.00008974,0.00012452,0.00016521,-0.0000962
 7,-0.00018124,-0.00047607,0.00139417,0.00112992,0.00021905,-0.01315090
 ,0.00012200,-0.00007803,-0.00036734,0.00003078,0.00006322,0.00002087,0
 .00001001,0.00001012,-0.00000566,-0.00000059,0.00000831,0.00001403,0.0
 0000010,0.00000645,-0.00000966,0.00000282,0.00000555,-0.00000083,-0.00
 000742,0.00000277,-0.00000162,-0.00000275,0.00000623,-0.00000153,-0.00
 000640,-0.00000134,0.00000036,-0.00001021,0.00000615,0.00000393,-0.000
 00638,-0.00000778,-0.00000970,0.00007940,0.00006773,-0.00002116,-0.002
 45366,0.00039357,0.00076828,-0.01028734,-0.02859647,0.31668921\\0.0000
 0480,-0.00002479,-0.00000609,0.00000586,0.00001925,-0.00001777,-0.0000
 1103,0.00000151,0.00000259,-0.00000635,0.00001075,0.00000093,-0.000000
 72,-0.00000966,0.00000154,0.00001688,-0.00000538,-0.00000655,-0.000008
 05,-0.00000455,0.00000058,0.00000724,0.00000589,0.00000384,-0.00001643
 ,-0.00000227,-0.00000667,0.00000455,-0.00001705,-0.00000323,0.00000133
 ,0.00000512,-0.00000858,0.00000970,-0.00000553,-0.00000651,0.00001156,
 -0.00000697,0.00005421,0.00000782,0.00000034,-0.00001749,-0.00001738,-
 0.00000157,-0.00000600,0.00000458,-0.00000881,0.00001958,-0.00000594,-
 0.00000478,-0.00000191,0.00000721,0.00000655,0.00000264,-0.00000652,0.
 00001885,-0.00000069,0.00001445,-0.00001296,0.00000693,-0.00000154,0.0
 0001275,0.00000107,0.00000110,0.00000124,-0.00000189,-0.00001125,-0.00
 000376,-0.00001443,0.00001465,0.00001130,0.00000512,-0.00000266,0.0000
 0025,0.00000576,-0.00000459,0.00000451,-0.00000108,-0.00000358,-0.0000
 1304,0.00000422,-0.00001546,0.00001064,0.00000244,0.00000749,0.0000078
 7,0.00000270,0.00000132,0.,-0.00002346,0.00002152,-0.00000206,-0.00000
 634,-0.00000884,-0.00000015,0.00000247,-0.00000248,-0.00000524,-0.0000
 0754,-0.00000027,-0.00000160,-0.00000687,0.00000153,-0.00000600,-0.000
 00237,-0.00000095,-0.00000132,-0.00000089,0.00000338,-0.00000090,-0.00
 000224,0.00000546,0.00000002,0.00000117,0.00000305,-0.00000010,0.00000
 420,0.00000277,0.00000206,0.00000483,0.00000040,0.00000239,0.00000318,
 -0.00000105,0.00000453,0.00000561,-0.00000081,0.00000032,0.00000439,-0
 .00001956,0.00000457,0.00000478,-0.00000874,-0.00000224,-0.00000386,-0
 .00000444,0.00001002,0.00000767\\\@


 IF YOU GIVE A BOY AND A PIG EVERYTHING THEY WANT,
 YOU'LL GET A BAD BOY AND A GOOD PIG.
 Job cpu time:       0 days 21 hours 17 minutes 17.5 seconds.
 Elapsed time:       0 days  1 hours  3 minutes 51.0 seconds.
 File lengths (MBytes):  RWF=   2278 Int=      0 D2E=      0 Chk=     49 Scr=      1
 Normal termination of Gaussian 16 at Thu Aug  8 01:29:56 2019.
