 Entering Gaussian System, Link 0=/share/apps/gaussian16/g16/g16
 Initial command:
 /share/apps/gaussian16/g16/l1.exe "/home/amen01//scratch/904/Gau-43413.inp" -scrdir="/home/amen01//scratch/904/"
 Entering Link 1 = /share/apps/gaussian16/g16/l1.exe PID=     43414.
  
 Copyright (c) 1988-2017, Gaussian, Inc.  All Rights Reserved.
  
 This is part of the Gaussian(R) 16 program.  It is based on
 the Gaussian(R) 09 system (copyright 2009, Gaussian, Inc.),
 the Gaussian(R) 03 system (copyright 2003, Gaussian, Inc.),
 the Gaussian(R) 98 system (copyright 1998, Gaussian, Inc.),
 the Gaussian(R) 94 system (copyright 1995, Gaussian, Inc.),
 the Gaussian 92(TM) system (copyright 1992, Gaussian, Inc.),
 the Gaussian 90(TM) system (copyright 1990, Gaussian, Inc.),
 the Gaussian 88(TM) system (copyright 1988, Gaussian, Inc.),
 the Gaussian 86(TM) system (copyright 1986, Carnegie Mellon
 University), and the Gaussian 82(TM) system (copyright 1983,
 Carnegie Mellon University). Gaussian is a federally registered
 trademark of Gaussian, Inc.
  
 This software contains proprietary and confidential information,
 including trade secrets, belonging to Gaussian, Inc.
  
 This software is provided under written license and may be
 used, copied, transmitted, or stored only in accord with that
 written license.
  
 The following legend is applicable only to US Government
 contracts under FAR:
  
                    RESTRICTED RIGHTS LEGEND
  
 Use, reproduction and disclosure by the US Government is
 subject to restrictions as set forth in subparagraphs (a)
 and (c) of the Commercial Computer Software - Restricted
 Rights clause in FAR 52.227-19.
  
 Gaussian, Inc.
 340 Quinnipiac St., Bldg. 40, Wallingford CT 06492
  
  
 ---------------------------------------------------------------
 Warning -- This program may not be used in any manner that
 competes with the business of Gaussian, Inc. or will provide
 assistance to any competitor of Gaussian, Inc.  The licensee
 of this program is prohibited from giving any competitor of
 Gaussian, Inc. access to this program.  By using this program,
 the user acknowledges that Gaussian, Inc. is engaged in the
 business of creating and licensing software in the field of
 computational chemistry and represents and warrants to the
 licensee that it is not a competitor of Gaussian, Inc. and that
 it will not use this program in any manner prohibited above.
 ---------------------------------------------------------------
  

 Cite this work as:
 Gaussian 16, Revision B.01,
 M. J. Frisch, G. W. Trucks, H. B. Schlegel, G. E. Scuseria, 
 M. A. Robb, J. R. Cheeseman, G. Scalmani, V. Barone, 
 G. A. Petersson, H. Nakatsuji, X. Li, M. Caricato, A. V. Marenich, 
 J. Bloino, B. G. Janesko, R. Gomperts, B. Mennucci, H. P. Hratchian, 
 J. V. Ortiz, A. F. Izmaylov, J. L. Sonnenberg, D. Williams-Young, 
 F. Ding, F. Lipparini, F. Egidi, J. Goings, B. Peng, A. Petrone, 
 T. Henderson, D. Ranasinghe, V. G. Zakrzewski, J. Gao, N. Rega, 
 G. Zheng, W. Liang, M. Hada, M. Ehara, K. Toyota, R. Fukuda, 
 J. Hasegawa, M. Ishida, T. Nakajima, Y. Honda, O. Kitao, H. Nakai, 
 T. Vreven, K. Throssell, J. A. Montgomery, Jr., J. E. Peralta, 
 F. Ogliaro, M. J. Bearpark, J. J. Heyd, E. N. Brothers, K. N. Kudin, 
 V. N. Staroverov, T. A. Keith, R. Kobayashi, J. Normand, 
 K. Raghavachari, A. P. Rendell, J. C. Burant, S. S. Iyengar, 
 J. Tomasi, M. Cossi, J. M. Millam, M. Klene, C. Adamo, R. Cammi, 
 J. W. Ochterski, R. L. Martin, K. Morokuma, O. Farkas, 
 J. B. Foresman, and D. J. Fox, Gaussian, Inc., Wallingford CT, 2016.
 
 ******************************************
 Gaussian 16:  ES64L-G16RevB.01 20-Dec-2017
                12-Aug-2019 
 ******************************************
 %nprocshared=20
 Will use up to   20 processors via shared memory.
 %mem=160GB
 %chk=7-memb2-carbTSguess-1a.chk
 ---------------------------------------------------------------
 # opt=(ts,calcfc,noeigen) freq b3lyp/6-311+g(d,p) int=grid=fine
 ---------------------------------------------------------------
 1/5=1,10=4,11=1,18=20,26=3,38=1/1,3;
 2/9=110,12=2,17=6,18=5,40=1/2;
 3/5=4,6=6,7=111,11=2,25=1,30=1,71=2,74=-5,75=-4,140=1/1,2,3;
 4//1;
 5/5=2,38=5/2;
 8/6=4,10=90,11=11/1;
 11/6=1,8=1,9=11,15=111,16=1/1,2,10;
 10/6=1,13=1/2;
 6/7=2,8=2,9=2,10=2,28=1/1;
 7/10=1,18=20,25=1/1,2,3,16;
 1/5=1,10=4,11=1,18=20,26=3/3(2);
 2/9=110/2;
 99//99;
 2/9=110/2;
 3/5=4,6=6,7=111,11=2,25=1,30=1,71=1,74=-5,75=-4/1,2,3;
 4/5=5,16=3,69=1/1;
 5/5=2,38=5/2;
 7//1,2,3,16;
 1/5=1,11=1,18=20,26=3/3(-5);
 2/9=110/2;
 6/7=2,8=2,9=2,10=2,19=2,28=1/1;
 99/9=1/99;
 ----------------------
 7-memb2-carbTSguess-1a
 ----------------------
 Symbolic Z-matrix:
 Charge =  0 Multiplicity = 1
 C                     0.7852   -0.9784   -0.4329 
 C                     0.4409    0.4561   -0.0913 
 C                     1.6821    1.0992    0.1056 
 C                     2.2026   -1.0565   -0.3373 
 C                     2.7391    0.1908   -0.0194 
 C                     3.0428   -2.1952   -0.4253 
 C                     4.4526   -1.9503   -0.1268 
 C                     4.9414   -0.7003    0.1625 
 C                     4.068     0.4586    0.2416 
 C                     1.9386    2.4488    0.3755 
 C                     3.3239    2.7753    0.6096 
 C                     4.3389    1.8296    0.5717 
 C                     0.1046   -2.0444   -0.9977 
 C                     0.9712   -3.2731   -1.2342 
 C                     2.3987   -3.3551   -0.7858 
 C                    -0.7051    1.2744   -0.0135 
 C                    -0.4619    2.7179    0.0495 
 C                     0.8063    3.2747    0.2995 
 C                    -2.0849    0.8142   -0.0709 
 C                    -3.0664    1.7221   -0.5251 
 C                    -2.7669    3.1222   -0.6092 
 C                    -1.5537    3.6035   -0.2416 
 C                    -2.5226   -0.498     0.3558 
 C                    -3.8418   -0.9356    0.0183 
 C                    -4.7309   -0.0409   -0.6423 
 C                    -4.375     1.2593   -0.8465 
 C                    -4.281    -2.2189    0.4254 
 C                    -3.4963   -3.0155    1.2266 
 C                    -2.2439   -2.5408    1.6615 
 C                    -1.7657   -1.325     1.225 
 H                     0.4235   -4.1857   -0.9603 
 H                     2.8915   -4.3235   -0.7404 
 H                     5.1408   -2.7877   -0.1752 
 H                     6.0038   -0.5807    0.3481 
 H                     5.3556    2.1447    0.7824 
 H                     3.5858    3.8056    0.8293 
 H                     0.8915    4.354     0.3771 
 H                    -1.3657    4.6717   -0.2256 
 H                    -3.5585    3.7986   -0.9139 
 H                    -5.0856    1.9669   -1.2606 
 H                    -5.7207   -0.3923   -0.9139 
 H                    -5.2718   -2.546     0.1271 
 H                    -3.8538   -3.986     1.552 
 H                    -1.65     -3.1349    2.3473 
 H                    -0.8134   -0.9733    1.5923 
 H                     0.68043  -2.48356  -2.11177 
 

 GradGradGradGradGradGradGradGradGradGradGradGradGradGradGradGradGradGrad
 Berny optimization.
 Initialization pass.
                           ----------------------------
                           !    Initial Parameters    !
                           ! (Angstroms and Degrees)  !
 --------------------------                            --------------------------
 ! Name  Definition              Value          Derivative Info.                !
 --------------------------------------------------------------------------------
 ! R1    R(1,2)                  1.5143         calculate D2E/DX2 analytically  !
 ! R2    R(1,4)                  1.4228         calculate D2E/DX2 analytically  !
 ! R3    R(1,13)                 1.3851         calculate D2E/DX2 analytically  !
 ! R4    R(2,3)                  1.4117         calculate D2E/DX2 analytically  !
 ! R5    R(2,16)                 1.4103         calculate D2E/DX2 analytically  !
 ! R6    R(3,5)                  1.3993         calculate D2E/DX2 analytically  !
 ! R7    R(3,10)                 1.4            calculate D2E/DX2 analytically  !
 ! R8    R(4,5)                  1.3945         calculate D2E/DX2 analytically  !
 ! R9    R(4,6)                  1.4179         calculate D2E/DX2 analytically  !
 ! R10   R(5,9)                  1.3805         calculate D2E/DX2 analytically  !
 ! R11   R(6,7)                  1.4617         calculate D2E/DX2 analytically  !
 ! R12   R(6,15)                 1.3748         calculate D2E/DX2 analytically  !
 ! R13   R(7,8)                  1.373          calculate D2E/DX2 analytically  !
 ! R14   R(7,33)                 1.085          calculate D2E/DX2 analytically  !
 ! R15   R(8,9)                  1.4533         calculate D2E/DX2 analytically  !
 ! R16   R(8,34)                 1.0851         calculate D2E/DX2 analytically  !
 ! R17   R(9,12)                 1.436          calculate D2E/DX2 analytically  !
 ! R18   R(10,11)                1.4424         calculate D2E/DX2 analytically  !
 ! R19   R(10,18)                1.4036         calculate D2E/DX2 analytically  !
 ! R20   R(11,12)                1.3878         calculate D2E/DX2 analytically  !
 ! R21   R(11,36)                1.0855         calculate D2E/DX2 analytically  !
 ! R22   R(12,35)                1.0851         calculate D2E/DX2 analytically  !
 ! R23   R(13,14)                1.522          calculate D2E/DX2 analytically  !
 ! R24   R(14,15)                1.4985         calculate D2E/DX2 analytically  !
 ! R25   R(14,31)                1.099          calculate D2E/DX2 analytically  !
 ! R26   R(14,46)                1.2158         calculate D2E/DX2 analytically  !
 ! R27   R(15,32)                1.0875         calculate D2E/DX2 analytically  !
 ! R28   R(16,17)                1.4652         calculate D2E/DX2 analytically  !
 ! R29   R(16,19)                1.4557         calculate D2E/DX2 analytically  !
 ! R30   R(17,18)                1.4074         calculate D2E/DX2 analytically  !
 ! R31   R(17,22)                1.4356         calculate D2E/DX2 analytically  !
 ! R32   R(18,37)                1.0854         calculate D2E/DX2 analytically  !
 ! R33   R(19,20)                1.4121         calculate D2E/DX2 analytically  !
 ! R34   R(19,23)                1.4476         calculate D2E/DX2 analytically  !
 ! R35   R(20,21)                1.4342         calculate D2E/DX2 analytically  !
 ! R36   R(20,26)                1.4248         calculate D2E/DX2 analytically  !
 ! R37   R(21,22)                1.356          calculate D2E/DX2 analytically  !
 ! R38   R(21,39)                1.0849         calculate D2E/DX2 analytically  !
 ! R39   R(22,38)                1.0847         calculate D2E/DX2 analytically  !
 ! R40   R(23,24)                1.4303         calculate D2E/DX2 analytically  !
 ! R41   R(23,30)                1.4186         calculate D2E/DX2 analytically  !
 ! R42   R(24,25)                1.4239         calculate D2E/DX2 analytically  !
 ! R43   R(24,27)                1.4162         calculate D2E/DX2 analytically  !
 ! R44   R(25,26)                1.3634         calculate D2E/DX2 analytically  !
 ! R45   R(25,41)                1.0849         calculate D2E/DX2 analytically  !
 ! R46   R(26,40)                1.085          calculate D2E/DX2 analytically  !
 ! R47   R(27,28)                1.3756         calculate D2E/DX2 analytically  !
 ! R48   R(27,42)                1.0852         calculate D2E/DX2 analytically  !
 ! R49   R(28,29)                1.4082         calculate D2E/DX2 analytically  !
 ! R50   R(28,43)                1.0842         calculate D2E/DX2 analytically  !
 ! R51   R(29,30)                1.3775         calculate D2E/DX2 analytically  !
 ! R52   R(29,44)                1.0844         calculate D2E/DX2 analytically  !
 ! R53   R(30,45)                1.0796         calculate D2E/DX2 analytically  !
 ! A1    A(2,1,4)              105.2693         calculate D2E/DX2 analytically  !
 ! A2    A(2,1,13)             135.1801         calculate D2E/DX2 analytically  !
 ! A3    A(4,1,13)             118.3374         calculate D2E/DX2 analytically  !
 ! A4    A(1,2,3)              105.2544         calculate D2E/DX2 analytically  !
 ! A5    A(1,2,16)             138.3192         calculate D2E/DX2 analytically  !
 ! A6    A(3,2,16)             116.2587         calculate D2E/DX2 analytically  !
 ! A7    A(2,3,5)              110.8515         calculate D2E/DX2 analytically  !
 ! A8    A(2,3,10)             128.8374         calculate D2E/DX2 analytically  !
 ! A9    A(5,3,10)             120.3065         calculate D2E/DX2 analytically  !
 ! A10   A(1,4,5)              110.4563         calculate D2E/DX2 analytically  !
 ! A11   A(1,4,6)              129.0697         calculate D2E/DX2 analytically  !
 ! A12   A(5,4,6)              120.2983         calculate D2E/DX2 analytically  !
 ! A13   A(3,5,4)              108.0835         calculate D2E/DX2 analytically  !
 ! A14   A(3,5,9)              125.7544         calculate D2E/DX2 analytically  !
 ! A15   A(4,5,9)              125.9407         calculate D2E/DX2 analytically  !
 ! A16   A(4,6,7)              115.1068         calculate D2E/DX2 analytically  !
 ! A17   A(4,6,15)             114.5955         calculate D2E/DX2 analytically  !
 ! A18   A(7,6,15)             130.2967         calculate D2E/DX2 analytically  !
 ! A19   A(6,7,8)              122.6107         calculate D2E/DX2 analytically  !
 ! A20   A(6,7,33)             118.2516         calculate D2E/DX2 analytically  !
 ! A21   A(8,7,33)             119.0944         calculate D2E/DX2 analytically  !
 ! A22   A(7,8,9)              121.5673         calculate D2E/DX2 analytically  !
 ! A23   A(7,8,34)             119.0091         calculate D2E/DX2 analytically  !
 ! A24   A(9,8,34)             119.4192         calculate D2E/DX2 analytically  !
 ! A25   A(5,9,8)              114.4264         calculate D2E/DX2 analytically  !
 ! A26   A(5,9,12)             114.2219         calculate D2E/DX2 analytically  !
 ! A27   A(8,9,12)             131.3363         calculate D2E/DX2 analytically  !
 ! A28   A(3,10,11)            115.1798         calculate D2E/DX2 analytically  !
 ! A29   A(3,10,18)            114.1419         calculate D2E/DX2 analytically  !
 ! A30   A(11,10,18)           130.5715         calculate D2E/DX2 analytically  !
 ! A31   A(10,11,12)           122.9388         calculate D2E/DX2 analytically  !
 ! A32   A(10,11,36)           118.6468         calculate D2E/DX2 analytically  !
 ! A33   A(12,11,36)           118.4139         calculate D2E/DX2 analytically  !
 ! A34   A(9,12,11)            121.259          calculate D2E/DX2 analytically  !
 ! A35   A(9,12,35)            119.9118         calculate D2E/DX2 analytically  !
 ! A36   A(11,12,35)           118.8227         calculate D2E/DX2 analytically  !
 ! A37   A(1,13,14)            113.8831         calculate D2E/DX2 analytically  !
 ! A38   A(13,14,15)           122.6878         calculate D2E/DX2 analytically  !
 ! A39   A(13,14,31)           110.357          calculate D2E/DX2 analytically  !
 ! A40   A(13,14,46)            56.7513         calculate D2E/DX2 analytically  !
 ! A41   A(15,14,31)           110.7765         calculate D2E/DX2 analytically  !
 ! A42   A(15,14,46)           118.644          calculate D2E/DX2 analytically  !
 ! A43   A(31,14,46)           126.8682         calculate D2E/DX2 analytically  !
 ! A44   A(6,15,14)            118.593          calculate D2E/DX2 analytically  !
 ! A45   A(6,15,32)            121.8711         calculate D2E/DX2 analytically  !
 ! A46   A(14,15,32)           119.5303         calculate D2E/DX2 analytically  !
 ! A47   A(2,16,17)            116.0483         calculate D2E/DX2 analytically  !
 ! A48   A(2,16,19)            125.7769         calculate D2E/DX2 analytically  !
 ! A49   A(17,16,19)           118.0664         calculate D2E/DX2 analytically  !
 ! A50   A(16,17,18)           123.1586         calculate D2E/DX2 analytically  !
 ! A51   A(16,17,22)           118.2152         calculate D2E/DX2 analytically  !
 ! A52   A(18,17,22)           118.5054         calculate D2E/DX2 analytically  !
 ! A53   A(10,18,17)           120.2486         calculate D2E/DX2 analytically  !
 ! A54   A(10,18,37)           121.1922         calculate D2E/DX2 analytically  !
 ! A55   A(17,18,37)           118.4771         calculate D2E/DX2 analytically  !
 ! A56   A(16,19,20)           117.9224         calculate D2E/DX2 analytically  !
 ! A57   A(16,19,23)           124.1639         calculate D2E/DX2 analytically  !
 ! A58   A(20,19,23)           117.8702         calculate D2E/DX2 analytically  !
 ! A59   A(19,20,21)           120.0905         calculate D2E/DX2 analytically  !
 ! A60   A(19,20,26)           120.1407         calculate D2E/DX2 analytically  !
 ! A61   A(21,20,26)           119.7136         calculate D2E/DX2 analytically  !
 ! A62   A(20,21,22)           121.1607         calculate D2E/DX2 analytically  !
 ! A63   A(20,21,39)           118.2117         calculate D2E/DX2 analytically  !
 ! A64   A(22,21,39)           120.509          calculate D2E/DX2 analytically  !
 ! A65   A(17,22,21)           121.0938         calculate D2E/DX2 analytically  !
 ! A66   A(17,22,38)           118.2077         calculate D2E/DX2 analytically  !
 ! A67   A(21,22,38)           120.571          calculate D2E/DX2 analytically  !
 ! A68   A(19,23,24)           119.1217         calculate D2E/DX2 analytically  !
 ! A69   A(19,23,30)           123.2119         calculate D2E/DX2 analytically  !
 ! A70   A(24,23,30)           117.2806         calculate D2E/DX2 analytically  !
 ! A71   A(23,24,25)           119.5487         calculate D2E/DX2 analytically  !
 ! A72   A(23,24,27)           119.7008         calculate D2E/DX2 analytically  !
 ! A73   A(25,24,27)           120.6057         calculate D2E/DX2 analytically  !
 ! A74   A(24,25,26)           120.379          calculate D2E/DX2 analytically  !
 ! A75   A(24,25,41)           118.8374         calculate D2E/DX2 analytically  !
 ! A76   A(26,25,41)           120.6343         calculate D2E/DX2 analytically  !
 ! A77   A(20,26,25)           121.0469         calculate D2E/DX2 analytically  !
 ! A78   A(20,26,40)           118.4122         calculate D2E/DX2 analytically  !
 ! A79   A(25,26,40)           120.5408         calculate D2E/DX2 analytically  !
 ! A80   A(24,27,28)           121.0168         calculate D2E/DX2 analytically  !
 ! A81   A(24,27,42)           118.5079         calculate D2E/DX2 analytically  !
 ! A82   A(28,27,42)           120.4226         calculate D2E/DX2 analytically  !
 ! A83   A(27,28,29)           119.4724         calculate D2E/DX2 analytically  !
 ! A84   A(27,28,43)           120.3355         calculate D2E/DX2 analytically  !
 ! A85   A(29,28,43)           120.1523         calculate D2E/DX2 analytically  !
 ! A86   A(28,29,30)           120.5592         calculate D2E/DX2 analytically  !
 ! A87   A(28,29,44)           119.8483         calculate D2E/DX2 analytically  !
 ! A88   A(30,29,44)           119.5924         calculate D2E/DX2 analytically  !
 ! A89   A(23,30,29)           121.5673         calculate D2E/DX2 analytically  !
 ! A90   A(23,30,45)           119.2886         calculate D2E/DX2 analytically  !
 ! A91   A(29,30,45)           119.0757         calculate D2E/DX2 analytically  !
 ! D1    D(4,1,2,3)              2.8515         calculate D2E/DX2 analytically  !
 ! D2    D(4,1,2,16)           177.668          calculate D2E/DX2 analytically  !
 ! D3    D(13,1,2,3)          -163.7426         calculate D2E/DX2 analytically  !
 ! D4    D(13,1,2,16)           11.0739         calculate D2E/DX2 analytically  !
 ! D5    D(2,1,4,5)             -2.0057         calculate D2E/DX2 analytically  !
 ! D6    D(2,1,4,6)            173.106          calculate D2E/DX2 analytically  !
 ! D7    D(13,1,4,5)           167.2938         calculate D2E/DX2 analytically  !
 ! D8    D(13,1,4,6)           -17.5945         calculate D2E/DX2 analytically  !
 ! D9    D(2,1,13,14)          174.9909         calculate D2E/DX2 analytically  !
 ! D10   D(4,1,13,14)            9.712          calculate D2E/DX2 analytically  !
 ! D11   D(1,2,3,5)             -2.7661         calculate D2E/DX2 analytically  !
 ! D12   D(1,2,3,10)           176.444          calculate D2E/DX2 analytically  !
 ! D13   D(16,2,3,5)          -178.9249         calculate D2E/DX2 analytically  !
 ! D14   D(16,2,3,10)            0.2852         calculate D2E/DX2 analytically  !
 ! D15   D(1,2,16,17)         -165.076          calculate D2E/DX2 analytically  !
 ! D16   D(1,2,16,19)           11.0464         calculate D2E/DX2 analytically  !
 ! D17   D(3,2,16,17)            9.3465         calculate D2E/DX2 analytically  !
 ! D18   D(3,2,16,19)         -174.5311         calculate D2E/DX2 analytically  !
 ! D19   D(2,3,5,4)              1.606          calculate D2E/DX2 analytically  !
 ! D20   D(2,3,5,9)           -173.2372         calculate D2E/DX2 analytically  !
 ! D21   D(10,3,5,4)          -177.6813         calculate D2E/DX2 analytically  !
 ! D22   D(10,3,5,9)             7.4755         calculate D2E/DX2 analytically  !
 ! D23   D(2,3,10,11)          176.206          calculate D2E/DX2 analytically  !
 ! D24   D(2,3,10,18)           -7.1488         calculate D2E/DX2 analytically  !
 ! D25   D(5,3,10,11)           -4.649          calculate D2E/DX2 analytically  !
 ! D26   D(5,3,10,18)          171.9962         calculate D2E/DX2 analytically  !
 ! D27   D(1,4,5,3)              0.3657         calculate D2E/DX2 analytically  !
 ! D28   D(1,4,5,9)            175.1968         calculate D2E/DX2 analytically  !
 ! D29   D(6,4,5,3)           -175.2397         calculate D2E/DX2 analytically  !
 ! D30   D(6,4,5,9)             -0.4087         calculate D2E/DX2 analytically  !
 ! D31   D(1,4,6,7)           -173.1065         calculate D2E/DX2 analytically  !
 ! D32   D(1,4,6,15)             7.2123         calculate D2E/DX2 analytically  !
 ! D33   D(5,4,6,7)              1.5878         calculate D2E/DX2 analytically  !
 ! D34   D(5,4,6,15)          -178.0935         calculate D2E/DX2 analytically  !
 ! D35   D(3,5,9,8)            174.0092         calculate D2E/DX2 analytically  !
 ! D36   D(3,5,9,12)            -4.7276         calculate D2E/DX2 analytically  !
 ! D37   D(4,5,9,8)              0.067          calculate D2E/DX2 analytically  !
 ! D38   D(4,5,9,12)          -178.6697         calculate D2E/DX2 analytically  !
 ! D39   D(4,6,7,8)             -2.6469         calculate D2E/DX2 analytically  !
 ! D40   D(4,6,7,33)           179.7712         calculate D2E/DX2 analytically  !
 ! D41   D(15,6,7,8)           176.9731         calculate D2E/DX2 analytically  !
 ! D42   D(15,6,7,33)           -0.6088         calculate D2E/DX2 analytically  !
 ! D43   D(4,6,15,14)            8.7572         calculate D2E/DX2 analytically  !
 ! D44   D(4,6,15,32)         -170.373          calculate D2E/DX2 analytically  !
 ! D45   D(7,6,15,14)         -170.8644         calculate D2E/DX2 analytically  !
 ! D46   D(7,6,15,32)           10.0054         calculate D2E/DX2 analytically  !
 ! D47   D(6,7,8,9)              2.474          calculate D2E/DX2 analytically  !
 ! D48   D(6,7,8,34)          -178.2994         calculate D2E/DX2 analytically  !
 ! D49   D(33,7,8,9)          -179.9637         calculate D2E/DX2 analytically  !
 ! D50   D(33,7,8,34)           -0.737          calculate D2E/DX2 analytically  !
 ! D51   D(7,8,9,5)             -1.0894         calculate D2E/DX2 analytically  !
 ! D52   D(7,8,9,12)           177.3762         calculate D2E/DX2 analytically  !
 ! D53   D(34,8,9,5)           179.687          calculate D2E/DX2 analytically  !
 ! D54   D(34,8,9,12)           -1.8473         calculate D2E/DX2 analytically  !
 ! D55   D(5,9,12,11)           -0.2194         calculate D2E/DX2 analytically  !
 ! D56   D(5,9,12,35)         -179.2828         calculate D2E/DX2 analytically  !
 ! D57   D(8,9,12,11)         -178.6875         calculate D2E/DX2 analytically  !
 ! D58   D(8,9,12,35)            2.2491         calculate D2E/DX2 analytically  !
 ! D59   D(3,10,11,12)           0.057          calculate D2E/DX2 analytically  !
 ! D60   D(3,10,11,36)        -179.6929         calculate D2E/DX2 analytically  !
 ! D61   D(18,10,11,12)       -175.9118         calculate D2E/DX2 analytically  !
 ! D62   D(18,10,11,36)          4.3384         calculate D2E/DX2 analytically  !
 ! D63   D(3,10,18,17)           3.6051         calculate D2E/DX2 analytically  !
 ! D64   D(3,10,18,37)        -173.0485         calculate D2E/DX2 analytically  !
 ! D65   D(11,10,18,17)        179.6072         calculate D2E/DX2 analytically  !
 ! D66   D(11,10,18,37)          2.9537         calculate D2E/DX2 analytically  !
 ! D67   D(10,11,12,9)           2.4314         calculate D2E/DX2 analytically  !
 ! D68   D(10,11,12,35)       -178.4952         calculate D2E/DX2 analytically  !
 ! D69   D(36,11,12,9)        -177.8182         calculate D2E/DX2 analytically  !
 ! D70   D(36,11,12,35)          1.2552         calculate D2E/DX2 analytically  !
 ! D71   D(1,13,14,15)           4.9974         calculate D2E/DX2 analytically  !
 ! D72   D(1,13,14,31)         138.4415         calculate D2E/DX2 analytically  !
 ! D73   D(1,13,14,46)        -100.0949         calculate D2E/DX2 analytically  !
 ! D74   D(13,14,15,6)         -15.0825         calculate D2E/DX2 analytically  !
 ! D75   D(13,14,15,32)        164.0686         calculate D2E/DX2 analytically  !
 ! D76   D(31,14,15,6)        -148.3598         calculate D2E/DX2 analytically  !
 ! D77   D(31,14,15,32)         30.7913         calculate D2E/DX2 analytically  !
 ! D78   D(46,14,15,6)          51.8515         calculate D2E/DX2 analytically  !
 ! D79   D(46,14,15,32)       -128.9974         calculate D2E/DX2 analytically  !
 ! D80   D(2,16,17,18)         -12.9346         calculate D2E/DX2 analytically  !
 ! D81   D(2,16,17,22)         163.0037         calculate D2E/DX2 analytically  !
 ! D82   D(19,16,17,18)        170.6302         calculate D2E/DX2 analytically  !
 ! D83   D(19,16,17,22)        -13.4315         calculate D2E/DX2 analytically  !
 ! D84   D(2,16,19,20)        -154.3786         calculate D2E/DX2 analytically  !
 ! D85   D(2,16,19,23)          28.0751         calculate D2E/DX2 analytically  !
 ! D86   D(17,16,19,20)         21.6732         calculate D2E/DX2 analytically  !
 ! D87   D(17,16,19,23)       -155.8731         calculate D2E/DX2 analytically  !
 ! D88   D(16,17,18,10)          6.1513         calculate D2E/DX2 analytically  !
 ! D89   D(16,17,18,37)       -177.1053         calculate D2E/DX2 analytically  !
 ! D90   D(22,17,18,10)       -169.7759         calculate D2E/DX2 analytically  !
 ! D91   D(22,17,18,37)          6.9675         calculate D2E/DX2 analytically  !
 ! D92   D(16,17,22,21)         -2.1837         calculate D2E/DX2 analytically  !
 ! D93   D(16,17,22,38)       -178.1023         calculate D2E/DX2 analytically  !
 ! D94   D(18,17,22,21)        173.9473         calculate D2E/DX2 analytically  !
 ! D95   D(18,17,22,38)         -1.9713         calculate D2E/DX2 analytically  !
 ! D96   D(16,19,20,21)        -14.8341         calculate D2E/DX2 analytically  !
 ! D97   D(16,19,20,26)        167.8747         calculate D2E/DX2 analytically  !
 ! D98   D(23,19,20,21)        162.8693         calculate D2E/DX2 analytically  !
 ! D99   D(23,19,20,26)        -14.4219         calculate D2E/DX2 analytically  !
 ! D100  D(16,19,23,24)       -167.9901         calculate D2E/DX2 analytically  !
 ! D101  D(16,19,23,30)         19.341          calculate D2E/DX2 analytically  !
 ! D102  D(20,19,23,24)         14.4625         calculate D2E/DX2 analytically  !
 ! D103  D(20,19,23,30)       -158.2064         calculate D2E/DX2 analytically  !
 ! D104  D(19,20,21,22)         -0.886          calculate D2E/DX2 analytically  !
 ! D105  D(19,20,21,39)       -176.9467         calculate D2E/DX2 analytically  !
 ! D106  D(26,20,21,22)        176.4168         calculate D2E/DX2 analytically  !
 ! D107  D(26,20,21,39)          0.3561         calculate D2E/DX2 analytically  !
 ! D108  D(19,20,26,25)          4.2719         calculate D2E/DX2 analytically  !
 ! D109  D(19,20,26,40)       -175.6475         calculate D2E/DX2 analytically  !
 ! D110  D(21,20,26,25)       -173.0296         calculate D2E/DX2 analytically  !
 ! D111  D(21,20,26,40)          7.0511         calculate D2E/DX2 analytically  !
 ! D112  D(20,21,22,17)          9.6081         calculate D2E/DX2 analytically  !
 ! D113  D(20,21,22,38)       -174.5694         calculate D2E/DX2 analytically  !
 ! D114  D(39,21,22,17)       -174.4213         calculate D2E/DX2 analytically  !
 ! D115  D(39,21,22,38)          1.4012         calculate D2E/DX2 analytically  !
 ! D116  D(19,23,24,25)         -4.5714         calculate D2E/DX2 analytically  !
 ! D117  D(19,23,24,27)        179.7761         calculate D2E/DX2 analytically  !
 ! D118  D(30,23,24,25)        168.5296         calculate D2E/DX2 analytically  !
 ! D119  D(30,23,24,27)         -7.1229         calculate D2E/DX2 analytically  !
 ! D120  D(19,23,30,29)        176.7876         calculate D2E/DX2 analytically  !
 ! D121  D(19,23,30,45)         -0.1757         calculate D2E/DX2 analytically  !
 ! D122  D(24,23,30,29)          3.9928         calculate D2E/DX2 analytically  !
 ! D123  D(24,23,30,45)       -172.9705         calculate D2E/DX2 analytically  !
 ! D124  D(23,24,25,26)         -5.8422         calculate D2E/DX2 analytically  !
 ! D125  D(23,24,25,41)        178.5701         calculate D2E/DX2 analytically  !
 ! D126  D(27,24,25,26)        169.7701         calculate D2E/DX2 analytically  !
 ! D127  D(27,24,25,41)         -5.8175         calculate D2E/DX2 analytically  !
 ! D128  D(23,24,27,28)          4.891          calculate D2E/DX2 analytically  !
 ! D129  D(23,24,27,42)       -177.7392         calculate D2E/DX2 analytically  !
 ! D130  D(25,24,27,28)       -170.7147         calculate D2E/DX2 analytically  !
 ! D131  D(25,24,27,42)          6.6551         calculate D2E/DX2 analytically  !
 ! D132  D(24,25,26,20)          6.1267         calculate D2E/DX2 analytically  !
 ! D133  D(24,25,26,40)       -173.9557         calculate D2E/DX2 analytically  !
 ! D134  D(41,25,26,20)       -178.3656         calculate D2E/DX2 analytically  !
 ! D135  D(41,25,26,40)          1.5521         calculate D2E/DX2 analytically  !
 ! D136  D(24,27,28,29)          0.7627         calculate D2E/DX2 analytically  !
 ! D137  D(24,27,28,43)        178.473          calculate D2E/DX2 analytically  !
 ! D138  D(42,27,28,29)       -176.557          calculate D2E/DX2 analytically  !
 ! D139  D(42,27,28,43)          1.1534         calculate D2E/DX2 analytically  !
 ! D140  D(27,28,29,30)         -4.0296         calculate D2E/DX2 analytically  !
 ! D141  D(27,28,29,44)        175.8555         calculate D2E/DX2 analytically  !
 ! D142  D(43,28,29,30)        178.2557         calculate D2E/DX2 analytically  !
 ! D143  D(43,28,29,44)         -1.8591         calculate D2E/DX2 analytically  !
 ! D144  D(28,29,30,23)          1.5595         calculate D2E/DX2 analytically  !
 ! D145  D(28,29,30,45)        178.5291         calculate D2E/DX2 analytically  !
 ! D146  D(44,29,30,23)       -178.3259         calculate D2E/DX2 analytically  !
 ! D147  D(44,29,30,45)         -1.3563         calculate D2E/DX2 analytically  !
 --------------------------------------------------------------------------------
 Trust Radius=3.00D-01 FncErr=1.00D-07 GrdErr=1.00D-06 EigMax=2.50D+02 EigMin=1.00D-04
 Number of steps in this run=    276 maximum allowed number of steps=    276.
 Search for a saddle point of order  1.
 GradGradGradGradGradGradGradGradGradGradGradGradGradGradGradGradGradGrad

                          Input orientation:                          
 ---------------------------------------------------------------------
 Center     Atomic      Atomic             Coordinates (Angstroms)
 Number     Number       Type             X           Y           Z
 ---------------------------------------------------------------------
      1          6           0        0.785200   -0.978400   -0.432900
      2          6           0        0.440900    0.456100   -0.091300
      3          6           0        1.682100    1.099200    0.105600
      4          6           0        2.202600   -1.056500   -0.337300
      5          6           0        2.739100    0.190800   -0.019400
      6          6           0        3.042800   -2.195200   -0.425300
      7          6           0        4.452600   -1.950300   -0.126800
      8          6           0        4.941400   -0.700300    0.162500
      9          6           0        4.068000    0.458600    0.241600
     10          6           0        1.938600    2.448800    0.375500
     11          6           0        3.323900    2.775300    0.609600
     12          6           0        4.338900    1.829600    0.571700
     13          6           0        0.104600   -2.044400   -0.997700
     14          6           0        0.971200   -3.273100   -1.234200
     15          6           0        2.398700   -3.355100   -0.785800
     16          6           0       -0.705100    1.274400   -0.013500
     17          6           0       -0.461900    2.717900    0.049500
     18          6           0        0.806300    3.274700    0.299500
     19          6           0       -2.084900    0.814200   -0.070900
     20          6           0       -3.066400    1.722100   -0.525100
     21          6           0       -2.766900    3.122200   -0.609200
     22          6           0       -1.553700    3.603500   -0.241600
     23          6           0       -2.522600   -0.498000    0.355800
     24          6           0       -3.841800   -0.935600    0.018300
     25          6           0       -4.730900   -0.040900   -0.642300
     26          6           0       -4.375000    1.259300   -0.846500
     27          6           0       -4.281000   -2.218900    0.425400
     28          6           0       -3.496300   -3.015500    1.226600
     29          6           0       -2.243900   -2.540800    1.661500
     30          6           0       -1.765700   -1.325000    1.225000
     31          1           0        0.423500   -4.185700   -0.960300
     32          1           0        2.891500   -4.323500   -0.740400
     33          1           0        5.140800   -2.787700   -0.175200
     34          1           0        6.003800   -0.580700    0.348100
     35          1           0        5.355600    2.144700    0.782400
     36          1           0        3.585800    3.805600    0.829300
     37          1           0        0.891500    4.354000    0.377100
     38          1           0       -1.365700    4.671700   -0.225600
     39          1           0       -3.558500    3.798600   -0.913900
     40          1           0       -5.085600    1.966900   -1.260600
     41          1           0       -5.720700   -0.392300   -0.913900
     42          1           0       -5.271800   -2.546000    0.127100
     43          1           0       -3.853800   -3.986000    1.552000
     44          1           0       -1.650000   -3.134900    2.347300
     45          1           0       -0.813400   -0.973300    1.592300
     46          1           0        0.680430   -2.483560   -2.111770
 ---------------------------------------------------------------------
                    Distance matrix (angstroms):
                    1          2          3          4          5
     1  C    0.000000
     2  C    1.514273   0.000000
     3  C    2.326120   1.411710   0.000000
     4  C    1.422766   2.334965   2.261443   0.000000
     5  C    2.314246   2.314579   1.399309   1.394507   0.000000
     6  C    2.564648   3.729723   3.603669   1.417857   2.439259
     7  C    3.806325   4.678222   4.126637   2.430162   2.744436
     8  C    4.207831   4.653620   3.723503   2.806725   2.382703
     9  C    3.646463   3.642346   2.474143   2.471916   1.380512
    10  C    3.705340   2.536111   1.400021   3.586768   2.428026
    11  C    4.649954   3.765852   2.399757   4.103246   2.723467
    12  C    4.639275   4.185747   2.794516   3.704002   2.365254
    13  C    1.385125   2.680888   3.686190   2.411157   3.590791
    14  C    2.437689   3.936289   4.627899   2.689627   4.074287
    15  C    2.894240   4.340571   4.598793   2.350142   3.643713
    16  C    2.733496   1.410313   2.396582   3.740676   3.610642
    17  C    3.930725   2.439388   2.687019   4.636299   4.078895
    18  C    4.315752   2.868928   2.353173   4.595047   3.653471
    19  C    3.403224   2.551140   3.781887   4.685418   4.864386
    20  C    4.704894   3.753943   4.830532   5.959719   6.025317
    21  C    5.428021   4.203129   4.939339   6.498569   6.265541
    22  C    5.147898   3.729229   4.106394   5.986196   5.488536
    23  C    3.434294   3.145240   4.504792   4.808308   5.319841
    24  C    4.649144   4.504482   5.887402   6.056058   6.676709
    25  C    5.599117   5.224761   6.556352   7.014121   7.499506
    26  C    5.639684   4.940481   6.133562   6.991926   7.241285
    27  C    5.286010   5.451508   6.831590   6.630984   7.435476
    28  C    5.023441   5.412062   6.708444   6.225827   7.121312
    29  C    4.000381   4.388835   5.575294   5.096048   5.925990
    30  C    3.062002   3.126347   4.360863   4.273205   4.913187
    31  H    3.270436   4.722475   5.536279   3.653111   5.039945
    32  H    3.964940   5.410300   5.619968   3.363088   4.574054
    33  H    4.723476   5.711247   5.210513   3.414140   3.829347
    34  H    5.291683   5.675728   4.643055   3.891694   3.374690
    35  H    5.667386   5.269630   3.878883   4.630639   3.362541
    36  H    5.685347   4.685835   3.387096   5.187891   3.808408
    37  H    5.394617   3.951717   3.360429   5.612741   4.571988
    38  H    6.049213   4.588368   4.707604   6.749631   6.080326
    39  H    6.474474   5.276758   5.982477   7.556106   7.312737
    40  H    6.620134   5.847391   6.958532   7.944261   8.119177
    41  H    6.549932   6.273896   7.620066   7.971970   8.526919
    42  H    6.281578   6.457185   7.851412   7.635505   8.466762
    43  H    5.874164   6.393523   7.654902   6.987947   7.961237
    44  H    4.279042   4.818082   5.835727   5.135110   5.993809
    45  H    2.580113   2.539874   3.568340   3.581415   4.070990
    46  H    2.257230   3.575091   4.330848   2.739023   3.970936
                    6          7          8          9         10
     6  C    0.000000
     7  C    1.461716   0.000000
     8  C    2.486949   1.372997   0.000000
     9  C    2.922062   2.467070   1.453318   0.000000
    10  C    4.840173   5.091619   4.356490   2.917734   0.000000
    11  C    5.084870   4.914015   3.859534   2.460936   1.442380
    12  C    4.344295   3.845578   2.632650   1.435964   2.486633
    13  C    2.997232   4.435361   5.152408   4.848651   5.043618
    14  C    2.471379   3.885393   4.932804   5.068899   6.022220
    15  C    1.374843   2.574150   3.796388   4.287939   5.936798
    16  C    5.123910   6.083864   5.984428   4.849030   2.918850
    17  C    6.053669   6.780522   6.394725   5.065702   2.437435
    18  C    5.953744   6.385754   5.737460   4.309578   1.403563
    19  C    5.956122   7.098203   7.191459   6.171085   4.365746
    20  C    7.257928   8.377382   8.394384   7.285872   5.137042
    21  C    7.877892   8.836523   8.638571   7.384747   4.854362
    22  C    7.401789   8.181290   7.802071   6.459674   3.729652
    23  C    5.870629   7.141113   7.469243   6.660641   5.346618
    24  C    7.012923   8.357496   8.787534   8.034836   6.707815
    25  C    8.069604   9.394052   9.728098   8.857281   7.191436
    26  C    8.193579   9.420511   9.573579   8.550399   6.539858
    27  C    7.373079   8.755161   9.350290   8.769754   7.776460
    28  C    6.794225   8.133348   8.814037   8.382018   7.753779
    29  C    5.694152   6.956279   7.567230   7.131101   6.636506
    30  C    5.157752   6.394186   6.819410   6.179026   5.355843
    31  H    3.333024   4.682455   5.815506   6.024655   6.935163
    32  H    2.156813   2.906134   4.259683   5.021649   6.929452
    33  H    2.194359   1.084989   2.123921   3.444283   6.162653
    34  H    3.460098   2.123100   1.085102   2.199729   5.069958
    35  H    5.063824   4.290813   2.941065   2.189363   3.454553
    36  H    6.154549   5.898801   4.752411   3.432247   2.181767
    37  H    6.940026   7.258068   6.480254   5.028186   2.173984
    38  H    8.162663   8.815512   8.293884   6.891559   4.027531
    39  H    8.929811   9.891769   9.677140   8.405610   5.805396
    40  H    9.170152  10.373390  10.472817   9.397870   7.228308
    41  H    8.960363  10.321963  10.720722   9.893324   8.270386
    42  H    8.340311   9.745937  10.378695   9.811860   8.774941
    43  H    7.394577   8.715430   9.491158   9.177501   8.737431
    44  H    5.531068   6.690753   7.358477   7.074089   6.924143
    45  H    4.520401   5.624997   5.936041   5.263344   4.556849
    46  H    2.916869   4.295781   5.148610   5.066585   5.665481
                   11         12         13         14         15
    11  C    0.000000
    12  C    1.387808   0.000000
    13  C    6.014716   5.949806   0.000000
    14  C    6.746698   6.374969   1.522048   0.000000
    15  C    6.354915   5.699851   2.650610   1.498514   0.000000
    16  C    4.344398   5.108096   3.555095   4.997984   5.626926
    17  C    3.827439   4.910138   4.908875   6.292356   6.764768
    18  C    2.585319   3.826443   5.519777   6.727043   6.904192
    19  C    5.793454   6.535226   3.718126   5.234409   6.164156
    20  C    6.575158   7.486855   4.946222   6.461970   7.464130
    21  C    6.221226   7.318315   5.923698   7.433968   8.286738
    22  C    5.020103   6.207327   5.934679   7.392429   8.021205
    23  C    6.705257   7.248760   3.335490   4.736657   5.803918
    24  C    8.091209   8.653117   4.223241   5.495237   6.741246
    25  C    8.624270   9.339906   5.246178   6.581140   7.863569
    26  C    7.980698   8.846954   5.568134   7.019602   8.196303
    27  C    9.100026   9.524412   4.614017   5.608138   6.883048
    28  C    8.968232   9.235488   4.342468   5.106902   6.238278
    29  C    7.769672   7.976297   3.582347   4.388418   5.310941
    30  C    6.564694   6.902495   2.992650   4.163338   5.050431
    31  H    7.702755   7.339020   2.165239   1.099016   2.149828
    32  H    7.238952   6.455789   3.609337   2.243821   1.087525
    33  H    5.904575   4.745562   5.156773   4.329279   2.865988
    34  H    4.302672   2.937930   6.225284   5.922816   4.688259
    35  H    2.134320   1.085063   6.949123   7.255494   6.438191
    36  H    1.085531   2.130280   7.048346   7.823181   7.435952
    37  H    2.909110   4.277269   6.591571   7.795851   7.940668
    38  H    5.127011   6.423059   6.918376   8.342555   8.883358
    39  H    7.122894   8.273626   6.896809   8.404149   9.310213
    40  H    8.652794   9.601946   6.564893   8.008940   9.195861
    41  H    9.703583  10.408621   6.055624   7.292676   8.644030
    42  H   10.121023  10.569253   5.515655   6.430930   7.766891
    43  H    9.905689  10.094678   5.093104   5.617095   6.705006
    44  H    7.917686   7.979094   3.931518   4.440375   5.124137
    45  H    5.668770   5.953492   2.949251   4.057460   4.652517
    46  H    6.484551   6.260093   1.328756   1.215751   2.338852
                   16         17         18         19         20
    16  C    0.000000
    17  C    1.465199   0.000000
    18  C    2.526559   1.407429   0.000000
    19  C    1.455653   2.504536   3.814485   0.000000
    20  C    2.457215   2.846964   4.253039   1.412063   0.000000
    21  C    2.832003   2.431125   3.690088   2.466121   1.434243
    22  C    2.489349   1.435637   2.443460   2.844557   2.430699
    23  C    2.565364   3.831751   5.031701   1.447592   2.449601
    24  C    3.837186   4.977224   6.277781   2.481220   2.821329
    25  C    4.281643   5.129710   6.522329   2.838840   2.427440
    26  C    3.763281   4.271145   5.676356   2.458501   1.424751
    27  C    5.018251   6.252905   7.488399   3.777415   4.232043
    28  C    5.266107   6.592801   7.677141   4.282775   5.069331
    29  C    4.441766   5.781695   6.706624   3.779222   4.861074
    30  C    3.068491   4.407577   5.350605   2.521393   3.746931
    31  H    5.655339   7.033017   7.575698   5.664107   6.875384
    32  H    6.693310   7.839040   7.947458   7.183923   8.490713
    33  H    7.120488   7.858268   7.467659   8.074361   9.371172
    34  H    6.970042   7.264654   6.471513   8.218782   9.398611
    35  H    6.174380   5.891435   4.712348   7.606536   8.533360
    36  H    5.052634   4.263221   2.878917   6.474231   7.101207
    37  H    3.490793   2.148450   1.085435   4.646487   4.837958
    38  H    3.467424   2.170223   2.635322   3.927020   3.417926
    39  H    3.914613   3.418331   4.560514   3.433481   2.169143
    40  H    4.606907   4.864048   6.233678   3.427580   2.162881
    41  H    5.361423   6.185181   7.584257   3.922414   3.415723
    42  H    5.955667   7.130905   8.417456   4.635351   4.848281
    43  H    6.327473   7.661904   8.717973   5.367004   6.125092
    44  H    5.090004   6.398964   7.163091   4.651045   5.817845
    45  H    2.764503   4.016060   4.726549   2.752835   4.101777
    46  H    4.521581   5.747277   6.244007   4.763131   5.851823
                   21         22         23         24         25
    21  C    0.000000
    22  C    1.355962   0.000000
    23  C    3.754565   4.256519   0.000000
    24  C    4.244397   5.089831   1.430276   0.000000
    25  C    3.723385   4.851475   2.466117   1.423861   0.000000
    26  C    2.472386   3.717649   2.822236   2.418629   1.363408
    27  C    5.647145   6.464008   2.461364   1.416152   2.466998
    28  C    6.447755   7.052692   2.836228   2.430091   3.723610
    29  C    6.123657   6.469203   2.440401   2.798224   4.212145
    30  C    4.913683   5.146452   1.418568   2.432683   3.732041
    31  H    7.981687   8.068301   4.900077   5.451018   6.621807
    32  H    9.352708   9.101974   6.719270   7.575673   8.743642
    33  H    9.881649   9.255710   8.015759   9.173594  10.257366
    34  H    9.568337   8.658584   8.526805   9.857513  10.793797
    35  H    8.298618   7.135482   8.320570   9.729556  10.418450
    36  H    6.549284   5.253773   7.487171   8.849064   9.280553
    37  H    3.984220   2.631548   5.932827   7.107231   7.208724
    38  H    2.124020   1.084736   5.329375   6.134523   5.805757
    39  H    1.084892   2.123505   4.598478   4.833415   4.023686
    40  H    2.671219   4.023821   3.906079   3.406924   2.130579
    41  H    4.601031   5.812254   3.442551   2.166665   1.084874
    42  H    6.240605   7.195593   3.435798   2.156415   2.675832
    43  H    7.508571   8.130681   3.920348   3.414282   4.598703
    44  H    7.009968   7.219260   3.417710   3.881385   5.291738
    45  H    5.043400   4.985813   2.162454   3.413225   4.605390
    46  H    6.750285   6.748420   4.504526   5.232967   6.116243
                   26         27         28         29         30
    26  C    0.000000
    27  C    3.704651   0.000000
    28  C    4.831539   1.375590   0.000000
    29  C    5.027167   2.404442   1.408185   0.000000
    30  C    4.216416   2.786602   2.419250   1.377453   0.000000
    31  H    7.258552   5.284012   4.638613   4.085897   4.213281
    32  H    9.164111   7.565262   6.810576   5.943019   5.877356
    33  H   10.362398   9.458043   8.753081   7.613686   7.197207
    34  H   10.608118  10.414739   9.846416   8.578553   7.854175
    35  H    9.905646  10.584541  10.255784   8.971016   7.933954
    36  H    8.524452   9.916868   9.840802   8.657641   7.424162
    37  H    6.229798   8.364216   8.618815   7.682362   6.326981
    38  H    4.591936   7.510203   8.108106   7.506833   6.182609
    39  H    2.668194   6.206935   7.142658   6.967701   5.834407
    40  H    1.084956   4.583765   5.791058   6.077276   5.294955
    41  H    2.131486   2.683827   4.051034   4.830826   4.592042
    42  H    4.028952   1.085201   2.140498   3.394494   3.871558
    43  H    5.791168   2.138778   1.084233   2.166188   3.398237
    44  H    6.077415   3.384511   2.163111   1.084432   2.132764
    45  H    4.859757   3.864896   3.391500   2.123246   1.079573
    46  H    6.416173   5.578805   5.373337   4.774154   4.296492
                   31         32         33         34         35
    31  H    0.000000
    32  H    2.481606   0.000000
    33  H    4.982339   2.781633   0.000000
    34  H    6.771092   4.987965   2.426821   0.000000
    35  H    8.211978   7.087194   5.029086   2.834887   0.000000
    36  H    8.778592   8.308326   6.848259   5.031690   2.427546
    37  H    8.656451   8.974843   8.328593   7.105471   4.997346
    38  H    9.066121   9.965059   9.898471   9.067876   7.251046
    39  H    8.922305  10.373096  10.936309  10.592851   9.223557
    40  H    8.264070  10.172210  11.329765  11.491430  10.640682
    41  H    7.221027   9.468602  11.147009  11.793729  11.489048
    42  H    6.025570   8.399496  10.419791  11.447725  11.635021
    43  H    4.964557   7.132186   9.236989  10.498463  11.090122
    44  H    4.042747   5.618886   7.252484   8.312725   8.910753
    45  H    4.285464   5.512859   6.470595   6.940921   6.959484
    46  H    2.071033   3.186670   4.872136   6.165234   7.187087
                   36         37         38         39         40
    36  H    0.000000
    37  H    2.786482   0.000000
    38  H    5.136175   2.357781   0.000000
    39  H    7.353898   4.666653   2.458543   0.000000
    40  H    9.107232   6.641237   4.714321   2.409847   0.000000
    41  H   10.357222   8.241070   6.714453   4.715798   2.467666
    42  H   10.922133   9.255202   8.214451   6.653798   4.725108
    43  H   10.797174   9.667154   9.181845   8.171160   6.698139
    44  H    8.825444   8.150125   8.224576   7.896279   7.130824
    45  H    6.540108   5.723943   5.956158   6.048772   5.919080
    46  H    7.526261   7.279509   7.677371   7.672611   7.333361
                   41         42         43         44         45
    41  H    0.000000
    42  H    2.433848   0.000000
    43  H    4.741377   2.472785   0.000000
    44  H    5.893036   4.288767   2.492711   0.000000
    45  H    5.540775   4.949498   4.280423   2.437712   0.000000
    46  H    6.839790   6.359676   6.019948   5.073308   4.269959
                   46
    46  H    0.000000
 Stoichiometry    C30H16
 Framework group  C1[X(C30H16)]
 Deg. of freedom   132
 Full point group                 C1      NOp   1
 Largest Abelian subgroup         C1      NOp   1
 Largest concise Abelian subgroup C1      NOp   1
                         Standard orientation:                         
 ---------------------------------------------------------------------
 Center     Atomic      Atomic             Coordinates (Angstroms)
 Number     Number       Type             X           Y           Z
 ---------------------------------------------------------------------
      1          6           0        0.784624   -0.982941   -0.437510
      2          6           0        0.443260    0.451147   -0.091266
      3          6           0        1.685796    1.091244    0.106986
      4          6           0        2.201920   -1.064062   -0.342895
      5          6           0        2.740982    0.181209   -0.021394
      6          6           0        3.039883   -2.204095   -0.434879
      7          6           0        4.450306   -1.962835   -0.136355
      8          6           0        4.941658   -0.714684    0.156579
      9          6           0        4.070529    0.445640    0.239744
     10          6           0        1.945030    2.439502    0.380953
     11          6           0        3.331076    2.762609    0.615344
     12          6           0        4.344236    1.815083    0.573969
     13          6           0        0.101683   -2.045867   -1.005271
     14          6           0        0.965796   -3.275488   -1.246048
     15          6           0        2.393367   -3.361627   -0.798652
     16          6           0       -0.701124    1.271401   -0.010320
     17          6           0       -0.455116    2.714228    0.057047
     18          6           0        0.814282    3.267809    0.308116
     19          6           0       -2.081836    0.814034   -0.068431
     20          6           0       -3.061823    1.725229   -0.519288
     21          6           0       -2.759674    3.125006   -0.599186
     22          6           0       -1.545361    3.602826   -0.230723
     23          6           0       -2.521838   -0.498645    0.354411
     24          6           0       -3.842052   -0.932656    0.016240
     25          6           0       -4.729771   -0.034196   -0.641106
     26          6           0       -4.371476    1.265947   -0.841444
     27          6           0       -4.283508   -2.216371    0.419572
     28          6           0       -3.499928   -3.016969    1.217878
     29          6           0       -2.246392   -2.546033    1.653599
     30          6           0       -1.766081   -1.329801    1.220636
     31          1           0        0.416484   -4.187882   -0.974704
     32          1           0        2.884327   -4.331109   -0.756525
     33          1           0        5.136869   -2.801401   -0.187722
     34          1           0        6.004382   -0.597704    0.341995
     35          1           0        5.361649    2.127571    0.785117
     36          1           0        3.595071    3.791714    0.838113
     37          1           0        0.901597    4.346696    0.389032
     38          1           0       -1.355299    4.670608   -0.211496
     39          1           0       -3.550129    3.803871   -0.901364
     40          1           0       -5.080928    1.976198   -1.252967
     41          1           0       -5.720385   -0.382846   -0.913282
     42          1           0       -5.275090   -2.540636    0.120773
     43          1           0       -3.859125   -3.987789    1.540441
     44          1           0       -1.653282   -3.143406    2.337235
     45          1           0       -0.812917   -0.981077    1.588531
     46          1           0        0.676091   -2.482661   -2.121003
 ---------------------------------------------------------------------
 Rotational constants (GHZ):           0.2716298           0.1468180           0.1019353
 Standard basis: 6-311+G(d,p) (5D, 7F)
 There are   786 symmetry adapted cartesian basis functions of A   symmetry.
 There are   756 symmetry adapted basis functions of A   symmetry.
   756 basis functions,  1208 primitive gaussians,   786 cartesian basis functions
    98 alpha electrons       98 beta electrons
       nuclear repulsion energy      2593.3361964607 Hartrees.
 NAtoms=   46 NActive=   46 NUniq=   46 SFac= 1.00D+00 NAtFMM=   60 NAOKFM=F Big=F
 Integral buffers will be    131072 words long.
 Raffenetti 2 integral format.
 Two-electron integral symmetry is turned on.
 One-electron integrals computed using PRISM.
 NBasis=   756 RedAO= T EigKep=  1.02D-06  NBF=   756
 NBsUse=   736 1.00D-06 EigRej=  8.46D-07 NBFU=   736
 ExpMin= 4.38D-02 ExpMax= 4.56D+03 ExpMxC= 6.82D+02 IAcc=2 IRadAn=         4 AccDes= 0.00D+00
 Harris functional with IExCor=  402 and IRadAn=       4 diagonalized for initial guess.
 HarFok:  IExCor=  402 AccDes= 0.00D+00 IRadAn=         4 IDoV= 1 UseB2=F ITyADJ=14
 ICtDFT=  3500011 ScaDFX=  1.000000  1.000000  1.000000  1.000000
 FoFCou: FMM=F IPFlag=           0 FMFlag=      100000 FMFlg1=           0
         NFxFlg=           0 DoJE=T BraDBF=F KetDBF=T FulRan=T
         wScrn=  0.000000 ICntrl=       500 IOpCl=  0 I1Cent=   200000004 NGrid=           0
         NMat0=    1 NMatS0=      1 NMatT0=    0 NMatD0=    1 NMtDS0=    0 NMtDT0=    0
 Petite list used in FoFCou.
 Requested convergence on RMS density matrix=1.00D-08 within 128 cycles.
 Requested convergence on MAX density matrix=1.00D-06.
 Requested convergence on             energy=1.00D-06.
 No special actions if energy rises.
 SCF Done:  E(RB3LYP) =  -1152.95100198     A.U. after   19 cycles
            NFock= 19  Conv=0.35D-08     -V/T= 2.0045
 DoSCS=F DFT=T ScalE2(SS,OS)=  1.000000  1.000000
 Range of M.O.s used for correlation:     1   736
 NBasis=   756 NAE=    98 NBE=    98 NFC=     0 NFV=     0
 NROrb=    736 NOA=    98 NOB=    98 NVA=   638 NVB=   638

 **** Warning!!: The largest alpha MO coefficient is  0.11973948D+03


 **** Warning!!: The smallest alpha delta epsilon is  0.70684109D-01

 Symmetrizing basis deriv contribution to polar:
 IMax=3 JMax=2 DiffMx= 0.00D+00
 G2DrvN: will do    47 centers at a time, making    1 passes.
 Calling FoFCou, ICntrl=  3107 FMM=F I1Cent=   0 AccDes= 0.00D+00.
 End of G2Drv F.D. properties file   721 does not exist.
 End of G2Drv F.D. properties file   722 does not exist.
 End of G2Drv F.D. properties file   788 does not exist.
          IDoAtm=1111111111111111111111111111111111111111111111
          Differentiating once with respect to nuclear coordinates.
 CalDSu exits because no D1Ps are significant.
          There are   141 degrees of freedom in the 1st order CPHF.  IDoFFX=6 NUNeed=     0.
    136 vectors produced by pass  0 Test12= 6.25D-14 1.00D-09 XBig12= 3.01D-01 1.66D-01.
 AX will form   136 AO Fock derivatives at one time.
    135 vectors produced by pass  1 Test12= 6.25D-14 1.00D-09 XBig12= 9.35D-02 6.26D-02.
    135 vectors produced by pass  2 Test12= 6.25D-14 1.00D-09 XBig12= 1.21D-03 5.64D-03.
    135 vectors produced by pass  3 Test12= 6.25D-14 1.00D-09 XBig12= 7.65D-06 2.60D-04.
    135 vectors produced by pass  4 Test12= 6.25D-14 1.00D-09 XBig12= 2.62D-08 1.11D-05.
    135 vectors produced by pass  5 Test12= 6.25D-14 1.00D-09 XBig12= 9.47D-11 6.72D-07.
    107 vectors produced by pass  6 Test12= 6.25D-14 1.00D-09 XBig12= 1.31D-11 2.85D-07.
     81 vectors produced by pass  7 Test12= 6.25D-14 1.00D-09 XBig12= 1.55D-12 8.27D-08.
     37 vectors produced by pass  8 Test12= 6.25D-14 1.00D-09 XBig12= 9.01D-14 1.83D-08.
      5 vectors produced by pass  9 Test12= 6.25D-14 1.00D-09 XBig12= 8.00D-16 2.00D-09.
      1 vectors produced by pass 10 Test12= 6.25D-14 1.00D-09 XBig12= 3.73D-16 1.35D-09.
 InvSVY:  IOpt=1 It=  1 EMax= 1.05D-15
 Solved reduced A of dimension  1042 with   141 vectors.
 End of Minotr F.D. properties file   721 does not exist.
 End of Minotr F.D. properties file   722 does not exist.
 End of Minotr F.D. properties file   788 does not exist.

 **********************************************************************

            Population analysis using the SCF Density.

 **********************************************************************

 Orbital symmetries:
       Occupied  (A) (A) (A) (A) (A) (A) (A) (A) (A) (A) (A) (A)
                 (A) (A) (A) (A) (A) (A) (A) (A) (A) (A) (A) (A)
                 (A) (A) (A) (A) (A) (A) (A) (A) (A) (A) (A) (A)
                 (A) (A) (A) (A) (A) (A) (A) (A) (A) (A) (A) (A)
                 (A) (A) (A) (A) (A) (A) (A) (A) (A) (A) (A) (A)
                 (A) (A) (A) (A) (A) (A) (A) (A) (A) (A) (A) (A)
                 (A) (A) (A) (A) (A) (A) (A) (A) (A) (A) (A) (A)
                 (A) (A) (A) (A) (A) (A) (A) (A) (A) (A) (A) (A)
                 (A) (A)
       Virtual   (A) (A) (A) (A) (A) (A) (A) (A) (A) (A) (A) (A)
                 (A) (A) (A) (A) (A) (A) (A) (A) (A) (A) (A) (A)
                 (A) (A) (A) (A) (A) (A) (A) (A) (A) (A) (A) (A)
                 (A) (A) (A) (A) (A) (A) (A) (A) (A) (A) (A) (A)
                 (A) (A) (A) (A) (A) (A) (A) (A) (A) (A) (A) (A)
                 (A) (A) (A) (A) (A) (A) (A) (A) (A) (A) (A) (A)
                 (A) (A) (A) (A) (A) (A) (A) (A) (A) (A) (A) (A)
                 (A) (A) (A) (A) (A) (A) (A) (A) (A) (A) (A) (A)
                 (A) (A) (A) (A) (A) (A) (A) (A) (A) (A) (A) (A)
                 (A) (A) (A) (A) (A) (A) (A) (A) (A) (A) (A) (A)
                 (A) (A) (A) (A) (A) (A) (A) (A) (A) (A) (A) (A)
                 (A) (A) (A) (A) (A) (A) (A) (A) (A) (A) (A) (A)
                 (A) (A) (A) (A) (A) (A) (A) (A) (A) (A) (A) (A)
                 (A) (A) (A) (A) (A) (A) (A) (A) (A) (A) (A) (A)
                 (A) (A) (A) (A) (A) (A) (A) (A) (A) (A) (A) (A)
                 (A) (A) (A) (A) (A) (A) (A) (A) (A) (A) (A) (A)
                 (A) (A) (A) (A) (A) (A) (A) (A) (A) (A) (A) (A)
                 (A) (A) (A) (A) (A) (A) (A) (A) (A) (A) (A) (A)
                 (A) (A) (A) (A) (A) (A) (A) (A) (A) (A) (A) (A)
                 (A) (A) (A) (A) (A) (A) (A) (A) (A) (A) (A) (A)
                 (A) (A) (A) (A) (A) (A) (A) (A) (A) (A) (A) (A)
                 (A) (A) (A) (A) (A) (A) (A) (A) (A) (A) (A) (A)
                 (A) (A) (A) (A) (A) (A) (A) (A) (A) (A) (A) (A)
                 (A) (A) (A) (A) (A) (A) (A) (A) (A) (A) (A) (A)
                 (A) (A) (A) (A) (A) (A) (A) (A) (A) (A) (A) (A)
                 (A) (A) (A) (A) (A) (A) (A) (A) (A) (A) (A) (A)
                 (A) (A) (A) (A) (A) (A) (A) (A) (A) (A) (A) (A)
                 (A) (A) (A) (A) (A) (A) (A) (A) (A) (A) (A) (A)
                 (A) (A) (A) (A) (A) (A) (A) (A) (A) (A) (A) (A)
                 (A) (A) (A) (A) (A) (A) (A) (A) (A) (A) (A) (A)
                 (A) (A) (A) (A) (A) (A) (A) (A) (A) (A) (A) (A)
                 (A) (A) (A) (A) (A) (A) (A) (A) (A) (A) (A) (A)
                 (A) (A) (A) (A) (A) (A) (A) (A) (A) (A) (A) (A)
                 (A) (A) (A) (A) (A) (A) (A) (A) (A) (A) (A) (A)
                 (A) (A) (A) (A) (A) (A) (A) (A) (A) (A) (A) (A)
                 (A) (A) (A) (A) (A) (A) (A) (A) (A) (A) (A) (A)
                 (A) (A) (A) (A) (A) (A) (A) (A) (A) (A) (A) (A)
                 (A) (A) (A) (A) (A) (A) (A) (A) (A) (A) (A) (A)
                 (A) (A) (A) (A) (A) (A) (A) (A) (A) (A) (A) (A)
                 (A) (A) (A) (A) (A) (A) (A) (A) (A) (A) (A) (A)
                 (A) (A) (A) (A) (A) (A) (A) (A) (A) (A) (A) (A)
                 (A) (A) (A) (A) (A) (A) (A) (A) (A) (A) (A) (A)
                 (A) (A) (A) (A) (A) (A) (A) (A) (A) (A) (A) (A)
                 (A) (A) (A) (A) (A) (A) (A) (A) (A) (A) (A) (A)
                 (A) (A) (A) (A) (A) (A) (A) (A) (A) (A) (A) (A)
                 (A) (A) (A) (A) (A) (A) (A) (A) (A) (A) (A) (A)
                 (A) (A) (A) (A) (A) (A) (A) (A) (A) (A) (A) (A)
                 (A) (A) (A) (A) (A) (A) (A) (A) (A) (A) (A) (A)
                 (A) (A) (A) (A) (A) (A) (A) (A) (A) (A) (A) (A)
                 (A) (A) (A) (A) (A) (A) (A) (A) (A) (A) (A) (A)
                 (A) (A) (A) (A) (A) (A) (A) (A) (A) (A) (A) (A)
                 (A) (A) (A) (A) (A) (A) (A) (A) (A) (A) (A) (A)
                 (A) (A) (A) (A) (A) (A) (A) (A) (A) (A) (A) (A)
                 (A) (A)
 The electronic state is 1-A.
 Alpha  occ. eigenvalues --  -10.20864 -10.20833 -10.20747 -10.20726 -10.20531
 Alpha  occ. eigenvalues --  -10.20303 -10.20233 -10.20073 -10.19953 -10.19762
 Alpha  occ. eigenvalues --  -10.19622 -10.19333 -10.19276 -10.19250 -10.18933
 Alpha  occ. eigenvalues --  -10.18860 -10.18657 -10.18529 -10.18208 -10.18137
 Alpha  occ. eigenvalues --  -10.18028 -10.17759 -10.17604 -10.17469 -10.17412
 Alpha  occ. eigenvalues --  -10.17099 -10.17025 -10.16872 -10.16805 -10.15652
 Alpha  occ. eigenvalues --   -0.92373  -0.89011  -0.87245  -0.85723  -0.84383
 Alpha  occ. eigenvalues --   -0.82310  -0.81536  -0.79437  -0.78513  -0.76753
 Alpha  occ. eigenvalues --   -0.74709  -0.74281  -0.72837  -0.72310  -0.71311
 Alpha  occ. eigenvalues --   -0.67024  -0.64866  -0.63682  -0.62935  -0.61753
 Alpha  occ. eigenvalues --   -0.61007  -0.60061  -0.58785  -0.56616  -0.54012
 Alpha  occ. eigenvalues --   -0.53324  -0.53113  -0.51600  -0.50589  -0.50271
 Alpha  occ. eigenvalues --   -0.48629  -0.47589  -0.47422  -0.46504  -0.45884
 Alpha  occ. eigenvalues --   -0.44942  -0.44450  -0.43731  -0.43522  -0.42839
 Alpha  occ. eigenvalues --   -0.42640  -0.41972  -0.41464  -0.41135  -0.40546
 Alpha  occ. eigenvalues --   -0.40296  -0.39656  -0.39367  -0.38182  -0.36873
 Alpha  occ. eigenvalues --   -0.36532  -0.36201  -0.35347  -0.35083  -0.34636
 Alpha  occ. eigenvalues --   -0.33387  -0.32940  -0.32422  -0.31601  -0.29758
 Alpha  occ. eigenvalues --   -0.28935  -0.27830  -0.24868  -0.24812  -0.23601
 Alpha  occ. eigenvalues --   -0.21970  -0.20605  -0.18143
 Alpha virt. eigenvalues --   -0.11075  -0.06208  -0.05924  -0.04550  -0.02363
 Alpha virt. eigenvalues --   -0.01235  -0.00230   0.00391   0.00613   0.00813
 Alpha virt. eigenvalues --    0.01201   0.01540   0.01741   0.02409   0.02613
 Alpha virt. eigenvalues --    0.03021   0.03084   0.03250   0.03896   0.04481
 Alpha virt. eigenvalues --    0.04761   0.04831   0.05149   0.05544   0.05784
 Alpha virt. eigenvalues --    0.06236   0.06793   0.07100   0.07331   0.07472
 Alpha virt. eigenvalues --    0.07631   0.08085   0.08385   0.08903   0.09029
 Alpha virt. eigenvalues --    0.09365   0.09571   0.10067   0.10664   0.10772
 Alpha virt. eigenvalues --    0.11101   0.11588   0.11838   0.12085   0.12236
 Alpha virt. eigenvalues --    0.12935   0.13019   0.13496   0.13831   0.14207
 Alpha virt. eigenvalues --    0.14595   0.14814   0.15041   0.15220   0.15606
 Alpha virt. eigenvalues --    0.15826   0.16227   0.16376   0.16547   0.16796
 Alpha virt. eigenvalues --    0.16935   0.17128   0.17343   0.17536   0.17750
 Alpha virt. eigenvalues --    0.17915   0.18159   0.18342   0.18533   0.18877
 Alpha virt. eigenvalues --    0.18905   0.19138   0.19217   0.19600   0.19700
 Alpha virt. eigenvalues --    0.20003   0.20093   0.20209   0.20422   0.20679
 Alpha virt. eigenvalues --    0.21019   0.21150   0.21550   0.21666   0.21737
 Alpha virt. eigenvalues --    0.22026   0.22257   0.22711   0.22747   0.22791
 Alpha virt. eigenvalues --    0.23348   0.23462   0.23581   0.23956   0.24318
 Alpha virt. eigenvalues --    0.24410   0.24455   0.24883   0.25024   0.25202
 Alpha virt. eigenvalues --    0.25476   0.25798   0.25940   0.26425   0.26542
 Alpha virt. eigenvalues --    0.26707   0.26916   0.27216   0.27481   0.27752
 Alpha virt. eigenvalues --    0.27981   0.28344   0.28443   0.29003   0.29068
 Alpha virt. eigenvalues --    0.29288   0.29378   0.29781   0.29847   0.30072
 Alpha virt. eigenvalues --    0.30548   0.30579   0.31191   0.31391   0.31686
 Alpha virt. eigenvalues --    0.31951   0.32273   0.32549   0.32926   0.33046
 Alpha virt. eigenvalues --    0.33243   0.33701   0.33895   0.34591   0.34999
 Alpha virt. eigenvalues --    0.35312   0.35477   0.35838   0.36061   0.36296
 Alpha virt. eigenvalues --    0.37773   0.37848   0.38686   0.39073   0.39141
 Alpha virt. eigenvalues --    0.39961   0.40689   0.41085   0.41567   0.42053
 Alpha virt. eigenvalues --    0.42133   0.42778   0.43703   0.44060   0.44758
 Alpha virt. eigenvalues --    0.45444   0.46191   0.47291   0.47883   0.47995
 Alpha virt. eigenvalues --    0.49097   0.49225   0.49959   0.50824   0.51138
 Alpha virt. eigenvalues --    0.52188   0.52276   0.52849   0.53258   0.53880
 Alpha virt. eigenvalues --    0.54212   0.54857   0.55129   0.55384   0.55627
 Alpha virt. eigenvalues --    0.56269   0.56707   0.56895   0.57320   0.57597
 Alpha virt. eigenvalues --    0.57923   0.58421   0.58697   0.58940   0.59400
 Alpha virt. eigenvalues --    0.59717   0.60002   0.60266   0.60468   0.61154
 Alpha virt. eigenvalues --    0.61726   0.61818   0.62388   0.62854   0.62920
 Alpha virt. eigenvalues --    0.63526   0.64217   0.64930   0.65338   0.65696
 Alpha virt. eigenvalues --    0.65972   0.66350   0.66560   0.67024   0.67149
 Alpha virt. eigenvalues --    0.67861   0.67943   0.68457   0.68803   0.69456
 Alpha virt. eigenvalues --    0.69855   0.69898   0.70381   0.70767   0.71222
 Alpha virt. eigenvalues --    0.71765   0.72156   0.72263   0.72699   0.72832
 Alpha virt. eigenvalues --    0.72987   0.73575   0.73997   0.74598   0.74817
 Alpha virt. eigenvalues --    0.75097   0.75276   0.75481   0.76112   0.76641
 Alpha virt. eigenvalues --    0.77038   0.77363   0.77827   0.78251   0.78760
 Alpha virt. eigenvalues --    0.79340   0.79891   0.80078   0.81384   0.81630
 Alpha virt. eigenvalues --    0.82296   0.82771   0.83199   0.83903   0.84103
 Alpha virt. eigenvalues --    0.84691   0.85673   0.86521   0.86988   0.87179
 Alpha virt. eigenvalues --    0.87671   0.87879   0.88344   0.88850   0.89363
 Alpha virt. eigenvalues --    0.89888   0.90287   0.91086   0.92370   0.92512
 Alpha virt. eigenvalues --    0.92868   0.93332   0.93582   0.93998   0.94156
 Alpha virt. eigenvalues --    0.94751   0.95053   0.95230   0.95811   0.96022
 Alpha virt. eigenvalues --    0.96625   0.96902   0.97453   0.97574   0.98438
 Alpha virt. eigenvalues --    0.98988   0.99294   1.00064   1.00744   1.01124
 Alpha virt. eigenvalues --    1.01947   1.02080   1.02881   1.03773   1.04161
 Alpha virt. eigenvalues --    1.04797   1.05137   1.05835   1.06127   1.06547
 Alpha virt. eigenvalues --    1.07310   1.08037   1.08159   1.08887   1.10411
 Alpha virt. eigenvalues --    1.10720   1.11427   1.11940   1.12710   1.13092
 Alpha virt. eigenvalues --    1.14615   1.14959   1.15441   1.16076   1.17615
 Alpha virt. eigenvalues --    1.17972   1.18834   1.19045   1.20384   1.21150
 Alpha virt. eigenvalues --    1.22101   1.22525   1.24292   1.25596   1.26566
 Alpha virt. eigenvalues --    1.28552   1.29856   1.30652   1.30953   1.33332
 Alpha virt. eigenvalues --    1.34742   1.35353   1.36137   1.36765   1.37419
 Alpha virt. eigenvalues --    1.39159   1.39820   1.40674   1.43332   1.44215
 Alpha virt. eigenvalues --    1.45535   1.45768   1.46562   1.47069   1.48031
 Alpha virt. eigenvalues --    1.48452   1.48642   1.49246   1.49684   1.50449
 Alpha virt. eigenvalues --    1.50810   1.52211   1.52425   1.53121   1.53294
 Alpha virt. eigenvalues --    1.54909   1.55325   1.56087   1.56454   1.56609
 Alpha virt. eigenvalues --    1.57095   1.57746   1.58360   1.58719   1.59444
 Alpha virt. eigenvalues --    1.59707   1.60634   1.61112   1.62093   1.62801
 Alpha virt. eigenvalues --    1.63909   1.65045   1.65316   1.65708   1.66305
 Alpha virt. eigenvalues --    1.67285   1.68632   1.69308   1.70108   1.71316
 Alpha virt. eigenvalues --    1.71876   1.72661   1.72911   1.74291   1.74534
 Alpha virt. eigenvalues --    1.74610   1.75290   1.76235   1.76684   1.77161
 Alpha virt. eigenvalues --    1.77541   1.77883   1.79807   1.80824   1.80914
 Alpha virt. eigenvalues --    1.82211   1.82799   1.83143   1.83418   1.84272
 Alpha virt. eigenvalues --    1.84568   1.85223   1.86162   1.86725   1.87079
 Alpha virt. eigenvalues --    1.87817   1.88267   1.88588   1.89201   1.89589
 Alpha virt. eigenvalues --    1.89999   1.90690   1.90928   1.92581   1.93212
 Alpha virt. eigenvalues --    1.93766   1.94174   1.94872   1.95254   1.95703
 Alpha virt. eigenvalues --    1.97098   1.97425   1.98111   1.98702   1.99532
 Alpha virt. eigenvalues --    2.00081   2.00873   2.01739   2.02055   2.02997
 Alpha virt. eigenvalues --    2.03652   2.04191   2.05094   2.05462   2.06320
 Alpha virt. eigenvalues --    2.07205   2.07519   2.08339   2.09283   2.10260
 Alpha virt. eigenvalues --    2.10960   2.11534   2.12077   2.13443   2.14213
 Alpha virt. eigenvalues --    2.15099   2.15979   2.16994   2.17626   2.18558
 Alpha virt. eigenvalues --    2.19831   2.21082   2.21711   2.22641   2.23005
 Alpha virt. eigenvalues --    2.24843   2.25113   2.26269   2.26667   2.27689
 Alpha virt. eigenvalues --    2.29103   2.30643   2.32616   2.33559   2.35293
 Alpha virt. eigenvalues --    2.35911   2.36464   2.38040   2.39276   2.40771
 Alpha virt. eigenvalues --    2.41762   2.42082   2.43483   2.43762   2.45139
 Alpha virt. eigenvalues --    2.45827   2.46611   2.47893   2.48095   2.49962
 Alpha virt. eigenvalues --    2.52295   2.54211   2.55224   2.56269   2.56859
 Alpha virt. eigenvalues --    2.58062   2.59444   2.61139   2.61978   2.63521
 Alpha virt. eigenvalues --    2.65243   2.66894   2.67757   2.68020   2.69219
 Alpha virt. eigenvalues --    2.70332   2.70819   2.71534   2.72226   2.72343
 Alpha virt. eigenvalues --    2.72388   2.72902   2.73859   2.74054   2.74683
 Alpha virt. eigenvalues --    2.74769   2.75370   2.75685   2.75798   2.76467
 Alpha virt. eigenvalues --    2.77068   2.77365   2.77499   2.77941   2.78300
 Alpha virt. eigenvalues --    2.78528   2.80125   2.80269   2.81003   2.81147
 Alpha virt. eigenvalues --    2.84031   2.84409   2.84985   2.85359   2.85660
 Alpha virt. eigenvalues --    2.86450   2.86781   2.87746   2.88839   2.89720
 Alpha virt. eigenvalues --    2.90305   2.91154   2.92093   2.93157   2.94257
 Alpha virt. eigenvalues --    2.94956   2.95324   2.97350   2.98906   3.00747
 Alpha virt. eigenvalues --    3.02644   3.03252   3.04096   3.05161   3.06617
 Alpha virt. eigenvalues --    3.08721   3.11382   3.11489   3.13067   3.14844
 Alpha virt. eigenvalues --    3.16162   3.16844   3.18932   3.19985   3.20257
 Alpha virt. eigenvalues --    3.21489   3.23192   3.23962   3.24755   3.26171
 Alpha virt. eigenvalues --    3.27079   3.29780   3.32125   3.33299   3.35484
 Alpha virt. eigenvalues --    3.35972   3.36773   3.38587   3.40118   3.40762
 Alpha virt. eigenvalues --    3.42495   3.42918   3.44760   3.45362   3.47023
 Alpha virt. eigenvalues --    3.48971   3.49133   3.50510   3.52942   3.53811
 Alpha virt. eigenvalues --    3.56565   3.57457   3.59371   3.60424   3.63012
 Alpha virt. eigenvalues --    3.65186   3.65727   3.68416   3.72254   3.74739
 Alpha virt. eigenvalues --    3.80627   3.81489   3.83970   3.91829   3.96819
 Alpha virt. eigenvalues --    4.02456   4.05136   4.05232   4.05955   4.07460
 Alpha virt. eigenvalues --    4.08969   4.09562   4.12555   4.20720   4.20964
 Alpha virt. eigenvalues --    4.24760   4.28819   4.33502   4.41743   4.64025
 Alpha virt. eigenvalues --    4.73842   4.74224   4.74814   4.76671   4.80135
 Alpha virt. eigenvalues --    4.80708   4.84546   4.85737  23.42138  23.60424
 Alpha virt. eigenvalues --   23.71562  23.77730  23.79593  23.82181  23.83882
 Alpha virt. eigenvalues --   23.85011  23.86931  23.89943  23.93112  23.93869
 Alpha virt. eigenvalues --   23.97018  23.98294  23.98923  24.01006  24.02091
 Alpha virt. eigenvalues --   24.02897  24.04238  24.07078  24.09986  24.10879
 Alpha virt. eigenvalues --   24.11456  24.13303  24.13377  24.13780  24.19277
 Alpha virt. eigenvalues --   24.19830  24.20688  24.21401
          Condensed to atoms (all electrons):
               1          2          3          4          5          6
     1  C   12.205779   0.581402   0.030772   0.222898  -0.951190  -0.214597
     2  C    0.581402   7.769940   0.562284  -0.298482  -0.506416   0.034089
     3  C    0.030772   0.562284   8.947597   0.527713   0.258968   0.481645
     4  C    0.222898  -0.298482   0.527713   9.548054   2.305995   0.929269
     5  C   -0.951190  -0.506416   0.258968   2.305995   9.944716  -0.681392
     6  C   -0.214597   0.034089   0.481645   0.929269  -0.681392  10.593797
     7  C   -0.709901  -0.309136  -0.777764   0.454223   2.152857  -2.348701
     8  C   -0.103646  -0.027025  -0.723316   0.325860  -1.315394  -1.347064
     9  C   -0.036765   0.042192   0.261209   0.209953   1.133710   0.541935
    10  C   -0.488571  -0.155043   0.990527   0.104833  -0.251969  -0.215076
    11  C   -0.598478  -0.822401   0.468270  -0.247287   1.018862  -0.231431
    12  C    0.313462  -0.205634   0.990129  -1.612503  -2.378712   0.571280
    13  C   -2.516221  -0.424582  -1.560090  -2.397616  -1.424322   0.318465
    14  C   -2.407267  -0.378362  -0.033266  -0.061516  -0.318397  -0.555503
    15  C    0.658236   0.359464  -0.030718  -2.062538  -0.705659  -2.043594
    16  C    0.271797   0.367211  -0.813989  -0.850392  -0.932874   0.095301
    17  C   -1.387528   0.132953   0.128623  -0.499853  -0.051198   0.042947
    18  C   -0.068830  -0.090910  -0.610355  -0.543172  -0.999446  -0.003276
    19  C    0.613216   0.912265   0.791395   0.128517  -0.194441   0.026916
    20  C   -2.015022  -0.975463  -1.720896  -0.707475  -0.239816  -0.033550
    21  C   -0.211868  -0.351559  -0.284552  -0.085088  -0.039675   0.008106
    22  C    0.628365  -0.088942  -1.123754  -0.007802   0.014113   0.043477
    23  C   -0.502859  -0.755044  -0.981059  -0.780861  -0.433808  -0.032093
    24  C   -0.589112  -0.345198  -0.301068  -0.203566  -0.053171  -0.063991
    25  C    0.211295   0.110894  -0.029246   0.027281   0.011808  -0.006824
    26  C    0.084108  -0.175769  -0.435300  -0.056286   0.006757  -0.005901
    27  C   -0.395508  -0.109688  -0.122009  -0.086067  -0.014114  -0.007784
    28  C    0.288735  -0.062435   0.042374   0.080589   0.019603   0.023602
    29  C    0.303393   0.368361   0.075211   0.142170   0.155159  -0.038527
    30  C    2.896885   0.896435   0.889373   1.226668   0.533284   0.125624
    31  H   -0.011451  -0.018014   0.001879   0.046644  -0.003751   0.018446
    32  H    0.000715   0.000144   0.004250   0.041645  -0.011483  -0.055506
    33  H   -0.004435   0.001670   0.000151   0.002937  -0.008674  -0.112967
    34  H   -0.001051   0.001622  -0.013289  -0.003255   0.029040  -0.011715
    35  H    0.002159  -0.000607   0.002691  -0.008773   0.018079   0.006771
    36  H    0.004141  -0.005697   0.018515  -0.003228  -0.022250   0.000956
    37  H    0.000237  -0.011584   0.027487   0.002021  -0.003124  -0.000320
    38  H   -0.001377  -0.013069   0.008156  -0.000194   0.001092   0.000025
    39  H    0.000153  -0.003953  -0.001166   0.000047  -0.000029   0.000004
    40  H   -0.000834   0.002550  -0.000340  -0.000008   0.000005  -0.000003
    41  H    0.000206  -0.000481  -0.000011  -0.000012  -0.000008  -0.000008
    42  H    0.000530   0.000642   0.000103   0.000117   0.000009  -0.000028
    43  H   -0.002042   0.000847  -0.000023  -0.000341  -0.000014  -0.000066
    44  H    0.003478  -0.002175   0.001269   0.002077  -0.000171   0.002253
    45  H   -0.017462  -0.015892   0.003096  -0.008590  -0.016307   0.001328
    46  H    0.090691  -0.037758   0.013985   0.055050   0.015527   0.033795
               7          8          9         10         11         12
     1  C   -0.709901  -0.103646  -0.036765  -0.488571  -0.598478   0.313462
     2  C   -0.309136  -0.027025   0.042192  -0.155043  -0.822401  -0.205634
     3  C   -0.777764  -0.723316   0.261209   0.990527   0.468270   0.990129
     4  C    0.454223   0.325860   0.209953   0.104833  -0.247287  -1.612503
     5  C    2.152857  -1.315394   1.133710  -0.251969   1.018862  -2.378712
     6  C   -2.348701  -1.347064   0.541935  -0.215076  -0.231431   0.571280
     7  C   11.312137   0.415838  -1.372137  -0.313821   0.215983  -1.302272
     8  C    0.415838   9.363992  -0.928473   0.445279  -0.294210  -0.390689
     9  C   -1.372137  -0.928473  10.100254   0.015121  -0.861529  -1.821737
    10  C   -0.313821   0.445279   0.015121  10.168647  -0.461672  -1.057113
    11  C    0.215983  -0.294210  -0.861529  -0.461672   9.829519   1.514000
    12  C   -1.302272  -0.390689  -1.821737  -1.057113   1.514000  11.170305
    13  C   -0.324401   0.565299   0.209522   0.139274  -0.303593   0.217279
    14  C   -0.054071  -0.271493   0.197661  -0.023803   0.031410   0.020678
    15  C   -0.377843  -0.066096  -0.208665  -0.113406  -0.147547  -0.103928
    16  C   -0.356854   0.003607  -0.350092  -1.705275  -1.209812   0.199396
    17  C   -0.112359  -0.021927  -0.281167   0.106554   0.156754  -0.078000
    18  C   -0.206816   0.162581  -0.726125   1.475344  -1.292287  -0.001093
    19  C   -0.010806  -0.005200   0.021114  -1.002128  -0.114300  -0.067483
    20  C   -0.047475   0.001321  -0.015795   0.286287  -0.087802   0.126432
    21  C   -0.000353   0.001250  -0.014610   0.168853  -0.078827  -0.001462
[...]
 494351,0.01114913,-0.00347061,-0.00211450,-0.00417702,-0.00001399,0.00
 001287,0.00002870,-0.00001145,0.00000080,0.00000777,-0.00000318,0.0000
 0125,0.00000131,-0.00000262,0.00000042,0.00000015,-0.00000168,-0.00000
 037,-0.00000068,-0.00000104,-0.00000137,-0.00000081,-0.00000189,-0.000
 00329,-0.00000200,0.00000362,-0.00000337,-0.00000567,-0.00000092,-0.00
 000964,0.00000108,0.00000663,0.00010169,0.00002086,0.00000545,-0.00002
 647,-0.00005882,-0.00003796,0.00069749,0.00206343,0.08810325,-0.000011
 17,-0.00005162,-0.00002808,-0.00006331,-0.00003752,0.00003980,0.000025
 27,0.00002053,0.00002003,0.00001868,0.00001358,0.00000837,-0.00001636,
 -0.00001658,-0.00000571,0.00000451,0.00001748,0.00000375,-0.00000696,0
 .00000154,0.00000019,0.00001438,0.00000223,0.00000309,-0.00000823,-0.0
 0001476,-0.00000790,-0.00002327,-0.00001817,-0.00000360,0.00002990,0.0
 0000789,0.00000291,-0.00001210,0.00001995,0.00000171,0.00003829,0.0000
 1957,0.00006914,-0.00003098,-0.00001500,-0.00000612,-0.00000898,0.0000
 1633,-0.00000945,0.00003143,0.00008426,-0.00004450,-0.00005112,-0.0000
 4606,0.00000152,0.00001612,0.00000295,-0.00000734,0.00013919,-0.000064
 38,-0.00036804,0.00014968,0.00006428,0.00013628,-0.00002267,0.00002900
 ,0.00001449,0.00000413,-0.00000426,-0.00000142,0.00015729,0.00021964,-
 0.00046710,0.00156233,0.00197940,0.00458410,-0.00074788,-0.00029844,0.
 00004434,0.00030553,-0.00037840,-0.00008195,-0.00810265,-0.01149459,0.
 00483052,-0.08893567,-0.26409713,0.08885031,-0.00100524,-0.00507694,0.
 00438362,-0.00269452,0.00222112,0.00043175,0.00000013,0.00000557,0.000
 00819,-0.00000736,0.00000448,-0.00000058,-0.00000271,0.00000416,0.0000
 0055,-0.00000622,-0.00000032,-0.00000010,-0.00000608,-0.00000087,-0.00
 000019,-0.00000105,-0.00000543,-0.00000025,-0.00000140,-0.00000471,0.0
 0000166,-0.00000959,-0.00000656,0.00000576,0.00000938,-0.00000296,-0.0
 0000041,-0.00001579,-0.00010768,-0.00001363,0.00000991,0.00002641,0.00
 007687,0.00124027,-0.00034287,-0.00195567,0.09752013,0.27785064,-0.000
 06559,0.00008068,-0.00001793,-0.00006790,-0.00004311,0.00002737,0.0000
 3806,0.00000267,0.00003100,0.00005050,0.00000513,0.00000102,-0.0000424
 9,-0.00002029,-0.00001084,-0.00002119,0.00000146,0.00000398,0.00000591
 ,0.00000371,0.00000165,0.00000014,-0.00000635,-0.00000135,0.00002692,0
 .00005400,0.00000908,0.00008906,-0.00005015,0.00001184,-0.00006534,0.0
 0000549,-0.00000888,0.00003468,-0.00005619,-0.00000597,-0.00000447,-0.
 00006600,-0.00000855,0.00004803,0.00002802,0.00001986,0.00001144,-0.00
 002840,0.00000002,-0.00008929,0.00007789,-0.00007782,0.00008630,-0.000
 01093,0.00000934,-0.00010243,0.00000337,-0.00002814,0.00041690,-0.0003
 2029,-0.00045109,-0.00012974,-0.00004346,0.00006379,0.00004276,0.00005
 290,0.00005747,-0.00004657,0.00003921,-0.00002627,-0.00057946,-0.00024
 515,-0.00088064,-0.00499627,0.00425509,0.00340258,0.00068370,0.0008022
 5,0.00010258,-0.00004103,0.00011204,-0.00054601,0.00869476,0.01739293,
 -0.00227050,0.02459707,0.08912355,-0.07692743,-0.00360381,-0.00903873,
 0.00643285,-0.00372358,0.00094825,0.00299265,0.00001739,-0.00001204,-0
 .00001253,0.00000507,0.00000149,-0.00000472,0.00000117,-0.00000012,-0.
 00000087,0.00000033,-0.00000059,0.00000041,0.00000021,-0.00000166,0.00
 000070,0.00000011,0.00000119,-0.00000098,0.00000064,0.00000391,0.00000
 683,-0.00000103,0.00000388,0.00000949,0.00000236,-0.00000224,-0.000000
 13,0.00002970,0.00009003,-0.00001939,-0.00007039,0.00001041,0.00007096
 ,0.00159473,-0.00227963,-0.00258961,-0.02417469,-0.09933070,0.07180995
 ,0.00004185,-0.00001224,0.00000066,-0.00004935,-0.00006176,0.00004898,
 0.00004793,0.00002040,0.00003009,-0.00004923,-0.00003481,0.00001854,-0
 .00000961,0.00002194,0.00000142,-0.00000238,0.00000480,-0.00000221,-0.
 00001706,0.00000209,-0.00000794,-0.00000229,0.00001051,0.00000257,0.00
 000929,-0.00000772,-0.00000154,0.00000350,-0.00002056,-0.00000854,-0.0
 0000193,-0.00000028,-0.00000028,-0.00000905,-0.00000466,-0.00000276,0.
 00001250,-0.00002026,-0.00011581,0.00001050,0.00003433,0.00004079,-0.0
 0001790,-0.00000356,0.00001856,-0.00003211,-0.00002076,-0.00011535,0.0
 0001269,0.00003804,0.00000595,-0.00002621,0.00000349,0.00000504,0.0004
 8092,-0.00033796,0.00028410,-0.00017667,-0.00001618,0.00020602,0.00003
 228,-0.00004082,0.00001755,0.00001123,0.00002089,-0.00000360,0.0011360
 2,-0.00376525,-0.00148511,-0.00045089,-0.00052688,0.00041576,-0.000049
 69,0.00020581,0.00034528,0.00008710,0.00004051,-0.00005874,-0.00317141
 ,-0.00403168,-0.00262267,-0.01035395,0.01665079,-0.01857652,-0.1314679
 8,0.07338724,-0.10494775,0.00917655,-0.00818791,0.00867695,-0.00000179
 ,-0.00000263,0.00000095,0.00000726,-0.00000148,-0.00000163,0.00000238,
 -0.00000278,0.00000072,0.00000379,0.00000118,0.00000143,0.00000440,0.0
 0000160,0.00000089,0.00000027,0.00000384,0.00000012,-0.00000079,0.0000
 0329,-0.00000097,0.00000365,0.00000305,-0.00000192,-0.00000288,-0.0000
 0872,0.00000258,0.00001007,0.00001203,-0.00002864,0.00005259,-0.000042
 34,0.00002436,-0.00065881,0.00081475,-0.00081300,0.00020563,0.00052470
 ,0.00159085,0.13531566,0.00003188,-0.00004318,-0.00000683,0.00011542,0
 .00002918,-0.00005833,-0.00009985,0.00000723,-0.00004342,-0.00003417,0
 .00000261,-0.00000448,0.00004920,-0.00002572,-0.00000626,-0.00001053,0
 .00002909,-0.00000757,-0.00000793,0.00000479,-0.00000149,0.00000543,-0
 .00000315,-0.00000244,-0.00006791,-0.00005378,-0.00001511,-0.00007377,
 0.00003170,0.00000002,0.00007635,-0.00000039,0.00000691,-0.00002955,0.
 00007455,0.00000517,0.00001038,0.00003016,0.00011187,-0.00002019,0.000
 00740,0.00000038,-0.00001471,0.00001885,-0.00000217,0.00008031,0.00005
 606,0.00007730,-0.00012906,-0.00002284,-0.00001655,0.00011160,-0.00001
 443,0.00000564,0.00107173,0.00036178,0.00052804,0.00023396,-0.00046122
 ,-0.00000877,0.00009389,-0.00009013,-0.00002429,0.00008903,-0.00005610
 ,0.00003304,-0.00458930,-0.00201434,0.00434414,-0.00030645,-0.00092218
 ,-0.00021572,0.00007496,0.00035097,-0.00059916,-0.00045401,-0.00031815
 ,0.00006533,-0.00342436,0.00136306,0.00085178,-0.00634431,0.00905776,-
 0.00779280,0.07205246,-0.13130104,0.10438242,0.01587739,-0.00983998,0.
 01841034,0.00000368,0.00000132,-0.00000719,-0.00000387,0.00000190,-0.0
 0000022,-0.00000086,0.00000174,0.00000367,-0.00000411,-0.00000047,0.00
 000251,-0.00000500,0.00000045,0.00000284,-0.00000051,-0.00000469,0.000
 00391,-0.00000375,-0.00000611,-0.00000425,-0.00001142,-0.00000544,0.00
 000970,-0.00000504,-0.00005782,-0.00000135,0.00000411,-0.00000551,0.00
 002705,0.00003961,-0.00001477,0.00004313,-0.00051565,0.00040445,-0.000
 26696,0.00131002,-0.00015001,-0.00113621,-0.07623569,0.13409760,-0.000
 15514,0.00016135,-0.00006064,0.00018871,0.00010984,-0.00007716,-0.0001
 8199,-0.00011771,-0.00008875,0.00016148,0.00004711,-0.00005688,0.00003
 047,-0.00006514,-0.00000724,-0.00002111,0.00000639,0.00000112,0.000061
 44,-0.00001143,0.00002380,-0.00002678,-0.00003636,-0.00001486,-0.00001
 139,0.00005458,0.00002276,0.00003727,0.00007800,0.00002496,-0.00005856
 ,-0.00001396,-0.00000572,0.00004947,-0.00003682,-0.00000085,0.00000321
 ,-0.00002140,0.00029715,0.00015755,-0.00008032,0.00000128,0.00004131,-
 0.00004456,-0.00004979,-0.00016834,0.00001229,0.00012404,-0.00002351,0
 .00003726,-0.00007281,0.00003225,-0.00002066,0.00000675,-0.00048136,0.
 00055976,-0.00020059,0.00055112,0.00003635,-0.00032239,-0.00000733,-0.
 00008696,-0.00001344,0.00004907,0.00005393,0.00002282,-0.00076070,0.00
 338136,0.00534255,0.00065857,-0.00081167,0.00011207,0.00011600,0.00007
 791,-0.00072607,-0.00031949,-0.00022599,0.00009164,-0.00321468,0.00031
 828,0.00334819,-0.00260119,0.00627490,-0.00273706,-0.10521338,0.103973
 29,-0.16626111,-0.00677454,0.00596604,-0.00400430,0.00001593,-0.000022
 89,-0.00006252,0.00000264,0.00000004,-0.00000944,-0.00000072,0.0000008
 3,-0.00000261,0.00000076,-0.00000362,-0.00000361,-0.00000107,-0.000003
 29,-0.00000116,0.00000075,-0.00000083,-0.00000063,0.00000192,-0.000001
 14,0.00000225,0.00000506,0.00000044,0.00000540,-0.00000406,0.00001172,
 -0.00000079,-0.00002112,0.00001927,0.00003230,-0.00001679,-0.00000209,
 0.00002696,-0.00029031,0.00047338,-0.00015692,0.00112130,-0.00145300,-
 0.00140437,0.11528098,-0.11640672,0.16912004,-0.00181960,-0.00023236,0
 .00194959,-0.00082589,-0.00141955,0.00129159,0.00004010,0.00002084,0.0
 0017595,0.00046501,-0.00004198,0.00031980,-0.00026970,-0.00012925,-0.0
 0013459,-0.00001820,0.00023308,-0.00000824,-0.00004135,-0.00002390,-0.
 00001822,0.00001749,0.00004458,0.00004474,0.00012572,0.00004057,-0.000
 01146,0.00008831,-0.00016071,-0.00004198,-0.00011382,0.00002240,-0.000
 00068,0.00004084,-0.00011025,-0.00001564,-0.00007203,0.00035935,0.0004
 3070,0.00006858,-0.00008743,0.00004539,-0.00008390,-0.00004818,-0.0000
 1064,0.00038867,-0.00050515,0.00086595,0.00019655,0.00053199,-0.000008
 95,-0.00014295,0.00001065,-0.00000218,-0.00110464,-0.00089901,0.001846
 60,-0.00034179,0.00025250,-0.00020726,-0.00004101,-0.00011692,-0.00003
 429,0.00004946,-0.00000387,0.00001797,-0.01121898,-0.00507465,-0.00490
 688,0.00139223,0.00139242,-0.00352608,-0.00044359,-0.00073071,0.000008
 13,0.00015942,0.00015908,0.00000406,0.00033724,0.00020934,0.00054634,0
 .00224503,-0.00307510,-0.00103447,-0.00608541,-0.00196605,-0.00486976,
 -0.27854655,-0.08408919,-0.09205169,0.00000150,-0.00000415,0.00001255,
 0.00001863,0.00000583,-0.00003514,0.00000585,0.00000144,-0.00000837,0.
 00000032,0.00000093,-0.00000013,0.00000200,0.00000013,-0.00000211,0.00
 000330,0.00000550,-0.00001043,-0.00001146,0.00000129,0.00000829,0.0000
 2057,-0.00000283,-0.00001037,-0.00000036,0.00001301,-0.00000204,0.0000
 0939,0.00003599,-0.00000419,-0.00016298,0.00016083,-0.00003531,-0.0002
 2760,0.00013537,0.00031038,-0.00038351,-0.00000983,-0.00023700,-0.0001
 0753,0.00104987,0.00184190,0.29645098,-0.00073405,0.00063097,0.0005208
 4,-0.00117816,-0.00045174,0.00085904,-0.00025492,-0.00015085,0.0000475
 6,0.00070936,-0.00002459,0.00019378,-0.00028630,-0.00014771,-0.0000824
 4,0.00001340,0.00012564,0.00001350,0.00001065,-0.00004589,-0.00000730,
 -0.00001140,0.00002312,0.00002610,0.00020254,0.00018120,0.00002467,0.0
 0019780,-0.00006682,-0.00003745,-0.00029207,0.00000273,-0.00002912,0.0
 0014850,-0.00023852,-0.00003158,0.00028084,-0.00024200,-0.00033889,0.0
 0011054,-0.00010100,0.00002753,-0.00001619,-0.00008526,-0.00006509,0.0
 0016818,-0.00065708,0.00078034,0.00019527,-0.00024544,-0.00005680,-0.0
 0023007,0.00011164,0.00002420,0.00049777,0.00023876,-0.00143371,0.0002
 7645,-0.00029753,-0.00003327,0.00006716,0.00027186,0.00010695,-0.00015
 835,0.00005673,-0.00010723,0.01612424,0.00846077,0.00622586,0.00092899
 ,-0.00096388,0.00411436,0.00070141,0.00046740,0.00009242,-0.00001015,0
 .00000459,-0.00009287,0.00052601,-0.00043057,0.00006681,-0.00248222,-0
 .00216393,0.00534114,-0.02619752,-0.00485921,-0.00889394,-0.08407539,-
 0.07986770,-0.02218803,0.00000060,-0.00001493,0.00002947,0.00000535,0.
 00001086,-0.00003736,0.00000243,-0.00000168,-0.00000787,0.00000386,-0.
 00000408,-0.00000191,0.00000420,-0.00000786,-0.00000288,0.00000652,0.0
 0000673,-0.00000694,0.00000499,0.00001242,0.00001696,-0.00001443,0.000
 01247,-0.00000032,-0.00000253,0.00001515,0.00000581,-0.00002997,-0.000
 01605,0.00001601,0.00015642,-0.00011262,0.00022652,0.00017404,-0.00016
 968,-0.00049185,-0.00113119,-0.00036974,-0.00041808,0.00156690,-0.0005
 1992,-0.00219064,0.09416655,0.08160859,0.00081021,-0.00023745,-0.00110
 704,0.00063474,0.00076947,-0.00036217,0.00051594,-0.00005344,0.0002565
 6,0.00046688,0.00028555,0.00023252,-0.00042428,-0.00012731,-0.00010552
 ,-0.00002210,0.00003323,0.00001403,-0.00001051,0.00001562,0.00001338,0
 .00002471,0.00001933,0.00000905,0.00025066,0.00024360,0.00002419,0.000
 32599,-0.00028052,0.00005442,-0.00028739,0.00000670,-0.00005005,0.0001
 5157,-0.00028824,-0.00003103,0.00057822,-0.00033228,-0.00018090,-0.000
 15665,0.00009647,-0.00000714,0.00000716,0.00011602,-0.00005404,-0.0008
 0593,0.00084337,-0.00093622,0.00026304,0.00013583,0.00012126,-0.000431
 76,-0.00008723,-0.00013936,0.00157936,-0.00079407,-0.00136045,0.000157
 92,-0.00028243,0.00017950,0.00013963,0.00009547,0.00014517,-0.00013796
 ,0.00013889,-0.00007631,-0.01767897,-0.00909649,-0.00138709,-0.0028247
 3,0.00469798,0.00113352,-0.00100065,-0.00085258,0.00013758,0.00001388,
 0.00007989,-0.00017583,0.00036407,0.00069571,-0.00105573,-0.00122617,0
 .00468930,0.00417477,0.01047825,0.00475348,0.00739076,-0.09146348,-0.0
 2098396,-0.07767331,-0.00001901,0.00001441,0.00006102,-0.00001556,0.00
 001694,-0.00001853,-0.00001251,0.00000932,-0.00000517,-0.00001675,-0.0
 0000108,0.00000127,-0.00001429,-0.00001343,0.00000055,-0.00000757,-0.0
 0000831,-0.00000742,-0.00000491,-0.00000447,0.00001183,0.00000995,-0.0
 0001076,0.00001843,0.00001146,0.00000053,0.00000119,0.00001640,0.00003
 436,0.00000389,-0.00026002,0.00025431,-0.00015813,0.00024617,-0.000416
 82,-0.00056343,0.00050861,0.00028451,0.00022738,0.00177990,-0.00226529
 ,-0.00230383,0.09757200,0.01781139,0.07367055,0.00407305,0.00665838,-0
 .00495010,0.00098714,-0.00019171,-0.00357265,0.00009255,0.00142122,0.0
 0064217,-0.00197841,-0.00478276,0.00773013,0.00040210,-0.00089183,0.00
 299884,-0.00034116,0.00616920,-0.00021177,-0.00137164,-0.00046071,-0.0
 0092929,-0.00043969,0.00071670,0.00072435,-0.00085165,-0.00036833,-0.0
 0100117,0.00022413,-0.00141719,-0.00008976,0.00102174,0.00020353,0.000
 18926,-0.00048823,0.00114682,-0.00056336,0.02686883,-0.02493033,-0.028
 71172,0.00690826,-0.00577058,0.03672863,-0.01945039,-0.00088095,-0.013
 81171,-0.00055135,-0.00015882,-0.00024567,0.00004545,0.00002359,0.0005
 2265,-0.00053489,-0.00014860,-0.00023353,-0.00002864,0.00011468,-0.000
 10758,0.00022311,-0.00007426,0.00021014,0.00004266,0.00025532,-0.00006
 471,-0.00013851,-0.00003149,-0.00013545,-0.00054422,-0.00005355,0.0013
 5840,0.00054082,-0.00007326,0.00013985,-0.00007076,0.00012700,-0.00017
 410,-0.00019447,-0.00008096,-0.00007943,-0.00017611,0.00001353,-0.0000
 4598,0.00004110,-0.00004154,-0.00000476,-0.00008075,0.00006886,-0.0000
 5188,-0.00107261,0.00066371,-0.00013330,-0.00036216,-0.00047621,-0.000
 19636,-0.00030534,0.00072600,-0.00195659,-0.00005997,-0.00002792,0.000
 02998,0.00003881,0.00000240,0.00005524,-0.00000693,0.00003527,-0.00002
 923,-0.00001162,-0.00003199,0.00010272,-0.00000839,0.00002323,-0.00005
 270,-0.00001032,-0.00000989,0.00004282,0.00000752,-0.00000347,0.000018
 06,0.00000234,-0.00000519,0.00001028,-0.00001182,0.00001015,-0.0000129
 4,-0.00002590,0.00000763,0.00002730,0.00001286,-0.00000010,-0.00000654
 ,-0.00000856,0.00001072,-0.00005560,-0.00006434,-0.00014606,-0.0000855
 0,-0.01234363,-0.00624932,-0.00935120,-0.00457397,-0.00087432,-0.00033
 143,0.00103272,0.00040591,-0.00241264,-0.00040193,-0.00561430,0.003794
 27,-0.00658246,-0.00166178,0.00139362,-0.00091165,-0.00036027,-0.01252
 161,-0.00327269,0.00242049,0.00077381,0.00197150,0.00114783,-0.0021907
 8,-0.00090808,0.00039610,0.00144966,0.00067089,-0.00011535,0.00195294,
 0.00031040,-0.00218205,-0.00012038,-0.00028138,0.00098137,-0.00230563,
 0.00012481,-0.02103141,0.01375123,0.03882932,-0.01362683,-0.03817839,0
 .00989860,0.02136241,0.00997350,0.00301619,0.00079698,0.00036586,0.000
 39726,0.00012271,-0.00015246,-0.00026111,0.00059681,0.00058369,0.00025
 470,-0.00008494,-0.00005922,0.00002784,-0.00011204,-0.00008414,-0.0000
 8750,0.00001798,-0.00013352,0.00006202,0.00010188,0.00001066,0.0000568
 2,0.00023486,0.00014440,-0.00077271,-0.00034419,0.00001755,-0.00018306
 ,-0.00001776,-0.00009736,0.00007319,0.00012565,0.00002328,0.00006639,0
 .00007248,0.00001784,0.00000542,0.00001205,-0.00001147,0.00002270,0.00
 001855,-0.00012475,-0.00000371,0.00076406,-0.00019734,0.00023073,-0.00
 031174,-0.01295706,0.01998433,0.00046434,-0.00041836,0.00173205,0.0000
 5922,0.00006087,0.00000776,-0.00005890,0.00002387,-0.00019070,0.000005
 82,-0.00007258,-0.00002505,0.00001884,0.00005250,-0.00013916,0.0000095
 6,-0.00003056,0.00004448,0.00000672,0.00001096,-0.00003420,-0.00001334
 ,0.00000881,-0.00001373,-0.00001099,0.00000682,-0.00001083,-0.00000799
 ,-0.00000484,0.00001685,-0.00000477,-0.00000058,-0.00000888,-0.0000124
 0,-0.00000595,0.00001080,0.00001476,-0.00000126,0.00000289,-0.00012248
 ,0.00001468,-0.00000549,0.02265979,0.04733270,0.00166148,0.00610096,-0
 .00234901,0.00153395,-0.00054549,-0.00222282,0.00035381,0.00022616,0.0
 0021173,-0.00615393,0.00009800,0.00376126,-0.00040927,0.00042073,0.002
 45322,-0.00082848,-0.00544502,-0.00164586,0.00122082,0.00073777,-0.000
 16375,0.00055685,-0.00162144,-0.00009363,-0.00091593,0.00148824,-0.000
 11227,0.00066058,-0.00003748,-0.00003015,-0.00108044,0.00031893,-0.000
 00976,0.00053744,-0.00102775,-0.00060259,0.02578462,-0.01871439,-0.051
 67200,-0.03838766,0.08140026,-0.10439953,0.00873604,-0.00045593,0.0021
 2934,-0.00005679,0.00037827,0.00020353,0.00004006,0.00004763,0.0003107
 6,-0.00021543,0.00041403,-0.00004644,-0.00007969,-0.00012041,-0.000031
 24,0.00003944,-0.00011546,0.00003752,0.00008018,0.00008665,-0.00000442
 ,-0.00003972,0.00008130,-0.00009775,-0.00043264,0.00005855,0.00051495,
 0.00040977,0.00013357,0.00014646,-0.00001722,0.00003857,-0.00004354,-0
 .00006068,-0.00000374,-0.00004764,-0.00006311,-0.00016824,-0.00000288,
 -0.00002288,0.00001729,-0.00007290,-0.00009208,0.00024419,0.00008058,-
 0.00026979,0.00009390,-0.00002627,0.00043039,-0.00478045,0.00577737,0.
 00121586,0.00084928,-0.00208417,-0.00000662,-0.00000779,0.00008540,0.0
 0000905,-0.00003224,0.00002897,0.00002180,0.00000507,-0.00004881,0.000
 02444,0.00001456,0.00009653,-0.00000326,0.00001826,-0.00002748,-0.0000
 0879,0.00002043,0.00001147,-0.00001357,0.00001311,0.00001094,-0.000013
 72,0.00001250,0.00000093,-0.00001898,0.00000010,-0.00000864,-0.0000203
 2,-0.00000512,0.00000710,-0.00001830,-0.00001769,0.00000123,-0.0000060
 7,-0.00002162,0.00003946,-0.00006381,-0.00001569,-0.00012412,0.0059825
 8,-0.06018233,0.15005890\\-0.00000198,0.00000247,-0.00000328,0.0000005
 1,0.00000115,-0.00000050,-0.00000050,0.00000085,-0.00000157,0.00000114
 ,-0.00000075,0.00000294,-0.00000091,-0.00000076,0.00000144,0.,0.000002
 20,0.00000089,-0.00000003,0.00000080,0.00000153,-0.00000053,0.00000141
 ,0.,0.00000041,-0.00000005,-0.00000028,-0.00000087,-0.00000040,-0.0000
 0197,-0.00000011,0.00000144,-0.00000214,-0.00000022,0.00000149,-0.0000
 0177,0.00000347,-0.00000472,0.00000160,-0.00000141,0.00000234,0.000005
 33,0.00000520,-0.00000562,-0.00000007,-0.00000003,0.,-0.00000082,-0.00
 000085,-0.00000039,-0.00000197,0.00000008,0.00000058,-0.00000239,-0.00
 000014,-0.00000042,-0.00000079,-0.00000016,-0.00000100,-0.00000136,-0.
 00000049,-0.00000086,-0.00000233,-0.00000059,-0.00000056,-0.00000271,0
 .00000005,0.00000006,0.00000026,0.00000006,-0.00000059,0.00000055,-0.0
 0000017,-0.00000110,-0.00000005,-0.00000026,-0.00000147,-0.00000082,0.
 00000024,-0.00000005,0.00000164,0.00000035,0.00000038,0.00000214,0.000
 00051,0.00000081,0.00000168,0.00000026,0.00000095,0.00000118,-0.000002
 16,-0.00000017,0.00000265,0.00000032,-0.00000039,0.00000337,0.00000027
 ,0.00000044,0.00000193,0.00000003,0.00000106,0.00000038,-0.00000034,0.
 00000138,-0.00000166,-0.00000061,0.00000119,-0.00000281,-0.00000050,0.
 00000041,-0.00000338,-0.00000066,-0.00000046,-0.00000346,-0.00000054,-
 0.00000132,-0.00000280,-0.00000028,-0.00000178,-0.00000144,0.00000006,
 -0.00000152,0.00000027,0.00000035,-0.00000057,0.00000186,0.00000054,0.
 00000074,0.00000291,0.00000045,0.00000163,0.00000225,0.00000009,0.0000
 0111,0.00000069,-0.00000005,0.00000004,0.00000287\\\@


 YE HAVE SOWN MUCH, AND BRING IN LITTLE.
 YE EAT, BUT YE HAVE NOT ENOUGH.
 YE DRINK, BUT YE ARE NOT FILLED WITH DRINK.
 YE CLOTHE YOU, BUT THERE IS NONE WARM.
 AND HE THAT EARNETH WAGES EARNETH WAGES TO PUT
 IT INTO A BAG WITH HOLES.
                                     HAGGAI I,6
 Job cpu time:       0 days 23 hours 10 minutes 55.6 seconds.
 Elapsed time:       0 days  1 hours  9 minutes 44.5 seconds.
 File lengths (MBytes):  RWF=   2281 Int=      0 D2E=      0 Chk=     57 Scr=      1
 Normal termination of Gaussian 16 at Mon Aug 12 23:16:56 2019.
