 Entering Gaussian System, Link 0=/share/apps/gaussian16/g16/g16
 Initial command:
 /share/apps/gaussian16/g16/l1.exe "/home/amen01//scratch/981/Gau-3379.inp" -scrdir="/home/amen01//scratch/981/"
 Entering Link 1 = /share/apps/gaussian16/g16/l1.exe PID=      3380.
  
 Copyright (c) 1988-2017, Gaussian, Inc.  All Rights Reserved.
  
 This is part of the Gaussian(R) 16 program.  It is based on
 the Gaussian(R) 09 system (copyright 2009, Gaussian, Inc.),
 the Gaussian(R) 03 system (copyright 2003, Gaussian, Inc.),
 the Gaussian(R) 98 system (copyright 1998, Gaussian, Inc.),
 the Gaussian(R) 94 system (copyright 1995, Gaussian, Inc.),
 the Gaussian 92(TM) system (copyright 1992, Gaussian, Inc.),
 the Gaussian 90(TM) system (copyright 1990, Gaussian, Inc.),
 the Gaussian 88(TM) system (copyright 1988, Gaussian, Inc.),
 the Gaussian 86(TM) system (copyright 1986, Carnegie Mellon
 University), and the Gaussian 82(TM) system (copyright 1983,
 Carnegie Mellon University). Gaussian is a federally registered
 trademark of Gaussian, Inc.
  
 This software contains proprietary and confidential information,
 including trade secrets, belonging to Gaussian, Inc.
  
 This software is provided under written license and may be
 used, copied, transmitted, or stored only in accord with that
 written license.
  
 The following legend is applicable only to US Government
 contracts under FAR:
  
                    RESTRICTED RIGHTS LEGEND
  
 Use, reproduction and disclosure by the US Government is
 subject to restrictions as set forth in subparagraphs (a)
 and (c) of the Commercial Computer Software - Restricted
 Rights clause in FAR 52.227-19.
  
 Gaussian, Inc.
 340 Quinnipiac St., Bldg. 40, Wallingford CT 06492
  
  
 ---------------------------------------------------------------
 Warning -- This program may not be used in any manner that
 competes with the business of Gaussian, Inc. or will provide
 assistance to any competitor of Gaussian, Inc.  The licensee
 of this program is prohibited from giving any competitor of
 Gaussian, Inc. access to this program.  By using this program,
 the user acknowledges that Gaussian, Inc. is engaged in the
 business of creating and licensing software in the field of
 computational chemistry and represents and warrants to the
 licensee that it is not a competitor of Gaussian, Inc. and that
 it will not use this program in any manner prohibited above.
 ---------------------------------------------------------------
  

 Cite this work as:
 Gaussian 16, Revision B.01,
 M. J. Frisch, G. W. Trucks, H. B. Schlegel, G. E. Scuseria, 
 M. A. Robb, J. R. Cheeseman, G. Scalmani, V. Barone, 
 G. A. Petersson, H. Nakatsuji, X. Li, M. Caricato, A. V. Marenich, 
 J. Bloino, B. G. Janesko, R. Gomperts, B. Mennucci, H. P. Hratchian, 
 J. V. Ortiz, A. F. Izmaylov, J. L. Sonnenberg, D. Williams-Young, 
 F. Ding, F. Lipparini, F. Egidi, J. Goings, B. Peng, A. Petrone, 
 T. Henderson, D. Ranasinghe, V. G. Zakrzewski, J. Gao, N. Rega, 
 G. Zheng, W. Liang, M. Hada, M. Ehara, K. Toyota, R. Fukuda, 
 J. Hasegawa, M. Ishida, T. Nakajima, Y. Honda, O. Kitao, H. Nakai, 
 T. Vreven, K. Throssell, J. A. Montgomery, Jr., J. E. Peralta, 
 F. Ogliaro, M. J. Bearpark, J. J. Heyd, E. N. Brothers, K. N. Kudin, 
 V. N. Staroverov, T. A. Keith, R. Kobayashi, J. Normand, 
 K. Raghavachari, A. P. Rendell, J. C. Burant, S. S. Iyengar, 
 J. Tomasi, M. Cossi, J. M. Millam, M. Klene, C. Adamo, R. Cammi, 
 J. W. Ochterski, R. L. Martin, K. Morokuma, O. Farkas, 
 J. B. Foresman, and D. J. Fox, Gaussian, Inc., Wallingford CT, 2016.
 
 ******************************************
 Gaussian 16:  ES64L-G16RevB.01 20-Dec-2017
                30-Aug-2019 
 ******************************************
 %nprocshared=20
 Will use up to   20 processors via shared memory.
 %mem=180GB
 %chk=7-memb2-dirTSguess-1cis.chk
 ---------------------------------------------------------------
 # opt=(ts,calcfc,noeigen) freq b3lyp/6-311+g(d,p) int=grid=fine
 ---------------------------------------------------------------
 1/5=1,10=4,11=1,18=20,26=3,38=1/1,3;
 2/9=110,12=2,17=6,18=5,40=1/2;
 3/5=4,6=6,7=111,11=2,25=1,30=1,71=2,74=-5,75=-4,140=1/1,2,3;
 4//1;
 5/5=2,38=5/2;
 8/6=4,10=90,11=11/1;
 11/6=1,8=1,9=11,15=111,16=1/1,2,10;
 10/6=1,13=1/2;
 6/7=2,8=2,9=2,10=2,28=1/1;
 7/10=1,18=20,25=1/1,2,3,16;
 1/5=1,10=4,11=1,18=20,26=3/3(2);
 2/9=110/2;
 99//99;
 2/9=110/2;
 3/5=4,6=6,7=111,11=2,25=1,30=1,71=1,74=-5,75=-4/1,2,3;
 4/5=5,16=3,69=1/1;
 5/5=2,38=5/2;
 7//1,2,3,16;
 1/5=1,11=1,18=20,26=3/3(-5);
 2/9=110/2;
 6/7=2,8=2,9=2,10=2,19=2,28=1/1;
 99/9=1/99;
 -----------------------
 7-memb2-dirTSguess-1cis
 -----------------------
 Symbolic Z-matrix:
 Charge =  0 Multiplicity = 1
 C                    -0.8033   -0.85698  -0.60188 
 C                    -0.43665   0.53925  -0.35774 
 C                    -1.63708   1.19007   0.01154 
 C                    -2.16904  -0.99335  -0.22272 
 C                    -2.67648   0.25795   0.11692 
 C                    -2.97681  -2.11337  -0.29557 
 C                    -4.35527  -1.88129   0.06309 
 C                    -4.84103  -0.62509   0.41022 
 C                    -3.98598   0.53831   0.43062 
 C                    -1.84696   2.53896   0.26294 
 C                    -3.21474   2.88338   0.6069 
 C                    -4.22843   1.94397   0.68663 
 C                    -0.19208  -1.98549  -1.16546 
 C                    -0.99076  -3.20439  -1.19801 
 C                    -2.29833  -3.28845  -0.77463 
 C                     0.74297   1.29173  -0.31752 
 C                     0.56442   2.72926  -0.15479 
 C                    -0.68297   3.32631   0.11595 
 C                     2.07854   0.71656  -0.30106 
 C                     3.1906    1.6203   -0.36812 
 C                     2.9649    3.03953  -0.41038 
 C                     1.72722   3.57045  -0.26539 
 C                     2.369    -0.6616   -0.13117 
 C                     3.71303  -1.08611   0.15954 
 C                     4.77794  -0.18885  -0.05241 
 C                     4.51442   1.13546  -0.32507 
 C                     3.9023   -2.34065   0.87083 
 C                     2.85814  -2.93168   1.6115 
 C                     1.57046  -2.48372   1.29254 
 C                     1.62732  -1.95254  -0.03912 
 H                    -0.52704  -4.08948  -1.62003 
 H                    -2.82437  -4.23384  -0.85913 
 H                    -5.0493   -2.71565   0.052 
 H                    -5.89298  -0.52761   0.65799 
 H                    -5.22776   2.2801    0.94338 
 H                    -3.45717   3.92209   0.80724 
 H                    -0.71907   4.40567   0.22733 
 H                     1.59179   4.64558  -0.21838 
 H                     3.8311    3.68729  -0.49423 
 H                     5.33033   1.84035  -0.44249 
 H                     5.80094  -0.53743   0.04872 
 H                     4.92678  -2.66043   1.04156 
 H                     3.08847  -3.53279   2.4879 
 H                     0.78613  -2.2976    2.01812 
 H                     2.18536  -2.66217  -0.66427 
 H                     0.56486  -1.89162  -1.93478 
 

 GradGradGradGradGradGradGradGradGradGradGradGradGradGradGradGradGradGrad
 Berny optimization.
 Initialization pass.
                           ----------------------------
                           !    Initial Parameters    !
                           ! (Angstroms and Degrees)  !
 --------------------------                            --------------------------
 ! Name  Definition              Value          Derivative Info.                !
 --------------------------------------------------------------------------------
 ! R1    R(1,2)                  1.4641         calculate D2E/DX2 analytically  !
 ! R2    R(1,4)                  1.4239         calculate D2E/DX2 analytically  !
 ! R3    R(1,13)                 1.4017         calculate D2E/DX2 analytically  !
 ! R4    R(2,3)                  1.4146         calculate D2E/DX2 analytically  !
 ! R5    R(2,16)                 1.3998         calculate D2E/DX2 analytically  !
 ! R6    R(3,5)                  1.4001         calculate D2E/DX2 analytically  !
 ! R7    R(3,10)                 1.3881         calculate D2E/DX2 analytically  !
 ! R8    R(4,5)                  1.3923         calculate D2E/DX2 analytically  !
 ! R9    R(4,6)                  1.3828         calculate D2E/DX2 analytically  !
 ! R10   R(5,9)                  1.3754         calculate D2E/DX2 analytically  !
 ! R11   R(6,7)                  1.4431         calculate D2E/DX2 analytically  !
 ! R12   R(6,15)                 1.439          calculate D2E/DX2 analytically  !
 ! R13   R(7,8)                  1.3909         calculate D2E/DX2 analytically  !
 ! R14   R(7,33)                 1.0853         calculate D2E/DX2 analytically  !
 ! R15   R(8,9)                  1.444          calculate D2E/DX2 analytically  !
 ! R16   R(8,34)                 1.0851         calculate D2E/DX2 analytically  !
 ! R17   R(9,12)                 1.4492         calculate D2E/DX2 analytically  !
 ! R18   R(10,11)                1.4518         calculate D2E/DX2 analytically  !
 ! R19   R(10,18)                1.4129         calculate D2E/DX2 analytically  !
 ! R20   R(11,12)                1.3843         calculate D2E/DX2 analytically  !
 ! R21   R(11,36)                1.0853         calculate D2E/DX2 analytically  !
 ! R22   R(12,35)                1.0851         calculate D2E/DX2 analytically  !
 ! R23   R(13,14)                1.4576         calculate D2E/DX2 analytically  !
 ! R24   R(13,46)                1.0833         calculate D2E/DX2 analytically  !
 ! R25   R(14,15)                1.377          calculate D2E/DX2 analytically  !
 ! R26   R(14,31)                1.0847         calculate D2E/DX2 analytically  !
 ! R27   R(15,32)                1.0852         calculate D2E/DX2 analytically  !
 ! R28   R(16,17)                1.4577         calculate D2E/DX2 analytically  !
 ! R29   R(16,19)                1.4542         calculate D2E/DX2 analytically  !
 ! R30   R(17,18)                1.4092         calculate D2E/DX2 analytically  !
 ! R31   R(17,22)                1.4394         calculate D2E/DX2 analytically  !
 ! R32   R(18,37)                1.0857         calculate D2E/DX2 analytically  !
 ! R33   R(19,20)                1.4345         calculate D2E/DX2 analytically  !
 ! R34   R(19,23)                1.4187         calculate D2E/DX2 analytically  !
 ! R35   R(20,21)                1.4377         calculate D2E/DX2 analytically  !
 ! R36   R(20,26)                1.4105         calculate D2E/DX2 analytically  !
 ! R37   R(21,22)                1.3545         calculate D2E/DX2 analytically  !
 ! R38   R(21,39)                1.0849         calculate D2E/DX2 analytically  !
 ! R39   R(22,38)                1.0846         calculate D2E/DX2 analytically  !
 ! R40   R(23,24)                1.4391         calculate D2E/DX2 analytically  !
 ! R41   R(23,30)                1.4917         calculate D2E/DX2 analytically  !
 ! R42   R(24,25)                1.4086         calculate D2E/DX2 analytically  !
 ! R43   R(24,27)                1.4545         calculate D2E/DX2 analytically  !
 ! R44   R(25,26)                1.3775         calculate D2E/DX2 analytically  !
 ! R45   R(25,41)                1.0855         calculate D2E/DX2 analytically  !
 ! R46   R(26,40)                1.0846         calculate D2E/DX2 analytically  !
 ! R47   R(27,28)                1.41           calculate D2E/DX2 analytically  !
 ! R48   R(27,42)                1.0867         calculate D2E/DX2 analytically  !
 ! R49   R(28,29)                1.4002         calculate D2E/DX2 analytically  !
 ! R50   R(28,43)                1.0874         calculate D2E/DX2 analytically  !
 ! R51   R(29,30)                1.4348         calculate D2E/DX2 analytically  !
 ! R52   R(29,44)                1.0846         calculate D2E/DX2 analytically  !
 ! R53   R(30,45)                1.0981         calculate D2E/DX2 analytically  !
 ! A1    A(2,1,4)              106.686          calculate D2E/DX2 analytically  !
 ! A2    A(2,1,13)             136.5225         calculate D2E/DX2 analytically  !
 ! A3    A(4,1,13)             116.6276         calculate D2E/DX2 analytically  !
 ! A4    A(1,2,3)              105.6511         calculate D2E/DX2 analytically  !
 ! A5    A(1,2,16)             136.7606         calculate D2E/DX2 analytically  !
 ! A6    A(3,2,16)             117.4086         calculate D2E/DX2 analytically  !
 ! A7    A(2,3,5)              110.0807         calculate D2E/DX2 analytically  !
 ! A8    A(2,3,10)             128.5131         calculate D2E/DX2 analytically  !
 ! A9    A(5,3,10)             121.4043         calculate D2E/DX2 analytically  !
 ! A10   A(1,4,5)              109.174          calculate D2E/DX2 analytically  !
 ! A11   A(1,4,6)              128.5945         calculate D2E/DX2 analytically  !
 ! A12   A(5,4,6)              121.861          calculate D2E/DX2 analytically  !
 ! A13   A(3,5,4)              108.0227         calculate D2E/DX2 analytically  !
 ! A14   A(3,5,9)              126.0331         calculate D2E/DX2 analytically  !
 ! A15   A(4,5,9)              125.8597         calculate D2E/DX2 analytically  !
 ! A16   A(4,6,7)              114.495          calculate D2E/DX2 analytically  !
 ! A17   A(4,6,15)             113.7984         calculate D2E/DX2 analytically  !
 ! A18   A(7,6,15)             131.639          calculate D2E/DX2 analytically  !
 ! A19   A(6,7,8)              122.743          calculate D2E/DX2 analytically  !
 ! A20   A(6,7,33)             118.9887         calculate D2E/DX2 analytically  !
 ! A21   A(8,7,33)             118.2643         calculate D2E/DX2 analytically  !
 ! A22   A(7,8,9)              121.6282         calculate D2E/DX2 analytically  !
 ! A23   A(7,8,34)             118.4699         calculate D2E/DX2 analytically  !
 ! A24   A(9,8,34)             119.8976         calculate D2E/DX2 analytically  !
 ! A25   A(5,9,8)              113.3486         calculate D2E/DX2 analytically  !
 ! A26   A(5,9,12)             113.4082         calculate D2E/DX2 analytically  !
 ! A27   A(8,9,12)             133.2289         calculate D2E/DX2 analytically  !
 ! A28   A(3,10,11)            114.5758         calculate D2E/DX2 analytically  !
 ! A29   A(3,10,18)            113.46           calculate D2E/DX2 analytically  !
 ! A30   A(11,10,18)           131.9571         calculate D2E/DX2 analytically  !
 ! A31   A(10,11,12)           122.8561         calculate D2E/DX2 analytically  !
 ! A32   A(10,11,36)           118.7661         calculate D2E/DX2 analytically  !
 ! A33   A(12,11,36)           118.3775         calculate D2E/DX2 analytically  !
 ! A34   A(9,12,11)            121.7033         calculate D2E/DX2 analytically  !
 ! A35   A(9,12,35)            119.756          calculate D2E/DX2 analytically  !
 ! A36   A(11,12,35)           118.54           calculate D2E/DX2 analytically  !
 ! A37   A(1,13,14)            116.3144         calculate D2E/DX2 analytically  !
 ! A38   A(1,13,46)            121.3618         calculate D2E/DX2 analytically  !
 ! A39   A(14,13,46)           116.0688         calculate D2E/DX2 analytically  !
 ! A40   A(13,14,15)           124.3674         calculate D2E/DX2 analytically  !
 ! A41   A(13,14,31)           117.1807         calculate D2E/DX2 analytically  !
 ! A42   A(15,14,31)           118.4103         calculate D2E/DX2 analytically  !
 ! A43   A(6,15,14)            120.0167         calculate D2E/DX2 analytically  !
 ! A44   A(6,15,32)            120.5819         calculate D2E/DX2 analytically  !
 ! A45   A(14,15,32)           119.3117         calculate D2E/DX2 analytically  !
 ! A46   A(2,16,17)            115.4751         calculate D2E/DX2 analytically  !
 ! A47   A(2,16,19)            124.1712         calculate D2E/DX2 analytically  !
 ! A48   A(17,16,19)           120.084          calculate D2E/DX2 analytically  !
 ! A49   A(16,17,18)           123.2097         calculate D2E/DX2 analytically  !
 ! A50   A(16,17,22)           117.9556         calculate D2E/DX2 analytically  !
 ! A51   A(18,17,22)           118.832          calculate D2E/DX2 analytically  !
 ! A52   A(10,18,17)           120.8719         calculate D2E/DX2 analytically  !
 ! A53   A(10,18,37)           121.0598         calculate D2E/DX2 analytically  !
 ! A54   A(17,18,37)           118.0575         calculate D2E/DX2 analytically  !
 ! A55   A(16,19,20)           117.5321         calculate D2E/DX2 analytically  !
 ! A56   A(16,19,23)           125.0027         calculate D2E/DX2 analytically  !
 ! A57   A(20,19,23)           117.315          calculate D2E/DX2 analytically  !
 ! A58   A(19,20,21)           120.1042         calculate D2E/DX2 analytically  !
 ! A59   A(19,20,26)           120.6373         calculate D2E/DX2 analytically  !
 ! A60   A(21,20,26)           119.1808         calculate D2E/DX2 analytically  !
 ! A61   A(20,21,22)           121.8183         calculate D2E/DX2 analytically  !
 ! A62   A(20,21,39)           117.7977         calculate D2E/DX2 analytically  !
 ! A63   A(22,21,39)           120.2519         calculate D2E/DX2 analytically  !
 ! A64   A(17,22,21)           121.1513         calculate D2E/DX2 analytically  !
 ! A65   A(17,22,38)           118.3636         calculate D2E/DX2 analytically  !
 ! A66   A(21,22,38)           120.4814         calculate D2E/DX2 analytically  !
 ! A67   A(19,23,24)           120.1299         calculate D2E/DX2 analytically  !
 ! A68   A(19,23,30)           138.2725         calculate D2E/DX2 analytically  !
 ! A69   A(24,23,30)           101.3387         calculate D2E/DX2 analytically  !
 ! A70   A(23,24,25)           119.1938         calculate D2E/DX2 analytically  !
 ! A71   A(23,24,27)           118.3416         calculate D2E/DX2 analytically  !
 ! A72   A(25,24,27)           121.6434         calculate D2E/DX2 analytically  !
 ! A73   A(24,25,26)           119.8386         calculate D2E/DX2 analytically  !
 ! A74   A(24,25,41)           119.5992         calculate D2E/DX2 analytically  !
 ! A75   A(26,25,41)           120.4942         calculate D2E/DX2 analytically  !
 ! A76   A(20,26,25)           121.0675         calculate D2E/DX2 analytically  !
 ! A77   A(20,26,40)           118.6433         calculate D2E/DX2 analytically  !
 ! A78   A(25,26,40)           120.1533         calculate D2E/DX2 analytically  !
 ! A79   A(24,27,28)           121.4696         calculate D2E/DX2 analytically  !
 ! A80   A(24,27,42)           116.9561         calculate D2E/DX2 analytically  !
 ! A81   A(28,27,42)           119.4879         calculate D2E/DX2 analytically  !
 ! A82   A(27,28,29)           115.2938         calculate D2E/DX2 analytically  !
 ! A83   A(27,28,43)           119.8816         calculate D2E/DX2 analytically  !
 ! A84   A(29,28,43)           123.7276         calculate D2E/DX2 analytically  !
 ! A85   A(28,29,30)           107.0625         calculate D2E/DX2 analytically  !
 ! A86   A(28,29,44)           124.5809         calculate D2E/DX2 analytically  !
 ! A87   A(30,29,44)           125.8762         calculate D2E/DX2 analytically  !
 ! A88   A(23,30,29)           113.4136         calculate D2E/DX2 analytically  !
 ! A89   A(23,30,45)           105.7519         calculate D2E/DX2 analytically  !
 ! A90   A(29,30,45)           108.0154         calculate D2E/DX2 analytically  !
 ! D1    D(4,1,2,3)             -6.2731         calculate D2E/DX2 analytically  !
 ! D2    D(4,1,2,16)           168.4638         calculate D2E/DX2 analytically  !
 ! D3    D(13,1,2,3)           168.6797         calculate D2E/DX2 analytically  !
 ! D4    D(13,1,2,16)          -16.5834         calculate D2E/DX2 analytically  !
 ! D5    D(2,1,4,5)              5.3754         calculate D2E/DX2 analytically  !
 ! D6    D(2,1,4,6)            178.3897         calculate D2E/DX2 analytically  !
 ! D7    D(13,1,4,5)          -170.7418         calculate D2E/DX2 analytically  !
 ! D8    D(13,1,4,6)             2.2725         calculate D2E/DX2 analytically  !
 ! D9    D(2,1,13,14)         -179.505          calculate D2E/DX2 analytically  !
 ! D10   D(2,1,13,46)          -28.3946         calculate D2E/DX2 analytically  !
 ! D11   D(4,1,13,14)           -4.9144         calculate D2E/DX2 analytically  !
 ! D12   D(4,1,13,46)          146.1961         calculate D2E/DX2 analytically  !
 ! D13   D(1,2,3,5)              5.0398         calculate D2E/DX2 analytically  !
 ! D14   D(1,2,3,10)          -175.4596         calculate D2E/DX2 analytically  !
 ! D15   D(16,2,3,5)          -170.9012         calculate D2E/DX2 analytically  !
 ! D16   D(16,2,3,10)            8.5995         calculate D2E/DX2 analytically  !
 ! D17   D(1,2,16,17)          174.0214         calculate D2E/DX2 analytically  !
 ! D18   D(1,2,16,19)          -11.9605         calculate D2E/DX2 analytically  !
 ! D19   D(3,2,16,17)          -11.6888         calculate D2E/DX2 analytically  !
 ! D20   D(3,2,16,19)          162.3293         calculate D2E/DX2 analytically  !
 ! D21   D(2,3,5,4)             -1.8221         calculate D2E/DX2 analytically  !
 ! D22   D(2,3,5,9)           -178.6296         calculate D2E/DX2 analytically  !
 ! D23   D(10,3,5,4)           178.6357         calculate D2E/DX2 analytically  !
 ! D24   D(10,3,5,9)             1.8282         calculate D2E/DX2 analytically  !
 ! D25   D(2,3,10,11)          179.2993         calculate D2E/DX2 analytically  !
 ! D26   D(2,3,10,18)            0.1481         calculate D2E/DX2 analytically  !
 ! D27   D(5,3,10,11)           -1.2502         calculate D2E/DX2 analytically  !
 ! D28   D(5,3,10,18)          179.5986         calculate D2E/DX2 analytically  !
 ! D29   D(1,4,5,3)             -2.3186         calculate D2E/DX2 analytically  !
 ! D30   D(1,4,5,9)            174.4958         calculate D2E/DX2 analytically  !
 ! D31   D(6,4,5,3)           -175.8926         calculate D2E/DX2 analytically  !
 ! D32   D(6,4,5,9)              0.9218         calculate D2E/DX2 analytically  !
 ! D33   D(1,4,6,7)           -174.7727         calculate D2E/DX2 analytically  !
 ! D34   D(1,4,6,15)             2.5919         calculate D2E/DX2 analytically  !
 ! D35   D(5,4,6,7)             -2.5459         calculate D2E/DX2 analytically  !
 ! D36   D(5,4,6,15)           174.8187         calculate D2E/DX2 analytically  !
 ! D37   D(3,5,9,8)            177.5755         calculate D2E/DX2 analytically  !
 ! D38   D(3,5,9,12)            -1.236          calculate D2E/DX2 analytically  !
 ! D39   D(4,5,9,8)              1.3222         calculate D2E/DX2 analytically  !
 ! D40   D(4,5,9,12)          -177.4893         calculate D2E/DX2 analytically  !
 ! D41   D(4,6,7,8)              2.0498         calculate D2E/DX2 analytically  !
 ! D42   D(4,6,7,33)          -178.6956         calculate D2E/DX2 analytically  !
 ! D43   D(15,6,7,8)          -174.7231         calculate D2E/DX2 analytically  !
 ! D44   D(15,6,7,33)            4.5315         calculate D2E/DX2 analytically  !
 ! D45   D(4,6,15,14)           -4.5079         calculate D2E/DX2 analytically  !
 ! D46   D(4,6,15,32)          178.9578         calculate D2E/DX2 analytically  !
 ! D47   D(7,6,15,14)          172.2826         calculate D2E/DX2 analytically  !
 ! D48   D(7,6,15,32)           -4.2517         calculate D2E/DX2 analytically  !
 ! D49   D(6,7,8,9)              0.1275         calculate D2E/DX2 analytically  !
 ! D50   D(6,7,8,34)           179.3688         calculate D2E/DX2 analytically  !
 ! D51   D(33,7,8,9)          -179.1322         calculate D2E/DX2 analytically  !
 ! D52   D(33,7,8,34)            0.109          calculate D2E/DX2 analytically  !
 ! D53   D(7,8,9,5)             -1.7789         calculate D2E/DX2 analytically  !
 ! D54   D(7,8,9,12)           176.7242         calculate D2E/DX2 analytically  !
 ! D55   D(34,8,9,5)           178.9905         calculate D2E/DX2 analytically  !
 ! D56   D(34,8,9,12)           -2.5065         calculate D2E/DX2 analytically  !
 ! D57   D(5,9,12,11)            0.2818         calculate D2E/DX2 analytically  !
 ! D58   D(5,9,12,35)          179.9696         calculate D2E/DX2 analytically  !
 ! D59   D(8,9,12,11)         -178.2206         calculate D2E/DX2 analytically  !
 ! D60   D(8,9,12,35)            1.4673         calculate D2E/DX2 analytically  !
 ! D61   D(3,10,11,12)           0.3766         calculate D2E/DX2 analytically  !
 ! D62   D(3,10,11,36)        -179.3913         calculate D2E/DX2 analytically  !
 ! D63   D(18,10,11,12)        179.3295         calculate D2E/DX2 analytically  !
 ! D64   D(18,10,11,36)         -0.4384         calculate D2E/DX2 analytically  !
 ! D65   D(3,10,18,17)          -4.763          calculate D2E/DX2 analytically  !
 ! D66   D(3,10,18,37)         176.4512         calculate D2E/DX2 analytically  !
 ! D67   D(11,10,18,17)        176.2751         calculate D2E/DX2 analytically  !
 ! D68   D(11,10,18,37)         -2.5107         calculate D2E/DX2 analytically  !
 ! D69   D(10,11,12,9)           0.0957         calculate D2E/DX2 analytically  !
 ! D70   D(10,11,12,35)       -179.5958         calculate D2E/DX2 analytically  !
 ! D71   D(36,11,12,9)         179.8644         calculate D2E/DX2 analytically  !
 ! D72   D(36,11,12,35)          0.1729         calculate D2E/DX2 analytically  !
 ! D73   D(1,13,14,15)           3.1303         calculate D2E/DX2 analytically  !
 ! D74   D(1,13,14,31)        -179.2624         calculate D2E/DX2 analytically  !
 ! D75   D(46,13,14,15)       -149.5304         calculate D2E/DX2 analytically  !
 ! D76   D(46,13,14,31)         28.0769         calculate D2E/DX2 analytically  !
 ! D77   D(13,14,15,6)           1.8872         calculate D2E/DX2 analytically  !
 ! D78   D(13,14,15,32)        178.4656         calculate D2E/DX2 analytically  !
 ! D79   D(31,14,15,6)        -175.6928         calculate D2E/DX2 analytically  !
 ! D80   D(31,14,15,32)          0.8855         calculate D2E/DX2 analytically  !
 ! D81   D(2,16,17,18)           7.8325         calculate D2E/DX2 analytically  !
 ! D82   D(2,16,17,22)        -172.7694         calculate D2E/DX2 analytically  !
 ! D83   D(19,16,17,18)       -166.4487         calculate D2E/DX2 analytically  !
 ! D84   D(19,16,17,22)         12.9494         calculate D2E/DX2 analytically  !
 ! D85   D(2,16,19,20)         175.0892         calculate D2E/DX2 analytically  !
 ! D86   D(2,16,19,23)          -9.499          calculate D2E/DX2 analytically  !
 ! D87   D(17,16,19,20)        -11.1528         calculate D2E/DX2 analytically  !
 ! D88   D(17,16,19,23)        164.259          calculate D2E/DX2 analytically  !
 ! D89   D(16,17,18,10)          0.8174         calculate D2E/DX2 analytically  !
 ! D90   D(16,17,18,37)        179.6388         calculate D2E/DX2 analytically  !
 ! D91   D(22,17,18,10)       -178.5757         calculate D2E/DX2 analytically  !
 ! D92   D(22,17,18,37)          0.2456         calculate D2E/DX2 analytically  !
 ! D93   D(16,17,22,21)         -5.1282         calculate D2E/DX2 analytically  !
 ! D94   D(16,17,22,38)        175.5698         calculate D2E/DX2 analytically  !
 ! D95   D(18,17,22,21)        174.297          calculate D2E/DX2 analytically  !
 ! D96   D(18,17,22,38)         -5.005          calculate D2E/DX2 analytically  !
 ! D97   D(16,19,20,21)          1.736          calculate D2E/DX2 analytically  !
 ! D98   D(16,19,20,26)        178.505          calculate D2E/DX2 analytically  !
 ! D99   D(23,19,20,21)       -174.0348         calculate D2E/DX2 analytically  !
 ! D100  D(23,19,20,26)          2.7342         calculate D2E/DX2 analytically  !
 ! D101  D(16,19,23,24)       -166.443          calculate D2E/DX2 analytically  !
 ! D102  D(16,19,23,30)          6.4461         calculate D2E/DX2 analytically  !
 ! D103  D(20,19,23,24)          8.9778         calculate D2E/DX2 analytically  !
 ! D104  D(20,19,23,30)       -178.1331         calculate D2E/DX2 analytically  !
 ! D105  D(19,20,21,22)          6.1743         calculate D2E/DX2 analytically  !
 ! D106  D(19,20,21,39)       -177.9972         calculate D2E/DX2 analytically  !
 ! D107  D(26,20,21,22)       -170.6416         calculate D2E/DX2 analytically  !
 ! D108  D(26,20,21,39)          5.1869         calculate D2E/DX2 analytically  !
 ! D109  D(19,20,26,25)         -8.1316         calculate D2E/DX2 analytically  !
 ! D110  D(19,20,26,40)        176.1013         calculate D2E/DX2 analytically  !
 ! D111  D(21,20,26,25)        168.6669         calculate D2E/DX2 analytically  !
 ! D112  D(21,20,26,40)         -7.1001         calculate D2E/DX2 analytically  !
 ! D113  D(20,21,22,17)         -4.3855         calculate D2E/DX2 analytically  !
 ! D114  D(20,21,22,38)        174.9018         calculate D2E/DX2 analytically  !
 ! D115  D(39,21,22,17)        179.8865         calculate D2E/DX2 analytically  !
 ! D116  D(39,21,22,38)         -0.8261         calculate D2E/DX2 analytically  !
 ! D117  D(19,23,24,25)        -15.6897         calculate D2E/DX2 analytically  !
 ! D118  D(19,23,24,27)        154.1084         calculate D2E/DX2 analytically  !
 ! D119  D(30,23,24,25)        169.1307         calculate D2E/DX2 analytically  !
 ! D120  D(30,23,24,27)        -21.0712         calculate D2E/DX2 analytically  !
 ! D121  D(19,23,30,29)       -105.7816         calculate D2E/DX2 analytically  !
 ! D122  D(19,23,30,45)        136.0338         calculate D2E/DX2 analytically  !
 ! D123  D(24,23,30,29)         67.9494         calculate D2E/DX2 analytically  !
 ! D124  D(24,23,30,45)        -50.2352         calculate D2E/DX2 analytically  !
 ! D125  D(23,24,25,26)         10.3576         calculate D2E/DX2 analytically  !
 ! D126  D(23,24,25,41)       -172.6274         calculate D2E/DX2 analytically  !
 ! D127  D(27,24,25,26)       -159.0914         calculate D2E/DX2 analytically  !
 ! D128  D(27,24,25,41)         17.9236         calculate D2E/DX2 analytically  !
 ! D129  D(23,24,27,28)        -19.0278         calculate D2E/DX2 analytically  !
 ! D130  D(23,24,27,42)        177.4871         calculate D2E/DX2 analytically  !
 ! D131  D(25,24,27,28)        150.5081         calculate D2E/DX2 analytically  !
 ! D132  D(25,24,27,42)        -12.9771         calculate D2E/DX2 analytically  !
 ! D133  D(24,25,26,20)          1.3878         calculate D2E/DX2 analytically  !
 ! D134  D(24,25,26,40)        177.0914         calculate D2E/DX2 analytically  !
 ! D135  D(41,25,26,20)       -175.6            calculate D2E/DX2 analytically  !
 ! D136  D(41,25,26,40)          0.1036         calculate D2E/DX2 analytically  !
 ! D137  D(24,27,28,29)         18.787          calculate D2E/DX2 analytically  !
 ! D138  D(24,27,28,43)       -149.6823         calculate D2E/DX2 analytically  !
 ! D139  D(42,27,28,29)       -178.136          calculate D2E/DX2 analytically  !
 ! D140  D(42,27,28,43)         13.3946         calculate D2E/DX2 analytically  !
 ! D141  D(27,28,29,30)         22.6949         calculate D2E/DX2 analytically  !
 ! D142  D(27,28,29,44)       -140.2735         calculate D2E/DX2 analytically  !
 ! D143  D(43,28,29,30)       -169.3332         calculate D2E/DX2 analytically  !
 ! D144  D(43,28,29,44)         27.6983         calculate D2E/DX2 analytically  !
 ! D145  D(28,29,30,23)        -71.1856         calculate D2E/DX2 analytically  !
 ! D146  D(28,29,30,45)         45.6806         calculate D2E/DX2 analytically  !
 ! D147  D(44,29,30,23)         91.5002         calculate D2E/DX2 analytically  !
 ! D148  D(44,29,30,45)       -151.6336         calculate D2E/DX2 analytically  !
 --------------------------------------------------------------------------------
 Trust Radius=3.00D-01 FncErr=1.00D-07 GrdErr=1.00D-06 EigMax=2.50D+02 EigMin=1.00D-04
 Number of steps in this run=    276 maximum allowed number of steps=    276.
 Search for a saddle point of order  1.
 GradGradGradGradGradGradGradGradGradGradGradGradGradGradGradGradGradGrad

                          Input orientation:                          
 ---------------------------------------------------------------------
 Center     Atomic      Atomic             Coordinates (Angstroms)
 Number     Number       Type             X           Y           Z
 ---------------------------------------------------------------------
      1          6           0       -0.803298   -0.856980   -0.601875
      2          6           0       -0.436653    0.539254   -0.357743
      3          6           0       -1.637082    1.190070    0.011540
      4          6           0       -2.169042   -0.993353   -0.222717
      5          6           0       -2.676482    0.257950    0.116919
      6          6           0       -2.976810   -2.113373   -0.295565
      7          6           0       -4.355272   -1.881293    0.063090
      8          6           0       -4.841034   -0.625092    0.410219
      9          6           0       -3.985980    0.538306    0.430621
     10          6           0       -1.846963    2.538959    0.262938
     11          6           0       -3.214744    2.883378    0.606899
     12          6           0       -4.228433    1.943972    0.686634
     13          6           0       -0.192078   -1.985492   -1.165461
     14          6           0       -0.990755   -3.204388   -1.198014
     15          6           0       -2.298328   -3.288447   -0.774633
     16          6           0        0.742972    1.291726   -0.317518
     17          6           0        0.564422    2.729260   -0.154785
     18          6           0       -0.682971    3.326311    0.115954
     19          6           0        2.078535    0.716561   -0.301062
     20          6           0        3.190595    1.620300   -0.368123
     21          6           0        2.964898    3.039533   -0.410381
     22          6           0        1.727224    3.570454   -0.265386
     23          6           0        2.369000   -0.661604   -0.131166
     24          6           0        3.713030   -1.086113    0.159537
     25          6           0        4.777937   -0.188848   -0.052414
     26          6           0        4.514419    1.135465   -0.325073
     27          6           0        3.902304   -2.340645    0.870826
     28          6           0        2.858136   -2.931682    1.611500
     29          6           0        1.570456   -2.483723    1.292537
     30          6           0        1.627322   -1.952540   -0.039121
     31          1           0       -0.527039   -4.089484   -1.620031
     32          1           0       -2.824374   -4.233840   -0.859125
     33          1           0       -5.049304   -2.715648    0.052001
     34          1           0       -5.892981   -0.527613    0.657994
     35          1           0       -5.227757    2.280097    0.943379
     36          1           0       -3.457167    3.922094    0.807242
     37          1           0       -0.719066    4.405672    0.227332
     38          1           0        1.591786    4.645583   -0.218375
     39          1           0        3.831100    3.687293   -0.494234
     40          1           0        5.330331    1.840349   -0.442488
     41          1           0        5.800938   -0.537427    0.048717
     42          1           0        4.926782   -2.660427    1.041555
     43          1           0        3.088466   -3.532790    2.487898
     44          1           0        0.786127   -2.297601    2.018117
     45          1           0        2.185356   -2.662173   -0.664273
     46          1           0        0.564863   -1.891618   -1.934775
 ---------------------------------------------------------------------
                    Distance matrix (angstroms):
                    1          2          3          4          5
     1  C    0.000000
     2  C    1.464069   0.000000
     3  C    2.293880   1.414553   0.000000
     4  C    1.423943   2.316957   2.259468   0.000000
     5  C    2.295333   2.306788   1.400109   1.392339   0.000000
     6  C    2.529131   3.673240   3.577977   1.382838   2.425595
     7  C    3.756050   4.625119   4.101766   2.376915   2.719852
     8  C    4.169103   4.619961   3.703926   2.770517   2.356072
     9  C    3.625236   3.635827   2.473408   2.464568   1.375425
    10  C    3.656438   2.524488   1.388075   3.580059   2.431548
    11  C    4.611560   3.760750   2.389720   4.100097   2.724459
    12  C    4.608377   4.176308   2.781945   3.700796   2.361313
    13  C    1.401698   2.662061   3.682059   2.404473   3.584661
    14  C    2.429166   3.876589   4.603479   2.688539   4.069215
    15  C    2.859544   4.276789   4.594826   2.364061   3.676248
    16  C    2.662470   1.399767   2.404843   3.702756   3.598624
    17  C    3.864151   2.416499   2.691355   4.618905   4.084685
    18  C    4.246137   2.837736   2.341956   4.580677   3.659088
    19  C    3.297193   2.522067   3.758689   4.579504   4.795333
    20  C    4.705607   3.784930   4.861657   5.964732   6.042670
    21  C    5.423909   4.221933   4.977625   6.531212   6.311927
    22  C    5.110669   3.725462   4.130553   6.000920   5.523719
    23  C    3.212976   3.060243   4.415626   4.551073   5.134590
    24  C    4.585790   4.486565   5.816065   5.895209   6.529486
    25  C    5.647875   5.274022   6.561857   6.995481   7.469717
    26  C    5.685470   4.986948   6.160946   7.015055   7.257716
    27  C    5.149058   5.350677   6.624886   6.314450   7.113473
    28  C    4.754946   5.175031   6.305212   5.691572   6.560451
    29  C    3.445257   3.986264   5.042421   4.301284   5.189926
    30  C    2.724859   3.251238   4.531545   3.919965   4.840800
    31  H    3.400300   4.798620   5.636303   3.772888   5.151435
    32  H    3.943870   5.360506   5.620189   3.366784   4.598990
    33  H    4.680894   5.660285   5.186476   3.367147   3.804837
    34  H    5.253630   5.651676   4.634761   3.854904   3.354957
    35  H    5.639583   5.261001   3.866449   4.629362   3.358738
    36  H    5.645191   4.682339   3.377840   5.184757   3.809457
    37  H    5.328244   3.920620   3.351032   5.608426   4.587730
    38  H    6.013460   4.582131   4.734873   6.778012   6.130404
    39  H    6.491506   5.304950   6.032656   7.614714   7.381228
    40  H    6.702417   5.912540   7.012407   8.019898   8.180830
    41  H    6.643893   6.342869   7.636083   7.987623   8.514924
    42  H    6.227929   6.400190   7.679295   7.397854   8.196432
    43  H    5.643800   6.091443   7.125206   6.437202   7.295607
    44  H    3.386151   3.897133   4.697035   3.931339   4.704791
    45  H    3.492086   4.149461   5.468778   4.684092   5.724932
    46  H    2.172317   3.065812   4.258345   3.348471   4.397318
                    6          7          8          9         10
     6  C    0.000000
     7  C    1.443140   0.000000
     8  C    2.487658   1.390865   0.000000
     9  C    2.928681   2.475059   1.443963   0.000000
    10  C    4.820028   5.086274   4.358597   2.933620   0.000000
    11  C    5.083166   4.929363   3.872062   2.474923   1.451812
    12  C    4.358133   3.877828   2.655518   1.449215   2.490969
    13  C    2.920241   4.341933   5.093746   4.828118   5.024900
    14  C    2.439086   3.828960   4.905490   5.062764   5.987780
    15  C    1.438973   2.629236   3.868163   4.352568   5.936240
    16  C    5.043011   6.017059   5.948522   4.846683   2.932624
    17  C    6.000936   6.745966   6.386694   5.084205   2.454686
    18  C    5.917872   6.372419   5.743663   4.333804   1.412942
    19  C    5.793537   6.948045   7.084235   6.111095   4.364489
    20  C    7.209886   8.329898   8.375838   7.301502   5.159376
    21  C    7.865718   8.833096   8.662300   7.434926   4.884459
    22  C    7.377990   8.174729   7.823111   6.505309   3.757382
    23  C    5.541872   6.836754   7.230423   6.491622   5.307849
    24  C    6.783534   8.107966   8.570145   7.873181   6.638175
    25  C    7.993686   9.289414   9.639966   8.807288   7.171449
    26  C    8.165435   9.376722   9.548022   8.554791   6.540851
    27  C    6.980998   8.309693   8.921953   8.408755   7.565324
    28  C    6.192990   7.452124   8.126540   7.763840   7.340605
    29  C    4.830823   6.081835   6.733513   6.383537   6.161669
    30  C    4.614072   5.983891   6.618433   6.159069   5.686428
    31  H    3.414762   4.729098   5.893597   6.130733   7.015984
    32  H    2.199367   2.954422   4.324490   5.078007   6.934347
    33  H    2.186039   1.085335   2.131225   3.444158   6.157140
    34  H    3.453688   2.133286   1.085121   2.196482   5.092170
    35  H    5.089629   4.342039   2.978915   2.199720   3.458291
    36  H    6.154168   5.919430   4.769656   3.445505   2.191366
    37  H    6.918727   7.264633   6.506355   5.066614   2.181292
    38  H    8.158524   8.834412   8.340043   6.957183   4.061345
    39  H    8.946219   9.916473   9.727312   8.478102   5.842292
    40  H    9.201201  10.388317  10.500580   9.447290   7.245635
    41  H    8.924741  10.244744  10.648471   9.853264   8.246237
    42  H    8.034546   9.365947   9.997570   9.489071   8.574583
    43  H    6.822755   8.001023   8.697610   8.417482   8.134804
    44  H    4.421172   5.516287   6.086671   5.773692   5.779804
    45  H    5.204333   6.627114   7.394213   7.037560   6.646134
    46  H    3.908917   5.310301   6.027172   5.675368   5.502441
                   11         12         13         14         15
    11  C    0.000000
    12  C    1.384343   0.000000
    13  C    5.998639   5.929849   0.000000
    14  C    6.727907   6.367108   1.457619   0.000000
    15  C    6.390608   5.765311   2.507335   1.376977   0.000000
    16  C    4.364793   5.113572   3.511906   4.898584   5.516923
    17  C    3.858239   4.929110   4.880845   6.222144   6.692708
    18  C    2.616695   3.847965   5.486187   6.668678   6.867135
    19  C    5.791225   6.500764   3.633725   5.059536   5.951579
    20  C    6.601091   7.500617   5.007990   6.438169   7.374912
    21  C    6.264760   7.358513   5.982267   7.433311   8.238784
    22  C    5.065175   6.246730   5.946629   7.359055   7.969249
    23  C    6.655061   7.140304   3.062934   4.346478   5.394284
    24  C    7.996940   8.516225   4.220707   5.334382   6.469882
    25  C    8.588144   9.284924   5.400727   6.609364   7.759036
    26  C    7.978956   8.838252   5.709443   7.064226   8.135516
    27  C    8.832465   9.192429   4.586563   5.382209   6.484883
    28  C    8.467822   8.651407   4.232091   4.773018   5.692981
    29  C    7.223158   7.321114   3.065373   3.644448   4.459626
    30  C    6.873794   7.071025   2.140080   3.124817   4.211455
    31  H    7.797678   7.444704   2.178443   1.084678   2.119864
    32  H    7.277115   6.521205   3.475326   2.129971   1.085187
    33  H    5.917991   4.773746   5.060433   4.274719   2.929043
    34  H    4.337099   2.979979   6.160413   5.885721   4.753541
    35  H    2.128236   1.085148   6.928241   7.253780   6.522408
    36  H    1.085282   2.126585   7.032207   7.803268   7.472425
    37  H    2.947857   4.311216   6.562360   7.747157   7.918173
    38  H    5.185477   6.480177   6.931832   8.321734   8.853883
    39  H    7.176538   8.330047   6.986916   8.440430   9.290288
    40  H    8.672222   9.625779   6.756978   8.122581   9.198440
    41  H    9.658985  10.351452   6.283897   7.402305   8.593260
    42  H    9.859368  10.253995   5.615085   6.350497   7.476307
    43  H    9.188897   9.315390   5.148119   5.507616   6.302489
    44  H    6.696346   6.701463   3.345066   3.784583   4.277276
    45  H    7.844112   8.011130   2.522158   3.265970   4.528556
    46  H    6.598949   6.675269   1.083336   2.164747   3.390416
                   16         17         18         19         20
    16  C    0.000000
    17  C    1.457692   0.000000
    18  C    2.522052   1.409170   0.000000
    19  C    1.454240   2.522874   3.822383   0.000000
    20  C    2.470097   2.858687   4.260202   1.434545   0.000000
    21  C    2.828499   2.433903   3.696785   2.488732   1.437688
    22  C    2.482755   1.439426   2.452359   2.875656   2.440309
    23  C    2.548371   3.841226   5.027829   1.418652   2.436853
    24  C    3.834442   4.956773   6.228660   2.476562   2.806427
    25  C    4.306196   5.126358   6.496630   2.858035   2.427415
    26  C    3.774690   4.262823   5.657488   2.471758   1.410471
    27  C    4.958594   6.156076   7.328640   3.747794   4.210773
    28  C    5.102176   6.358235   7.344288   4.192296   4.974935
    29  C    4.187006   5.502912   6.341827   3.611028   4.714408
    30  C    3.374143   4.802331   5.764353   2.719615   3.913726
    31  H    5.680395   7.059285   7.617872   5.623768   6.927461
    32  H    6.599331   7.775911   7.917845   6.989737   8.407847
    33  H    7.053088   7.823280   7.454812   7.919015   9.320562
    34  H    6.949640   7.277766   6.503133   8.124828   9.390303
    35  H    6.181937   5.912449   4.736483   7.574641   8.545409
    36  H    5.081839   4.303664   2.920445   6.492132   7.132495
    37  H    3.482969   2.145626   1.085692   4.659969   4.837180
    38  H    3.461022   2.175273   2.650806   3.959921   3.425048
    39  H    3.912353   3.421146   4.569406   3.454569   2.167628
    40  H    4.621739   4.856627   6.219304   3.443411   2.152306
    41  H    5.391006   6.175254   7.548117   3.943490   3.412247
    42  H    5.913616   7.036344   8.256337   4.617270   4.829716
    43  H    6.053731   7.250368   8.179066   5.182204   5.892506
    44  H    4.282560   5.480875   6.115951   4.016725   5.179339
    45  H    4.223035   5.652836   6.685656   3.399879   4.408830
    46  H    3.575042   4.951856   5.743637   3.429697   4.656440
                   21         22         23         24         25
    21  C    0.000000
    22  C    1.354525   0.000000
    23  C    3.759185   4.282547   0.000000
    24  C    4.231485   5.080118   1.439143   0.000000
    25  C    3.719905   4.846087   2.456151   1.408558   0.000000
    26  C    2.456373   3.701512   2.805331   2.410909   1.377530
    27  C    5.609504   6.400238   2.484791   1.454513   2.499867
    28  C    6.305142   6.861446   2.903342   2.499033   3.738634
    29  C    5.945650   6.253380   2.446369   2.797789   4.166927
    30  C    5.181480   5.528530   1.491668   2.267231   3.610701
    31  H    8.029929   8.098853   4.728015   5.492293   6.768689
    32  H    9.306933   9.054092   6.345229   7.326903   8.649155
    33  H    9.877416   9.248629   7.699603   8.913217  10.147428
    34  H    9.608745   8.701397   8.300666   9.635135  10.699903
    35  H    8.338405   7.176203   8.216993   9.585586  10.353802
    36  H    6.595789   5.305854   7.472290   8.770028   9.244230
    37  H    3.980528   2.631482   5.944910   7.057462   7.169722
    38  H    2.121721   1.084645   5.364504   6.123302   5.792307
    39  H    1.084864   2.119509   4.602441   4.819415   4.014496
    40  H    2.652234   4.000876   3.889238   3.397393   2.138910
    41  H    4.587868   5.793832   3.438892   2.161642   1.085480
    42  H    6.200536   7.125247   3.451495   2.174768   2.706959
    43  H    7.184060   7.738839   3.952320   3.434760   4.526527
    44  H    6.255369   6.366641   3.130717   3.672708   4.966738
    45  H    5.760347   6.262159   2.078510   2.344444   3.634994
    46  H    5.692117   5.828565   2.832111   3.865997   4.918608
                   26         27         28         29         30
    26  C    0.000000
    27  C    3.726688   0.000000
    28  C    4.799508   1.410039   0.000000
    29  C    4.937824   2.373990   1.400187   0.000000
    30  C    4.237083   2.480760   2.279950   1.434818   0.000000
    31  H    7.375182   5.374187   4.821069   3.932049   3.421561
    32  H    9.108926   7.198966   6.331708   5.196835   5.068958
    33  H   10.316882   8.996799   8.062649   6.738987   6.720712
    34  H   10.585189   9.963935   9.125282   7.741570   7.685788
    35  H    9.890862  10.233012   9.643168   8.308525   8.116196
    36  H    8.520189   9.663734   9.354364   8.157634   7.815349
    37  H    6.195867   8.202679   8.279436   7.337597   6.782580
    38  H    4.568818   7.438564   7.897280   7.287682   6.600653
    39  H    2.647143   6.180979   7.013673   6.810617   6.072189
    40  H    1.084601   4.609204   5.753512   5.987034   5.316106
    41  H    2.143226   2.744498   4.103027   4.819972   4.407871
    42  H    4.055430   1.086722   2.162802   3.370332   3.543360
    43  H    5.633716   2.167594   1.087408   2.198587   3.319331
    44  H    5.583605   3.320947   2.204681   1.084564   2.249201
    45  H    4.467846   2.325472   2.388391   2.058896   1.098087
    46  H    5.230044   4.383096   4.349356   3.431814   2.173945
                   31         32         33         34         35
    31  H    0.000000
    32  H    2.424369   0.000000
    33  H    5.013382   2.843479   0.000000
    34  H    6.831519   5.045207   2.422089   0.000000
    35  H    8.321021   7.173329   5.077782   2.899518   0.000000
    36  H    8.869199   8.348441   6.867671   5.074974   2.418610
    37  H    8.695821   8.958453   8.336360   7.161855   5.035781
    38  H    9.097002   9.937665   9.917908   9.140663   7.311044
    39  H    8.985491  10.352431  10.961642  10.660714   9.279538
    40  H    8.417738  10.176865  11.346297  11.523065  10.657731
    41  H    7.446148   9.427813  11.066725  11.709785  11.418011
    42  H    6.234614   8.134410  10.025196  11.034640  11.293054
    43  H    5.500624   6.830499   8.533734   9.646037  10.263272
    44  H    4.262789   5.006322   6.171923   7.042249   7.633949
    45  H    3.210573   5.254094   7.270228   8.459566   9.053443
    46  H    2.474253   4.257928   6.012086   7.091312   7.696845
                   36         37         38         39         40
    36  H    0.000000
    37  H    2.840306   0.000000
    38  H    5.202620   2.365639   0.000000
    39  H    7.407281   4.662696   2.451315   0.000000
    40  H    9.116776   6.604903   4.679346   2.379406   0.000000
    41  H   10.304135   8.183922   6.682207   4.692901   2.473170
    42  H   10.661852   9.081207   8.129416   6.622138   4.756282
    43  H   10.062068   9.089920   8.743555   7.846924   6.517955
    44  H    7.626032   7.099745   7.338855   7.169569   6.620196
    45  H    8.795226   7.693183   7.345369   6.561486   5.496614
    46  H    7.582521   6.780785   6.836344   6.623270   6.234114
                   41         42         43         44         45
    41  H    0.000000
    42  H    2.501401   0.000000
    43  H    4.720096   2.496464   0.000000
    44  H    5.667899   4.269700   2.654647   0.000000
    45  H    4.253861   3.228818   3.392604   3.047289   0.000000
    46  H    5.760604   5.336286   5.349958   3.979841   2.198620
                   46
    46  H    0.000000
 Stoichiometry    C30H16
 Framework group  C1[X(C30H16)]
 Deg. of freedom   132
 Full point group                 C1      NOp   1
 Largest Abelian subgroup         C1      NOp   1
 Largest concise Abelian subgroup C1      NOp   1
                         Standard orientation:                         
 ---------------------------------------------------------------------
 Center     Atomic      Atomic             Coordinates (Angstroms)
 Number     Number       Type             X           Y           Z
 ---------------------------------------------------------------------
      1          6           0       -0.803298   -0.856980   -0.601875
      2          6           0       -0.436653    0.539254   -0.357743
      3          6           0       -1.637082    1.190070    0.011540
      4          6           0       -2.169042   -0.993353   -0.222717
      5          6           0       -2.676482    0.257950    0.116919
      6          6           0       -2.976810   -2.113373   -0.295565
      7          6           0       -4.355272   -1.881294    0.063090
      8          6           0       -4.841034   -0.625093    0.410219
      9          6           0       -3.985980    0.538305    0.430621
     10          6           0       -1.846963    2.538959    0.262938
     11          6           0       -3.214744    2.883378    0.606899
     12          6           0       -4.228433    1.943971    0.686634
     13          6           0       -0.192078   -1.985492   -1.165461
     14          6           0       -0.990755   -3.204388   -1.198014
     15          6           0       -2.298328   -3.288447   -0.774633
     16          6           0        0.742972    1.291726   -0.317518
     17          6           0        0.564422    2.729260   -0.154785
     18          6           0       -0.682971    3.326311    0.115954
     19          6           0        2.078535    0.716561   -0.301062
     20          6           0        3.190595    1.620300   -0.368123
     21          6           0        2.964898    3.039533   -0.410381
     22          6           0        1.727224    3.570454   -0.265386
     23          6           0        2.369000   -0.661604   -0.131166
     24          6           0        3.713030   -1.086113    0.159537
     25          6           0        4.777937   -0.188848   -0.052414
     26          6           0        4.514419    1.135465   -0.325073
     27          6           0        3.902304   -2.340645    0.870826
     28          6           0        2.858136   -2.931682    1.611500
     29          6           0        1.570456   -2.483723    1.292537
     30          6           0        1.627322   -1.952540   -0.039121
     31          1           0       -0.527039   -4.089484   -1.620031
     32          1           0       -2.824374   -4.233840   -0.859125
     33          1           0       -5.049304   -2.715649    0.052001
     34          1           0       -5.892981   -0.527614    0.657994
     35          1           0       -5.227757    2.280096    0.943379
     36          1           0       -3.457167    3.922094    0.807242
     37          1           0       -0.719067    4.405672    0.227332
     38          1           0        1.591785    4.645583   -0.218375
     39          1           0        3.831100    3.687293   -0.494234
     40          1           0        5.330331    1.840349   -0.442488
     41          1           0        5.800938   -0.537426    0.048717
     42          1           0        4.926782   -2.660427    1.041555
     43          1           0        3.088466   -3.532790    2.487898
     44          1           0        0.786127   -2.297601    2.018117
     45          1           0        2.185356   -2.662173   -0.664273
     46          1           0        0.564863   -1.891618   -1.934775
 ---------------------------------------------------------------------
 Rotational constants (GHZ):           0.2733297           0.1553245           0.1054291
 Standard basis: 6-311+G(d,p) (5D, 7F)
 There are   786 symmetry adapted cartesian basis functions of A   symmetry.
 There are   756 symmetry adapted basis functions of A   symmetry.
   756 basis functions,  1208 primitive gaussians,   786 cartesian basis functions
    98 alpha electrons       98 beta electrons
       nuclear repulsion energy      2623.1185028279 Hartrees.
 NAtoms=   46 NActive=   46 NUniq=   46 SFac= 1.00D+00 NAtFMM=   60 NAOKFM=F Big=F
 Integral buffers will be    131072 words long.
 Raffenetti 2 integral format.
 Two-electron integral symmetry is turned on.
 One-electron integrals computed using PRISM.
 NBasis=   756 RedAO= T EigKep=  1.05D-06  NBF=   756
 NBsUse=   736 1.00D-06 EigRej=  9.17D-07 NBFU=   736
 ExpMin= 4.38D-02 ExpMax= 4.56D+03 ExpMxC= 6.82D+02 IAcc=2 IRadAn=         4 AccDes= 0.00D+00
 Harris functional with IExCor=  402 and IRadAn=       4 diagonalized for initial guess.
 HarFok:  IExCor=  402 AccDes= 0.00D+00 IRadAn=         4 IDoV= 1 UseB2=F ITyADJ=14
 ICtDFT=  3500011 ScaDFX=  1.000000  1.000000  1.000000  1.000000
 FoFCou: FMM=F IPFlag=           0 FMFlag=      100000 FMFlg1=           0
         NFxFlg=           0 DoJE=T BraDBF=F KetDBF=T FulRan=T
         wScrn=  0.000000 ICntrl=       500 IOpCl=  0 I1Cent=   200000004 NGrid=           0
         NMat0=    1 NMatS0=      1 NMatT0=    0 NMatD0=    1 NMtDS0=    0 NMtDT0=    0
 Petite list used in FoFCou.
 Requested convergence on RMS density matrix=1.00D-08 within 128 cycles.
 Requested convergence on MAX density matrix=1.00D-06.
 Requested convergence on             energy=1.00D-06.
 No special actions if energy rises.
 SCF Done:  E(RB3LYP) =  -1152.97344993     A.U. after   18 cycles
            NFock= 18  Conv=0.35D-08     -V/T= 2.0045
 DoSCS=F DFT=T ScalE2(SS,OS)=  1.000000  1.000000
 Range of M.O.s used for correlation:     1   736
 NBasis=   756 NAE=    98 NBE=    98 NFC=     0 NFV=     0
 NROrb=    736 NOA=    98 NOB=    98 NVA=   638 NVB=   638

 **** Warning!!: The largest alpha MO coefficient is  0.13175298D+03


 **** Warning!!: The smallest alpha delta epsilon is  0.69213123D-01

 Symmetrizing basis deriv contribution to polar:
 IMax=3 JMax=2 DiffMx= 0.00D+00
 G2DrvN: will do    47 centers at a time, making    1 passes.
 Calling FoFCou, ICntrl=  3107 FMM=F I1Cent=   0 AccDes= 0.00D+00.
 End of G2Drv F.D. properties file   721 does not exist.
 End of G2Drv F.D. properties file   722 does not exist.
 End of G2Drv F.D. properties file   788 does not exist.
          IDoAtm=1111111111111111111111111111111111111111111111
          Differentiating once with respect to nuclear coordinates.
 CalDSu exits because no D1Ps are significant.
          There are   141 degrees of freedom in the 1st order CPHF.  IDoFFX=6 NUNeed=     0.
    135 vectors produced by pass  0 Test12= 6.25D-14 1.00D-09 XBig12= 3.15D-01 1.42D-01.
 AX will form   135 AO Fock derivatives at one time.
    135 vectors produced by pass  1 Test12= 6.25D-14 1.00D-09 XBig12= 7.31D-02 4.74D-02.
    135 vectors produced by pass  2 Test12= 6.25D-14 1.00D-09 XBig12= 1.11D-03 4.29D-03.
    135 vectors produced by pass  3 Test12= 6.25D-14 1.00D-09 XBig12= 7.91D-06 2.72D-04.
    135 vectors produced by pass  4 Test12= 6.25D-14 1.00D-09 XBig12= 2.54D-08 1.13D-05.
    135 vectors produced by pass  5 Test12= 6.25D-14 1.00D-09 XBig12= 1.04D-10 5.70D-07.
    109 vectors produced by pass  6 Test12= 6.25D-14 1.00D-09 XBig12= 1.66D-11 2.74D-07.
     80 vectors produced by pass  7 Test12= 6.25D-14 1.00D-09 XBig12= 2.41D-12 6.86D-08.
     32 vectors produced by pass  8 Test12= 6.25D-14 1.00D-09 XBig12= 7.90D-14 1.41D-08.
      1 vectors produced by pass  9 Test12= 6.25D-14 1.00D-09 XBig12= 4.41D-16 1.15D-09.
 InvSVY:  IOpt=1 It=  1 EMax= 7.77D-16
 Solved reduced A of dimension  1032 with   141 vectors.
 End of Minotr F.D. properties file   721 does not exist.
 End of Minotr F.D. properties file   722 does not exist.
 End of Minotr F.D. properties file   788 does not exist.

 **********************************************************************

            Population analysis using the SCF Density.

 **********************************************************************

 Orbital symmetries:
       Occupied  (A) (A) (A) (A) (A) (A) (A) (A) (A) (A) (A) (A)
                 (A) (A) (A) (A) (A) (A) (A) (A) (A) (A) (A) (A)
                 (A) (A) (A) (A) (A) (A) (A) (A) (A) (A) (A) (A)
                 (A) (A) (A) (A) (A) (A) (A) (A) (A) (A) (A) (A)
                 (A) (A) (A) (A) (A) (A) (A) (A) (A) (A) (A) (A)
                 (A) (A) (A) (A) (A) (A) (A) (A) (A) (A) (A) (A)
                 (A) (A) (A) (A) (A) (A) (A) (A) (A) (A) (A) (A)
                 (A) (A) (A) (A) (A) (A) (A) (A) (A) (A) (A) (A)
                 (A) (A)
       Virtual   (A) (A) (A) (A) (A) (A) (A) (A) (A) (A) (A) (A)
                 (A) (A) (A) (A) (A) (A) (A) (A) (A) (A) (A) (A)
                 (A) (A) (A) (A) (A) (A) (A) (A) (A) (A) (A) (A)
                 (A) (A) (A) (A) (A) (A) (A) (A) (A) (A) (A) (A)
                 (A) (A) (A) (A) (A) (A) (A) (A) (A) (A) (A) (A)
                 (A) (A) (A) (A) (A) (A) (A) (A) (A) (A) (A) (A)
                 (A) (A) (A) (A) (A) (A) (A) (A) (A) (A) (A) (A)
                 (A) (A) (A) (A) (A) (A) (A) (A) (A) (A) (A) (A)
                 (A) (A) (A) (A) (A) (A) (A) (A) (A) (A) (A) (A)
                 (A) (A) (A) (A) (A) (A) (A) (A) (A) (A) (A) (A)
                 (A) (A) (A) (A) (A) (A) (A) (A) (A) (A) (A) (A)
                 (A) (A) (A) (A) (A) (A) (A) (A) (A) (A) (A) (A)
                 (A) (A) (A) (A) (A) (A) (A) (A) (A) (A) (A) (A)
                 (A) (A) (A) (A) (A) (A) (A) (A) (A) (A) (A) (A)
                 (A) (A) (A) (A) (A) (A) (A) (A) (A) (A) (A) (A)
                 (A) (A) (A) (A) (A) (A) (A) (A) (A) (A) (A) (A)
                 (A) (A) (A) (A) (A) (A) (A) (A) (A) (A) (A) (A)
                 (A) (A) (A) (A) (A) (A) (A) (A) (A) (A) (A) (A)
                 (A) (A) (A) (A) (A) (A) (A) (A) (A) (A) (A) (A)
                 (A) (A) (A) (A) (A) (A) (A) (A) (A) (A) (A) (A)
                 (A) (A) (A) (A) (A) (A) (A) (A) (A) (A) (A) (A)
                 (A) (A) (A) (A) (A) (A) (A) (A) (A) (A) (A) (A)
                 (A) (A) (A) (A) (A) (A) (A) (A) (A) (A) (A) (A)
                 (A) (A) (A) (A) (A) (A) (A) (A) (A) (A) (A) (A)
                 (A) (A) (A) (A) (A) (A) (A) (A) (A) (A) (A) (A)
                 (A) (A) (A) (A) (A) (A) (A) (A) (A) (A) (A) (A)
                 (A) (A) (A) (A) (A) (A) (A) (A) (A) (A) (A) (A)
                 (A) (A) (A) (A) (A) (A) (A) (A) (A) (A) (A) (A)
                 (A) (A) (A) (A) (A) (A) (A) (A) (A) (A) (A) (A)
                 (A) (A) (A) (A) (A) (A) (A) (A) (A) (A) (A) (A)
                 (A) (A) (A) (A) (A) (A) (A) (A) (A) (A) (A) (A)
                 (A) (A) (A) (A) (A) (A) (A) (A) (A) (A) (A) (A)
                 (A) (A) (A) (A) (A) (A) (A) (A) (A) (A) (A) (A)
                 (A) (A) (A) (A) (A) (A) (A) (A) (A) (A) (A) (A)
                 (A) (A) (A) (A) (A) (A) (A) (A) (A) (A) (A) (A)
                 (A) (A) (A) (A) (A) (A) (A) (A) (A) (A) (A) (A)
                 (A) (A) (A) (A) (A) (A) (A) (A) (A) (A) (A) (A)
                 (A) (A) (A) (A) (A) (A) (A) (A) (A) (A) (A) (A)
                 (A) (A) (A) (A) (A) (A) (A) (A) (A) (A) (A) (A)
                 (A) (A) (A) (A) (A) (A) (A) (A) (A) (A) (A) (A)
                 (A) (A) (A) (A) (A) (A) (A) (A) (A) (A) (A) (A)
                 (A) (A) (A) (A) (A) (A) (A) (A) (A) (A) (A) (A)
                 (A) (A) (A) (A) (A) (A) (A) (A) (A) (A) (A) (A)
                 (A) (A) (A) (A) (A) (A) (A) (A) (A) (A) (A) (A)
                 (A) (A) (A) (A) (A) (A) (A) (A) (A) (A) (A) (A)
                 (A) (A) (A) (A) (A) (A) (A) (A) (A) (A) (A) (A)
                 (A) (A) (A) (A) (A) (A) (A) (A) (A) (A) (A) (A)
                 (A) (A) (A) (A) (A) (A) (A) (A) (A) (A) (A) (A)
                 (A) (A) (A) (A) (A) (A) (A) (A) (A) (A) (A) (A)
                 (A) (A) (A) (A) (A) (A) (A) (A) (A) (A) (A) (A)
                 (A) (A) (A) (A) (A) (A) (A) (A) (A) (A) (A) (A)
                 (A) (A) (A) (A) (A) (A) (A) (A) (A) (A) (A) (A)
                 (A) (A) (A) (A) (A) (A) (A) (A) (A) (A) (A) (A)
                 (A) (A)
 The electronic state is 1-A.
 Alpha  occ. eigenvalues --  -10.20909 -10.20743 -10.19993 -10.19804 -10.19763
 Alpha  occ. eigenvalues --  -10.19719 -10.19714 -10.19679 -10.19479 -10.19425
 Alpha  occ. eigenvalues --  -10.19408 -10.19365 -10.19361 -10.19355 -10.19353
 Alpha  occ. eigenvalues --  -10.19294 -10.19244 -10.19149 -10.18869 -10.18742
 Alpha  occ. eigenvalues --  -10.18398 -10.18362 -10.18203 -10.18048 -10.17759
 Alpha  occ. eigenvalues --  -10.17594 -10.17324 -10.17308 -10.17174 -10.16754
 Alpha  occ. eigenvalues --   -0.92384  -0.89238  -0.87475  -0.85647  -0.84632
 Alpha  occ. eigenvalues --   -0.82396  -0.81153  -0.79369  -0.78445  -0.75999
 Alpha  occ. eigenvalues --   -0.74603  -0.74315  -0.73012  -0.71851  -0.70817
 Alpha  occ. eigenvalues --   -0.66695  -0.65465  -0.63964  -0.63146  -0.61164
 Alpha  occ. eigenvalues --   -0.60602  -0.59966  -0.57928  -0.56251  -0.54990
 Alpha  occ. eigenvalues --   -0.53867  -0.51864  -0.51738  -0.51157  -0.50137
 Alpha  occ. eigenvalues --   -0.49588  -0.48220  -0.47111  -0.46489  -0.45564
 Alpha  occ. eigenvalues --   -0.44919  -0.44442  -0.43960  -0.43529  -0.43213
 Alpha  occ. eigenvalues --   -0.42689  -0.42249  -0.41574  -0.41385  -0.40436
 Alpha  occ. eigenvalues --   -0.40062  -0.39542  -0.39115  -0.38612  -0.37431
 Alpha  occ. eigenvalues --   -0.36863  -0.36511  -0.35617  -0.35204  -0.34416
 Alpha  occ. eigenvalues --   -0.33840  -0.33782  -0.33033  -0.31830  -0.30276
 Alpha  occ. eigenvalues --   -0.28937  -0.28665  -0.26580  -0.24076  -0.23515
 Alpha  occ. eigenvalues --   -0.22533  -0.20983  -0.18216
 Alpha virt. eigenvalues --   -0.11295  -0.07833  -0.04943  -0.03658  -0.01476
 Alpha virt. eigenvalues --   -0.00530   0.00033   0.00288   0.00604   0.00684
 Alpha virt. eigenvalues --    0.01431   0.01486   0.01738   0.02102   0.02462
 Alpha virt. eigenvalues --    0.03009   0.03068   0.03397   0.04044   0.04421
 Alpha virt. eigenvalues --    0.04702   0.04987   0.05193   0.05255   0.05880
 Alpha virt. eigenvalues --    0.06082   0.06489   0.06985   0.07322   0.07453
 Alpha virt. eigenvalues --    0.07910   0.08203   0.08386   0.08555   0.09295
 Alpha virt. eigenvalues --    0.09382   0.09680   0.10052   0.10649   0.11054
 Alpha virt. eigenvalues --    0.11215   0.11356   0.11552   0.12076   0.12306
 Alpha virt. eigenvalues --    0.12575   0.13233   0.13601   0.13886   0.14123
 Alpha virt. eigenvalues --    0.14559   0.14749   0.15082   0.15292   0.15827
 Alpha virt. eigenvalues --    0.15934   0.15959   0.16361   0.16551   0.16718
 Alpha virt. eigenvalues --    0.17037   0.17165   0.17249   0.17528   0.17868
 Alpha virt. eigenvalues --    0.17993   0.18316   0.18737   0.18796   0.18940
 Alpha virt. eigenvalues --    0.19084   0.19263   0.19305   0.19387   0.19845
 Alpha virt. eigenvalues --    0.19902   0.20311   0.20325   0.20806   0.20984
 Alpha virt. eigenvalues --    0.21253   0.21522   0.21707   0.22119   0.22170
 Alpha virt. eigenvalues --    0.22383   0.22611   0.22783   0.22853   0.23084
 Alpha virt. eigenvalues --    0.23360   0.23549   0.23599   0.23715   0.23853
 Alpha virt. eigenvalues --    0.24083   0.24470   0.24722   0.25060   0.25116
 Alpha virt. eigenvalues --    0.25351   0.25742   0.25910   0.26219   0.26491
 Alpha virt. eigenvalues --    0.26832   0.27045   0.27177   0.27540   0.27789
 Alpha virt. eigenvalues --    0.27937   0.28198   0.28513   0.28548   0.28745
 Alpha virt. eigenvalues --    0.29000   0.29106   0.29459   0.29867   0.29967
 Alpha virt. eigenvalues --    0.30381   0.30759   0.31166   0.31537   0.31722
 Alpha virt. eigenvalues --    0.32154   0.32395   0.33069   0.33270   0.33768
 Alpha virt. eigenvalues --    0.33875   0.34320   0.34673   0.35075   0.35284
 Alpha virt. eigenvalues --    0.35652   0.35992   0.36361   0.36806   0.37305
 Alpha virt. eigenvalues --    0.37863   0.38417   0.38835   0.39156   0.39712
 Alpha virt. eigenvalues --    0.39984   0.40479   0.41332   0.41893   0.42035
 Alpha virt. eigenvalues --    0.42492   0.43464   0.43878   0.44608   0.44798
 Alpha virt. eigenvalues --    0.45758   0.46690   0.47072   0.47635   0.48084
 Alpha virt. eigenvalues --    0.48524   0.49213   0.50349   0.50610   0.51311
 Alpha virt. eigenvalues --    0.52133   0.52717   0.53334   0.53804   0.54315
 Alpha virt. eigenvalues --    0.54382   0.54800   0.54981   0.55270   0.55947
 Alpha virt. eigenvalues --    0.56156   0.56556   0.57013   0.57376   0.57993
 Alpha virt. eigenvalues --    0.58212   0.58665   0.58840   0.59277   0.59478
 Alpha virt. eigenvalues --    0.59858   0.60443   0.60907   0.61117   0.61837
 Alpha virt. eigenvalues --    0.61990   0.62012   0.62269   0.62961   0.63557
 Alpha virt. eigenvalues --    0.64115   0.64487   0.64900   0.65485   0.65723
 Alpha virt. eigenvalues --    0.66033   0.66621   0.66653   0.66892   0.67366
 Alpha virt. eigenvalues --    0.68080   0.68220   0.68664   0.69102   0.69571
 Alpha virt. eigenvalues --    0.69774   0.70046   0.70181   0.70580   0.71236
 Alpha virt. eigenvalues --    0.71295   0.71876   0.72263   0.72404   0.72868
 Alpha virt. eigenvalues --    0.72987   0.73432   0.73687   0.74103   0.74560
 Alpha virt. eigenvalues --    0.74713   0.74923   0.75148   0.75334   0.76072
 Alpha virt. eigenvalues --    0.76374   0.76725   0.77517   0.77799   0.78122
 Alpha virt. eigenvalues --    0.79031   0.79443   0.80135   0.80299   0.81462
 Alpha virt. eigenvalues --    0.81951   0.82415   0.83343   0.83803   0.84055
 Alpha virt. eigenvalues --    0.84688   0.85771   0.86240   0.86600   0.87165
 Alpha virt. eigenvalues --    0.87571   0.88334   0.89151   0.89557   0.89723
 Alpha virt. eigenvalues --    0.90418   0.90676   0.91211   0.91785   0.92817
 Alpha virt. eigenvalues --    0.93266   0.93532   0.93891   0.94804   0.94835
 Alpha virt. eigenvalues --    0.95067   0.95665   0.96175   0.96729   0.96866
 Alpha virt. eigenvalues --    0.97078   0.97610   0.98011   0.98322   0.98825
 Alpha virt. eigenvalues --    0.99209   0.99622   1.00206   1.00621   1.01571
 Alpha virt. eigenvalues --    1.02086   1.02728   1.03121   1.03805   1.04280
 Alpha virt. eigenvalues --    1.04713   1.05272   1.05882   1.06892   1.07736
 Alpha virt. eigenvalues --    1.08177   1.08571   1.09582   1.09732   1.10025
 Alpha virt. eigenvalues --    1.11557   1.12074   1.12666   1.13981   1.14115
 Alpha virt. eigenvalues --    1.14556   1.15709   1.16352   1.16488   1.17101
 Alpha virt. eigenvalues --    1.17341   1.18758   1.20516   1.21480   1.23028
 Alpha virt. eigenvalues --    1.23463   1.24193   1.26944   1.28716   1.29037
 Alpha virt. eigenvalues --    1.30004   1.31423   1.32496   1.33238   1.34034
 Alpha virt. eigenvalues --    1.35400   1.36198   1.38572   1.38881   1.39719
 Alpha virt. eigenvalues --    1.40283   1.41511   1.42619   1.44107   1.45344
 Alpha virt. eigenvalues --    1.46665   1.46880   1.47170   1.47835   1.47970
 Alpha virt. eigenvalues --    1.48554   1.48969   1.50099   1.50401   1.51220
 Alpha virt. eigenvalues --    1.51363   1.52679   1.53379   1.53867   1.54701
 Alpha virt. eigenvalues --    1.55311   1.56907   1.57188   1.57420   1.57856
 Alpha virt. eigenvalues --    1.58392   1.58754   1.59500   1.59978   1.60161
 Alpha virt. eigenvalues --    1.60736   1.61871   1.62319   1.63325   1.65331
 Alpha virt. eigenvalues --    1.66629   1.66733   1.67350   1.67642   1.68290
 Alpha virt. eigenvalues --    1.68820   1.69212   1.70513   1.71383   1.71715
 Alpha virt. eigenvalues --    1.72833   1.73526   1.73784   1.74030   1.74810
 Alpha virt. eigenvalues --    1.75607   1.75818   1.76287   1.77056   1.77865
 Alpha virt. eigenvalues --    1.78452   1.79094   1.80422   1.81536   1.82227
 Alpha virt. eigenvalues --    1.82639   1.83476   1.83606   1.84302   1.84549
 Alpha virt. eigenvalues --    1.85076   1.85978   1.86549   1.86726   1.87675
 Alpha virt. eigenvalues --    1.88416   1.88802   1.89469   1.89853   1.90023
 Alpha virt. eigenvalues --    1.90806   1.91538   1.92128   1.92813   1.93758
 Alpha virt. eigenvalues --    1.93883   1.94100   1.94992   1.95255   1.96219
 Alpha virt. eigenvalues --    1.97321   1.98240   1.98819   1.99634   2.00939
 Alpha virt. eigenvalues --    2.01174   2.02066   2.02440   2.03353   2.03669
 Alpha virt. eigenvalues --    2.04786   2.04954   2.05273   2.06166   2.07400
 Alpha virt. eigenvalues --    2.08737   2.08981   2.10203   2.11152   2.11431
 Alpha virt. eigenvalues --    2.12848   2.13265   2.13470   2.14306   2.14763
 Alpha virt. eigenvalues --    2.16289   2.17399   2.18028   2.18394   2.20449
 Alpha virt. eigenvalues --    2.20601   2.21369   2.21829   2.23360   2.23989
 Alpha virt. eigenvalues --    2.24653   2.25694   2.26387   2.26884   2.28318
 Alpha virt. eigenvalues --    2.29214   2.30357   2.32167   2.33426   2.36074
 Alpha virt. eigenvalues --    2.36627   2.37847   2.39164   2.39759   2.40406
 Alpha virt. eigenvalues --    2.42336   2.42704   2.43014   2.45027   2.45785
 Alpha virt. eigenvalues --    2.46782   2.46919   2.48524   2.48836   2.51059
 Alpha virt. eigenvalues --    2.53932   2.55731   2.56060   2.56884   2.57730
 Alpha virt. eigenvalues --    2.58218   2.60202   2.61562   2.63338   2.64126
 Alpha virt. eigenvalues --    2.65088   2.66429   2.66975   2.67723   2.69665
 Alpha virt. eigenvalues --    2.71002   2.71523   2.71822   2.71988   2.72962
 Alpha virt. eigenvalues --    2.73653   2.73756   2.74165   2.74700   2.75009
 Alpha virt. eigenvalues --    2.75452   2.76018   2.76154   2.76499   2.76959
 Alpha virt. eigenvalues --    2.77208   2.77436   2.78064   2.78596   2.79165
 Alpha virt. eigenvalues --    2.79353   2.80228   2.80476   2.81480   2.82099
 Alpha virt. eigenvalues --    2.82851   2.84104   2.84678   2.85177   2.86526
 Alpha virt. eigenvalues --    2.87202   2.87924   2.88470   2.89104   2.89722
 Alpha virt. eigenvalues --    2.90234   2.92288   2.92688   2.93852   2.94585
 Alpha virt. eigenvalues --    2.95086   2.96571   2.99335   3.01158   3.02257
 Alpha virt. eigenvalues --    3.02711   3.03685   3.05876   3.06686   3.07511
 Alpha virt. eigenvalues --    3.10215   3.11882   3.13402   3.14759   3.15635
 Alpha virt. eigenvalues --    3.16731   3.17969   3.18486   3.20081   3.21055
 Alpha virt. eigenvalues --    3.21947   3.23189   3.24422   3.24969   3.25718
 Alpha virt. eigenvalues --    3.29118   3.30962   3.33143   3.33865   3.36058
 Alpha virt. eigenvalues --    3.36743   3.38259   3.39921   3.40088   3.42339
 Alpha virt. eigenvalues --    3.42405   3.43578   3.45329   3.46420   3.47290
 Alpha virt. eigenvalues --    3.48517   3.48834   3.50300   3.51120   3.53418
 Alpha virt. eigenvalues --    3.55135   3.57400   3.61431   3.62426   3.62676
 Alpha virt. eigenvalues --    3.62921   3.66142   3.69048   3.72830   3.74983
 Alpha virt. eigenvalues --    3.82056   3.83837   3.86002   3.94960   3.99581
 Alpha virt. eigenvalues --    4.03503   4.05694   4.05850   4.06722   4.07343
 Alpha virt. eigenvalues --    4.08356   4.10090   4.10594   4.20855   4.22210
 Alpha virt. eigenvalues --    4.27153   4.28218   4.34627   4.39440   4.46007
 Alpha virt. eigenvalues --    4.68213   4.73845   4.75207   4.77693   4.81125
 Alpha virt. eigenvalues --    4.81411   4.82948   4.87641  23.43100  23.60121
 Alpha virt. eigenvalues --   23.72089  23.78066  23.81339  23.82923  23.85642
 Alpha virt. eigenvalues --   23.89137  23.89237  23.91737  23.94213  23.96511
 Alpha virt. eigenvalues --   23.97327  23.98304  24.00015  24.00400  24.01087
 Alpha virt. eigenvalues --   24.03061  24.03517  24.05800  24.09645  24.10423
 Alpha virt. eigenvalues --   24.10636  24.10975  24.12169  24.13381  24.15665
 Alpha virt. eigenvalues --   24.16736  24.21668  24.21941
          Condensed to atoms (all electrons):
               1          2          3          4          5          6
     1  C   10.888065  -0.174932  -0.032251  -0.231650  -0.887147  -0.948747
     2  C   -0.174932   8.174106  -0.969265   0.242500  -0.316988  -0.075170
     3  C   -0.032251  -0.969265   8.517964   0.133920   0.493333   0.533893
     4  C   -0.231650   0.242500   0.133920   7.471834  -0.067909   1.319328
     5  C   -0.887147  -0.316988   0.493333  -0.067909   7.506238  -0.273486
     6  C   -0.948747  -0.075170   0.533893   1.319328  -0.273486  12.329429
     7  C   -1.921164  -0.039435  -0.955702  -1.233109   1.427346  -2.941232
     8  C   -0.334537   0.317590  -1.224897   0.518047  -1.604468  -1.586524
     9  C   -0.255387   0.055579  -0.422148   0.351594   1.348754   0.102896
    10  C   -0.680219   0.590475   0.014900   0.547830   0.099261  -0.394493
    11  C   -0.372495  -0.990635   0.533423  -0.624698   0.763211  -0.113537
    12  C    0.735888  -0.440729   1.560049  -0.706347  -0.932661   0.591648
    13  C   -1.351218   0.700086  -1.387058  -0.754196  -0.247315   0.694925
    14  C   -1.678606  -0.237581  -0.051616   0.485163  -0.234670  -0.248835
    15  C    1.715143  -0.085202   0.214393  -1.684561  -0.279569  -3.150800
    16  C    0.927709   0.374271  -0.136801  -0.257685   0.044925  -0.277429
    17  C   -0.806636  -0.201661   0.587244   0.358121  -0.082182   0.248837
    18  C    0.116726   1.167865  -0.241651  -0.200415  -0.345481  -0.134567
    19  C    0.424655  -0.363623  -0.026276   0.012221  -0.277937   0.120570
    20  C   -0.330076   0.205074  -0.275957   0.089927   0.142067  -0.092572
    21  C    0.084395  -0.360379  -0.251251  -0.045879   0.017241   0.013516
    22  C    0.389726  -0.872340  -0.726791  -0.068859  -0.002843   0.063192
    23  C    0.118655   0.354558  -0.503779  -0.026313   0.012912  -0.413280
    24  C    0.138322  -0.445234   0.447728   0.295036   0.004029   0.040975
    25  C    0.148572  -0.007885   0.001747   0.070748  -0.003810   0.010441
    26  C   -0.020142   0.250929  -0.257757  -0.017716   0.031519  -0.013245
    27  C   -0.344027  -0.194772   0.073122  -0.024597  -0.011616   0.024783
    28  C    0.146224   0.108366  -0.066992  -0.009291   0.041059   0.002202
    29  C   -0.151842  -0.125406  -0.082604  -0.161101  -0.028175   0.209288
    30  C   -0.199424  -0.626165   0.549067  -0.132068  -0.045977   0.302415
    31  H    0.056772  -0.006693   0.001266  -0.002512  -0.000097  -0.025328
    32  H   -0.003569   0.000515   0.003769   0.036523  -0.010295  -0.072574
    33  H   -0.013369   0.002573  -0.003117   0.025747  -0.005397  -0.112258
    34  H   -0.003527   0.001491  -0.019257  -0.004308   0.034613  -0.026028
    35  H    0.003225   0.000020   0.005412  -0.012270   0.028953   0.007011
    36  H    0.006697  -0.001494   0.033433  -0.004112  -0.006641   0.000817
    37  H   -0.004031  -0.027584   0.029314   0.005322  -0.008067   0.000082
    38  H   -0.000348  -0.005507   0.006751  -0.000181   0.001415   0.000010
    39  H    0.000040   0.001233   0.000128   0.000004   0.000066  -0.000005
    40  H   -0.000347   0.001858   0.000163   0.000048   0.000010  -0.000001
    41  H    0.000127   0.000002   0.000129   0.000014   0.000003   0.000007
    42  H    0.001468  -0.000458   0.000121   0.000013  -0.000011   0.000035
    43  H    0.000184  -0.000255  -0.000072   0.000006  -0.000160   0.000038
    44  H    0.009498   0.004841   0.000046   0.006814  -0.005370   0.005441
    45  H    0.058379  -0.015332   0.001098  -0.006590  -0.003493   0.009874
    46  H   -0.023297   0.026789  -0.008473   0.012891  -0.000437  -0.034886
               7          8          9         10         11         12
     1  C   -1.921164  -0.334537  -0.255387  -0.680219  -0.372495   0.735888
     2  C   -0.039435   0.317590   0.055579   0.590475  -0.990635  -0.440729
     3  C   -0.955702  -1.224897  -0.422148   0.014900   0.533423   1.560049
     4  C   -1.233109   0.518047   0.351594   0.547830  -0.624698  -0.706347
     5  C    1.427346  -1.604468   1.348754   0.099261   0.763211  -0.932661
     6  C   -2.941232  -1.586524   0.102896  -0.394493  -0.113537   0.591648
     7  C   12.597833   1.186273  -0.685052   0.271681   0.088087  -1.364781
     8  C    1.186273  10.803992  -2.281438   0.547855  -0.469716  -0.298576
     9  C   -0.685052  -2.281438  11.525838   1.257823  -1.080311  -3.012145
    10  C    0.271681   0.547855   1.257823   9.875662  -0.637237  -2.103181
    11  C    0.088087  -0.469716  -1.080311  -0.637237   9.593032   1.932306
    12  C   -1.364781  -0.298576  -3.012145  -2.103181   1.932306  11.110537
    13  C    0.233229   0.802000  -0.153175   0.210205  -0.251992  -0.068708
    14  C   -0.580097  -0.203101   0.182950   0.013287   0.050408   0.053460
    15  C   -0.002702  -0.281415   0.033972  -0.193579  -0.113785  -0.054294
    16  C   -0.320180  -0.131083  -0.567216  -0.913380  -0.486827   0.499044
    17  C    0.084996  -0.116022  -0.026751  -1.265540  -0.324662  -0.883582
    18  C   -0.104521   0.154544  -0.345829   1.965555  -0.568049   0.018291
    19  C    0.030607  -0.010636   0.013032  -1.013689  -0.226636  -0.132167
    20  C   -0.027100  -0.013946  -0.075759  -0.169031   0.009054   0.036086
    21  C   -0.002588   0.005270  -0.011465  -0.176324  -0.113785  -0.034054
[...]
 8,-0.00093049,-0.00218813,-0.00119740,0.00232322,0.00062112,-0.0004440
 6,-0.00012434,0.00003187,-0.00039474,-0.00005834,0.00763841,-0.0145957
 8,0.01666591,-0.06975701,0.03619820,-0.04363826,-0.00190894,0.01176267
 ,-0.02313225,-0.00184339,0.00549946,-0.00078873,0.00000274,-0.00000174
 ,-0.00000776,-0.00000790,0.00000451,-0.00000560,0.00000064,0.00000034,
 -0.00000394,-0.00000303,-0.00000095,-0.00000101,-0.00000057,-0.0000015
 0,-0.00000203,-0.00000147,0.00000021,-0.00000057,-0.00000094,0.0000007
 8,-0.00000557,-0.00000199,0.00000014,0.00001025,0.00000125,0.00001197,
 -0.00000057,0.00002007,-0.00009744,0.00003829,-0.00005477,0.00002420,0
 .00006003,0.00058301,0.00054067,-0.00036858,0.06764089,-0.00015422,-0.
 00037755,-0.00019963,0.00023472,-0.00005421,-0.00009703,-0.00032866,0.
 00007494,0.00008945,0.00020963,0.00002745,-0.00010857,0.00022205,0.000
 14176,-0.00000833,-0.00012673,-0.00006351,0.00004908,0.00013638,-0.000
 05922,-0.00003956,0.00000800,0.00018343,0.00002565,-0.00018145,-0.0001
 0870,0.00002294,0.00006969,-0.00001421,-0.00002857,-0.00003779,0.00001
 657,0.00000961,0.00004599,0.00000356,-0.00000980,-0.00084839,0.0002508
 4,0.00017102,-0.00001832,0.00012695,-0.00012697,-0.00000004,0.00010001
 ,-0.00001093,-0.00043102,-0.00025028,-0.00003076,-0.00013696,-0.000026
 32,0.00010880,-0.00004798,0.00006378,0.00000635,0.00008945,-0.00039034
 ,-0.00079920,0.00124625,-0.00027408,0.00032941,0.00008938,0.00031404,0
 .00003272,0.00011409,-0.00040657,-0.00002847,0.00112460,0.00121492,-0.
 00019664,0.00008999,0.00682413,0.00153057,-0.00082870,-0.00173604,0.00
 106644,-0.00074976,0.00128017,-0.00077825,-0.00262177,-0.00827793,0.01
 458223,0.04477286,-0.12269871,0.12528020,-0.00703934,0.00201433,0.0029
 7593,0.00163811,0.00070272,0.00411463,0.00000404,0.00000056,0.00000443
 ,0.00000137,-0.00000375,0.00000529,-0.00000179,-0.00000125,-0.00000001
 ,0.00000295,0.00000529,0.00000202,0.00000171,0.00000261,0.00000308,0.0
 0000351,-0.00000181,0.00000285,0.00000280,-0.00000622,0.00001452,0.000
 01368,0.00000248,-0.00001470,-0.00000849,-0.00002299,-0.00000500,-0.00
 003456,-0.00001004,-0.00004932,-0.00000575,0.00007964,0.00024309,-0.00
 056059,-0.00198258,-0.00244305,-0.03492756,0.12375432,-0.00024725,0.00
 008860,-0.00002958,0.00002418,-0.00030038,-0.00005372,-0.00022186,0.00
 002088,0.00007165,0.00015364,0.00004193,-0.00015543,0.00012521,0.00011
 477,0.00000626,-0.00022394,0.00004567,0.00012674,0.00020215,-0.0000898
 5,-0.00005471,-0.00002794,0.00021982,0.00004167,-0.00018469,-0.0001009
 5,0.00002963,0.00004004,0.00000857,-0.00001703,0.00000192,-0.00000744,
 -0.00000162,0.00001231,-0.00001671,0.00000137,0.00043104,0.00021573,0.
 00054477,-0.00028955,-0.00005093,-0.00002204,0.00017985,-0.00002120,-0
 .00010583,0.00001612,-0.00006112,-0.00005271,-0.00011675,-0.00003403,0
 .00002124,-0.00001232,0.00006899,0.00001063,0.00004985,0.00028624,-0.0
 0001924,0.00049762,-0.00024351,0.00020212,0.00001890,0.00017341,-0.000
 01608,0.00007094,-0.00017866,-0.00001484,-0.00080499,-0.00006880,-0.00
 009644,0.00272538,0.00157795,-0.00028172,-0.00101342,-0.00018693,0.000
 64192,-0.00001149,0.00075362,-0.00026617,-0.00839137,0.00653395,-0.004
 81718,-0.03491540,0.13086934,-0.22548203,-0.00520244,0.00393423,-0.002
 40453,-0.00141195,0.00358602,0.00084167,0.00001065,-0.00001550,0.00000
 059,-0.00001634,-0.00001491,-0.00000713,-0.00001453,-0.00001176,-0.000
 00504,-0.00000979,0.00000711,0.00000344,-0.00001210,0.00000534,0.00000
 198,-0.00000167,0.00001196,0.00000242,-0.00000021,0.00000892,0.0000105
 4,0.00000175,0.00001548,-0.00000327,0.00001266,0.00000171,-0.00000959,
 -0.00002662,0.00007153,-0.00010415,0.00004928,0.00002224,0.00007775,0.
 00010385,-0.00150640,-0.00066966,0.04938373,-0.14517239,0.23244799,-0.
 00020361,0.00090857,0.00125461,0.00004185,-0.00050317,0.00007345,-0.00
 000267,0.00002888,-0.00000966,-0.00022301,0.00016537,-0.00025029,-0.00
 017549,0.00001378,-0.00004917,-0.00037069,0.00033155,0.00007328,0.0001
 8294,-0.00006677,-0.00002322,-0.00014719,0.00008679,0.00005217,0.00004
 974,-0.00002367,0.00002941,-0.00006055,-0.00001117,0.00002056,-0.00000
 043,0.00002790,0.00000113,0.00000549,0.00000112,-0.00000234,0.00334841
 ,-0.00033002,0.00156935,-0.00039112,-0.00061863,0.00036916,0.00037519,
 -0.00017968,-0.00019344,0.00005447,0.00046700,-0.00018499,0.00006462,-
 0.00047358,-0.00012460,0.00000009,0.00010615,0.00001224,-0.00026630,-0
 .00032130,0.00040790,-0.00047479,0.00012834,0.00002636,0.00022623,-0.0
 0006198,-0.00006710,-0.00013591,0.00000474,0.00005179,-0.00007524,-0.0
 0026641,0.00009109,0.00060727,-0.00105593,0.00055682,0.00058843,0.0006
 9026,-0.00010620,0.00060589,-0.00050694,0.00020468,-0.00139732,0.00724
 189,-0.00303158,-0.01907825,0.00338290,0.02012663,-0.18587305,0.042420
 13,0.14455177,0.00174780,0.00176524,-0.01102252,0.00000535,-0.00000788
 ,0.00001196,0.00000108,-0.00000689,-0.00002215,-0.00000944,-0.00000233
 ,-0.00000722,0.00000561,0.00000214,0.00000117,0.00000240,0.00000211,0.
 00000123,0.00000028,-0.00000086,0.00000204,-0.00000837,0.00000812,0.00
 000424,0.00001889,0.00000713,0.00001677,-0.00000540,-0.00000574,0.0000
 1055,-0.00000173,-0.00002673,0.00000094,0.00009294,0.00000927,-0.00014
 476,-0.00083865,-0.00142598,-0.00054923,0.00001846,-0.00079842,-0.0011
 1399,0.19947885,-0.00073349,0.00236547,0.00153378,-0.00028003,-0.00084
 837,0.00012259,0.00038030,-0.00002844,-0.00012011,-0.00040869,0.000190
 28,-0.00040718,-0.00047804,-0.00018043,0.00003977,-0.00038807,0.000610
 72,0.00015783,0.00012873,-0.00005530,0.00000098,-0.00020168,-0.0000523
 2,0.00003863,0.00027195,0.00007486,0.00001860,-0.00018027,-0.00004508,
 0.00002372,0.00003834,0.00000698,-0.00001242,-0.00003924,-0.00001061,0
 .00000954,0.00605333,-0.00077388,0.00263911,-0.00059057,-0.00118524,0.
 00064853,0.00056263,-0.00028886,-0.00031669,0.00053213,0.00081044,-0.0
 0005693,0.00018661,-0.00058387,-0.00029059,0.00007663,0.00009249,0.000
 02824,-0.00059181,-0.00010719,0.00117598,-0.00159580,0.00032971,-0.000
 02910,0.00021842,-0.00034345,-0.00010119,-0.00030405,0.00032222,0.0000
 7545,0.00077662,-0.00040521,-0.00090313,0.00083348,-0.00402721,0.00134
 055,0.00107699,0.00262075,-0.00060912,0.00147151,-0.00163128,0.0004156
 5,0.00569584,0.00807676,-0.00516735,-0.01275084,0.00462104,-0.00669334
 ,0.06165758,-0.05187462,-0.01292920,-0.01213946,0.01137503,-0.00931416
 ,-0.00000027,-0.00002371,-0.00004334,-0.00000313,-0.00001509,-0.000066
 48,-0.00002073,-0.00000462,-0.00001239,0.00000184,-0.00000309,0.000000
 63,-0.00000106,0.00000156,-0.00000205,-0.00000281,0.00000231,0.0000032
 5,-0.00001407,0.00001856,-0.00000510,0.00001221,0.00001205,0.00004124,
 0.00000494,0.00000678,0.00001781,0.00001990,0.00001036,-0.00001214,0.0
 0008496,-0.00010684,-0.00022457,-0.00000406,0.00061817,-0.00017623,-0.
 00141451,-0.00097141,-0.00075564,-0.05148657,0.03122776,-0.00030870,0.
 00090469,0.00074521,-0.00006916,0.00002969,0.00004936,0.00003492,-0.00
 006119,-0.00004742,-0.00036052,0.00016987,-0.00003666,-0.00005488,0.00
 000652,0.00001575,-0.00022372,0.00014843,0.00008860,0.00001520,-0.0000
 5779,-0.00000382,-0.00002944,-0.00000585,0.00000103,-0.00000451,0.0001
 0454,0.00004329,-0.00014066,-0.00001237,0.00004250,0.00010866,-0.00002
 241,-0.00002693,-0.00007375,-0.00007659,-0.00000043,0.00289612,-0.0004
 3276,0.00203922,-0.00038124,-0.00060247,0.00012289,0.00015919,-0.00013
 452,-0.00020557,0.00004185,0.00029536,-0.00013397,-0.00007962,-0.00022
 570,-0.00006442,0.00011216,-0.00001468,-0.00001953,0.00036592,-0.00085
 115,0.00024778,0.00035699,0.00025913,-0.00005186,-0.00005946,-0.000024
 53,0.00000248,0.00013425,0.00021625,0.00000538,-0.00040169,0.00171535,
 -0.00018628,-0.00002785,0.00022670,0.00073179,-0.00031918,-0.00009030,
 0.00018487,-0.00015462,0.00033507,-0.00003862,-0.00123374,0.00095298,-
 0.00168550,-0.01081558,0.00203931,0.00924897,0.14364707,-0.02747239,-0
 .17213443,0.01481213,-0.00813632,-0.01841497,0.00003473,0.00003392,0.0
 0000832,0.00000515,0.00000229,-0.00001348,0.00000662,0.00000364,-0.000
 00698,0.00000847,-0.00000526,-0.00000101,0.00000565,-0.00000852,-0.000
 00380,0.00000044,-0.00000439,-0.00000185,-0.00000323,-0.00000284,0.000
 00090,-0.00000283,-0.00000410,0.00000855,-0.00000291,0.00001100,0.0000
 0215,-0.00000447,0.00000646,-0.00002090,0.00002176,-0.00007613,-0.0000
 7836,-0.00063481,-0.00053654,-0.00026697,0.00049745,-0.00035497,-0.000
 39464,-0.15083798,0.03009904,0.18482316,-0.00125525,0.00101098,-0.0008
 8301,-0.00034273,-0.00037681,0.00017938,-0.00007312,-0.00000032,-0.000
 06824,-0.00009617,0.00009998,-0.00014514,-0.00011753,0.00012079,0.0001
 0413,-0.00007996,0.00031075,0.00010884,0.00003895,-0.00020987,-0.00007
 669,0.00000997,0.00006672,0.00000666,0.00015326,-0.00004914,0.00001088
 ,0.00003543,-0.00028124,-0.00004431,-0.00007215,-0.00006844,0.00001655
 ,-0.00002994,0.00007018,0.00000521,-0.00442067,0.00293022,0.00180318,0
 .00002287,0.00018826,0.00004415,0.00019881,-0.00023382,-0.00011385,0.0
 0011975,0.00051950,-0.00029570,0.00002750,0.00006011,-0.00005566,0.000
 21186,-0.00001804,-0.00006730,-0.00060481,-0.00143279,0.00145003,0.000
 07428,0.00056286,0.00028136,-0.00031251,-0.00016953,-0.00003093,0.0001
 6017,0.00050032,-0.00001310,0.00444677,-0.00477817,-0.00445147,-0.0049
 8603,-0.00637944,-0.00301438,0.00040682,-0.00015130,-0.00161554,-0.000
 77765,-0.00044386,0.00022319,-0.00044061,-0.00090669,-0.00294331,-0.00
 613873,-0.00086175,-0.00577909,-0.00306097,-0.00065026,0.01550795,-0.0
 9829508,0.08599721,0.07780003,-0.00023362,-0.00029757,-0.00018897,0.00
 004034,-0.00000011,0.00002897,0.00001032,0.00000793,-0.00000130,0.0000
 1039,-0.00001430,0.00000517,0.00000473,-0.00000390,-0.00000813,0.00000
 105,-0.00000962,0.00000307,0.00001176,-0.00001921,0.00000358,-0.000006
 81,-0.00002942,0.00002633,0.00000318,0.00000409,0.00000015,0.00001744,
 0.00006553,0.00013716,-0.00002131,-0.00006909,-0.00004181,-0.00011926,
 -0.00002566,-0.00031060,-0.00007876,-0.00049888,0.00007474,0.00238240,
 0.00393674,0.00267580,0.11421863,0.00093872,-0.00079106,0.00027839,-0.
 00014919,0.00030152,-0.00021244,0.00005792,0.00001294,0.00004972,-0.00
 062219,0.00006487,0.00075009,0.00012172,-0.00022329,-0.00009853,0.0002
 3067,0.00026106,-0.00006441,-0.00004270,-0.00000899,-0.00005569,0.0001
 6194,0.00011671,-0.00000668,-0.00016270,-0.00006662,-0.00001738,0.0001
 0010,-0.00003723,-0.00003029,-0.00009603,-0.00001450,0.00002311,0.0000
 1854,0.00006624,0.00000561,-0.00109318,0.00144375,-0.00121698,0.000105
 68,0.00021798,0.00049653,0.00008804,-0.00018485,0.00005097,0.00062616,
 -0.00016675,-0.00006781,0.00015684,0.00040955,0.00010293,-0.00000538,-
 0.00004200,-0.00001208,-0.00407332,0.00085675,-0.00323929,-0.00033729,
 -0.00126462,0.00062185,-0.00032855,-0.00011858,0.00039334,-0.00016139,
 -0.00011236,-0.00002709,0.00849713,-0.03300196,-0.01039144,0.00056741,
 -0.00294325,0.00244276,0.00002930,0.00003404,-0.00017818,0.00023218,-0
 .00044712,-0.00012755,0.00073748,0.00006883,-0.00266770,-0.00260782,0.
 00153588,0.00376773,-0.00417387,0.00874300,0.01251226,0.08012762,-0.14
 742753,-0.09453883,0.00006216,0.00005884,-0.00013616,-0.00003493,0.000
 01810,-0.00001123,0.00001317,0.00000556,0.00000015,0.00000386,-0.00000
 133,0.00000571,0.00000787,0.00000113,-0.00000277,0.00000242,-0.0000101
 5,-0.00000285,0.00000956,-0.00001817,-0.00000978,0.00000475,-0.0000197
 6,-0.00002674,0.00000450,-0.00013017,0.00000518,-0.00003575,0.00000907
 ,0.00001846,-0.00009024,-0.00002597,-0.00004690,0.00007083,0.00006012,
 0.00004884,-0.00043658,0.00062561,0.00021445,0.00036162,0.00003246,0.0
 0170782,-0.07937674,0.17244428,0.00043910,-0.00093721,-0.00018335,0.00
 010970,0.00096745,0.00000945,0.00006978,0.00010989,-0.00008813,-0.0011
 5743,0.00005520,0.00090083,0.00009574,-0.00028385,-0.00003825,0.000337
 38,0.00040358,-0.00003121,-0.00022220,-0.00004960,-0.00003229,0.000259
 88,-0.00005285,-0.00004723,-0.00009304,0.00015848,0.00002036,-0.000150
 63,-0.00033409,0.00001443,0.00005773,-0.00007017,-0.00000827,-0.000089
 53,-0.00005447,-0.00001520,-0.00435838,0.00374075,-0.00022275,0.000433
 82,0.00009848,0.00028888,0.00018038,-0.00012453,-0.00005586,-0.0000845
 8,-0.00059118,0.00001713,-0.00032224,0.00059871,0.00018761,0.00049908,
 -0.00022716,-0.00014062,0.00058568,-0.00065447,0.00065807,0.00146219,0
 .00058634,-0.00059921,-0.00047898,-0.00009310,-0.00020178,0.00041768,0
 .00047788,-0.00003926,-0.00286793,0.00674497,0.00681942,-0.00119680,-0
 .00097370,0.00220581,-0.00131128,-0.00111921,-0.00042563,-0.00141163,0
 .00112684,-0.00010414,-0.00044168,-0.00294715,-0.00229956,0.00018380,0
 .00272382,-0.00396925,0.01882178,-0.01331667,-0.02034218,0.07285276,-0
 .08552553,-0.12095795,0.00012842,0.00003526,0.00001192,0.00001161,0.00
 002366,-0.00000859,0.00002582,0.00000986,0.00000075,0.00000257,-0.0000
 1333,0.00000269,0.00000772,-0.00000946,-0.00000566,0.00000307,-0.00001
 364,-0.00000173,0.00001636,-0.00002794,-0.00002132,-0.00002533,-0.0000
 3665,0.00002604,0.00000478,0.00001761,0.00000684,-0.00000264,0.0000427
 1,0.00006494,-0.00015966,-0.00022537,-0.00004605,-0.00003609,0.0000877
 6,-0.00003948,-0.00020352,-0.00029157,0.00003800,-0.00123116,0.0009774
 8,-0.00440322,-0.07997982,0.08866023,0.14259800,-0.01118938,0.00596765
 ,0.00948148,-0.00075500,-0.00377705,-0.00290746,-0.00112339,0.00085411
 ,0.00068717,0.00205271,0.00162663,0.00397517,-0.00075387,0.00008100,0.
 00030151,-0.00115056,0.00160200,0.00044196,0.00065564,-0.00036161,-0.0
 0074535,-0.00029380,0.00044277,0.00022314,-0.00000075,0.00040353,-0.00
 026335,-0.00062173,-0.00095174,0.00000672,0.00006892,0.00013725,0.0000
 3084,-0.00012612,-0.00018708,-0.00005565,-0.16824703,-0.02126884,0.152
 61477,-0.01538841,-0.00386709,0.01078461,0.00382230,-0.00470225,0.0003
 0023,0.00144424,0.00066535,0.00001766,-0.00011899,-0.00040409,0.000050
 92,0.00073884,0.00028846,-0.00010847,-0.00056936,-0.00026918,0.0004607
 6,0.00028981,-0.00003264,0.00012349,0.00009974,0.00023439,-0.00000205,
 0.00011637,0.00009210,-0.00000013,0.00063334,0.00072569,-0.00079590,0.
 00008733,0.00062967,-0.00011288,0.00008582,-0.00042858,0.00028793,-0.0
 0002273,0.00042370,-0.00006949,0.00044950,0.00101663,-0.00126564,-0.00
 287892,0.00024481,0.00143431,0.00324773,-0.00123125,0.00265198,-0.0132
 3658,-0.00210093,-0.01748868,0.00002779,0.00032919,-0.00171576,-0.0007
 0101,0.00007010,0.00002333,0.00000107,-0.00003156,0.00001586,0.0000007
 5,-0.00000545,0.00006588,-0.00001189,0.00003662,-0.00000189,-0.0000069
 4,0.00001221,0.00000458,-0.00000014,0.00002906,-0.00000915,0.00002235,
 0.00002122,0.00001356,-0.00000485,0.00000726,-0.00000447,-0.00000241,-
 0.00000738,-0.00000547,0.00007590,0.00002568,-0.00008798,0.00004153,-0
 .00000904,0.00002870,0.00010836,0.00026592,0.00008481,-0.00016545,-0.0
 0039242,0.00028404,-0.00104300,0.00048967,-0.00118226,0.20434226,0.019
 28084,0.00461654,-0.01742947,0.00025904,0.00155507,0.00139866,0.000411
 25,-0.00036424,-0.00001778,0.00078099,-0.00345327,-0.00308199,0.001645
 46,0.00026229,0.00009430,0.00116017,-0.00168340,-0.00040021,-0.0004960
 3,0.00053195,0.00041014,0.00001747,-0.00046080,-0.00009884,0.00006628,
 -0.00020732,0.00019565,0.00006705,0.00043537,0.00000112,0.00019085,0.0
 0006373,-0.00005733,0.00009367,-0.00013556,-0.00006246,-0.02631432,-0.
 05456571,0.01222379,-0.01786530,0.00232162,0.01805935,-0.00345842,-0.0
 0328352,-0.00075207,-0.00040844,-0.00028327,0.00001923,0.00008317,-0.0
 0005369,-0.00005846,-0.00031390,0.00000807,0.00009280,0.00022045,0.000
 57019,0.00009094,-0.00061189,-0.00031687,0.00018515,0.00002521,0.00000
 408,-0.00001049,-0.00005374,-0.00012434,0.00001526,-0.00133225,-0.0000
 5019,-0.00124950,-0.00001847,-0.00048456,-0.00050081,0.00029271,0.0006
 2311,-0.00010390,0.00039040,-0.00048719,0.00009653,-0.00051142,0.00049
 833,0.00012064,0.00031179,-0.00072482,-0.00015681,-0.00028425,0.000479
 57,-0.00148671,0.00270357,0.00171642,0.00471410,0.00075488,0.00061799,
 0.00017074,-0.00139245,0.00023554,-0.00050098,0.00004777,-0.00000188,-
 0.00003197,-0.00000621,0.00001660,-0.00001194,-0.00000343,-0.00003746,
 -0.00003060,-0.00000279,0.00000359,-0.00000230,-0.00000639,-0.00000027
 ,0.00000243,-0.00000063,0.00000618,-0.00001742,0.00000335,-0.00000014,
 -0.00000646,0.00001176,-0.00002530,-0.00001832,0.00000106,-0.00000333,
 -0.00001132,0.00000726,0.00005894,0.00012205,0.00002493,-0.00007240,-0
 .00006135,0.00001966,0.00013936,-0.00005427,0.00090381,-0.00033206,0.0
 0032592,0.02330547,0.05238703,0.00230335,0.00967310,-0.00118592,-0.001
 16295,-0.00287270,-0.00139336,-0.00070238,0.00020539,0.00064354,0.0004
 8014,-0.00207462,0.00246909,0.00071463,0.00054548,0.00023216,-0.001534
 29,0.00119152,0.00039238,0.00069251,-0.00033363,-0.00075368,-0.0002979
 2,0.00052401,0.00025252,-0.00026690,-0.00004697,-0.00018683,-0.0005107
 0,-0.00062450,0.00001001,0.00020388,0.00006473,-0.00001070,-0.00006159
 ,-0.00023665,-0.00007578,0.17412187,0.01246325,-0.17086837,-0.00615380
 ,-0.00441613,0.00392255,0.00221635,-0.00179231,0.00092141,0.00113457,0
 .00042675,-0.00052698,-0.00026886,-0.00044952,-0.00001391,0.00056120,0
 .00027746,-0.00007409,-0.00091726,-0.00156917,-0.00038459,0.00088250,0
 .00024153,-0.00003986,0.00007447,0.00013991,0.00005307,0.00015412,0.00
 011395,0.00000374,0.00240380,-0.00072262,0.00172713,-0.00044198,0.0016
 1753,0.00019133,-0.00014921,-0.00097138,0.00054884,-0.00034989,0.00081
 324,-0.00020465,0.00109074,-0.00038392,0.00022399,-0.00029561,0.001329
 28,0.00072139,0.00140057,-0.00045315,0.00232225,-0.01652685,-0.0010013
 2,-0.02181963,-0.00035052,0.00050945,-0.00061087,-0.00008061,-0.000109
 98,-0.00011648,0.00003506,-0.00001123,0.00000212,0.00002507,-0.0000084
 5,0.00007072,-0.00000740,-0.00001545,-0.00003593,-0.00000458,0.0000039
 1,0.00000542,-0.00000878,0.00001435,0.00000218,0.00001257,0.00001369,0
 .00002208,-0.00000223,0.00000761,0.00000201,-0.00000726,0.00001460,-0.
 00001296,0.00007075,0.00005941,0.00001065,-0.00000218,-0.00002756,0.00
 000073,0.00001686,0.00012344,-0.00003800,-0.00054967,-0.00115996,-0.00
 017057,-0.00036818,0.00103269,0.00045700,-0.15757339,-0.01212508,0.183
 31483\\0.,0.00000025,-0.00000044,0.,-0.00000023,-0.00000041,-0.0000002
 7,-0.00000045,-0.00000121,0.00000057,-0.00000069,-0.00000117,-0.000000
 16,-0.00000047,-0.00000170,0.00000072,-0.00000071,-0.00000164,0.000000
 34,-0.00000105,-0.00000255,-0.00000013,-0.00000112,-0.00000293,-0.0000
 0027,-0.00000093,-0.00000251,-0.00000071,-0.00000050,-0.00000136,-0.00
 000098,-0.00000070,-0.00000223,-0.00000093,-0.00000098,-0.00000277,0.0
 0000025,0.00000067,-0.00000010,0.00000154,-0.00000060,-0.00000018,0.00
 000124,-0.00000060,-0.00000104,0.,-0.00000005,0.,-0.00000056,0.0000002
 2,0.00000011,-0.00000080,-0.00000016,-0.00000086,-0.00000003,0.0000004
 3,0.00000154,-0.00000013,0.00000077,0.00000185,-0.00000057,0.00000064,
 0.00000159,-0.00000058,0.00000041,0.00000063,-0.00000017,0.00000065,0.
 00000146,0.00000031,0.00000055,0.00000235,-0.00000006,0.00000103,0.000
 00296,-0.00000011,0.00000102,0.00000264,-0.00000002,0.00000093,0.00000
 220,-0.00000115,0.00000137,0.00000141,-0.00000130,-0.00000043,0.000001
 50,0.00000266,-0.00000027,-0.00000048,0.00000187,-0.00000022,-0.000000
 21,0.00000149,-0.00000074,-0.00000149,0.00000061,-0.00000118,-0.000002
 91,-0.00000027,-0.00000133,-0.00000360,-0.00000109,-0.00000115,-0.0000
 0339,-0.00000139,-0.00000076,-0.00000244,-0.00000114,-0.00000020,-0.00
 000083,-0.00000092,0.00000030,0.00000057,-0.00000053,0.00000083,0.0000
 0199,-0.00000015,0.00000118,0.00000305,0.00000010,0.00000129,0.0000034
 9,0.00000002,0.00000122,0.00000310,-0.00000080,0.00000096,0.00000216,-
 0.00000037,0.00000043,0.00000100,0.00000178,0.00000057,0.00000179,0.00
 000210,-0.00000023,0.00000106\\\@


 REALITY IS FOR PEOPLE WHO CAN'T FACE SCIENCE FICTION.
 Job cpu time:       0 days 23 hours 34 minutes  7.3 seconds.
 Elapsed time:       0 days  1 hours 10 minutes 54.2 seconds.
 File lengths (MBytes):  RWF=   2279 Int=      0 D2E=      0 Chk=     47 Scr=      1
 Normal termination of Gaussian 16 at Fri Aug 30 19:37:15 2019.
